                         Program Version 4.2.0 -  RELEASE  -
|  1> ! ri-mp2 cc-pvtz cc-pvtz/c TightSCF  NoKeepInts
|  2>
|  3> %scf
|  4>   MaxCore 4096
|  5> end
|  6> *xyz  0  1
|  7>     C       15.5647275   13.3278484   16.6531745
|  8>     C       15.7049062   14.8453213   16.8561664
|  9>     O       16.9569671   15.2448022   16.2693964
| 10>     C       17.1525805   16.5777332   16.0657276
| 11>     O       16.5899262   17.1184376   15.1313763
| 12>     C       17.6165738   17.3175752   17.2932835
| 13>     C       17.4076102   18.6487874   17.4656800
| 14>     C       16.5901155   19.5752266   16.5911103
| 15>     N       18.0319512   19.3220584   18.5208156
| 16>     C       19.0502309   18.8017338   19.2756355
| 17>     S       19.8883500   19.7169525   20.3687321
| 18>     N       19.3468767   17.4784590   19.0660678
| 19>     C       18.5054904   16.5496944   18.2892358
| 20>     C       17.7265364   15.6660698   19.2570004
| 21>     C       17.9857758   14.2838473   19.3207764
| 22>     C       17.2702824   13.4622278   20.2078636
| 23>     C       16.2921184   14.0273369   21.0435718
| 24>     C       16.0389520   15.4047004   20.9913406
| 25>     O       15.0945953   15.9535767   21.7957192
| 26>     C       16.7504707   16.2198353   20.1056270
| 27>     H       14.6086458   12.9727310   17.0561689
| 28>     H       16.3735424   12.7931770   17.1658733
| 29>     H       15.6038002   13.0759922   15.5859331
| 30>     H       14.8750834   15.3471952   16.3396344
| 31>     H       15.6433602   15.0981868   17.9189485
| 32>     H       15.5860833   19.1651512   16.4240043
| 33>     H       17.0629316   19.6920993   15.6074021
| 34>     H       16.4675607   20.5751273   17.0235514
| 35>     H       17.8377486   20.2992937   18.6715029
| 36>     H       20.0871672   17.1146695   19.6524167
| 37>     H       19.1762296   15.9056109   17.7029638
| 38>     H       18.7385041   13.8422030   18.6727480
| 39>     H       17.4756525   12.3936397   20.2466380
| 40>     H       15.7375901   13.3965724   21.7308353
| 41>     H       14.7646719   15.2538887   22.3796910
| 42>     H       16.5433911   17.2842377   20.0873876
| 43> *
| 44>
| 45>                          ****END OF INPUT****

CARTESIAN COORDINATES (ANGSTROEM)
---------------------------------
  C     15.564728   13.327848   16.653174
  C     15.704906   14.845321   16.856166
  O     16.956967   15.244802   16.269396
  C     17.152580   16.577733   16.065728
  O     16.589926   17.118438   15.131376
  C     17.616574   17.317575   17.293284
  C     17.407610   18.648787   17.465680
  C     16.590115   19.575227   16.591110
  N     18.031951   19.322058   18.520816
  C     19.050231   18.801734   19.275635
  S     19.888350   19.716953   20.368732
  N     19.346877   17.478459   19.066068
  C     18.505490   16.549694   18.289236
  C     17.726536   15.666070   19.257000
  C     17.985776   14.283847   19.320776
  C     17.270282   13.462228   20.207864
  C     16.292118   14.027337   21.043572
  C     16.038952   15.404700   20.991341
  O     15.094595   15.953577   21.795719
  C     16.750471   16.219835   20.105627
  H     14.608646   12.972731   17.056169
  H     16.373542   12.793177   17.165873
  H     15.603800   13.075992   15.585933
  H     14.875083   15.347195   16.339634
  H     15.643360   15.098187   17.918948
  H     15.586083   19.165151   16.424004
  H     17.062932   19.692099   15.607402
  H     16.467561   20.575127   17.023551
  H     17.837749   20.299294   18.671503
  H     20.087167   17.114670   19.652417
  H     19.176230   15.905611   17.702964
  H     18.738504   13.842203   18.672748
  H     17.475652   12.393640   20.246638
  H     15.737590   13.396572   21.730835
  H     14.764672   15.253889   22.379691
  H     16.543391   17.284238   20.087388

 Total Charge           Charge          ....    0
 Multiplicity           Mult            ....    1
 Number of Electrons    NEL             ....  154
 Basis Dimension        Dim             ....  828

ORBITAL ENERGIES
----------------

  NO   OCC          E(Eh)            E(eV)
   0   2.0000     -91.891713     -2500.5006
   1   2.0000     -20.601872      -560.6054
   2   2.0000     -20.580613      -560.0270
   3   2.0000     -20.550661      -559.2119
   4   2.0000     -15.631861      -425.3646
   5   2.0000     -15.610502      -424.7834
   6   2.0000     -11.392298      -310.0002
   7   2.0000     -11.386182      -309.8338
   8   2.0000     -11.337953      -308.5214
   9   2.0000     -11.319867      -308.0292
  10   2.0000     -11.313632      -307.8596
  11   2.0000     -11.293537      -307.3128
  12   2.0000     -11.264584      -306.5249
  13   2.0000     -11.261105      -306.4302
  14   2.0000     -11.260399      -306.4110
  15   2.0000     -11.254105      -306.2398
  16   2.0000     -11.249025      -306.1015
  17   2.0000     -11.243409      -305.9487
  18   2.0000     -11.243256      -305.9446
  19   2.0000     -11.225662      -305.4658
  20   2.0000      -8.896726      -242.0922
  21   2.0000      -6.578288      -179.0043
  22   2.0000      -6.576297      -178.9501
  23   2.0000      -6.575698      -178.9338
  24   2.0000      -1.449179       -39.4342
  25   2.0000      -1.421597       -38.6836
  26   2.0000      -1.352835       -36.8125
  27   2.0000      -1.343096       -36.5475
  28   2.0000      -1.241461       -33.7819
  29   2.0000      -1.162614       -31.6363
  30   2.0000      -1.121803       -30.5258
  31   2.0000      -1.046786       -28.4845
  32   2.0000      -1.033466       -28.1220
  33   2.0000      -1.021076       -27.7849
  34   2.0000      -0.999042       -27.1853
  35   2.0000      -0.986652       -26.8482
  36   2.0000      -0.926323       -25.2065
  37   2.0000      -0.876860       -23.8606
  38   2.0000      -0.849984       -23.1292
  39   2.0000      -0.843645       -22.9567
  40   2.0000      -0.839351       -22.8399
  41   2.0000      -0.831204       -22.6182
  42   2.0000      -0.761116       -20.7110
  43   2.0000      -0.736543       -20.0424
  44   2.0000      -0.725003       -19.7283
  45   2.0000      -0.701206       -19.0808
  46   2.0000      -0.692142       -18.8342
  47   2.0000      -0.680106       -18.5066
  48   2.0000      -0.673093       -18.3158
  49   2.0000      -0.657315       -17.8865
  50   2.0000      -0.649181       -17.6651
  51   2.0000      -0.644473       -17.5370
  52   2.0000      -0.632959       -17.2237
  53   2.0000      -0.621630       -16.9154
  54   2.0000      -0.611938       -16.6517
  55   2.0000      -0.604058       -16.4373
  56   2.0000      -0.601447       -16.3662
  57   2.0000      -0.582178       -15.8419
  58   2.0000      -0.573179       -15.5970
  59   2.0000      -0.565524       -15.3887
  60   2.0000      -0.553987       -15.0748
  61   2.0000      -0.542552       -14.7636
  62   2.0000      -0.534354       -14.5405
  63   2.0000      -0.530151       -14.4261
  64   2.0000      -0.518124       -14.0989
  65   2.0000      -0.515579       -14.0296
  66   2.0000      -0.506814       -13.7911
  67   2.0000      -0.500409       -13.6168
  68   2.0000      -0.483918       -13.1681
  69   2.0000      -0.466353       -12.6901
  70   2.0000      -0.457837       -12.4584
  71   2.0000      -0.444846       -12.1049
  72   2.0000      -0.358968        -9.7680
  73   2.0000      -0.353951        -9.6315
  74   2.0000      -0.331352        -9.0166
  75   2.0000      -0.327493        -8.9115
  76   2.0000      -0.318627        -8.6703
  77   0.0000       0.067177         1.8280
  78   0.0000       0.101231         2.7546
  79   0.0000       0.121057         3.2941
  80   0.0000       0.126469         3.4414
  81   0.0000       0.131635         3.5820

MULLIKEN ATOMIC CHARGES
-----------------------
   0 C :   -0.267292
   1 C :    0.018483
   2 O :   -0.376339
   3 C :    0.491272
   4 O :   -0.393226
   5 C :   -0.272220
   6 C :    0.153330
   7 C :   -0.270457
   8 N :   -0.125780
   9 C :    0.205279
  10 S :   -0.433315
  11 N :   -0.192087
  12 C :    0.035996
  13 C :    0.030376
  14 C :   -0.166647
  15 C :   -0.139472
  16 C :   -0.267581
  17 C :    0.301797
  18 O :   -0.356100
  19 C :   -0.251329
  20 H :    0.088431
  21 H :    0.090471
  22 H :    0.108148
  23 H :    0.111217
  24 H :    0.115563
  25 H :    0.127537
  26 H :    0.136991
  27 H :    0.094105
  28 H :    0.198659
  29 H :    0.191237
  30 H :    0.148190
  31 H :    0.154022
  32 H :    0.166421
  33 H :    0.133988
  34 H :    0.241647
  35 H :    0.168685
Sum of atomic charges:   -0.0000000

LOEWDIN ATOMIC CHARGES
----------------------
   0 C :    0.110520
   1 C :   -0.017285
   2 O :    0.285695
   3 C :   -0.422464
   4 O :    0.127237
   5 C :   -0.099506
   6 C :   -0.059542
   7 C :    0.130404
   8 N :    0.406665
   9 C :   -0.457933
  10 S :   -0.030858
  11 N :    0.396328
  12 C :   -0.053143
  13 C :   -0.040616
  14 C :    0.016018
  15 C :    0.043784
  16 C :   -0.000800
  17 C :   -0.191449
  18 O :    0.396766
  19 C :    0.030226
  20 H :   -0.025514
  21 H :   -0.031368
  22 H :   -0.024352
  23 H :   -0.030714
  24 H :   -0.036971
  25 H :   -0.005905
  26 H :   -0.003010
  27 H :   -0.023096
  28 H :   -0.057457
  29 H :   -0.065145
  30 H :   -0.006330
  31 H :   -0.029204
  32 H :   -0.019780
  33 H :   -0.034161
  34 H :   -0.152620
  35 H :   -0.024420

  Mayer bond orders larger than 0.100000
B(  0-C ,  1-C ) :   0.9820 B(  0-C , 20-H ) :   0.9756 B(  0-C , 21-H ) :   0.9779
B(  0-C , 22-H ) :   0.9785 B(  1-C ,  2-O ) :   0.8735 B(  1-C , 23-H ) :   0.9784
B(  1-C , 24-H ) :   0.9609 B(  2-O ,  3-C ) :   1.1164 B(  3-C ,  4-O ) :   2.0441
B(  3-C ,  5-C ) :   1.0342 B(  5-C ,  6-C ) :   1.6628 B(  5-C , 12-C ) :   0.9702
B(  6-C ,  7-C ) :   0.9706 B(  6-C ,  8-N ) :   1.1486 B(  7-C , 25-H ) :   0.9653
B(  7-C , 26-H ) :   0.9562 B(  7-C , 27-H ) :   0.9880 B(  8-N ,  9-C ) :   1.1777
B(  8-N , 28-H ) :   0.9485 B(  9-C , 10-S ) :   1.6188 B(  9-C , 11-N ) :   1.2987
B( 11-N , 12-C ) :   0.9818 B( 11-N , 29-H ) :   0.9543 B( 12-C , 13-C ) :   0.9461
B( 12-C , 30-H ) :   1.0040 B( 13-C , 14-C ) :   1.3606 B( 13-C , 19-C ) :   1.3692
B( 14-C , 15-C ) :   1.3814 B( 14-C , 31-H ) :   0.9709 B( 15-C , 16-C ) :   1.3674
B( 15-C , 32-H ) :   0.9685 B( 16-C , 17-C ) :   1.3266 B( 16-C , 33-H ) :   0.9834
B( 17-C , 18-O ) :   1.1152 B( 17-C , 19-C ) :   1.3812 B( 18-O , 34-H ) :   0.9790
B( 19-C , 35-H ) :   0.9565

MP2 TOTAL ENERGY:    -1274.326379328 Eh
FINAL SINGLE POINT ENERGY     -1274.326379328404

DIPOLE MOMENT
-------------
                                X             Y             Z
Electronic contribution:     10.00459      10.50690       5.53669
Nuclear contribution   :    -11.18172     -11.94914      -5.26068
                        -----------------------------------------
Total Dipole Moment    :     -1.17712      -1.44224       0.27601
                        -----------------------------------------
Magnitude (a.u.)       :      1.88198
Magnitude (Debye)      :      4.78362

Rotational constants in cm-1:     0.012204     0.009186     0.006379
Rotational constants in MHz :   365.875171   275.386004   191.250733

                             ****ORCA TERMINATED NORMALLY****
TOTAL RUN TIME: 0 days 2 hours 6 minutes 14 seconds 217 msec
