                         Program Version 4.2.0 -  RELEASE  -
|  1> ! ri-mp2 cc-pvtz cc-pvtz/c TightSCF  NoKeepInts
|  2>
|  3> %scf
|  4>   MaxCore 4096
|  5> end
|  6> *xyz  0  1
|  7>     C       15.9528390   13.1411931   15.9181728
|  8>     C       15.4615724   14.4922467   16.4638226
|  9>     O       16.6149953   15.3363289   16.6159649
| 10>     C       16.4628507   16.6937729   16.5836809
| 11>     O       15.5230349   17.2291514   16.0208528
| 12>     C       17.4289589   17.4043130   17.4914083
| 13>     C       17.4667804   18.7568883   17.5972855
| 14>     C       16.5978564   19.7577875   16.8660872
| 15>     N       18.4109466   19.3692319   18.4269109
| 16>     C       19.4115115   18.7134406   19.0931773
| 17>     S       20.5492001   19.5231419   19.9796915
| 18>     N       19.4250313   17.3462250   18.9853242
| 19>     C       18.3852176   16.5354598   18.3256639
| 20>     C       17.6392479   15.7069979   19.3682876
| 21>     C       17.7644288   14.3050368   19.3877450
| 22>     C       17.0721066   13.5383150   20.3400010
| 23>     C       16.2507421   14.1785475   21.2835924
| 24>     C       16.1280307   15.5747867   21.2706338
| 25>     O       15.3364028   16.1958154   22.1808894
| 26>     C       16.8171204   16.3349806   20.3207077
| 27>     H       15.1091630   12.4553923   15.7741516
| 28>     H       16.6587093   12.6761605   16.6172998
| 29>     H       16.4560717   13.2745172   14.9523725
| 30>     H       14.7492658   14.9198172   15.7448801
| 31>     H       14.9522855   14.3638650   17.4281489
| 32>     H       15.5441605   19.6273365   17.1443826
| 33>     H       16.6695235   19.6122808   15.7807290
| 34>     H       16.8707061   20.7982724   17.0776623
| 35>     H       18.4170311   20.3726809   18.5171176
| 36>     H       20.1526388   16.8882500   19.5188930
| 37>     H       18.8958579   15.8479187   17.6367176
| 38>     H       18.3942575   13.8074478   18.6551493
| 39>     H       17.1736794   12.4544713   20.3452974
| 40>     H       15.7147664   13.5910645   22.0217821
| 41>     H       14.9768038   15.5142254   22.7681981
| 42>     H       16.7132051   17.4146385   20.3313182
| 43> *
| 44>
| 45>                          ****END OF INPUT****

CARTESIAN COORDINATES (ANGSTROEM)
---------------------------------
  C     15.952839   13.141193   15.918173
  C     15.461572   14.492247   16.463823
  O     16.614995   15.336329   16.615965
  C     16.462851   16.693773   16.583681
  O     15.523035   17.229151   16.020853
  C     17.428959   17.404313   17.491408
  C     17.466780   18.756888   17.597286
  C     16.597856   19.757787   16.866087
  N     18.410947   19.369232   18.426911
  C     19.411511   18.713441   19.093177
  S     20.549200   19.523142   19.979692
  N     19.425031   17.346225   18.985324
  C     18.385218   16.535460   18.325664
  C     17.639248   15.706998   19.368288
  C     17.764429   14.305037   19.387745
  C     17.072107   13.538315   20.340001
  C     16.250742   14.178547   21.283592
  C     16.128031   15.574787   21.270634
  O     15.336403   16.195815   22.180889
  C     16.817120   16.334981   20.320708
  H     15.109163   12.455392   15.774152
  H     16.658709   12.676160   16.617300
  H     16.456072   13.274517   14.952372
  H     14.749266   14.919817   15.744880
  H     14.952286   14.363865   17.428149
  H     15.544160   19.627336   17.144383
  H     16.669524   19.612281   15.780729
  H     16.870706   20.798272   17.077662
  H     18.417031   20.372681   18.517118
  H     20.152639   16.888250   19.518893
  H     18.895858   15.847919   17.636718
  H     18.394257   13.807448   18.655149
  H     17.173679   12.454471   20.345297
  H     15.714766   13.591064   22.021782
  H     14.976804   15.514225   22.768198
  H     16.713205   17.414638   20.331318

 Total Charge           Charge          ....    0
 Multiplicity           Mult            ....    1
 Number of Electrons    NEL             ....  154
 Basis Dimension        Dim             ....  828

ORBITAL ENERGIES
----------------

  NO   OCC          E(Eh)            E(eV)
   0   2.0000     -91.889121     -2500.4301
   1   2.0000     -20.598191      -560.5053
   2   2.0000     -20.597169      -560.4775
   3   2.0000     -20.542441      -558.9882
   4   2.0000     -15.629258      -425.2937
   5   2.0000     -15.608549      -424.7302
   6   2.0000     -11.394317      -310.0551
   7   2.0000     -11.384247      -309.7811
   8   2.0000     -11.335901      -308.4655
   9   2.0000     -11.314534      -307.8841
  10   2.0000     -11.309504      -307.7473
  11   2.0000     -11.294469      -307.3381
  12   2.0000     -11.260368      -306.4102
  13   2.0000     -11.258756      -306.3663
  14   2.0000     -11.256044      -306.2925
  15   2.0000     -11.252132      -306.1861
  16   2.0000     -11.243776      -305.9587
  17   2.0000     -11.239150      -305.8328
  18   2.0000     -11.238867      -305.8251
  19   2.0000     -11.229708      -305.5759
  20   2.0000      -8.894180      -242.0229
  21   2.0000      -6.575753      -178.9353
  22   2.0000      -6.573750      -178.8808
  23   2.0000      -6.573162      -178.8648
  24   2.0000      -1.451145       -39.4877
  25   2.0000      -1.416828       -38.5538
  26   2.0000      -1.354566       -36.8596
  27   2.0000      -1.340228       -36.4695
  28   2.0000      -1.238761       -33.7084
  29   2.0000      -1.158245       -31.5174
  30   2.0000      -1.120556       -30.4919
  31   2.0000      -1.043464       -28.3941
  32   2.0000      -1.039349       -28.2821
  33   2.0000      -1.015893       -27.6438
  34   2.0000      -0.995911       -27.1001
  35   2.0000      -0.984562       -26.7913
  36   2.0000      -0.922884       -25.1129
  37   2.0000      -0.887059       -24.1381
  38   2.0000      -0.847016       -23.0485
  39   2.0000      -0.838065       -22.8049
  40   2.0000      -0.834683       -22.7129
  41   2.0000      -0.819149       -22.2902
  42   2.0000      -0.764369       -20.7995
  43   2.0000      -0.733114       -19.9490
  44   2.0000      -0.722530       -19.6610
  45   2.0000      -0.696197       -18.9445
  46   2.0000      -0.687227       -18.7004
  47   2.0000      -0.679134       -18.4802
  48   2.0000      -0.675341       -18.3770
  49   2.0000      -0.659057       -17.9339
  50   2.0000      -0.646698       -17.5976
  51   2.0000      -0.644346       -17.5336
  52   2.0000      -0.635357       -17.2889
  53   2.0000      -0.607785       -16.5387
  54   2.0000      -0.605948       -16.4887
  55   2.0000      -0.600226       -16.3330
  56   2.0000      -0.598419       -16.2838
  57   2.0000      -0.578292       -15.7361
  58   2.0000      -0.570975       -15.5370
  59   2.0000      -0.565832       -15.3971
  60   2.0000      -0.561351       -15.2751
  61   2.0000      -0.542129       -14.7521
  62   2.0000      -0.540076       -14.6962
  63   2.0000      -0.525723       -14.3057
  64   2.0000      -0.524870       -14.2824
  65   2.0000      -0.513807       -13.9814
  66   2.0000      -0.502622       -13.6770
  67   2.0000      -0.497929       -13.5493
  68   2.0000      -0.486272       -13.2321
  69   2.0000      -0.465880       -12.6772
  70   2.0000      -0.458066       -12.4646
  71   2.0000      -0.446172       -12.1410
  72   2.0000      -0.354380        -9.6432
  73   2.0000      -0.350069        -9.5259
  74   2.0000      -0.328506        -8.9391
  75   2.0000      -0.322105        -8.7649
  76   2.0000      -0.316323        -8.6076
  77   0.0000       0.074866         2.0372
  78   0.0000       0.105224         2.8633
  79   0.0000       0.124729         3.3941
  80   0.0000       0.131450         3.5769
  81   0.0000       0.136153         3.7049

MULLIKEN ATOMIC CHARGES
-----------------------
   0 C :   -0.263587
   1 C :    0.014711
   2 O :   -0.358173
   3 C :    0.466766
   4 O :   -0.427316
   5 C :   -0.232315
   6 C :    0.153576
   7 C :   -0.272209
   8 N :   -0.122178
   9 C :    0.211086
  10 S :   -0.439457
  11 N :   -0.204584
  12 C :    0.059073
  13 C :    0.058693
  14 C :   -0.187572
  15 C :   -0.131454
  16 C :   -0.279381
  17 C :    0.315489
  18 O :   -0.356011
  19 C :   -0.267701
  20 H :    0.091620
  21 H :    0.089410
  22 H :    0.098266
  23 H :    0.128314
  24 H :    0.104083
  25 H :    0.132870
  26 H :    0.130108
  27 H :    0.095102
  28 H :    0.197606
  29 H :    0.194731
  30 H :    0.150100
  31 H :    0.152297
  32 H :    0.160957
  33 H :    0.130794
  34 H :    0.240756
  35 H :    0.165529
Sum of atomic charges:   -0.0000000

LOEWDIN ATOMIC CHARGES
----------------------
   0 C :    0.106632
   1 C :   -0.015110
   2 O :    0.307004
   3 C :   -0.414485
   4 O :    0.099637
   5 C :   -0.095633
   6 C :   -0.059012
   7 C :    0.131608
   8 N :    0.406581
   9 C :   -0.456453
  10 S :   -0.035141
  11 N :    0.396363
  12 C :   -0.052309
  13 C :   -0.038442
  14 C :    0.014439
  15 C :    0.038344
  16 C :   -0.002282
  17 C :   -0.189604
  18 O :    0.395503
  19 C :    0.031454
  20 H :   -0.024975
  21 H :   -0.031493
  22 H :   -0.025754
  23 H :   -0.027466
  24 H :   -0.029886
  25 H :   -0.004394
  26 H :   -0.004044
  27 H :   -0.023354
  28 H :   -0.057523
  29 H :   -0.064588
  30 H :   -0.010531
  31 H :   -0.030972
  32 H :   -0.021373
  33 H :   -0.035489
  34 H :   -0.153800
  35 H :   -0.023450

  Mayer bond orders larger than 0.100000
B(  0-C ,  1-C ) :   0.9737 B(  0-C , 20-H ) :   0.9770 B(  0-C , 21-H ) :   0.9794
B(  0-C , 22-H ) :   0.9776 B(  1-C ,  2-O ) :   0.8808 B(  1-C , 23-H ) :   0.9780
B(  1-C , 24-H ) :   0.9716 B(  2-O ,  3-C ) :   1.1584 B(  3-C ,  4-O ) :   1.9898
B(  3-C ,  5-C ) :   1.0550 B(  5-C ,  6-C ) :   1.6552 B(  5-C , 12-C ) :   0.9726
B(  6-C ,  7-C ) :   0.9669 B(  6-C ,  8-N ) :   1.1623 B(  7-C , 25-H ) :   0.9594
B(  7-C , 26-H ) :   0.9612 B(  7-C , 27-H ) :   0.9905 B(  8-N ,  9-C ) :   1.1832
B(  8-N , 28-H ) :   0.9479 B(  9-C , 10-S ) :   1.6080 B(  9-C , 11-N ) :   1.3048
B( 11-N , 12-C ) :   0.9871 B( 11-N , 29-H ) :   0.9517 B( 12-C , 13-C ) :   0.9342
B( 12-C , 30-H ) :   1.0027 B( 13-C , 14-C ) :   1.3587 B( 13-C , 19-C ) :   1.3831
B( 14-C , 15-C ) :   1.3891 B( 14-C , 31-H ) :   0.9714 B( 15-C , 16-C ) :   1.3634
B( 15-C , 32-H ) :   0.9703 B( 16-C , 17-C ) :   1.3317 B( 16-C , 33-H ) :   0.9848
B( 17-C , 18-O ) :   1.1111 B( 17-C , 19-C ) :   1.3720 B( 18-O , 34-H ) :   0.9798
B( 19-C , 35-H ) :   0.9580

MP2 TOTAL ENERGY:    -1274.347196868 Eh
FINAL SINGLE POINT ENERGY     -1274.347196868291

DIPOLE MOMENT
-------------
                                X             Y             Z
Electronic contribution:      9.21961      11.13326       7.79507
Nuclear contribution   :    -10.40181     -12.70959      -8.07527
                        -----------------------------------------
Total Dipole Moment    :     -1.18220      -1.57633      -0.28020
                        -----------------------------------------
Magnitude (a.u.)       :      1.99021
Magnitude (Debye)      :      5.05871

Rotational constants in cm-1:     0.011938     0.008455     0.006204
Rotational constants in MHz :   357.878489   253.487773   185.976477

                             ****ORCA TERMINATED NORMALLY****
TOTAL RUN TIME: 0 days 1 hours 48 minutes 43 seconds 475 msec
