                         Program Version 5.0.0 -  RELEASE  -
|  1> ! ri-mp2 cc-pvtz cc-pvtz/c TightSCF NoKeepInts
|  2>
|  3> %scf
|  4>   MaxCore 4096
|  5> end
|  6> *xyz  0  1
|  7>     C       14.7309315   14.7536071   17.4061984
|  8>     C       15.6918425   15.2028221   16.2933445
|  9>     O       17.0261608   14.9234781   16.7389549
| 10>     C       18.0485093   15.7822219   16.4611325
| 11>     O       19.1337816   15.3017685   16.1944369
| 12>     C       18.0067478   16.9497758   17.3851008
| 13>     C       17.5083639   18.1446672   16.9984645
| 14>     C       16.9287272   18.4905085   15.6437673
| 15>     N       17.5590283   19.2346061   17.8701098
| 16>     C       18.1966753   19.2312160   19.0837596
| 17>     S       18.2705579   20.5868623   20.0280131
| 18>     N       18.7687525   18.0459654   19.4777976
| 19>     C       18.6545133   16.7609131   18.7581283
| 20>     C       17.9163372   15.7201308   19.5947241
| 21>     C       18.3857267   14.3944919   19.6413891
| 22>     C       17.7090311   13.4206761   20.3944518
| 23>     C       16.5512851   13.7740424   21.1079271
| 24>     C       16.0781035   15.0921932   21.0610198
| 25>     O       14.9522045   15.4330367   21.7370837
| 26>     C       16.7534846   16.0601028   20.3107976
| 27>     H       14.9000966   13.6997081   17.6611222
| 28>     H       13.6880137   14.8680527   17.0872526
| 29>     H       14.8790866   15.3539182   18.3113790
| 30>     H       15.4851153   14.6557531   15.3641278
| 31>     H       15.5397588   16.2713224   16.1101343
| 32>     H       17.1571583   17.7311160   14.8861985
| 33>     H       17.3441525   19.4359964   15.2716693
| 34>     H       15.8388375   18.6021723   15.6986239
| 35>     H       17.1568349   20.1169285   17.5953193
| 36>     H       19.2135223   18.0679140   20.3866486
| 37>     H       19.6749791   16.3882349   18.5857741
| 38>     H       19.2698540   14.1143795   19.0729784
| 39>     H       18.0789438   12.3971362   20.4153109
| 40>     H       16.0234275   13.0238519   21.6871272
| 41>     H       14.6613743   14.6498558   22.2281460
| 42>     H       16.3650800   17.0725742   20.2855865
| 43> *
| 44>
| 45>                          ****END OF INPUT****

CARTESIAN COORDINATES (ANGSTROEM)
---------------------------------
  C     14.730931   14.753607   17.406198
  C     15.691842   15.202822   16.293344
  O     17.026161   14.923478   16.738955
  C     18.048509   15.782222   16.461133
  O     19.133782   15.301768   16.194437
  C     18.006748   16.949776   17.385101
  C     17.508364   18.144667   16.998465
  C     16.928727   18.490508   15.643767
  N     17.559028   19.234606   17.870110
  C     18.196675   19.231216   19.083760
  S     18.270558   20.586862   20.028013
  N     18.768753   18.045965   19.477798
  C     18.654513   16.760913   18.758128
  C     17.916337   15.720131   19.594724
  C     18.385727   14.394492   19.641389
  C     17.709031   13.420676   20.394452
  C     16.551285   13.774042   21.107927
  C     16.078104   15.092193   21.061020
  O     14.952205   15.433037   21.737084
  C     16.753485   16.060103   20.310798
  H     14.900097   13.699708   17.661122
  H     13.688014   14.868053   17.087253
  H     14.879087   15.353918   18.311379
  H     15.485115   14.655753   15.364128
  H     15.539759   16.271322   16.110134
  H     17.157158   17.731116   14.886199
  H     17.344152   19.435996   15.271669
  H     15.838837   18.602172   15.698624
  H     17.156835   20.116928   17.595319
  H     19.213522   18.067914   20.386649
  H     19.674979   16.388235   18.585774
  H     19.269854   14.114379   19.072978
  H     18.078944   12.397136   20.415311
  H     16.023428   13.023852   21.687127
  H     14.661374   14.649856   22.228146
  H     16.365080   17.072574   20.285587

 Total Charge           Charge          ....    0
 Multiplicity           Mult            ....    1
 Number of Electrons    NEL             ....  154
 Basis Dimension        Dim             ....  828

ORBITAL ENERGIES
----------------

  NO   OCC          E(Eh)            E(eV)
   0   2.0000     -91.886076     -2500.3472
   1   2.0000     -20.596996      -560.4727
   2   2.0000     -20.596992      -560.4726
   3   2.0000     -20.564747      -559.5952
   4   2.0000     -15.620732      -425.0617
   5   2.0000     -15.609115      -424.7456
   6   2.0000     -11.395213      -310.0795
   7   2.0000     -11.383002      -309.7472
   8   2.0000     -11.319799      -308.0274
   9   2.0000     -11.315422      -307.9083
  10   2.0000     -11.312891      -307.8394
  11   2.0000     -11.305943      -307.6504
  12   2.0000     -11.269240      -306.6516
  13   2.0000     -11.264619      -306.5259
  14   2.0000     -11.260236      -306.4066
  15   2.0000     -11.253450      -306.2220
  16   2.0000     -11.242420      -305.9218
  17   2.0000     -11.237946      -305.8001
  18   2.0000     -11.236061      -305.7488
  19   2.0000     -11.229325      -305.5655
  20   2.0000      -8.891229      -241.9426
  21   2.0000      -6.572831      -178.8558
  22   2.0000      -6.570792      -178.8003
  23   2.0000      -6.570231      -178.7851
  24   2.0000      -1.459458       -39.7139
  25   2.0000      -1.416722       -38.5510
  26   2.0000      -1.366010       -37.1710
  27   2.0000      -1.335671       -36.3455
  28   2.0000      -1.236377       -33.6435
  29   2.0000      -1.157302       -31.4918
  30   2.0000      -1.122675       -30.5495
  31   2.0000      -1.046295       -28.4711
  32   2.0000      -1.040496       -28.3133
  33   2.0000      -1.015296       -27.6276
  34   2.0000      -1.002571       -27.2813
  35   2.0000      -0.985900       -26.8277
  36   2.0000      -0.925300       -25.1787
  37   2.0000      -0.885187       -24.0872
  38   2.0000      -0.850942       -23.1553
  39   2.0000      -0.838095       -22.8057
  40   2.0000      -0.833614       -22.6838
  41   2.0000      -0.833050       -22.6684
  42   2.0000      -0.760650       -20.6983
  43   2.0000      -0.735049       -20.0017
  44   2.0000      -0.729040       -19.8382
  45   2.0000      -0.695907       -18.9366
  46   2.0000      -0.691420       -18.8145
  47   2.0000      -0.683503       -18.5991
  48   2.0000      -0.676495       -18.4084
  49   2.0000      -0.663878       -18.0650
  50   2.0000      -0.650936       -17.7129
  51   2.0000      -0.638440       -17.3728
  52   2.0000      -0.629926       -17.1412
  53   2.0000      -0.628404       -17.0997
  54   2.0000      -0.609858       -16.5951
  55   2.0000      -0.604674       -16.4540
  56   2.0000      -0.600725       -16.3466
  57   2.0000      -0.588186       -16.0054
  58   2.0000      -0.575565       -15.6619
  59   2.0000      -0.566467       -15.4143
  60   2.0000      -0.562865       -15.3163
  61   2.0000      -0.553378       -15.0582
  62   2.0000      -0.538728       -14.6595
  63   2.0000      -0.526539       -14.3279
  64   2.0000      -0.519277       -14.1303
  65   2.0000      -0.511566       -13.9204
  66   2.0000      -0.499497       -13.5920
  67   2.0000      -0.499056       -13.5800
  68   2.0000      -0.490619       -13.3504
  69   2.0000      -0.466041       -12.6816
  70   2.0000      -0.460454       -12.5296
  71   2.0000      -0.453733       -12.3467
  72   2.0000      -0.353759        -9.6263
  73   2.0000      -0.347173        -9.4471
  74   2.0000      -0.326064        -8.8727
  75   2.0000      -0.320294        -8.7156
  76   2.0000      -0.314319        -8.5531
  77   0.0000       0.090855         2.4723
  78   0.0000       0.098821         2.6890
  79   0.0000       0.108767         2.9597
  80   0.0000       0.125994         3.4285
  81   0.0000       0.129961         3.5364

MULLIKEN ATOMIC CHARGES
-----------------------
   0 C :   -0.278574
   1 C :    0.018995
   2 O :   -0.309633
   3 C :    0.369514
   4 O :   -0.350913
   5 C :   -0.116116
   6 C :    0.118524
   7 C :   -0.332101
   8 N :   -0.135648
   9 C :    0.208242
  10 S :   -0.447679
  11 N :   -0.214644
  12 C :    0.034130
  13 C :    0.061126
  14 C :   -0.186568
  15 C :   -0.135737
  16 C :   -0.270790
  17 C :    0.320978
  18 O :   -0.362854
  19 C :   -0.293948
  20 H :    0.107260
  21 H :    0.095104
  22 H :    0.111672
  23 H :    0.113719
  24 H :    0.071084
  25 H :    0.117464
  26 H :    0.134218
  27 H :    0.123234
  28 H :    0.193621
  29 H :    0.198656
  30 H :    0.167151
  31 H :    0.157481
  32 H :    0.161613
  33 H :    0.131301
  34 H :    0.240808
  35 H :    0.179311
Sum of atomic charges:   -0.0000000

LOEWDIN ATOMIC CHARGES
----------------------
   0 C :    0.110761
   1 C :   -0.030907
   2 O :    0.327496
   3 C :   -0.427167
   4 O :    0.151446
   5 C :   -0.076605
   6 C :   -0.118056
   7 C :    0.119014
   8 N :    0.398741
   9 C :   -0.455428
  10 S :   -0.043423
  11 N :    0.397778
  12 C :   -0.040147
  13 C :   -0.039944
  14 C :    0.023784
  15 C :    0.044945
  16 C :   -0.001102
  17 C :   -0.193020
  18 O :    0.394627
  19 C :    0.027880
  20 H :   -0.023054
  21 H :   -0.027557
  22 H :   -0.025542
  23 H :   -0.030015
  24 H :   -0.037661
  25 H :   -0.012633
  26 H :   -0.011035
  27 H :   -0.018223
  28 H :   -0.060206
  29 H :   -0.063787
  30 H :   -0.003005
  31 H :   -0.024363
  32 H :   -0.019649
  33 H :   -0.035564
  34 H :   -0.153629
  35 H :   -0.024749

  Mayer bond orders larger than 0.100000
B(  0-C ,  1-C ) :   0.9799 B(  0-C , 20-H ) :   0.9771 B(  0-C , 21-H ) :   0.9777
B(  0-C , 22-H ) :   0.9731 B(  1-C ,  2-O ) :   0.9297 B(  1-C , 23-H ) :   0.9814
B(  1-C , 24-H ) :   0.9665 B(  2-O ,  3-C ) :   1.0802 B(  3-C ,  4-O ) :   2.1076
B(  3-C ,  5-C ) :   0.9323 B(  5-C ,  6-C ) :   1.7280 B(  5-C , 12-C ) :   0.9710
B(  6-C ,  7-C ) :   0.9374 B(  6-C ,  8-N ) :   1.1020 B(  7-C , 25-H ) :   0.9833
B(  7-C , 26-H ) :   0.9732 B(  7-C , 27-H ) :   0.9679 B(  8-N ,  9-C ) :   1.2043
B(  8-N , 28-H ) :   0.9547 B(  9-C , 10-S ) :   1.6033 B(  9-C , 11-N ) :   1.2846
B( 11-N , 12-C ) :   0.9942 B( 11-N , 29-H ) :   0.9476 B( 12-C , 13-C ) :   0.9463
B( 12-C , 30-H ) :   0.9995 B( 13-C , 14-C ) :   1.3799 B( 13-C , 19-C ) :   1.3440
B( 14-C , 15-C ) :   1.3978 B( 14-C , 31-H ) :   0.9668 B( 15-C , 16-C ) :   1.3620
B( 15-C , 32-H ) :   0.9706 B( 16-C , 17-C ) :   1.3322 B( 16-C , 33-H ) :   0.9847
B( 17-C , 18-O ) :   1.1009 B( 17-C , 19-C ) :   1.3600 B( 18-O , 34-H ) :   0.9803
B( 19-C , 35-H ) :   0.9571

MP2 TOTAL ENERGY:    -1274.309484653 Eh
FINAL SINGLE POINT ENERGY     -1274.309484653035

DIPOLE MOMENT
-------------
                                X             Y             Z
Electronic contribution:     10.23708       7.71130       6.67215
Nuclear contribution   :    -11.79868      -9.04410      -7.59090
                        -----------------------------------------
Total Dipole Moment    :     -1.56160      -1.33280      -0.91876
                        -----------------------------------------
Magnitude (a.u.)       :      2.24923
Magnitude (Debye)      :      5.71710

Rotational constants in cm-1:     0.012295     0.009168     0.006817
Rotational constants in MHz :   368.594230   274.835518   204.376105

                             ****ORCA TERMINATED NORMALLY****
TOTAL RUN TIME: 0 days 1 hours 59 minutes 0 seconds 661 msec
