                         Program Version 4.2.0 -  RELEASE  -
|  1> ! ri-mp2 cc-pvtz cc-pvtz/c TightSCF  NoKeepInts
|  2>
|  3> %scf
|  4>   MaxCore 4096
|  5> end
|  6> *xyz  0  1
|  7>     C       14.9411621   16.0841688   17.3389534
|  8>     C       15.5022166   14.9911813   16.4075738
|  9>     O       16.9359189   14.7677781   16.4406209
| 10>     C       17.9984997   15.6408735   16.4760374
| 11>     O       19.1056064   15.1812673   16.2665579
| 12>     C       17.8936117   16.8099238   17.3904911
| 13>     C       17.4898183   18.0141700   16.9300528
| 14>     C       17.0386092   18.3288358   15.5193557
| 15>     N       17.5443126   19.1345265   17.7613264
| 16>     C       18.0826941   19.1423276   19.0217754
| 17>     S       18.1356338   20.5204217   19.9342495
| 18>     N       18.5811530   17.9506902   19.4891791
| 19>     C       18.5203644   16.6556177   18.7803359
| 20>     C       17.8469633   15.5695316   19.6192377
| 21>     C       18.2469618   14.2282466   19.4704136
| 22>     C       17.6450491   13.2094072   20.2269500
| 23>     C       16.6339155   13.5318200   21.1471897
| 24>     C       16.2329347   14.8651078   21.3030643
| 25>     O       15.2513280   15.1792351   22.1853502
| 26>     C       16.8339512   15.8780678   20.5487663
| 27>     H       15.4011544   16.0422781   18.3292559
| 28>     H       13.8648639   15.9254966   17.4789554
| 29>     H       15.0540018   17.0863906   16.9196663
| 30>     H       15.0147677   14.0410911   16.6627754
| 31>     H       15.2035073   15.2309555   15.3789010
| 32>     H       17.8702366   18.7476140   14.9380248
| 33>     H       16.2197300   19.0588543   15.5113944
| 34>     H       16.6843577   17.4384729   14.9869473
| 35>     H       17.2127995   20.0254560   17.4266453
| 36>     H       18.9646239   17.9857428   20.4252926
| 37>     H       19.5591573   16.3299181   18.6209140
| 38>     H       19.0237257   13.9723944   18.7523931
| 39>     H       17.9620909   12.1763471   20.0946650
| 40>     H       16.1651596   12.7475659   21.7322827
| 41>     H       14.9906087   14.3604005   22.6333615
| 42>     H       16.4955105   16.8998239   20.6850442
| 43> *
| 44>
| 45>                          ****END OF INPUT****

CARTESIAN COORDINATES (ANGSTROEM)
---------------------------------
  C     14.941162   16.084169   17.338953
  C     15.502217   14.991181   16.407574
  O     16.935919   14.767778   16.440621
  C     17.998500   15.640873   16.476037
  O     19.105606   15.181267   16.266558
  C     17.893612   16.809924   17.390491
  C     17.489818   18.014170   16.930053
  C     17.038609   18.328836   15.519356
  N     17.544313   19.134526   17.761326
  C     18.082694   19.142328   19.021775
  S     18.135634   20.520422   19.934249
  N     18.581153   17.950690   19.489179
  C     18.520364   16.655618   18.780336
  C     17.846963   15.569532   19.619238
  C     18.246962   14.228247   19.470414
  C     17.645049   13.209407   20.226950
  C     16.633916   13.531820   21.147190
  C     16.232935   14.865108   21.303064
  O     15.251328   15.179235   22.185350
  C     16.833951   15.878068   20.548766
  H     15.401154   16.042278   18.329256
  H     13.864864   15.925497   17.478955
  H     15.054002   17.086391   16.919666
  H     15.014768   14.041091   16.662775
  H     15.203507   15.230956   15.378901
  H     17.870237   18.747614   14.938025
  H     16.219730   19.058854   15.511394
  H     16.684358   17.438473   14.986947
  H     17.212799   20.025456   17.426645
  H     18.964624   17.985743   20.425293
  H     19.559157   16.329918   18.620914
  H     19.023726   13.972394   18.752393
  H     17.962091   12.176347   20.094665
  H     16.165160   12.747566   21.732283
  H     14.990609   14.360400   22.633361
  H     16.495511   16.899824   20.685044

 Total Charge           Charge          ....    0
 Multiplicity           Mult            ....    1
 Number of Electrons    NEL             ....  154
 Basis Dimension        Dim             ....  828

ORBITAL ENERGIES
----------------

  NO   OCC          E(Eh)            E(eV)
   0   2.0000     -91.888278     -2500.4072
   1   2.0000     -20.598578      -560.5158
   2   2.0000     -20.597986      -560.4997
   3   2.0000     -20.553384      -559.2860
   4   2.0000     -15.623900      -425.1479
   5   2.0000     -15.610749      -424.7901
   6   2.0000     -11.399216      -310.1884
   7   2.0000     -11.385247      -309.8083
   8   2.0000     -11.322524      -308.1015
   9   2.0000     -11.315965      -307.9231
  10   2.0000     -11.314771      -307.8906
  11   2.0000     -11.311790      -307.8094
  12   2.0000     -11.269996      -306.6722
  13   2.0000     -11.263626      -306.4988
  14   2.0000     -11.262204      -306.4601
  15   2.0000     -11.254943      -306.2626
  16   2.0000     -11.243781      -305.9588
  17   2.0000     -11.240256      -305.8629
  18   2.0000     -11.236748      -305.7675
  19   2.0000     -11.233834      -305.6882
  20   2.0000      -8.893407      -242.0019
  21   2.0000      -6.575004      -178.9149
  22   2.0000      -6.572970      -178.8596
  23   2.0000      -6.572403      -178.8442
  24   2.0000      -1.446775       -39.3688
  25   2.0000      -1.417801       -38.5803
  26   2.0000      -1.356557       -36.9138
  27   2.0000      -1.337625       -36.3986
  28   2.0000      -1.238130       -33.6912
  29   2.0000      -1.158908       -31.5355
  30   2.0000      -1.124059       -30.5872
  31   2.0000      -1.047629       -28.5074
  32   2.0000      -1.041419       -28.3385
  33   2.0000      -1.017671       -27.6922
  34   2.0000      -1.004066       -27.3220
  35   2.0000      -0.989184       -26.9171
  36   2.0000      -0.926705       -25.2169
  37   2.0000      -0.901947       -24.5432
  38   2.0000      -0.851673       -23.1752
  39   2.0000      -0.839300       -22.8385
  40   2.0000      -0.834007       -22.6945
  41   2.0000      -0.828539       -22.5457
  42   2.0000      -0.746709       -20.3190
  43   2.0000      -0.734704       -19.9923
  44   2.0000      -0.730628       -19.8814
  45   2.0000      -0.694837       -18.9075
  46   2.0000      -0.685369       -18.6498
  47   2.0000      -0.676368       -18.4049
  48   2.0000      -0.674848       -18.3635
  49   2.0000      -0.666059       -18.1244
  50   2.0000      -0.654491       -17.8096
  51   2.0000      -0.652154       -17.7460
  52   2.0000      -0.637801       -17.3554
  53   2.0000      -0.611765       -16.6470
  54   2.0000      -0.607767       -16.5382
  55   2.0000      -0.602493       -16.3947
  56   2.0000      -0.599515       -16.3136
  57   2.0000      -0.594622       -16.1805
  58   2.0000      -0.586971       -15.9723
  59   2.0000      -0.575033       -15.6474
  60   2.0000      -0.565670       -15.3927
  61   2.0000      -0.558583       -15.1998
  62   2.0000      -0.543151       -14.7799
  63   2.0000      -0.528923       -14.3927
  64   2.0000      -0.514470       -13.9994
  65   2.0000      -0.511886       -13.9291
  66   2.0000      -0.500990       -13.6326
  67   2.0000      -0.500694       -13.6246
  68   2.0000      -0.486843       -13.2477
  69   2.0000      -0.465160       -12.6576
  70   2.0000      -0.455510       -12.3950
  71   2.0000      -0.450496       -12.2586
  72   2.0000      -0.353842        -9.6285
  73   2.0000      -0.347519        -9.4565
  74   2.0000      -0.328108        -8.9283
  75   2.0000      -0.322044        -8.7632
  76   2.0000      -0.316792        -8.6203
  77   0.0000       0.095601         2.6014
  78   0.0000       0.103370         2.8128
  79   0.0000       0.109633         2.9833
  80   0.0000       0.128269         3.4904
  81   0.0000       0.131038         3.5657

MULLIKEN ATOMIC CHARGES
-----------------------
   0 C :   -0.339574
   1 C :    0.031341
   2 O :   -0.330264
   3 C :    0.376020
   4 O :   -0.368974
   5 C :   -0.170437
   6 C :    0.141283
   7 C :   -0.313076
   8 N :   -0.143082
   9 C :    0.216294
  10 S :   -0.446137
  11 N :   -0.239737
  12 C :    0.108988
  13 C :    0.016833
  14 C :   -0.210151
  15 C :   -0.135610
  16 C :   -0.275329
  17 C :    0.326738
  18 O :   -0.357439
  19 C :   -0.286510
  20 H :    0.133781
  21 H :    0.121594
  22 H :    0.097190
  23 H :    0.123254
  24 H :    0.097247
  25 H :    0.151871
  26 H :    0.109256
  27 H :    0.109339
  28 H :    0.194635
  29 H :    0.205981
  30 H :    0.166713
  31 H :    0.168727
  32 H :    0.163684
  33 H :    0.131562
  34 H :    0.240972
  35 H :    0.183018
Sum of atomic charges:   -0.0000000

LOEWDIN ATOMIC CHARGES
----------------------
   0 C :    0.105068
   1 C :   -0.017936
   2 O :    0.301949
   3 C :   -0.420591
   4 O :    0.133276
   5 C :   -0.078752
   6 C :   -0.110308
   7 C :    0.123664
   8 N :    0.401346
   9 C :   -0.454057
  10 S :   -0.041040
  11 N :    0.398418
  12 C :   -0.040910
  13 C :   -0.041037
  14 C :    0.024372
  15 C :    0.044984
  16 C :   -0.001648
  17 C :   -0.193705
  18 O :    0.395045
  19 C :    0.024201
  20 H :   -0.026871
  21 H :   -0.021375
  22 H :   -0.034871
  23 H :   -0.016593
  24 H :   -0.034151
  25 H :   -0.006341
  26 H :   -0.016955
  27 H :   -0.013387
  28 H :   -0.059857
  29 H :   -0.064278
  30 H :   -0.003046
  31 H :   -0.021440
  32 H :   -0.018535
  33 H :   -0.035204
  34 H :   -0.153473
  35 H :   -0.025964

  Mayer bond orders larger than 0.100000
B(  0-C ,  1-C ) :   0.9519 B(  0-C , 20-H ) :   0.9654 B(  0-C , 21-H ) :   0.9803
B(  0-C , 22-H ) :   0.9757 B(  1-C ,  2-O ) :   0.9228 B(  1-C , 23-H ) :   0.9803
B(  1-C , 24-H ) :   0.9812 B(  2-O ,  3-C ) :   1.1178 B(  3-C ,  4-O ) :   2.0883
B(  3-C ,  5-C ) :   0.9246 B(  5-C ,  6-C ) :   1.7112 B(  5-C , 12-C ) :   0.9465
B(  6-C ,  7-C ) :   0.9420 B(  6-C ,  8-N ) :   1.1054 B(  7-C , 25-H ) :   0.9639
B(  7-C , 26-H ) :   0.9747 B(  7-C , 27-H ) :   0.9822 B(  8-N ,  9-C ) :   1.2053
B(  8-N , 28-H ) :   0.9522 B(  9-C , 10-S ) :   1.6001 B(  9-C , 11-N ) :   1.2878
B( 11-N , 12-C ) :   0.9826 B( 11-N , 29-H ) :   0.9440 B( 12-C , 13-C ) :   0.9591
B( 12-C , 30-H ) :   0.9944 B( 13-C , 14-C ) :   1.3879 B( 13-C , 19-C ) :   1.3360
B( 14-C , 15-C ) :   1.4051 B( 14-C , 31-H ) :   0.9619 B( 15-C , 16-C ) :   1.3548
B( 15-C , 32-H ) :   0.9698 B( 16-C , 17-C ) :   1.3354 B( 16-C , 33-H ) :   0.9849
B( 17-C , 18-O ) :   1.1064 B( 17-C , 19-C ) :   1.3631 B( 18-O , 34-H ) :   0.9797
B( 19-C , 35-H ) :   0.9574

MP2 TOTAL ENERGY:    -1274.312956431 Eh
FINAL SINGLE POINT ENERGY     -1274.312956430557

DIPOLE MOMENT
-------------
                                X             Y             Z
Electronic contribution:      9.42926       5.17648       6.87019
Nuclear contribution   :    -11.05359      -6.41730      -7.63091
                        -----------------------------------------
Total Dipole Moment    :     -1.62433      -1.24082      -0.76072
                        -----------------------------------------
Magnitude (a.u.)       :      2.18101
Magnitude (Debye)      :      5.54368

Rotational constants in cm-1:     0.012139     0.009299     0.006682
Rotational constants in MHz :   363.917338   278.791169   200.333718

                             ****ORCA TERMINATED NORMALLY****
TOTAL RUN TIME: 0 days 1 hours 50 minutes 12 seconds 180 msec
