                         Program Version 4.2.0 -  RELEASE  -
|  1> ! ri-mp2 cc-pvtz cc-pvtz/c TightSCF  NoKeepInts
|  2>
|  3> %scf
|  4>   MaxCore 4096
|  5> end
|  6> *xyz  0  1
|  7>     C       14.9847038   16.1135476   17.3958212
|  8>     C       15.6503579   14.7353877   17.1788930
|  9>     O       16.9854725   14.7400631   16.6029905
| 10>     C       17.8606641   15.7764919   16.3859649
| 11>     O       18.5341761   15.7981262   15.3726748
| 12>     C       17.8422354   16.9401870   17.3220670
| 13>     C       17.5904345   18.1876023   16.8622691
| 14>     C       17.1975092   18.5589864   15.4488387
| 15>     N       17.6777098   19.2845479   17.7222786
| 16>     C       18.0038591   19.2104711   19.0508038
| 17>     S       18.0138432   20.5474938   20.0236074
| 18>     N       18.3119287   17.9659085   19.5414826
| 19>     C       18.3637066   16.7185393   18.7533776
| 20>     C       17.7606104   15.5401935   19.5182559
| 21>     C       18.3302114   14.2591272   19.3865214
| 22>     C       17.8056951   13.1629673   20.0911833
| 23>     C       16.7068427   13.3474721   20.9466198
| 24>     C       16.1442866   14.6218858   21.0941173
| 25>     O       15.0817213   14.8045006   21.9170536
| 26>     C       16.6674029   15.7114438   20.3903621
| 27>     H       15.4376883   16.6837148   18.2107309
| 28>     H       13.9302933   15.9708794   17.6622577
| 29>     H       15.0096390   16.7107243   16.4773715
| 30>     H       15.6794980   14.2078258   18.1404922
| 31>     H       15.0036305   14.1414525   16.5202512
| 32>     H       16.5995013   17.7708632   14.9753543
| 33>     H       18.0940579   18.6953545   14.8303438
| 34>     H       16.6095971   19.4836759   15.4083767
| 35>     H       17.4743424   20.2085035   17.3748786
| 36>     H       18.5295899   17.9395852   20.5299701
| 37>     H       19.4319082   16.4836065   18.6392635
| 38>     H       19.1781505   14.1085402   18.7223268
| 39>     H       18.2511314   12.1764458   19.9717928
| 40>     H       16.2985254   12.5030394   21.4925264
| 41>     H       14.8963251   13.9565570   22.3488624
| 42>     H       16.2097504   16.6862891   20.5240185
| 43> *
| 44>
| 45>                          ****END OF INPUT****

CARTESIAN COORDINATES (ANGSTROEM)
---------------------------------
  C     14.984704   16.113548   17.395821
  C     15.650358   14.735388   17.178893
  O     16.985472   14.740063   16.602991
  C     17.860664   15.776492   16.385965
  O     18.534176   15.798126   15.372675
  C     17.842235   16.940187   17.322067
  C     17.590434   18.187602   16.862269
  C     17.197509   18.558986   15.448839
  N     17.677710   19.284548   17.722279
  C     18.003859   19.210471   19.050804
  S     18.013843   20.547494   20.023607
  N     18.311929   17.965908   19.541483
  C     18.363707   16.718539   18.753378
  C     17.760610   15.540193   19.518256
  C     18.330211   14.259127   19.386521
  C     17.805695   13.162967   20.091183
  C     16.706843   13.347472   20.946620
  C     16.144287   14.621886   21.094117
  O     15.081721   14.804501   21.917054
  C     16.667403   15.711444   20.390362
  H     15.437688   16.683715   18.210731
  H     13.930293   15.970879   17.662258
  H     15.009639   16.710724   16.477372
  H     15.679498   14.207826   18.140492
  H     15.003630   14.141452   16.520251
  H     16.599501   17.770863   14.975354
  H     18.094058   18.695355   14.830344
  H     16.609597   19.483676   15.408377
  H     17.474342   20.208503   17.374879
  H     18.529590   17.939585   20.529970
  H     19.431908   16.483607   18.639263
  H     19.178150   14.108540   18.722327
  H     18.251131   12.176446   19.971793
  H     16.298525   12.503039   21.492526
  H     14.896325   13.956557   22.348862
  H     16.209750   16.686289   20.524019

 Total Charge           Charge          ....    0
 Multiplicity           Mult            ....    1
 Number of Electrons    NEL             ....  154
 Basis Dimension        Dim             ....  828

ORBITAL ENERGIES
----------------

  NO   OCC          E(Eh)            E(eV)
   0   2.0000     -91.890302     -2500.4622
   1   2.0000     -20.604927      -560.6886
   2   2.0000     -20.590330      -560.2914
   3   2.0000     -20.549452      -559.1790
   4   2.0000     -15.626261      -425.2122
   5   2.0000     -15.612564      -424.8395
   6   2.0000     -11.396471      -310.1137
   7   2.0000     -11.386792      -309.8504
   8   2.0000     -11.325834      -308.1916
   9   2.0000     -11.322638      -308.1046
  10   2.0000     -11.319494      -308.0191
  11   2.0000     -11.305664      -307.6427
  12   2.0000     -11.272515      -306.7407
  13   2.0000     -11.263384      -306.4923
  14   2.0000     -11.259183      -306.3779
  15   2.0000     -11.257175      -306.3233
  16   2.0000     -11.252235      -306.1889
  17   2.0000     -11.248641      -306.0911
  18   2.0000     -11.247467      -306.0591
  19   2.0000     -11.235573      -305.7355
  20   2.0000      -8.895414      -242.0565
  21   2.0000      -6.577001      -178.9693
  22   2.0000      -6.574976      -178.9142
  23   2.0000      -6.574400      -178.8985
  24   2.0000      -1.439659       -39.1751
  25   2.0000      -1.424801       -38.7708
  26   2.0000      -1.352890       -36.8140
  27   2.0000      -1.339515       -36.4501
  28   2.0000      -1.240554       -33.7572
  29   2.0000      -1.166166       -31.7330
  30   2.0000      -1.123604       -30.5748
  31   2.0000      -1.050721       -28.5916
  32   2.0000      -1.037213       -28.2240
  33   2.0000      -1.024584       -27.8804
  34   2.0000      -1.003482       -27.3061
  35   2.0000      -0.989754       -26.9326
  36   2.0000      -0.928101       -25.2549
  37   2.0000      -0.900903       -24.5148
  38   2.0000      -0.851993       -23.1839
  39   2.0000      -0.845013       -22.9940
  40   2.0000      -0.840432       -22.8693
  41   2.0000      -0.829552       -22.5733
  42   2.0000      -0.747620       -20.3438
  43   2.0000      -0.738397       -20.0928
  44   2.0000      -0.722729       -19.6664
  45   2.0000      -0.703452       -19.1419
  46   2.0000      -0.689579       -18.7644
  47   2.0000      -0.676508       -18.4087
  48   2.0000      -0.675765       -18.3885
  49   2.0000      -0.659590       -17.9483
  50   2.0000      -0.658585       -17.9210
  51   2.0000      -0.652374       -17.7520
  52   2.0000      -0.638512       -17.3748
  53   2.0000      -0.618208       -16.8223
  54   2.0000      -0.613743       -16.7008
  55   2.0000      -0.608113       -16.5476
  56   2.0000      -0.604063       -16.4374
  57   2.0000      -0.582994       -15.8641
  58   2.0000      -0.578943       -15.7538
  59   2.0000      -0.569734       -15.5033
  60   2.0000      -0.568075       -15.4581
  61   2.0000      -0.555981       -15.1290
  62   2.0000      -0.541849       -14.7445
  63   2.0000      -0.532611       -14.4931
  64   2.0000      -0.525544       -14.3008
  65   2.0000      -0.516038       -14.0421
  66   2.0000      -0.505916       -13.7667
  67   2.0000      -0.494653       -13.4602
  68   2.0000      -0.489683       -13.3250
  69   2.0000      -0.468528       -12.7493
  70   2.0000      -0.452157       -12.3038
  71   2.0000      -0.446470       -12.1491
  72   2.0000      -0.359914        -9.7937
  73   2.0000      -0.348950        -9.4954
  74   2.0000      -0.330353        -8.9894
  75   2.0000      -0.329363        -8.9624
  76   2.0000      -0.318846        -8.6762
  77   0.0000       0.088259         2.4016
  78   0.0000       0.097603         2.6559
  79   0.0000       0.119659         3.2561
  80   0.0000       0.124028         3.3750
  81   0.0000       0.127356         3.4655

MULLIKEN ATOMIC CHARGES
-----------------------
   0 C :   -0.337124
   1 C :    0.034077
   2 O :   -0.333397
   3 C :    0.384815
   4 O :   -0.370090
   5 C :   -0.216021
   6 C :    0.158759
   7 C :   -0.294708
   8 N :   -0.137520
   9 C :    0.214967
  10 S :   -0.443115
  11 N :   -0.236123
  12 C :    0.105118
  13 C :   -0.011785
  14 C :   -0.188198
  15 C :   -0.130007
  16 C :   -0.280250
  17 C :    0.322911
  18 O :   -0.356471
  19 C :   -0.276971
  20 H :    0.112315
  21 H :    0.127912
  22 H :    0.104099
  23 H :    0.104972
  24 H :    0.128057
  25 H :    0.116120
  26 H :    0.147246
  27 H :    0.101135
  28 H :    0.196608
  29 H :    0.207541
  30 H :    0.161760
  31 H :    0.153652
  32 H :    0.164641
  33 H :    0.134505
  34 H :    0.242697
  35 H :    0.187872
Sum of atomic charges:   -0.0000000

LOEWDIN ATOMIC CHARGES
----------------------
   0 C :    0.103434
   1 C :   -0.010858
   2 O :    0.292222
   3 C :   -0.422932
   4 O :    0.128174
   5 C :   -0.086831
   6 C :   -0.086840
   7 C :    0.128437
   8 N :    0.404496
   9 C :   -0.455041
  10 S :   -0.038112
  11 N :    0.395639
  12 C :   -0.050635
  13 C :   -0.040366
  14 C :    0.023478
  15 C :    0.045274
  16 C :   -0.000315
  17 C :   -0.195080
  18 O :    0.396754
  19 C :    0.026438
  20 H :   -0.034785
  21 H :   -0.019613
  22 H :   -0.030742
  23 H :   -0.027574
  24 H :   -0.022639
  25 H :   -0.011713
  26 H :   -0.003837
  27 H :   -0.020267
  28 H :   -0.057788
  29 H :   -0.065347
  30 H :   -0.010322
  31 H :   -0.024953
  32 H :   -0.017505
  33 H :   -0.033417
  34 H :   -0.151821
  35 H :   -0.025013

  Mayer bond orders larger than 0.100000
B(  0-C ,  1-C ) :   0.9610 B(  0-C , 20-H ) :   0.9680 B(  0-C , 21-H ) :   0.9752
B(  0-C , 22-H ) :   0.9753 B(  1-C ,  2-O ) :   0.9033 B(  1-C , 23-H ) :   0.9688
B(  1-C , 24-H ) :   0.9817 B(  2-O ,  3-C ) :   1.1775 B(  3-C ,  4-O ) :   2.1107
B(  3-C ,  5-C ) :   0.9044 B(  5-C ,  6-C ) :   1.7145 B(  5-C , 12-C ) :   0.9516
B(  6-C ,  7-C ) :   0.9481 B(  6-C ,  8-N ) :   1.1327 B(  7-C , 25-H ) :   0.9748
B(  7-C , 26-H ) :   0.9600 B(  7-C , 27-H ) :   0.9840 B(  8-N ,  9-C ) :   1.2056
B(  8-N , 28-H ) :   0.9508 B(  9-C , 10-S ) :   1.6034 B(  9-C , 11-N ) :   1.2901
B( 11-N , 12-C ) :   0.9807 B( 11-N , 29-H ) :   0.9407 B( 12-C , 13-C ) :   0.9508
B( 12-C , 30-H ) :   0.9977 B( 13-C , 14-C ) :   1.3770 B( 13-C , 19-C ) :   1.3377
B( 14-C , 15-C ) :   1.4064 B( 14-C , 31-H ) :   0.9728 B( 15-C , 16-C ) :   1.3521
B( 15-C , 32-H ) :   0.9697 B( 16-C , 17-C ) :   1.3358 B( 16-C , 33-H ) :   0.9842
B( 17-C , 18-O ) :   1.1102 B( 17-C , 19-C ) :   1.3591 B( 18-O , 34-H ) :   0.9781
B( 19-C , 35-H ) :   0.9508

MP2 TOTAL ENERGY:    -1274.320700602 Eh
FINAL SINGLE POINT ENERGY     -1274.320700601541

DIPOLE MOMENT
-------------
                                X             Y             Z
Electronic contribution:      8.19761       5.45236       5.76461
Nuclear contribution   :     -9.35476      -7.01689      -5.65303
                        -----------------------------------------
Total Dipole Moment    :     -1.15716      -1.56453       0.11158
                        -----------------------------------------
Magnitude (a.u.)       :      1.94915
Magnitude (Debye)      :      4.95436

Rotational constants in cm-1:     0.013059     0.008983     0.006480
Rotational constants in MHz :   391.484461   269.310914   194.256077

                             ****ORCA TERMINATED NORMALLY****
TOTAL RUN TIME: 0 days 2 hours 11 minutes 7 seconds 475 msec
