                         Program Version 4.2.0 -  RELEASE  -
|  1> ! ri-mp2 cc-pvtz cc-pvtz/c TightSCF  NoKeepInts
|  2>
|  3> %scf
|  4>   MaxCore 4096
|  5> end
|  6> *xyz  0  1
|  7>     C       14.8737699   14.4785839   17.3331738
|  8>     C       15.5263580   15.6431853   16.5704817
|  9>     O       16.8151221   15.1745024   16.1211758
| 10>     C       18.0378152   15.6765316   16.4979079
| 11>     O       19.0200165   14.9605449   16.4349939
| 12>     C       18.0395381   16.8883208   17.3721335
| 13>     C       17.5539684   18.0842548   16.9648880
| 14>     C       16.9581105   18.4109332   15.6120635
| 15>     N       17.6414772   19.1941809   17.8077996
| 16>     C       18.2940990   19.2067009   19.0133974
| 17>     S       18.4054357   20.5816489   19.9249496
| 18>     N       18.8463282   18.0194620   19.4290332
| 19>     C       18.7041796   16.7226492   18.7367998
| 20>     C       17.9251505   15.7214664   19.5838046
| 21>     C       18.3695019   14.3910826   19.6914542
| 22>     C       17.6475223   13.4539187   20.4490547
| 23>     C       16.4675578   13.8483262   21.1023395
| 24>     C       16.0163147   15.1702251   20.9901194
| 25>     O       14.8680687   15.5502796   21.6044933
| 26>     C       16.7364734   16.1011178   20.2347509
| 27>     H       15.4982589   14.1742419   18.1822066
| 28>     H       14.7444850   13.6101382   16.6752506
| 29>     H       13.8891218   14.7700730   17.7181194
| 30>     H       14.9044493   15.9131132   15.7072826
| 31>     H       15.5816534   16.5044698   17.2438697
| 32>     H       17.1402259   17.6182359   14.8757650
| 33>     H       17.3999030   19.3273334   15.2000608
| 34>     H       15.8741869   18.5623715   15.6832028
| 35>     H       17.2562611   20.0786223   17.5151657
| 36>     H       19.3030998   18.0541240   20.3317513
| 37>     H       19.7140231   16.3190238   18.5703822
| 38>     H       19.2718340   14.0783077   19.1700174
| 39>     H       18.0004857   12.4264327   20.5204022
| 40>     H       15.9053934   13.1261506   21.6851919
| 41>     H       14.5505952   14.7934019   22.1201656
| 42>     H       16.3662158   17.1180446   20.1603520
| 43> *
| 44>
| 45>                          ****END OF INPUT****

CARTESIAN COORDINATES (ANGSTROEM)
---------------------------------
  C     14.873770   14.478584   17.333174
  C     15.526358   15.643185   16.570482
  O     16.815122   15.174502   16.121176
  C     18.037815   15.676532   16.497908
  O     19.020016   14.960545   16.434994
  C     18.039538   16.888321   17.372134
  C     17.553968   18.084255   16.964888
  C     16.958111   18.410933   15.612063
  N     17.641477   19.194181   17.807800
  C     18.294099   19.206701   19.013397
  S     18.405436   20.581649   19.924950
  N     18.846328   18.019462   19.429033
  C     18.704180   16.722649   18.736800
  C     17.925150   15.721466   19.583805
  C     18.369502   14.391083   19.691454
  C     17.647522   13.453919   20.449055
  C     16.467558   13.848326   21.102339
  C     16.016315   15.170225   20.990119
  O     14.868069   15.550280   21.604493
  C     16.736473   16.101118   20.234751
  H     15.498259   14.174242   18.182207
  H     14.744485   13.610138   16.675251
  H     13.889122   14.770073   17.718119
  H     14.904449   15.913113   15.707283
  H     15.581653   16.504470   17.243870
  H     17.140226   17.618236   14.875765
  H     17.399903   19.327333   15.200061
  H     15.874187   18.562371   15.683203
  H     17.256261   20.078622   17.515166
  H     19.303100   18.054124   20.331751
  H     19.714023   16.319024   18.570382
  H     19.271834   14.078308   19.170017
  H     18.000486   12.426433   20.520402
  H     15.905393   13.126151   21.685192
  H     14.550595   14.793402   22.120166
  H     16.366216   17.118045   20.160352

 Total Charge           Charge          ....    0
 Multiplicity           Mult            ....    1
 Number of Electrons    NEL             ....  154
 Basis Dimension        Dim             ....  828

ORBITAL ENERGIES
----------------

  NO   OCC          E(Eh)            E(eV)
   0   2.0000     -91.890810     -2500.4761
   1   2.0000     -20.601357      -560.5914
   2   2.0000     -20.600348      -560.5640
   3   2.0000     -20.548212      -559.1453
   4   2.0000     -15.628475      -425.2724
   5   2.0000     -15.612114      -424.8272
   6   2.0000     -11.398246      -310.1620
   7   2.0000     -11.387534      -309.8705
   8   2.0000     -11.331143      -308.3361
   9   2.0000     -11.317175      -307.9560
  10   2.0000     -11.314663      -307.8876
  11   2.0000     -11.304197      -307.6028
  12   2.0000     -11.269845      -306.6681
  13   2.0000     -11.265130      -306.5398
  14   2.0000     -11.263993      -306.5088
  15   2.0000     -11.257360      -306.3283
  16   2.0000     -11.246474      -306.0321
  17   2.0000     -11.242812      -305.9325
  18   2.0000     -11.239810      -305.8508
  19   2.0000     -11.226255      -305.4819
  20   2.0000      -8.895915      -242.0701
  21   2.0000      -6.577499      -178.9829
  22   2.0000      -6.575476      -178.9278
  23   2.0000      -6.574899      -178.9121
  24   2.0000      -1.446962       -39.3738
  25   2.0000      -1.420112       -38.6432
  26   2.0000      -1.358432       -36.9648
  27   2.0000      -1.341372       -36.5006
  28   2.0000      -1.240770       -33.7631
  29   2.0000      -1.162030       -31.6205
  30   2.0000      -1.126506       -30.6538
  31   2.0000      -1.049653       -28.5625
  32   2.0000      -1.037774       -28.2393
  33   2.0000      -1.019340       -27.7377
  34   2.0000      -1.005924       -27.3726
  35   2.0000      -0.990168       -26.9438
  36   2.0000      -0.928539       -25.2668
  37   2.0000      -0.883752       -24.0481
  38   2.0000      -0.855582       -23.2816
  39   2.0000      -0.842477       -22.9250
  40   2.0000      -0.837523       -22.7901
  41   2.0000      -0.835818       -22.7438
  42   2.0000      -0.754760       -20.5381
  43   2.0000      -0.741081       -20.1658
  44   2.0000      -0.731700       -19.9106
  45   2.0000      -0.698498       -19.0071
  46   2.0000      -0.689159       -18.7530
  47   2.0000      -0.681109       -18.5339
  48   2.0000      -0.677340       -18.4314
  49   2.0000      -0.660518       -17.9736
  50   2.0000      -0.656497       -17.8642
  51   2.0000      -0.646732       -17.5985
  52   2.0000      -0.640533       -17.4298
  53   2.0000      -0.613060       -16.6822
  54   2.0000      -0.608856       -16.5678
  55   2.0000      -0.607000       -16.5173
  56   2.0000      -0.601189       -16.3592
  57   2.0000      -0.584903       -15.9160
  58   2.0000      -0.579155       -15.7596
  59   2.0000      -0.569439       -15.4952
  60   2.0000      -0.560903       -15.2630
  61   2.0000      -0.556658       -15.1474
  62   2.0000      -0.547571       -14.9002
  63   2.0000      -0.530046       -14.4233
  64   2.0000      -0.519642       -14.1402
  65   2.0000      -0.514249       -13.9934
  66   2.0000      -0.503037       -13.6883
  67   2.0000      -0.502189       -13.6653
  68   2.0000      -0.487926       -13.2771
  69   2.0000      -0.471540       -12.8313
  70   2.0000      -0.452076       -12.3016
  71   2.0000      -0.449299       -12.2261
  72   2.0000      -0.357752        -9.7349
  73   2.0000      -0.352977        -9.6050
  74   2.0000      -0.330410        -8.9909
  75   2.0000      -0.325111        -8.8467
  76   2.0000      -0.319083        -8.6827
  77   0.0000       0.082646         2.2489
  78   0.0000       0.103599         2.8191
  79   0.0000       0.112957         3.0737
  80   0.0000       0.127514         3.4698
  81   0.0000       0.133993         3.6461

MULLIKEN ATOMIC CHARGES
-----------------------
   0 C :   -0.264026
   1 C :    0.010601
   2 O :   -0.315219
   3 C :    0.399912
   4 O :   -0.385685
   5 C :   -0.186776
   6 C :    0.131185
   7 C :   -0.320958
   8 N :   -0.136208
   9 C :    0.202478
  10 S :   -0.439437
  11 N :   -0.211196
  12 C :    0.067644
  13 C :    0.023628
  14 C :   -0.193473
  15 C :   -0.128053
  16 C :   -0.278835
  17 C :    0.311565
  18 O :   -0.360651
  19 C :   -0.268906
  20 H :    0.108477
  21 H :    0.107664
  22 H :    0.090203
  23 H :    0.111135
  24 H :    0.096316
  25 H :    0.129514
  26 H :    0.135392
  27 H :    0.122438
  28 H :    0.197105
  29 H :    0.197745
  30 H :    0.164338
  31 H :    0.168434
  32 H :    0.163852
  33 H :    0.132321
  34 H :    0.241890
  35 H :    0.175586
Sum of atomic charges:    0.0000000

LOEWDIN ATOMIC CHARGES
----------------------
   0 C :    0.109148
   1 C :   -0.021742
   2 O :    0.309532
   3 C :   -0.417398
   4 O :    0.121294
   5 C :   -0.084570
   6 C :   -0.100871
   7 C :    0.126340
   8 N :    0.401587
   9 C :   -0.456411
  10 S :   -0.036579
  11 N :    0.397420
  12 C :   -0.044505
  13 C :   -0.043708
  14 C :    0.022416
  15 C :    0.045128
  16 C :   -0.000659
  17 C :   -0.193396
  18 O :    0.395290
  19 C :    0.027045
  20 H :   -0.022744
  21 H :   -0.025736
  22 H :   -0.026458
  23 H :   -0.031379
  24 H :   -0.039973
  25 H :   -0.006983
  26 H :   -0.010319
  27 H :   -0.016233
  28 H :   -0.057657
  29 H :   -0.063491
  30 H :   -0.002260
  31 H :   -0.021586
  32 H :   -0.018355
  33 H :   -0.034665
  34 H :   -0.152769
  35 H :   -0.024752

  Mayer bond orders larger than 0.100000
B(  0-C ,  1-C ) :   0.9800 B(  0-C , 20-H ) :   0.9704 B(  0-C , 21-H ) :   0.9812
B(  0-C , 22-H ) :   0.9754 B(  1-C ,  2-O ) :   0.9034 B(  1-C , 23-H ) :   0.9783
B(  1-C , 24-H ) :   0.9612 B(  2-O ,  3-C ) :   1.1907 B(  3-C ,  4-O ) :   2.0883
B(  3-C ,  5-C ) :   0.9288 B(  5-C ,  6-C ) :   1.6839 B(  5-C , 12-C ) :   0.9592
B(  6-C ,  7-C ) :   0.9466 B(  6-C ,  8-N ) :   1.1172 B(  7-C , 25-H ) :   0.9789
B(  7-C , 26-H ) :   0.9737 B(  7-C , 27-H ) :   0.9644 B(  8-N ,  9-C ) :   1.1924
B(  8-N , 28-H ) :   0.9516 B(  9-C , 10-S ) :   1.6128 B(  9-C , 11-N ) :   1.2889
B( 11-N , 12-C ) :   0.9990 B( 11-N , 29-H ) :   0.9496 B( 12-C , 13-C ) :   0.9431
B( 12-C , 30-H ) :   0.9965 B( 13-C , 14-C ) :   1.3887 B( 13-C , 19-C ) :   1.3502
B( 14-C , 15-C ) :   1.3941 B( 14-C , 31-H ) :   0.9606 B( 15-C , 16-C ) :   1.3609
B( 15-C , 32-H ) :   0.9706 B( 16-C , 17-C ) :   1.3303 B( 16-C , 33-H ) :   0.9852
B( 17-C , 18-O ) :   1.1069 B( 17-C , 19-C ) :   1.3719 B( 18-O , 34-H ) :   0.9790
B( 19-C , 35-H ) :   0.9564

MP2 TOTAL ENERGY:    -1274.335159779 Eh
FINAL SINGLE POINT ENERGY     -1274.335159779439

DIPOLE MOMENT
-------------
                                X             Y             Z
Electronic contribution:     10.15984       8.08418       5.88908
Nuclear contribution   :    -11.69294      -8.99936      -6.30320
                        -----------------------------------------
Total Dipole Moment    :     -1.53310      -0.91518      -0.41412
                        -----------------------------------------
Magnitude (a.u.)       :      1.83288
Magnitude (Debye)      :      4.65880

Rotational constants in cm-1:     0.012373     0.009174     0.006885
Rotational constants in MHz :   370.921981   275.032662   206.417681

                             ****ORCA TERMINATED NORMALLY****
TOTAL RUN TIME: 0 days 1 hours 54 minutes 27 seconds 271 msec
