                         Program Version 4.2.0 -  RELEASE  -
|  1> ! ri-mp2 cc-pvtz cc-pvtz/c TightSCF  NoKeepInts
|  2>
|  3> %scf
|  4>   MaxCore 4096
|  5> end
|  6> *xyz  0  1
|  7>     C       14.6539044   14.5530447   14.8737167
|  8>     C       15.4666018   14.4944538   16.1779516
|  9>     O       16.4151938   15.5747363   16.1392910
| 10>     C       17.5663028   15.4778689   16.8660972
| 11>     O       18.0494216   14.3988648   17.1678785
| 12>     C       17.9149276   16.7370112   17.6057591
| 13>     C       17.5407932   17.9857791   17.2232577
| 14>     C       16.7398601   18.3832283   16.0001571
| 15>     N       17.9712108   19.0952771   17.9582362
| 16>     C       18.8858674   19.0529598   18.9772971
| 17>     S       19.4381371   20.4287574   19.7106188
| 18>     N       19.3206529   17.8084756   19.3571006
| 19>     C       18.7626096   16.5341881   18.8666137
| 20>     C       17.9541819   15.8480628   19.9648544
| 21>     C       18.2526367   14.5280964   20.3504505
| 22>     C       17.5093525   13.8902340   21.3577219
| 23>     C       16.4570911   14.5774219   21.9863190
| 24>     C       16.1538496   15.8907986   21.6027278
| 25>     O       15.1340679   16.5547952   22.2031383
| 26>     C       16.8950654   16.5228023   20.5994189
| 27>     H       14.1224317   15.5091213   14.7910010
| 28>     H       13.9135282   13.7443116   14.8456088
| 29>     H       15.3129205   14.4452241   14.0031143
| 30>     H       14.8118767   14.5892072   17.0541766
| 31>     H       15.9748948   13.5215125   16.2257816
| 32>     H       17.1132521   17.8706395   15.1047867
| 33>     H       16.7872319   19.4596944   15.7956050
| 34>     H       15.6834126   18.1150110   16.1257420
| 35>     H       17.6639003   20.0176846   17.6941257
| 36>     H       19.9712909   17.8027681   20.1320712
| 37>     H       19.6069467   15.8814722   18.6015296
| 38>     H       19.0548281   13.9882689   19.8531108
| 39>     H       17.7470279   12.8668243   21.6423095
| 40>     H       15.8794753   14.0879431   22.7633029
| 41>     H       14.7765392   15.9745467   22.8918308
| 42>     H       16.6457147   17.5409145   20.3212973
| 43> *
| 44>
| 45>                          ****END OF INPUT****

CARTESIAN COORDINATES (ANGSTROEM)
---------------------------------
  C     14.653904   14.553045   14.873717
  C     15.466602   14.494454   16.177952
  O     16.415194   15.574736   16.139291
  C     17.566303   15.477869   16.866097
  O     18.049422   14.398865   17.167879
  C     17.914928   16.737011   17.605759
  C     17.540793   17.985779   17.223258
  C     16.739860   18.383228   16.000157
  N     17.971211   19.095277   17.958236
  C     18.885867   19.052960   18.977297
  S     19.438137   20.428757   19.710619
  N     19.320653   17.808476   19.357101
  C     18.762610   16.534188   18.866614
  C     17.954182   15.848063   19.964854
  C     18.252637   14.528096   20.350451
  C     17.509352   13.890234   21.357722
  C     16.457091   14.577422   21.986319
  C     16.153850   15.890799   21.602728
  O     15.134068   16.554795   22.203138
  C     16.895065   16.522802   20.599419
  H     14.122432   15.509121   14.791001
  H     13.913528   13.744312   14.845609
  H     15.312921   14.445224   14.003114
  H     14.811877   14.589207   17.054177
  H     15.974895   13.521513   16.225782
  H     17.113252   17.870639   15.104787
  H     16.787232   19.459694   15.795605
  H     15.683413   18.115011   16.125742
  H     17.663900   20.017685   17.694126
  H     19.971291   17.802768   20.132071
  H     19.606947   15.881472   18.601530
  H     19.054828   13.988269   19.853111
  H     17.747028   12.866824   21.642309
  H     15.879475   14.087943   22.763303
  H     14.776539   15.974547   22.891831
  H     16.645715   17.540914   20.321297

 Total Charge           Charge          ....    0
 Multiplicity           Mult            ....    1
 Number of Electrons    NEL             ....  154
 Basis Dimension        Dim             ....  828

ORBITAL ENERGIES
----------------

  NO   OCC          E(Eh)            E(eV)
   0   2.0000     -91.888071     -2500.4015
   1   2.0000     -20.597833      -560.4955
   2   2.0000     -20.592456      -560.3492
   3   2.0000     -20.548668      -559.1577
   4   2.0000     -15.628206      -425.2651
   5   2.0000     -15.606892      -424.6851
   6   2.0000     -11.395519      -310.0878
   7   2.0000     -11.383115      -309.7503
   8   2.0000     -11.335130      -308.4446
   9   2.0000     -11.308308      -307.7147
  10   2.0000     -11.306215      -307.6578
  11   2.0000     -11.298295      -307.4422
  12   2.0000     -11.260164      -306.4046
  13   2.0000     -11.259216      -306.3789
  14   2.0000     -11.254153      -306.2411
  15   2.0000     -11.248409      -306.0848
  16   2.0000     -11.238061      -305.8032
  17   2.0000     -11.234145      -305.6966
  18   2.0000     -11.232862      -305.6617
  19   2.0000     -11.231181      -305.6160
  20   2.0000      -8.893137      -241.9946
  21   2.0000      -6.574715      -178.9071
  22   2.0000      -6.572707      -178.8525
  23   2.0000      -6.572122      -178.8365
  24   2.0000      -1.453795       -39.5598
  25   2.0000      -1.412196       -38.4278
  26   2.0000      -1.357386       -36.9363
  27   2.0000      -1.339179       -36.4409
  28   2.0000      -1.236958       -33.6593
  29   2.0000      -1.152757       -31.3681
  30   2.0000      -1.119805       -30.4714
  31   2.0000      -1.044196       -28.4140
  32   2.0000      -1.036688       -28.2097
  33   2.0000      -1.010159       -27.4878
  34   2.0000      -0.997751       -27.1502
  35   2.0000      -0.983328       -26.7577
  36   2.0000      -0.921371       -25.0718
  37   2.0000      -0.886404       -24.1203
  38   2.0000      -0.847147       -23.0521
  39   2.0000      -0.835640       -22.7389
  40   2.0000      -0.828585       -22.5469
  41   2.0000      -0.820047       -22.3146
  42   2.0000      -0.760390       -20.6913
  43   2.0000      -0.735894       -20.0247
  44   2.0000      -0.725490       -19.7416
  45   2.0000      -0.690884       -18.7999
  46   2.0000      -0.684607       -18.6291
  47   2.0000      -0.680398       -18.5146
  48   2.0000      -0.674796       -18.3621
  49   2.0000      -0.653801       -17.7908
  50   2.0000      -0.651066       -17.7164
  51   2.0000      -0.642566       -17.4851
  52   2.0000      -0.633264       -17.2320
  53   2.0000      -0.611726       -16.6459
  54   2.0000      -0.601136       -16.3577
  55   2.0000      -0.600624       -16.3438
  56   2.0000      -0.595799       -16.2125
  57   2.0000      -0.578151       -15.7323
  58   2.0000      -0.573900       -15.6166
  59   2.0000      -0.562394       -15.3035
  60   2.0000      -0.561397       -15.2764
  61   2.0000      -0.545122       -14.8335
  62   2.0000      -0.539808       -14.6889
  63   2.0000      -0.527393       -14.3511
  64   2.0000      -0.517881       -14.0923
  65   2.0000      -0.509751       -13.8710
  66   2.0000      -0.500596       -13.6219
  67   2.0000      -0.495554       -13.4847
  68   2.0000      -0.481460       -13.1012
  69   2.0000      -0.463952       -12.6248
  70   2.0000      -0.461350       -12.5540
  71   2.0000      -0.451801       -12.2941
  72   2.0000      -0.353958        -9.6317
  73   2.0000      -0.344598        -9.3770
  74   2.0000      -0.327238        -8.9046
  75   2.0000      -0.315840        -8.5944
  76   2.0000      -0.314437        -8.5563
  77   0.0000       0.074556         2.0288
  78   0.0000       0.110980         3.0199
  79   0.0000       0.120193         3.2706
  80   0.0000       0.135254         3.6805
  81   0.0000       0.138219         3.7611

MULLIKEN ATOMIC CHARGES
-----------------------
   0 C :   -0.266083
   1 C :    0.030941
   2 O :   -0.354824
   3 C :    0.454543
   4 O :   -0.417625
   5 C :   -0.184027
   6 C :    0.141657
   7 C :   -0.286112
   8 N :   -0.123520
   9 C :    0.202036
  10 S :   -0.439718
  11 N :   -0.198280
  12 C :    0.040561
  13 C :    0.054099
  14 C :   -0.161401
  15 C :   -0.133556
  16 C :   -0.279575
  17 C :    0.310977
  18 O :   -0.359046
  19 C :   -0.273010
  20 H :    0.089962
  21 H :    0.093896
  22 H :    0.098760
  23 H :    0.095334
  24 H :    0.116591
  25 H :    0.125762
  26 H :    0.103578
  27 H :    0.126248
  28 H :    0.196969
  29 H :    0.193807
  30 H :    0.154113
  31 H :    0.153775
  32 H :    0.159350
  33 H :    0.128376
  34 H :    0.240186
  35 H :    0.165260
Sum of atomic charges:   -0.0000000

LOEWDIN ATOMIC CHARGES
----------------------
   0 C :    0.106153
   1 C :   -0.013753
   2 O :    0.301453
   3 C :   -0.413491
   4 O :    0.111453
   5 C :   -0.091917
   6 C :   -0.068654
   7 C :    0.125152
   8 N :    0.404551
   9 C :   -0.458465
  10 S :   -0.036318
  11 N :    0.397567
  12 C :   -0.046071
  13 C :   -0.039068
  14 C :    0.021913
  15 C :    0.041040
  16 C :   -0.002412
  17 C :   -0.193004
  18 O :    0.392972
  19 C :    0.028187
  20 H :   -0.030519
  21 H :   -0.024460
  22 H :   -0.025247
  23 H :   -0.030792
  24 H :   -0.026952
  25 H :   -0.008365
  26 H :   -0.020511
  27 H :   -0.010357
  28 H :   -0.059023
  29 H :   -0.063821
  30 H :   -0.004853
  31 H :   -0.025215
  32 H :   -0.021105
  33 H :   -0.036326
  34 H :   -0.154801
  35 H :   -0.024944

  Mayer bond orders larger than 0.100000
B(  0-C ,  1-C ) :   0.9742 B(  0-C , 20-H ) :   0.9795 B(  0-C , 21-H ) :   0.9770
B(  0-C , 22-H ) :   0.9775 B(  1-C ,  2-O ) :   0.8925 B(  1-C , 23-H ) :   0.9743
B(  1-C , 24-H ) :   0.9759 B(  2-O ,  3-C ) :   1.1272 B(  3-C ,  4-O ) :   2.0033
B(  3-C ,  5-C ) :   1.0433 B(  5-C ,  6-C ) :   1.6547 B(  5-C , 12-C ) :   0.9653
B(  6-C ,  7-C ) :   0.9533 B(  6-C ,  8-N ) :   1.1426 B(  7-C , 25-H ) :   0.9676
B(  7-C , 26-H ) :   0.9907 B(  7-C , 27-H ) :   0.9632 B(  8-N ,  9-C ) :   1.1808
B(  8-N , 28-H ) :   0.9492 B(  9-C , 10-S ) :   1.6104 B(  9-C , 11-N ) :   1.3030
B( 11-N , 12-C ) :   0.9911 B( 11-N , 29-H ) :   0.9519 B( 12-C , 13-C ) :   0.9474
B( 12-C , 30-H ) :   0.9991 B( 13-C , 14-C ) :   1.3769 B( 13-C , 19-C ) :   1.3686
B( 14-C , 15-C ) :   1.3947 B( 14-C , 31-H ) :   0.9647 B( 15-C , 16-C ) :   1.3629
B( 15-C , 32-H ) :   0.9713 B( 16-C , 17-C ) :   1.3314 B( 16-C , 33-H ) :   0.9859
B( 17-C , 18-O ) :   1.1082 B( 17-C , 19-C ) :   1.3785 B( 18-O , 34-H ) :   0.9805
B( 19-C , 35-H ) :   0.9583

MP2 TOTAL ENERGY:    -1274.339466651 Eh
FINAL SINGLE POINT ENERGY     -1274.339466651233

DIPOLE MOMENT
-------------
                                X             Y             Z
Electronic contribution:     11.60783       9.27837      10.82598
Nuclear contribution   :    -13.15943     -10.56039     -11.62564
                        -----------------------------------------
Total Dipole Moment    :     -1.55160      -1.28202      -0.79966
                        -----------------------------------------
Magnitude (a.u.)       :      2.16576
Magnitude (Debye)      :      5.50492

Rotational constants in cm-1:     0.010438     0.008997     0.005952
Rotational constants in MHz :   312.920036   269.731119   178.443018

                             ****ORCA TERMINATED NORMALLY****
TOTAL RUN TIME: 0 days 1 hours 32 minutes 39 seconds 813 msec
