                         Program Version 5.0.0 -  RELEASE  -
|  1> ! ri-mp2 cc-pvtz cc-pvtz/c TightSCF NoKeepInts
|  2>
|  3> %scf
|  4>   MaxCore 4096
|  5> end
|  6> *xyz  0  1
|  7>     C       15.1287267   14.6242020   16.9871620
|  8>     C       16.4574650   13.9830644   16.5233819
|  9>     O       17.5547828   14.9237516   16.4316317
| 10>     C       17.3530344   16.2489993   16.1695636
| 11>     O       16.6952578   16.6056290   15.2076372
| 12>     C       17.7532366   17.1463989   17.3100549
| 13>     C       17.4790888   18.4762254   17.3189329
| 14>     C       16.7033925   19.2618582   16.2833335
| 15>     N       17.9772980   19.2863762   18.3442896
| 16>     C       18.8976304   18.8852270   19.2761486
| 17>     S       19.5657209   19.9414608   20.3594249
| 18>     N       19.2435233   17.5578098   19.2589721
| 19>     C       18.5612051   16.5222130   18.4612420
| 20>     C       17.7047187   15.6580539   19.3819468
| 21>     C       18.0064775   14.2951894   19.5636786
| 22>     C       17.2225197   13.4956821   20.4123370
| 23>     C       16.1321063   14.0648382   21.0918291
| 24>     C       15.8363205   15.4244679   20.9239180
| 25>     O       14.7847498   15.9773210   21.5788664
| 26>     C       16.6174777   16.2172283   20.0775244
| 27>     H       15.2593625   15.1859426   17.9176927
| 28>     H       14.3802973   13.8441943   17.1710114
| 29>     H       14.7189777   15.2976452   16.2243879
| 30>     H       16.7339986   13.1739422   17.2112235
| 31>     H       16.2929867   13.5334457   15.5353666
| 32>     H       17.2014935   19.2092523   15.3067479
| 33>     H       16.5924717   20.3212395   16.5424674
| 34>     H       15.6956476   18.8453657   16.1588991
| 35>     H       17.7408150   20.2655952   18.3635856
| 36>     H       19.9027544   17.2846019   19.9763760
| 37>     H       19.3391218   15.8864228   18.0154437
| 38>     H       18.8483300   13.8521020   19.0380362
| 39>     H       17.4623953   12.4418781   20.5437345
| 40>     H       15.5240814   13.4518375   21.7491177
| 41>     H       14.4044313   15.2939346   22.1510377
| 42>     H       16.3751030   17.2686039   19.9669968
| 43> *
| 44>
| 45>                          ****END OF INPUT****

CARTESIAN COORDINATES (ANGSTROEM)
---------------------------------
  C     15.128727   14.624202   16.987162
  C     16.457465   13.983064   16.523382
  O     17.554783   14.923752   16.431632
  C     17.353034   16.248999   16.169564
  O     16.695258   16.605629   15.207637
  C     17.753237   17.146399   17.310055
  C     17.479089   18.476225   17.318933
  C     16.703392   19.261858   16.283334
  N     17.977298   19.286376   18.344290
  C     18.897630   18.885227   19.276149
  S     19.565721   19.941461   20.359425
  N     19.243523   17.557810   19.258972
  C     18.561205   16.522213   18.461242
  C     17.704719   15.658054   19.381947
  C     18.006477   14.295189   19.563679
  C     17.222520   13.495682   20.412337
  C     16.132106   14.064838   21.091829
  C     15.836320   15.424468   20.923918
  O     14.784750   15.977321   21.578866
  C     16.617478   16.217228   20.077524
  H     15.259362   15.185943   17.917693
  H     14.380297   13.844194   17.171011
  H     14.718978   15.297645   16.224388
  H     16.733999   13.173942   17.211223
  H     16.292987   13.533446   15.535367
  H     17.201494   19.209252   15.306748
  H     16.592472   20.321240   16.542467
  H     15.695648   18.845366   16.158899
  H     17.740815   20.265595   18.363586
  H     19.902754   17.284602   19.976376
  H     19.339122   15.886423   18.015444
  H     18.848330   13.852102   19.038036
  H     17.462395   12.441878   20.543734
  H     15.524081   13.451837   21.749118
  H     14.404431   15.293935   22.151038
  H     16.375103   17.268604   19.966997

 Total Charge           Charge          ....    0
 Multiplicity           Mult            ....    1
 Number of Electrons    NEL             ....  154
 Basis Dimension        Dim             ....  828

ORBITAL ENERGIES
----------------

  NO   OCC          E(Eh)            E(eV)
   0   2.0000     -91.890519     -2500.4681
   1   2.0000     -20.599854      -560.5505
   2   2.0000     -20.585013      -560.1467
   3   2.0000     -20.544660      -559.0486
   4   2.0000     -15.630855      -425.3372
   5   2.0000     -15.609306      -424.7508
   6   2.0000     -11.394026      -310.0472
   7   2.0000     -11.385186      -309.8067
   8   2.0000     -11.337213      -308.5012
   9   2.0000     -11.317345      -307.9606
  10   2.0000     -11.310923      -307.7859
  11   2.0000     -11.299339      -307.4707
  12   2.0000     -11.262747      -306.4749
  13   2.0000     -11.259452      -306.3853
  14   2.0000     -11.259169      -306.3776
  15   2.0000     -11.253062      -306.2114
  16   2.0000     -11.246923      -306.0443
  17   2.0000     -11.241609      -305.8997
  18   2.0000     -11.241523      -305.8974
  19   2.0000     -11.222744      -305.3864
  20   2.0000      -8.895550      -242.0602
  21   2.0000      -6.577117      -178.9724
  22   2.0000      -6.575121      -178.9181
  23   2.0000      -6.574526      -178.9020
  24   2.0000      -1.444580       -39.3090
  25   2.0000      -1.419582       -38.6288
  26   2.0000      -1.350613       -36.7521
  27   2.0000      -1.341779       -36.5117
  28   2.0000      -1.240025       -33.7428
  29   2.0000      -1.160652       -31.5829
  30   2.0000      -1.121133       -30.5076
  31   2.0000      -1.044949       -28.4345
  32   2.0000      -1.031509       -28.0688
  33   2.0000      -1.018960       -27.7273
  34   2.0000      -0.997739       -27.1499
  35   2.0000      -0.986103       -26.8332
  36   2.0000      -0.924540       -25.1580
  37   2.0000      -0.896757       -24.4020
  38   2.0000      -0.848425       -23.0868
  39   2.0000      -0.841994       -22.9118
  40   2.0000      -0.837663       -22.7940
  41   2.0000      -0.817523       -22.2459
  42   2.0000      -0.745568       -20.2879
  43   2.0000      -0.734175       -19.9779
  44   2.0000      -0.721846       -19.6424
  45   2.0000      -0.699077       -19.0228
  46   2.0000      -0.691220       -18.8090
  47   2.0000      -0.673620       -18.3301
  48   2.0000      -0.670269       -18.2389
  49   2.0000      -0.661776       -18.0078
  50   2.0000      -0.651839       -17.7374
  51   2.0000      -0.643313       -17.5054
  52   2.0000      -0.635826       -17.3017
  53   2.0000      -0.624229       -16.9861
  54   2.0000      -0.610188       -16.6041
  55   2.0000      -0.602843       -16.4042
  56   2.0000      -0.600466       -16.3395
  57   2.0000      -0.580425       -15.7942
  58   2.0000      -0.571601       -15.5540
  59   2.0000      -0.565819       -15.3967
  60   2.0000      -0.548039       -14.9129
  61   2.0000      -0.544545       -14.8178
  62   2.0000      -0.534109       -14.5338
  63   2.0000      -0.528075       -14.3697
  64   2.0000      -0.527535       -14.3550
  65   2.0000      -0.515409       -14.0250
  66   2.0000      -0.503528       -13.7017
  67   2.0000      -0.498253       -13.5582
  68   2.0000      -0.482630       -13.1330
  69   2.0000      -0.463560       -12.6141
  70   2.0000      -0.454868       -12.3776
  71   2.0000      -0.442926       -12.0526
  72   2.0000      -0.356242        -9.6938
  73   2.0000      -0.352226        -9.5846
  74   2.0000      -0.329935        -8.9780
  75   2.0000      -0.325446        -8.8558
  76   2.0000      -0.317488        -8.6393
  77   0.0000       0.070201         1.9103
  78   0.0000       0.102675         2.7939
  79   0.0000       0.122687         3.3385
  80   0.0000       0.129677         3.5287
  81   0.0000       0.134939         3.6719

MULLIKEN ATOMIC CHARGES
-----------------------
   0 C :   -0.332973
   1 C :    0.034839
   2 O :   -0.395317
   3 C :    0.510549
   4 O :   -0.423394
   5 C :   -0.247915
   6 C :    0.149863
   7 C :   -0.271711
   8 N :   -0.123183
   9 C :    0.205033
  10 S :   -0.435577
  11 N :   -0.197915
  12 C :    0.044287
  13 C :    0.052830
  14 C :   -0.193447
  15 C :   -0.128243
  16 C :   -0.274312
  17 C :    0.313919
  18 O :   -0.358871
  19 C :   -0.271599
  20 H :    0.110187
  21 H :    0.105449
  22 H :    0.124262
  23 H :    0.110958
  24 H :    0.120934
  25 H :    0.134254
  26 H :    0.094990
  27 H :    0.130124
  28 H :    0.198413
  29 H :    0.192566
  30 H :    0.152793
  31 H :    0.160385
  32 H :    0.164687
  33 H :    0.132901
  34 H :    0.241014
  35 H :    0.169219
Sum of atomic charges:    0.0000000

LOEWDIN ATOMIC CHARGES
----------------------
   0 C :    0.106691
   1 C :   -0.011744
   2 O :    0.284520
   3 C :   -0.419131
   4 O :    0.110712
   5 C :   -0.097613
   6 C :   -0.057806
   7 C :    0.131464
   8 N :    0.406782
   9 C :   -0.457919
  10 S :   -0.032635
  11 N :    0.396663
  12 C :   -0.052387
  13 C :   -0.039483
  14 C :    0.017365
  15 C :    0.039802
  16 C :   -0.001290
  17 C :   -0.190802
  18 O :    0.396506
  19 C :    0.031672
  20 H :   -0.030855
  21 H :   -0.024012
  22 H :   -0.026815
  23 H :   -0.027915
  24 H :   -0.028501
  25 H :   -0.003090
  26 H :   -0.023318
  27 H :   -0.005404
  28 H :   -0.057510
  29 H :   -0.064848
  30 H :   -0.007699
  31 H :   -0.028549
  32 H :   -0.020701
  33 H :   -0.034819
  34 H :   -0.153194
  35 H :   -0.024136

  Mayer bond orders larger than 0.100000
B(  0-C ,  1-C ) :   0.9553 B(  0-C , 20-H ) :   0.9690 B(  0-C , 21-H ) :   0.9774
B(  0-C , 22-H ) :   0.9730 B(  1-C ,  2-O ) :   0.8820 B(  1-C , 23-H ) :   0.9780
B(  1-C , 24-H ) :   0.9866 B(  2-O ,  3-C ) :   1.1095 B(  3-C ,  4-O ) :   1.9942
B(  3-C ,  5-C ) :   1.0639 B(  5-C ,  6-C ) :   1.6534 B(  5-C , 12-C ) :   0.9688
B(  6-C ,  7-C ) :   0.9684 B(  6-C ,  8-N ) :   1.1552 B(  7-C , 25-H ) :   0.9582
B(  7-C , 26-H ) :   0.9896 B(  7-C , 27-H ) :   0.9626 B(  8-N ,  9-C ) :   1.1790
B(  8-N , 28-H ) :   0.9481 B(  9-C , 10-S ) :   1.6153 B(  9-C , 11-N ) :   1.3017
B( 11-N , 12-C ) :   0.9853 B( 11-N , 29-H ) :   0.9533 B( 12-C , 13-C ) :   0.9384
B( 12-C , 30-H ) :   1.0024 B( 13-C , 14-C ) :   1.3526 B( 13-C , 19-C ) :   1.3742
B( 14-C , 15-C ) :   1.3804 B( 14-C , 31-H ) :   0.9698 B( 15-C , 16-C ) :   1.3679
B( 15-C , 32-H ) :   0.9694 B( 16-C , 17-C ) :   1.3291 B( 16-C , 33-H ) :   0.9837
B( 17-C , 18-O ) :   1.1114 B( 17-C , 19-C ) :   1.3729 B( 18-O , 34-H ) :   0.9796
B( 19-C , 35-H ) :   0.9590

MP2 TOTAL ENERGY:    -1274.335805989 Eh
FINAL SINGLE POINT ENERGY     -1274.335805988767

DIPOLE MOMENT
-------------
                                X             Y             Z
Electronic contribution:     10.00214       8.96221       5.86733
Nuclear contribution   :    -11.06418     -10.61397      -5.84850
                        -----------------------------------------
Total Dipole Moment    :     -1.06203      -1.65176       0.01883
                        -----------------------------------------
Magnitude (a.u.)       :      1.96382
Magnitude (Debye)      :      4.99163

Rotational constants in cm-1:     0.012225     0.009374     0.006592
Rotational constants in MHz :   366.498482   281.027939   197.619904

                             ****ORCA TERMINATED NORMALLY****
TOTAL RUN TIME: 0 days 2 hours 14 minutes 4 seconds 417 msec
