                         Program Version 4.2.0 -  RELEASE  -
|  1> ! ri-mp2 cc-pvtz cc-pvtz/c TightSCF  NoKeepInts
|  2>
|  3> %scf
|  4>   MaxCore 4096
|  5> end
|  6> *xyz  0  1
|  7>     C       14.6791915   14.9850458   16.9299291
|  8>     C       15.7702462   14.7191102   15.8776915
|  9>     O       16.6009554   15.8921100   15.8088822
| 10>     C       17.8008140   15.8930344   16.4590154
| 11>     O       18.4760796   14.8819797   16.5606329
| 12>     C       17.9255337   17.0246525   17.4349261
| 13>     C       17.3582016   18.2459098   17.2642673
| 14>     C       16.5425765   18.7289969   16.0829665
| 15>     N       17.5695798   19.2489706   18.2154619
| 16>     C       18.4357632   19.1545156   19.2730052
| 17>     S       18.7161150   20.4313720   20.2861837
| 18>     N       19.0586571   17.9443652   19.4483242
| 19>     C       18.7512049   16.7180762   18.6879453
| 20>     C       18.0282726   15.7054867   19.5723869
| 21>     C       18.5258994   14.3968193   19.7118673
| 22>     C       17.8546850   13.4563769   20.5111782
| 23>     C       16.6736550   13.8261053   21.1768169
| 24>     C       16.1723725   15.1272961   21.0374898
| 25>     O       15.0263357   15.4845650   21.6699120
| 26>     C       16.8429635   16.0612622   20.2417880
| 27>     H       15.1258673   15.1230693   17.9228017
| 28>     H       13.9841796   14.1384530   16.9846647
| 29>     H       14.1056796   15.8855352   16.6782240
| 30>     H       16.3410235   13.8152722   16.1315445
| 31>     H       15.2925832   14.5557564   14.9031641
| 32>     H       15.5260848   18.3180066   16.1214648
| 33>     H       16.9975135   18.4113554   15.1364354
| 34>     H       16.4603133   19.8221022   16.0473258
| 35>     H       17.1217213   20.1445665   18.1039057
| 36>     H       19.6689688   17.8921738   20.2537724
| 37>     H       19.7049113   16.2770699   18.3636109
| 38>     H       19.4281587   14.1025524   19.1811150
| 39>     H       18.2472794   12.4454965   20.6055707
| 40>     H       16.1505644   13.1019152   21.7923816
| 41>     H       14.7450012   14.7295439   22.2082278
| 42>     H       16.4380480   17.0630808   20.1491205
| 43> *
| 44>
| 45>                          ****END OF INPUT****

CARTESIAN COORDINATES (ANGSTROEM)
---------------------------------
  C     14.679191   14.985046   16.929929
  C     15.770246   14.719110   15.877691
  O     16.600955   15.892110   15.808882
  C     17.800814   15.893034   16.459015
  O     18.476080   14.881980   16.560633
  C     17.925534   17.024652   17.434926
  C     17.358202   18.245910   17.264267
  C     16.542576   18.728997   16.082967
  N     17.569580   19.248971   18.215462
  C     18.435763   19.154516   19.273005
  S     18.716115   20.431372   20.286184
  N     19.058657   17.944365   19.448324
  C     18.751205   16.718076   18.687945
  C     18.028273   15.705487   19.572387
  C     18.525899   14.396819   19.711867
  C     17.854685   13.456377   20.511178
  C     16.673655   13.826105   21.176817
  C     16.172373   15.127296   21.037490
  O     15.026336   15.484565   21.669912
  C     16.842963   16.061262   20.241788
  H     15.125867   15.123069   17.922802
  H     13.984180   14.138453   16.984665
  H     14.105680   15.885535   16.678224
  H     16.341023   13.815272   16.131545
  H     15.292583   14.555756   14.903164
  H     15.526085   18.318007   16.121465
  H     16.997514   18.411355   15.136435
  H     16.460313   19.822102   16.047326
  H     17.121721   20.144566   18.103906
  H     19.668969   17.892174   20.253772
  H     19.704911   16.277070   18.363611
  H     19.428159   14.102552   19.181115
  H     18.247279   12.445496   20.605571
  H     16.150564   13.101915   21.792382
  H     14.745001   14.729544   22.208228
  H     16.438048   17.063081   20.149120

 Total Charge           Charge          ....    0
 Multiplicity           Mult            ....    1
 Number of Electrons    NEL             ....  154
 Basis Dimension        Dim             ....  828

ORBITAL ENERGIES
----------------

  NO   OCC          E(Eh)            E(eV)
   0   2.0000     -91.888528     -2500.4140
   1   2.0000     -20.594991      -560.4182
   2   2.0000     -20.593305      -560.3723
   3   2.0000     -20.551040      -559.2222
   4   2.0000     -15.628199      -425.2649
   5   2.0000     -15.607822      -424.7104
   6   2.0000     -11.395744      -310.0940
   7   2.0000     -11.383812      -309.7693
   8   2.0000     -11.333834      -308.4093
   9   2.0000     -11.311019      -307.7885
  10   2.0000     -11.307851      -307.7023
  11   2.0000     -11.297837      -307.4298
  12   2.0000     -11.259939      -306.3985
  13   2.0000     -11.259398      -306.3838
  14   2.0000     -11.256711      -306.3107
  15   2.0000     -11.251295      -306.1633
  16   2.0000     -11.240864      -305.8795
  17   2.0000     -11.236660      -305.7651
  18   2.0000     -11.233971      -305.6919
  19   2.0000     -11.227585      -305.5181
  20   2.0000      -8.893596      -242.0071
  21   2.0000      -6.575175      -178.9196
  22   2.0000      -6.573166      -178.8649
  23   2.0000      -6.572581      -178.8490
  24   2.0000      -1.453033       -39.5390
  25   2.0000      -1.414781       -38.4982
  26   2.0000      -1.357294       -36.9338
  27   2.0000      -1.339374       -36.4462
  28   2.0000      -1.237510       -33.6744
  29   2.0000      -1.155372       -31.4393
  30   2.0000      -1.120858       -30.5001
  31   2.0000      -1.044022       -28.4093
  32   2.0000      -1.034428       -28.1482
  33   2.0000      -1.012811       -27.5600
  34   2.0000      -0.998935       -27.1824
  35   2.0000      -0.984620       -26.7929
  36   2.0000      -0.922901       -25.1134
  37   2.0000      -0.890008       -24.2184
  38   2.0000      -0.847516       -23.0621
  39   2.0000      -0.837285       -22.7837
  40   2.0000      -0.831305       -22.6210
  41   2.0000      -0.816668       -22.2227
  42   2.0000      -0.757395       -20.6098
  43   2.0000      -0.736406       -20.0386
  44   2.0000      -0.727289       -19.7905
  45   2.0000      -0.693509       -18.8713
  46   2.0000      -0.685626       -18.6568
  47   2.0000      -0.677785       -18.4435
  48   2.0000      -0.675431       -18.3794
  49   2.0000      -0.661072       -17.9887
  50   2.0000      -0.651461       -17.7271
  51   2.0000      -0.645237       -17.5578
  52   2.0000      -0.635637       -17.2966
  53   2.0000      -0.604824       -16.4581
  54   2.0000      -0.602140       -16.3851
  55   2.0000      -0.598775       -16.2935
  56   2.0000      -0.592366       -16.1191
  57   2.0000      -0.582990       -15.8640
  58   2.0000      -0.575555       -15.6616
  59   2.0000      -0.563807       -15.3420
  60   2.0000      -0.561203       -15.2711
  61   2.0000      -0.554029       -15.0759
  62   2.0000      -0.541105       -14.7242
  63   2.0000      -0.522433       -14.2161
  64   2.0000      -0.520228       -14.1561
  65   2.0000      -0.511457       -13.9175
  66   2.0000      -0.499200       -13.5839
  67   2.0000      -0.496494       -13.5103
  68   2.0000      -0.482182       -13.1208
  69   2.0000      -0.463859       -12.6223
  70   2.0000      -0.459237       -12.4965
  71   2.0000      -0.451393       -12.2830
  72   2.0000      -0.353970        -9.6320
  73   2.0000      -0.346976        -9.4417
  74   2.0000      -0.327788        -8.9196
  75   2.0000      -0.318388        -8.6638
  76   2.0000      -0.315412        -8.5828
  77   0.0000       0.073647         2.0040
  78   0.0000       0.107941         2.9372
  79   0.0000       0.119650         3.2559
  80   0.0000       0.132860         3.6153
  81   0.0000       0.140989         3.8365

MULLIKEN ATOMIC CHARGES
-----------------------
   0 C :   -0.287290
   1 C :    0.029259
   2 O :   -0.363652
   3 C :    0.454144
   4 O :   -0.413765
   5 C :   -0.181918
   6 C :    0.137783
   7 C :   -0.283644
   8 N :   -0.124103
   9 C :    0.201824
  10 S :   -0.439589
  11 N :   -0.199775
  12 C :    0.049712
  13 C :    0.060905
  14 C :   -0.165129
  15 C :   -0.134221
  16 C :   -0.276995
  17 C :    0.325851
  18 O :   -0.362682
  19 C :   -0.307920
  20 H :    0.114537
  21 H :    0.100813
  22 H :    0.088763
  23 H :    0.114714
  24 H :    0.102792
  25 H :    0.125738
  26 H :    0.124977
  27 H :    0.103747
  28 H :    0.197088
  29 H :    0.194009
  30 H :    0.155139
  31 H :    0.157101
  32 H :    0.160767
  33 H :    0.130427
  34 H :    0.240528
  35 H :    0.170065
Sum of atomic charges:   -0.0000000

LOEWDIN ATOMIC CHARGES
----------------------
   0 C :    0.104120
   1 C :   -0.014997
   2 O :    0.299793
   3 C :   -0.414308
   4 O :    0.115972
   5 C :   -0.092894
   6 C :   -0.071842
   7 C :    0.125798
   8 N :    0.404390
   9 C :   -0.457957
  10 S :   -0.036303
  11 N :    0.397355
  12 C :   -0.045584
  13 C :   -0.040697
  14 C :    0.021847
  15 C :    0.041515
  16 C :   -0.002373
  17 C :   -0.194217
  18 O :    0.393779
  19 C :    0.028679
  20 H :   -0.025104
  21 H :   -0.025496
  22 H :   -0.030967
  23 H :   -0.026300
  24 H :   -0.027825
  25 H :   -0.011039
  26 H :   -0.007948
  27 H :   -0.020047
  28 H :   -0.058881
  29 H :   -0.064019
  30 H :   -0.004555
  31 H :   -0.024572
  32 H :   -0.020549
  33 H :   -0.035837
  34 H :   -0.154185
  35 H :   -0.024750

  Mayer bond orders larger than 0.100000
B(  0-C ,  1-C ) :   0.9669 B(  0-C , 20-H ) :   0.9707 B(  0-C , 21-H ) :   0.9783
B(  0-C , 22-H ) :   0.9795 B(  1-C ,  2-O ) :   0.8881 B(  1-C , 23-H ) :   0.9724
B(  1-C , 24-H ) :   0.9849 B(  2-O ,  3-C ) :   1.1211 B(  3-C ,  4-O ) :   2.0056
B(  3-C ,  5-C ) :   1.0295 B(  5-C ,  6-C ) :   1.6656 B(  5-C , 12-C ) :   0.9632
B(  6-C ,  7-C ) :   0.9541 B(  6-C ,  8-N ) :   1.1404 B(  7-C , 25-H ) :   0.9633
B(  7-C , 26-H ) :   0.9692 B(  7-C , 27-H ) :   0.9887 B(  8-N ,  9-C ) :   1.1831
B(  8-N , 28-H ) :   0.9495 B(  9-C , 10-S ) :   1.6110 B(  9-C , 11-N ) :   1.3006
B( 11-N , 12-C ) :   0.9926 B( 11-N , 29-H ) :   0.9518 B( 12-C , 13-C ) :   0.9454
B( 12-C , 30-H ) :   0.9988 B( 13-C , 14-C ) :   1.3780 B( 13-C , 19-C ) :   1.3562
B( 14-C , 15-C ) :   1.3939 B( 14-C , 31-H ) :   0.9631 B( 15-C , 16-C ) :   1.3635
B( 15-C , 32-H ) :   0.9711 B( 16-C , 17-C ) :   1.3313 B( 16-C , 33-H ) :   0.9848
B( 17-C , 18-O ) :   1.1050 B( 17-C , 19-C ) :   1.3692 B( 18-O , 34-H ) :   0.9803
B( 19-C , 35-H ) :   0.9597

MP2 TOTAL ENERGY:    -1274.335923460 Eh
FINAL SINGLE POINT ENERGY     -1274.335923460218

DIPOLE MOMENT
-------------
                                X             Y             Z
Electronic contribution:     10.69609       8.57510       7.03754
Nuclear contribution   :    -12.01548      -9.92206      -7.87156
                        -----------------------------------------
Total Dipole Moment    :     -1.31940      -1.34695      -0.83402
                        -----------------------------------------
Magnitude (a.u.)       :      2.06172
Magnitude (Debye)      :      5.24047

Rotational constants in cm-1:     0.011587     0.009332     0.006681
Rotational constants in MHz :   347.383245   279.760776   200.286680

                             ****ORCA TERMINATED NORMALLY****
TOTAL RUN TIME: 0 days 1 hours 40 minutes 28 seconds 322 msec
