                         Program Version 4.2.0 -  RELEASE  -
|  1> ! ri-mp2 cc-pvtz cc-pvtz/c TightSCF  NoKeepInts
|  2>
|  3> %scf
|  4>   MaxCore 4096
|  5> end
|  6> *xyz  0  1
|  7>     C       15.3496437   13.7658767   15.4764879
|  8>     C       15.7499995   14.3861342   16.8266115
|  9>     O       16.8718884   15.2576548   16.6010872
| 10>     C       16.6488788   16.6036469   16.5446012
| 11>     O       15.6693073   17.0623654   15.9823034
| 12>     C       17.4955232   17.3739982   17.5210453
| 13>     C       17.4034175   18.7217076   17.6553788
| 14>     C       16.4865019   19.6581730   16.8977119
| 15>     N       18.2428605   19.3969340   18.5463826
| 16>     C       19.2681567   18.8201706   19.2469880
| 17>     S       20.2814077   19.7085588   20.2061073
| 18>     N       19.4172939   17.4639997   19.1080557
| 19>     C       18.4889880   16.5769988   18.3839669
| 20>     C       17.7844146   15.6575889   19.3777076
| 21>     C       18.1330248   14.2960610   19.4559507
| 22>     C       17.4818139   13.4421365   20.3619291
| 23>     C       16.4766102   13.9542919   21.1998312
| 24>     C       16.1325734   15.3112542   21.1303231
| 25>     O       15.1639208   15.8091998   21.9392624
| 26>     C       16.7814259   16.1583362   20.2267496
| 27>     H       15.0289988   14.5458660   14.7740827
| 28>     H       14.5192867   13.0616939   15.6074260
| 29>     H       16.1942702   13.2252627   15.0319775
| 30>     H       14.9038769   14.9263040   17.2739311
| 31>     H       16.0439400   13.5838496   17.5154874
| 32>     H       15.4362434   19.4370537   17.1275111
| 33>     H       16.6165748   19.5353401   15.8149586
| 34>     H       16.6628132   20.7144710   17.1322314
| 35>     H       18.1495752   20.3938187   18.6588712
| 36>     H       20.1600918   17.0627909   19.6658419
| 37>     H       19.0907901   15.9560356   17.7053620
| 38>     H       18.9073945   13.8967661   18.8061912
| 39>     H       17.7578093   12.3902233   20.4141921
| 40>     H       15.9717909   13.2992350   21.9023995
| 41>     H       14.8707237   15.0914547   22.5205679
| 42>     H       16.5051697   17.2067473   20.1944874
| 43> *
| 44>
| 45>                          ****END OF INPUT****

CARTESIAN COORDINATES (ANGSTROEM)
---------------------------------
  C     15.349644   13.765877   15.476488
  C     15.749999   14.386134   16.826611
  O     16.871888   15.257655   16.601087
  C     16.648879   16.603647   16.544601
  O     15.669307   17.062365   15.982303
  C     17.495523   17.373998   17.521045
  C     17.403417   18.721708   17.655379
  C     16.486502   19.658173   16.897712
  N     18.242860   19.396934   18.546383
  C     19.268157   18.820171   19.246988
  S     20.281408   19.708559   20.206107
  N     19.417294   17.464000   19.108056
  C     18.488988   16.576999   18.383967
  C     17.784415   15.657589   19.377708
  C     18.133025   14.296061   19.455951
  C     17.481814   13.442137   20.361929
  C     16.476610   13.954292   21.199831
  C     16.132573   15.311254   21.130323
  O     15.163921   15.809200   21.939262
  C     16.781426   16.158336   20.226750
  H     15.028999   14.545866   14.774083
  H     14.519287   13.061694   15.607426
  H     16.194270   13.225263   15.031977
  H     14.903877   14.926304   17.273931
  H     16.043940   13.583850   17.515487
  H     15.436243   19.437054   17.127511
  H     16.616575   19.535340   15.814959
  H     16.662813   20.714471   17.132231
  H     18.149575   20.393819   18.658871
  H     20.160092   17.062791   19.665842
  H     19.090790   15.956036   17.705362
  H     18.907394   13.896766   18.806191
  H     17.757809   12.390223   20.414192
  H     15.971791   13.299235   21.902400
  H     14.870724   15.091455   22.520568
  H     16.505170   17.206747   20.194487

 Total Charge           Charge          ....    0
 Multiplicity           Mult            ....    1
 Number of Electrons    NEL             ....  154
 Basis Dimension        Dim             ....  828

ORBITAL ENERGIES
----------------

  NO   OCC          E(Eh)            E(eV)
   0   2.0000     -91.889672     -2500.4451
   1   2.0000     -20.599231      -560.5336
   2   2.0000     -20.590801      -560.3042
   3   2.0000     -20.545267      -559.0651
   4   2.0000     -15.629995      -425.3138
   5   2.0000     -15.609127      -424.7459
   6   2.0000     -11.394613      -310.0632
   7   2.0000     -11.384792      -309.7960
   8   2.0000     -11.336600      -308.4846
   9   2.0000     -11.316777      -307.9452
  10   2.0000     -11.310417      -307.7721
  11   2.0000     -11.294574      -307.3410
  12   2.0000     -11.262260      -306.4617
  13   2.0000     -11.259315      -306.3815
  14   2.0000     -11.258141      -306.3496
  15   2.0000     -11.253077      -306.2118
  16   2.0000     -11.245680      -306.0105
  17   2.0000     -11.240831      -305.8786
  18   2.0000     -11.240555      -305.8710
  19   2.0000     -11.219472      -305.2974
  20   2.0000      -8.894730      -242.0379
  21   2.0000      -6.576302      -178.9503
  22   2.0000      -6.574299      -178.8958
  23   2.0000      -6.573711      -178.8798
  24   2.0000      -1.450258       -39.4635
  25   2.0000      -1.418876       -38.6096
  26   2.0000      -1.353925       -36.8422
  27   2.0000      -1.340994       -36.4903
  28   2.0000      -1.239588       -33.7309
  29   2.0000      -1.159991       -31.5650
  30   2.0000      -1.121143       -30.5079
  31   2.0000      -1.044438       -28.4206
  32   2.0000      -1.033543       -28.1241
  33   2.0000      -1.017887       -27.6981
  34   2.0000      -0.996136       -27.1062
  35   2.0000      -0.984677       -26.7944
  36   2.0000      -0.924005       -25.1435
  37   2.0000      -0.885156       -24.0863
  38   2.0000      -0.848363       -23.0851
  39   2.0000      -0.840060       -22.8592
  40   2.0000      -0.836421       -22.7602
  41   2.0000      -0.822971       -22.3942
  42   2.0000      -0.758721       -20.6458
  43   2.0000      -0.734025       -19.9738
  44   2.0000      -0.723615       -19.6906
  45   2.0000      -0.698116       -18.9967
  46   2.0000      -0.689574       -18.7643
  47   2.0000      -0.679415       -18.4878
  48   2.0000      -0.671487       -18.2721
  49   2.0000      -0.655030       -17.8243
  50   2.0000      -0.647682       -17.6243
  51   2.0000      -0.644999       -17.5513
  52   2.0000      -0.631247       -17.1771
  53   2.0000      -0.609821       -16.5941
  54   2.0000      -0.608153       -16.5487
  55   2.0000      -0.600961       -16.3530
  56   2.0000      -0.600199       -16.3322
  57   2.0000      -0.580985       -15.8094
  58   2.0000      -0.573489       -15.6054
  59   2.0000      -0.569993       -15.5103
  60   2.0000      -0.565267       -15.3817
  61   2.0000      -0.539311       -14.6754
  62   2.0000      -0.534307       -14.5392
  63   2.0000      -0.527291       -14.3483
  64   2.0000      -0.516337       -14.0503
  65   2.0000      -0.513948       -13.9852
  66   2.0000      -0.502545       -13.6749
  67   2.0000      -0.496819       -13.5191
  68   2.0000      -0.488572       -13.2947
  69   2.0000      -0.464101       -12.6288
  70   2.0000      -0.454058       -12.3555
  71   2.0000      -0.446399       -12.1471
  72   2.0000      -0.354962        -9.6590
  73   2.0000      -0.351992        -9.5782
  74   2.0000      -0.329309        -8.9609
  75   2.0000      -0.324142        -8.8204
  76   2.0000      -0.317102        -8.6288
  77   0.0000       0.072560         1.9745
  78   0.0000       0.103205         2.8084
  79   0.0000       0.124074         3.3762
  80   0.0000       0.130996         3.5646
  81   0.0000       0.135869         3.6972

MULLIKEN ATOMIC CHARGES
-----------------------
   0 C :   -0.270216
   1 C :    0.037077
   2 O :   -0.372525
   3 C :    0.458346
   4 O :   -0.421209
   5 C :   -0.235634
   6 C :    0.159850
   7 C :   -0.270688
   8 N :   -0.123061
   9 C :    0.214009
  10 S :   -0.439702
  11 N :   -0.207425
  12 C :    0.070665
  13 C :    0.060034
  14 C :   -0.203527
  15 C :   -0.127613
  16 C :   -0.279415
  17 C :    0.313392
  18 O :   -0.355657
  19 C :   -0.261170
  20 H :    0.111799
  21 H :    0.088402
  22 H :    0.090245
  23 H :    0.095710
  24 H :    0.111901
  25 H :    0.132232
  26 H :    0.130216
  27 H :    0.095617
  28 H :    0.197581
  29 H :    0.195152
  30 H :    0.150003
  31 H :    0.151320
  32 H :    0.164353
  33 H :    0.131975
  34 H :    0.241282
  35 H :    0.166681
Sum of atomic charges:   -0.0000000

LOEWDIN ATOMIC CHARGES
----------------------
   0 C :    0.104617
   1 C :   -0.016561
   2 O :    0.300322
   3 C :   -0.417055
   4 O :    0.106419
   5 C :   -0.096636
   6 C :   -0.058847
   7 C :    0.131543
   8 N :    0.406826
   9 C :   -0.455824
  10 S :   -0.034934
  11 N :    0.396123
  12 C :   -0.052235
  13 C :   -0.036989
  14 C :    0.014261
  15 C :    0.039407
  16 C :   -0.002426
  17 C :   -0.189488
  18 O :    0.395898
  19 C :    0.031094
  20 H :   -0.023928
  21 H :   -0.029524
  22 H :   -0.029324
  23 H :   -0.028528
  24 H :   -0.027640
  25 H :   -0.004711
  26 H :   -0.003936
  27 H :   -0.023146
  28 H :   -0.057411
  29 H :   -0.064802
  30 H :   -0.009768
  31 H :   -0.029718
  32 H :   -0.020771
  33 H :   -0.035166
  34 H :   -0.153291
  35 H :   -0.023849

  Mayer bond orders larger than 0.100000
B(  0-C ,  1-C ) :   0.9822 B(  0-C , 20-H ) :   0.9765 B(  0-C , 21-H ) :   0.9779
B(  0-C , 22-H ) :   0.9777 B(  1-C ,  2-O ) :   0.8754 B(  1-C , 23-H ) :   0.9708
B(  1-C , 24-H ) :   0.9745 B(  2-O ,  3-C ) :   1.1220 B(  3-C ,  4-O ) :   1.9817
B(  3-C ,  5-C ) :   1.0695 B(  5-C ,  6-C ) :   1.6486 B(  5-C , 12-C ) :   0.9707
B(  6-C ,  7-C ) :   0.9666 B(  6-C ,  8-N ) :   1.1613 B(  7-C , 25-H ) :   0.9594
B(  7-C , 26-H ) :   0.9611 B(  7-C , 27-H ) :   0.9906 B(  8-N ,  9-C ) :   1.1829
B(  8-N , 28-H ) :   0.9476 B(  9-C , 10-S ) :   1.6062 B(  9-C , 11-N ) :   1.3069
B( 11-N , 12-C ) :   0.9770 B( 11-N , 29-H ) :   0.9516 B( 12-C , 13-C ) :   0.9373
B( 12-C , 30-H ) :   1.0020 B( 13-C , 14-C ) :   1.3480 B( 13-C , 19-C ) :   1.3790
B( 14-C , 15-C ) :   1.3887 B( 14-C , 31-H ) :   0.9738 B( 15-C , 16-C ) :   1.3618
B( 15-C , 32-H ) :   0.9696 B( 16-C , 17-C ) :   1.3308 B( 16-C , 33-H ) :   0.9844
B( 17-C , 18-O ) :   1.1121 B( 17-C , 19-C ) :   1.3714 B( 18-O , 34-H ) :   0.9793
B( 19-C , 35-H ) :   0.9583

MP2 TOTAL ENERGY:    -1274.339388171 Eh
FINAL SINGLE POINT ENERGY     -1274.339388171126

DIPOLE MOMENT
-------------
                                X             Y             Z
Electronic contribution:     10.08928      10.17573       8.41808
Nuclear contribution   :    -11.09048     -11.73422      -8.53625
                        -----------------------------------------
Total Dipole Moment    :     -1.00120      -1.55848      -0.11816
                        -----------------------------------------
Magnitude (a.u.)       :      1.85613
Magnitude (Debye)      :      4.71792

Rotational constants in cm-1:     0.012069     0.008608     0.006191
Rotational constants in MHz :   361.822972   258.068101   185.612244

                             ****ORCA TERMINATED NORMALLY****
TOTAL RUN TIME: 0 days 1 hours 41 minutes 7 seconds 113 msec
