                         Program Version 5.0.0 -  RELEASE  -
|  1> ! ri-mp2 cc-pvtz cc-pvtz/c TightSCF NoKeepInts
|  2>
|  3> %scf
|  4>   MaxCore 4096
|  5> end
|  6> *xyz  0  1
|  7>     C       14.2259952   15.6145487   16.3007908
|  8>     C       15.5284637   15.1875927   17.0001140
|  9>     O       16.6120436   15.3149828   16.0566384
| 10>     C       17.8619050   15.6842382   16.4758019
| 11>     O       18.7851216   14.8954277   16.3891281
| 12>     C       17.9243106   16.8625777   17.3969351
| 13>     C       17.3004001   18.0399645   17.1523912
| 14>     C       16.5046747   18.4313939   15.9266175
| 15>     N       17.4503127   19.1037588   18.0454649
| 16>     C       18.2948681   19.1053714   19.1248175
| 17>     S       18.4763568   20.4396229   20.0843944
| 18>     N       18.9808494   17.9418307   19.3706945
| 19>     C       18.7856393   16.6706334   18.6463683
| 20>     C       18.1722911   15.6080911   19.5542735
| 21>     C       18.6951120   14.3021197   19.5702665
| 22>     C       18.1196523   13.3094632   20.3807188
| 23>     C       17.0087674   13.6232244   21.1818667
| 24>     C       16.4811177   14.9211150   21.1652863
| 25>     O       15.3998034   15.2246198   21.9261591
| 26>     C       17.0554083   15.9071346   20.3568375
| 27>     H       13.3735952   15.5066674   16.9826692
| 28>     H       14.0401234   14.9843325   15.4219523
| 29>     H       14.2685641   16.6571707   15.9717147
| 30>     H       15.6725373   15.8225661   17.8826647
| 31>     H       15.4558616   14.1470770   17.3436316
| 32>     H       16.5126589   17.6582792   15.1498738
| 33>     H       16.9224628   19.3362647   15.4672399
| 34>     H       15.4604649   18.6411251   16.1860393
| 35>     H       16.9671182   19.9716379   17.8738704
| 36>     H       19.5810782   17.9643641   20.1854804
| 37>     H       19.7751592   16.3164286   18.3212975
| 38>     H       19.5426609   14.0509965   18.9358738
| 39>     H       18.5318455   12.3017047   20.3793898
| 40>     H       16.5598160   12.8582162   21.8068536
| 41>     H       15.1910145   14.4427342   22.4597698
| 42>     H       16.6289466   16.9047238   20.3601139
| 43> *
| 44>
| 45>                          ****END OF INPUT****

CARTESIAN COORDINATES (ANGSTROEM)
---------------------------------
  C     14.225995   15.614549   16.300791
  C     15.528464   15.187593   17.000114
  O     16.612044   15.314983   16.056638
  C     17.861905   15.684238   16.475802
  O     18.785122   14.895428   16.389128
  C     17.924311   16.862578   17.396935
  C     17.300400   18.039964   17.152391
  C     16.504675   18.431394   15.926617
  N     17.450313   19.103759   18.045465
  C     18.294868   19.105371   19.124817
  S     18.476357   20.439623   20.084394
  N     18.980849   17.941831   19.370694
  C     18.785639   16.670633   18.646368
  C     18.172291   15.608091   19.554274
  C     18.695112   14.302120   19.570266
  C     18.119652   13.309463   20.380719
  C     17.008767   13.623224   21.181867
  C     16.481118   14.921115   21.165286
  O     15.399803   15.224620   21.926159
  C     17.055408   15.907135   20.356838
  H     13.373595   15.506667   16.982669
  H     14.040123   14.984332   15.421952
  H     14.268564   16.657171   15.971715
  H     15.672537   15.822566   17.882665
  H     15.455862   14.147077   17.343632
  H     16.512659   17.658279   15.149874
  H     16.922463   19.336265   15.467240
  H     15.460465   18.641125   16.186039
  H     16.967118   19.971638   17.873870
  H     19.581078   17.964364   20.185480
  H     19.775159   16.316429   18.321298
  H     19.542661   14.050996   18.935874
  H     18.531845   12.301705   20.379390
  H     16.559816   12.858216   21.806854
  H     15.191014   14.442734   22.459770
  H     16.628947   16.904724   20.360114

 Total Charge           Charge          ....    0
 Multiplicity           Mult            ....    1
 Number of Electrons    NEL             ....  154
 Basis Dimension        Dim             ....  828

ORBITAL ENERGIES
----------------

  NO   OCC          E(Eh)            E(eV)
   0   2.0000     -91.890817     -2500.4762
   1   2.0000     -20.599360      -560.5371
   2   2.0000     -20.590694      -560.3013
   3   2.0000     -20.553938      -559.3011
   4   2.0000     -15.629036      -425.2877
   5   2.0000     -15.611228      -424.8031
   6   2.0000     -11.396210      -310.1066
   7   2.0000     -11.387074      -309.8580
   8   2.0000     -11.334051      -308.4152
   9   2.0000     -11.315990      -307.9238
  10   2.0000     -11.312758      -307.8358
  11   2.0000     -11.302206      -307.5486
  12   2.0000     -11.265463      -306.5488
  13   2.0000     -11.264912      -306.5338
  14   2.0000     -11.262116      -306.4578
  15   2.0000     -11.255824      -306.2866
  16   2.0000     -11.245415      -306.0033
  17   2.0000     -11.241585      -305.8991
  18   2.0000     -11.238221      -305.8075
  19   2.0000     -11.234961      -305.7188
  20   2.0000      -8.895910      -242.0700
  21   2.0000      -6.577491      -178.9826
  22   2.0000      -6.575473      -178.9277
  23   2.0000      -6.574892      -178.9119
  24   2.0000      -1.448554       -39.4172
  25   2.0000      -1.419170       -38.6176
  26   2.0000      -1.358669       -36.9713
  27   2.0000      -1.341848       -36.5135
  28   2.0000      -1.240671       -33.7604
  29   2.0000      -1.160437       -31.5771
  30   2.0000      -1.124867       -30.6092
  31   2.0000      -1.047802       -28.5121
  32   2.0000      -1.039012       -28.2730
  33   2.0000      -1.017957       -27.7000
  34   2.0000      -1.004728       -27.3400
  35   2.0000      -0.989204       -26.9176
  36   2.0000      -0.927240       -25.2315
  37   2.0000      -0.883000       -24.0276
  38   2.0000      -0.853463       -23.2239
  39   2.0000      -0.842841       -22.9349
  40   2.0000      -0.836217       -22.7546
  41   2.0000      -0.835190       -22.7267
  42   2.0000      -0.757776       -20.6201
  43   2.0000      -0.738082       -20.0842
  44   2.0000      -0.731683       -19.9101
  45   2.0000      -0.697378       -18.9766
  46   2.0000      -0.687891       -18.7185
  47   2.0000      -0.682582       -18.5740
  48   2.0000      -0.676365       -18.4048
  49   2.0000      -0.661884       -18.0108
  50   2.0000      -0.652963       -17.7680
  51   2.0000      -0.641516       -17.4566
  52   2.0000      -0.633598       -17.2411
  53   2.0000      -0.624112       -16.9830
  54   2.0000      -0.609291       -16.5796
  55   2.0000      -0.607536       -16.5319
  56   2.0000      -0.603018       -16.4090
  57   2.0000      -0.584602       -15.9078
  58   2.0000      -0.577109       -15.7039
  59   2.0000      -0.568794       -15.4777
  60   2.0000      -0.562574       -15.3084
  61   2.0000      -0.555824       -15.1247
  62   2.0000      -0.542516       -14.7626
  63   2.0000      -0.529280       -14.4025
  64   2.0000      -0.523376       -14.2418
  65   2.0000      -0.515871       -14.0376
  66   2.0000      -0.502392       -13.6708
  67   2.0000      -0.496495       -13.5103
  68   2.0000      -0.486373       -13.2349
  69   2.0000      -0.468572       -12.7505
  70   2.0000      -0.461652       -12.5622
  71   2.0000      -0.449979       -12.2446
  72   2.0000      -0.358060        -9.7433
  73   2.0000      -0.351268        -9.5585
  74   2.0000      -0.330282        -8.9874
  75   2.0000      -0.323590        -8.8053
  76   2.0000      -0.319378        -8.6907
  77   0.0000       0.077138         2.0990
  78   0.0000       0.103605         2.8192
  79   0.0000       0.116848         3.1796
  80   0.0000       0.129836         3.5330
  81   0.0000       0.132715         3.6114

MULLIKEN ATOMIC CHARGES
-----------------------
   0 C :   -0.273832
   1 C :    0.019072
   2 O :   -0.349802
   3 C :    0.441556
   4 O :   -0.378883
   5 C :   -0.224010
   6 C :    0.159609
   7 C :   -0.345186
   8 N :   -0.131052
   9 C :    0.196803
  10 S :   -0.438497
  11 N :   -0.207778
  12 C :    0.067241
  13 C :    0.034207
  14 C :   -0.185166
  15 C :   -0.132617
  16 C :   -0.277087
  17 C :    0.319872
  18 O :   -0.357786
  19 C :   -0.296439
  20 H :    0.098629
  21 H :    0.108078
  22 H :    0.090337
  23 H :    0.098528
  24 H :    0.122915
  25 H :    0.138346
  26 H :    0.144412
  27 H :    0.119719
  28 H :    0.197587
  29 H :    0.196555
  30 H :    0.162764
  31 H :    0.166931
  32 H :    0.163471
  33 H :    0.132039
  34 H :    0.241598
  35 H :    0.177866
Sum of atomic charges:    0.0000000

LOEWDIN ATOMIC CHARGES
----------------------
   0 C :    0.108403
   1 C :   -0.015282
   2 O :    0.292170
   3 C :   -0.416332
   4 O :    0.131617
   5 C :   -0.087992
   6 C :   -0.088625
   7 C :    0.125068
   8 N :    0.403421
   9 C :   -0.457824
  10 S :   -0.035654
  11 N :    0.397182
  12 C :   -0.045126
  13 C :   -0.043674
  14 C :    0.022142
  15 C :    0.044380
  16 C :   -0.000624
  17 C :   -0.194619
  18 O :    0.394168
  19 C :    0.026740
  20 H :   -0.023345
  21 H :   -0.024224
  22 H :   -0.033234
  23 H :   -0.038330
  24 H :   -0.024989
  25 H :   -0.010008
  26 H :   -0.010519
  27 H :   -0.018150
  28 H :   -0.056583
  29 H :   -0.063475
  30 H :   -0.002823
  31 H :   -0.022223
  32 H :   -0.018856
  33 H :   -0.034784
  34 H :   -0.153034
  35 H :   -0.024962

  Mayer bond orders larger than 0.100000
B(  0-C ,  1-C ) :   0.9775 B(  0-C , 20-H ) :   0.9764 B(  0-C , 21-H ) :   0.9791
B(  0-C , 22-H ) :   0.9782 B(  1-C ,  2-O ) :   0.8976 B(  1-C , 23-H ) :   0.9599
B(  1-C , 24-H ) :   0.9812 B(  2-O ,  3-C ) :   1.1423 B(  3-C ,  4-O ) :   2.0882
B(  3-C ,  5-C ) :   0.9494 B(  5-C ,  6-C ) :   1.6673 B(  5-C , 12-C ) :   0.9596
B(  6-C ,  7-C ) :   0.9455 B(  6-C ,  8-N ) :   1.1265 B(  7-C , 25-H ) :   0.9755
B(  7-C , 26-H ) :   0.9698 B(  7-C , 27-H ) :   0.9661 B(  8-N ,  9-C ) :   1.1893
B(  8-N , 28-H ) :   0.9516 B(  9-C , 10-S ) :   1.6142 B(  9-C , 11-N ) :   1.2930
B( 11-N , 12-C ) :   0.9963 B( 11-N , 29-H ) :   0.9506 B( 12-C , 13-C ) :   0.9415
B( 12-C , 30-H ) :   0.9985 B( 13-C , 14-C ) :   1.3875 B( 13-C , 19-C ) :   1.3442
B( 14-C , 15-C ) :   1.3965 B( 14-C , 31-H ) :   0.9601 B( 15-C , 16-C ) :   1.3640
B( 15-C , 32-H ) :   0.9700 B( 16-C , 17-C ) :   1.3296 B( 16-C , 33-H ) :   0.9844
B( 17-C , 18-O ) :   1.1119 B( 17-C , 19-C ) :   1.3676 B( 18-O , 34-H ) :   0.9794
B( 19-C , 35-H ) :   0.9570

MP2 TOTAL ENERGY:    -1274.330802314 Eh
FINAL SINGLE POINT ENERGY     -1274.330802314319

DIPOLE MOMENT
-------------
                                X             Y             Z
Electronic contribution:     11.73124       6.08304       7.21340
Nuclear contribution   :    -13.15867      -7.14502      -7.47860
                        -----------------------------------------
Total Dipole Moment    :     -1.42743      -1.06197      -0.26520
                        -----------------------------------------
Magnitude (a.u.)       :      1.79880
Magnitude (Debye)      :      4.57218

Rotational constants in cm-1:     0.011234     0.009375     0.006865
Rotational constants in MHz :   336.791417   281.063304   205.820488

                             ****ORCA TERMINATED NORMALLY****
TOTAL RUN TIME: 0 days 1 hours 51 minutes 54 seconds 72 msec
