                         Program Version 4.2.0 -  RELEASE  -
|  1> ! ri-mp2 cc-pvtz cc-pvtz/c TightSCF  NoKeepInts
|  2>
|  3> %scf
|  4>   MaxCore 4096
|  5> end
|  6> *xyz  0  1
|  7>     C       15.8147145   13.4704809   17.3387294
|  8>     C       16.2953513   14.1554840   16.0493662
|  9>     O       17.3303574   15.1016924   16.3883674
| 10>     C       17.1090229   16.4361819   16.1857897
| 11>     O       16.3772397   16.8346913   15.2956991
| 12>     C       17.6197187   17.2997470   17.3072645
| 13>     C       17.4064445   18.6406674   17.3477471
| 14>     C       16.6180172   19.4779582   16.3631602
| 15>     N       17.9865155   19.4114359   18.3601283
| 16>     C       18.9231221   18.9538826   19.2482183
| 17>     S       19.6852825   19.9617353   20.3157304
| 18>     N       19.2094441   17.6137124   19.1948712
| 19>     C       18.4519084   16.6226122   18.4097130
| 20>     C       17.6109945   15.7781924   19.3617990
| 21>     C       18.0697808   14.5123545   19.7721263
| 22>     C       17.3206430   13.7369592   20.6733160
| 23>     C       16.1045851   14.2331053   21.1729197
| 24>     C       15.6503082   15.4981569   20.7759919
| 25>     O       14.4792924   15.9824093   21.2606819
| 26>     C       16.3983240   16.2681843   19.8800436
| 27>     H       16.6450521   12.9575191   17.8380759
| 28>     H       15.0409611   12.7271641   17.1124609
| 29>     H       15.3879612   14.2050979   18.0318804
| 30>     H       16.7030126   13.3989949   15.3666393
| 31>     H       15.4422607   14.6343526   15.5498151
| 32>     H       15.5791648   19.1286674   16.3054245
| 33>     H       17.0471042   19.3960329   15.3563669
| 34>     H       16.5941789   20.5418312   16.6266466
| 35>     H       17.7941355   20.3993355   18.4054389
| 36>     H       19.8818689   17.2997802   19.8824798
| 37>     H       19.1807922   15.9629156   17.9180246
| 38>     H       19.0107970   14.1269904   19.3889049
| 39>     H       17.6833383   12.7581928   20.9825529
| 40>     H       15.5225990   13.6382999   21.8692141
| 41>     H       14.1381295   15.3365416   21.8974781
| 42>     H       16.0345773   17.2506407   19.6009339
| 43> *
| 44>
| 45>                          ****END OF INPUT****

CARTESIAN COORDINATES (ANGSTROEM)
---------------------------------
  C     15.814714   13.470481   17.338729
  C     16.295351   14.155484   16.049366
  O     17.330357   15.101692   16.388367
  C     17.109023   16.436182   16.185790
  O     16.377240   16.834691   15.295699
  C     17.619719   17.299747   17.307264
  C     17.406444   18.640667   17.347747
  C     16.618017   19.477958   16.363160
  N     17.986515   19.411436   18.360128
  C     18.923122   18.953883   19.248218
  S     19.685282   19.961735   20.315730
  N     19.209444   17.613712   19.194871
  C     18.451908   16.622612   18.409713
  C     17.610995   15.778192   19.361799
  C     18.069781   14.512355   19.772126
  C     17.320643   13.736959   20.673316
  C     16.104585   14.233105   21.172920
  C     15.650308   15.498157   20.775992
  O     14.479292   15.982409   21.260682
  C     16.398324   16.268184   19.880044
  H     16.645052   12.957519   17.838076
  H     15.040961   12.727164   17.112461
  H     15.387961   14.205098   18.031880
  H     16.703013   13.398995   15.366639
  H     15.442261   14.634353   15.549815
  H     15.579165   19.128667   16.305425
  H     17.047104   19.396033   15.356367
  H     16.594179   20.541831   16.626647
  H     17.794135   20.399335   18.405439
  H     19.881869   17.299780   19.882480
  H     19.180792   15.962916   17.918025
  H     19.010797   14.126990   19.388905
  H     17.683338   12.758193   20.982553
  H     15.522599   13.638300   21.869214
  H     14.138129   15.336542   21.897478
  H     16.034577   17.250641   19.600934

 Total Charge           Charge          ....    0
 Multiplicity           Mult            ....    1
 Number of Electrons    NEL             ....  154
 Basis Dimension        Dim             ....  828

ORBITAL ENERGIES
----------------

  NO   OCC          E(Eh)            E(eV)
   0   2.0000     -91.889288     -2500.4347
   1   2.0000     -20.599187      -560.5324
   2   2.0000     -20.596133      -560.4493
   3   2.0000     -20.542227      -558.9824
   4   2.0000     -15.629922      -425.3118
   5   2.0000     -15.608330      -424.7243
   6   2.0000     -11.394473      -310.0594
   7   2.0000     -11.384098      -309.7771
   8   2.0000     -11.336859      -308.4916
   9   2.0000     -11.316312      -307.9325
  10   2.0000     -11.309819      -307.7558
  11   2.0000     -11.293221      -307.3042
  12   2.0000     -11.261698      -306.4464
  13   2.0000     -11.259529      -306.3874
  14   2.0000     -11.257521      -306.3327
  15   2.0000     -11.252416      -306.1938
  16   2.0000     -11.245070      -305.9939
  17   2.0000     -11.239772      -305.8497
  18   2.0000     -11.239620      -305.8456
  19   2.0000     -11.220937      -305.3372
  20   2.0000      -8.894331      -242.0270
  21   2.0000      -6.575901      -178.9394
  22   2.0000      -6.573902      -178.8850
  23   2.0000      -6.573312      -178.8689
  24   2.0000      -1.448977       -39.4287
  25   2.0000      -1.418846       -38.6088
  26   2.0000      -1.352763       -36.8106
  27   2.0000      -1.340934       -36.4887
  28   2.0000      -1.239300       -33.7231
  29   2.0000      -1.159306       -31.5463
  30   2.0000      -1.120690       -30.4955
  31   2.0000      -1.043677       -28.3999
  32   2.0000      -1.035138       -28.1675
  33   2.0000      -1.017481       -27.6871
  34   2.0000      -0.996501       -27.1162
  35   2.0000      -0.984634       -26.7933
  36   2.0000      -0.923611       -25.1327
  37   2.0000      -0.888023       -24.1643
  38   2.0000      -0.847593       -23.0642
  39   2.0000      -0.839805       -22.8522
  40   2.0000      -0.835275       -22.7290
  41   2.0000      -0.815422       -22.1888
  42   2.0000      -0.761485       -20.7211
  43   2.0000      -0.733853       -19.9691
  44   2.0000      -0.721241       -19.6260
  45   2.0000      -0.697970       -18.9927
  46   2.0000      -0.689021       -18.7492
  47   2.0000      -0.678347       -18.4588
  48   2.0000      -0.670979       -18.2583
  49   2.0000      -0.666984       -18.1496
  50   2.0000      -0.647825       -17.6282
  51   2.0000      -0.644630       -17.5413
  52   2.0000      -0.637033       -17.3346
  53   2.0000      -0.610078       -16.6011
  54   2.0000      -0.602640       -16.3987
  55   2.0000      -0.599838       -16.3224
  56   2.0000      -0.586424       -15.9574
  57   2.0000      -0.578820       -15.7505
  58   2.0000      -0.570920       -15.5355
  59   2.0000      -0.565973       -15.4009
  60   2.0000      -0.565542       -15.3892
  61   2.0000      -0.550748       -14.9866
  62   2.0000      -0.536959       -14.6114
  63   2.0000      -0.527475       -14.3533
  64   2.0000      -0.523608       -14.2481
  65   2.0000      -0.513020       -13.9600
  66   2.0000      -0.502985       -13.6869
  67   2.0000      -0.495073       -13.4716
  68   2.0000      -0.483663       -13.1612
  69   2.0000      -0.463122       -12.6022
  70   2.0000      -0.451117       -12.2755
  71   2.0000      -0.447564       -12.1788
  72   2.0000      -0.355963        -9.6862
  73   2.0000      -0.351816        -9.5734
  74   2.0000      -0.328936        -8.9508
  75   2.0000      -0.323584        -8.8052
  76   2.0000      -0.316562        -8.6141
  77   0.0000       0.074440         2.0256
  78   0.0000       0.104336         2.8391
  79   0.0000       0.122893         3.3441
  80   0.0000       0.130948         3.5633
  81   0.0000       0.134415         3.6576

MULLIKEN ATOMIC CHARGES
-----------------------
   0 C :   -0.295716
   1 C :    0.033483
   2 O :   -0.365175
   3 C :    0.471929
   4 O :   -0.426800
   5 C :   -0.248193
   6 C :    0.153736
   7 C :   -0.269534
   8 N :   -0.122920
   9 C :    0.216719
  10 S :   -0.440478
  11 N :   -0.207660
  12 C :    0.055422
  13 C :    0.089504
  14 C :   -0.209844
  15 C :   -0.123336
  16 C :   -0.273674
  17 C :    0.308336
  18 O :   -0.359198
  19 C :   -0.261951
  20 H :    0.097322
  21 H :    0.109789
  22 H :    0.104974
  23 H :    0.101686
  24 H :    0.108383
  25 H :    0.130051
  26 H :    0.133181
  27 H :    0.094861
  28 H :    0.198019
  29 H :    0.193780
  30 H :    0.149547
  31 H :    0.149330
  32 H :    0.163524
  33 H :    0.132079
  34 H :    0.241484
  35 H :    0.167341
Sum of atomic charges:   -0.0000000

LOEWDIN ATOMIC CHARGES
----------------------
   0 C :    0.103477
   1 C :   -0.011543
   2 O :    0.297368
   3 C :   -0.415489
   4 O :    0.100975
   5 C :   -0.095966
   6 C :   -0.057927
   7 C :    0.131083
   8 N :    0.407398
   9 C :   -0.454990
  10 S :   -0.034958
  11 N :    0.396327
  12 C :   -0.053066
  13 C :   -0.035154
  14 C :    0.014355
  15 C :    0.044629
  16 C :   -0.001405
  17 C :   -0.190102
  18 O :    0.396108
  19 C :    0.029376
  20 H :   -0.029961
  21 H :   -0.026917
  22 H :   -0.025926
  23 H :   -0.029366
  24 H :   -0.028433
  25 H :   -0.005226
  26 H :   -0.003364
  27 H :   -0.023401
  28 H :   -0.057484
  29 H :   -0.065715
  30 H :   -0.008609
  31 H :   -0.031099
  32 H :   -0.020770
  33 H :   -0.035178
  34 H :   -0.153186
  35 H :   -0.025861

  Mayer bond orders larger than 0.100000
B(  0-C ,  1-C ) :   0.9717 B(  0-C , 20-H ) :   0.9738 B(  0-C , 21-H ) :   0.9784
B(  0-C , 22-H ) :   0.9729 B(  1-C ,  2-O ) :   0.8856 B(  1-C , 23-H ) :   0.9869
B(  1-C , 24-H ) :   0.9728 B(  2-O ,  3-C ) :   1.1538 B(  3-C ,  4-O ) :   1.9837
B(  3-C ,  5-C ) :   1.0600 B(  5-C ,  6-C ) :   1.6513 B(  5-C , 12-C ) :   0.9763
B(  6-C ,  7-C ) :   0.9687 B(  6-C ,  8-N ) :   1.1608 B(  7-C , 25-H ) :   0.9611
B(  7-C , 26-H ) :   0.9587 B(  7-C , 27-H ) :   0.9902 B(  8-N ,  9-C ) :   1.1820
B(  8-N , 28-H ) :   0.9479 B(  9-C , 10-S ) :   1.6044 B(  9-C , 11-N ) :   1.3074
B( 11-N , 12-C ) :   0.9646 B( 11-N , 29-H ) :   0.9528 B( 12-C , 13-C ) :   0.9450
B( 12-C , 30-H ) :   1.0017 B( 13-C , 14-C ) :   1.3441 B( 13-C , 19-C ) :   1.3729
B( 14-C , 15-C ) :   1.3846 B( 14-C , 31-H ) :   0.9753 B( 15-C , 16-C ) :   1.3641
B( 15-C , 32-H ) :   0.9701 B( 16-C , 17-C ) :   1.3301 B( 16-C , 33-H ) :   0.9845
B( 17-C , 18-O ) :   1.1116 B( 17-C , 19-C ) :   1.3719 B( 18-O , 34-H ) :   0.9793
B( 19-C , 35-H ) :   0.9581

MP2 TOTAL ENERGY:    -1274.345228832 Eh
FINAL SINGLE POINT ENERGY     -1274.345228832500

DIPOLE MOMENT
-------------
                                X             Y             Z
Electronic contribution:      8.25292      11.15730       5.24096
Nuclear contribution   :     -9.20163     -12.82769      -5.35407
                        -----------------------------------------
Total Dipole Moment    :     -0.94871      -1.67039      -0.11310
                        -----------------------------------------
Magnitude (a.u.)       :      1.92433
Magnitude (Debye)      :      4.89125

Rotational constants in cm-1:     0.012296     0.008932     0.006444
Rotational constants in MHz :   368.615423   267.770421   193.182841

                             ****ORCA TERMINATED NORMALLY****
TOTAL RUN TIME: 0 days 1 hours 48 minutes 5 seconds 378 msec
