                         Program Version 4.2.0 -  RELEASE  -
|  1> ! ri-mp2 cc-pvtz cc-pvtz/c TightSCF  NoKeepInts
|  2>
|  3> %scf
|  4>   MaxCore 4096
|  5> end
|  6> *xyz  0  1
|  7>     C       14.8882992   16.1598691   17.3083943
|  8>     C       15.6329481   14.8940103   16.8367076
|  9>     O       16.8198955   15.1147087   16.0309275
| 10>     C       17.9925739   15.7148981   16.4245297
| 11>     O       19.0374359   15.1037367   16.2964233
| 12>     C       17.9125747   16.8720000   17.3586588
| 13>     C       17.3878878   18.0603494   16.9815790
| 14>     C       16.8247824   18.4156802   15.6220149
| 15>     N       17.4223166   19.1450134   17.8602932
| 16>     C       18.0398632   19.1377776   19.0842015
| 17>     S       18.0646982   20.4781302   20.0521389
| 18>     N       18.6369411   17.9620296   19.4693969
| 19>     C       18.5987617   16.6934636   18.7139041
| 20>     C       17.9458478   15.5716828   19.5190426
| 21>     C       18.4452169   14.2592956   19.4255919
| 22>     C       17.8411453   13.2085816   20.1355425
| 23>     C       16.7256747   13.4698821   20.9486659
| 24>     C       16.2240225   14.7744139   21.0460054
| 25>     O       15.1404238   15.0291034   21.8213006
| 26>     C       16.8272751   15.8184819   20.3377115
| 27>     H       15.4126188   16.6811575   18.1135230
| 28>     H       13.9084704   15.8751323   17.7110720
| 29>     H       14.7081596   16.8466432   16.4746872
| 30>     H       15.9003900   14.2911897   17.7152348
| 31>     H       14.9327047   14.2935656   16.2417361
| 32>     H       16.6273830   17.5319740   15.0038721
| 33>     H       17.5315674   19.0458186   15.0673629
| 34>     H       15.8803920   18.9662453   15.7124458
| 35>     H       17.0115044   20.0239777   17.5871294
| 36>     H       19.0717031   17.9837141   20.3833059
| 37>     H       19.6398314   16.3975103   18.5162308
| 38>     H       19.3003526   14.0501344   18.7856845
| 39>     H       18.2369033   12.1977950   20.0497469
| 40>     H       16.2550409   12.6606017   21.4973642
| 41>     H       14.9057816   14.2049837   22.2744195
| 42>     H       16.4156123   16.8184487   20.4271548
| 43> *
| 44>
| 45>                          ****END OF INPUT****

CARTESIAN COORDINATES (ANGSTROEM)
---------------------------------
  C     14.888299   16.159869   17.308394
  C     15.632948   14.894010   16.836708
  O     16.819896   15.114709   16.030928
  C     17.992574   15.714898   16.424530
  O     19.037436   15.103737   16.296423
  C     17.912575   16.872000   17.358659
  C     17.387888   18.060349   16.981579
  C     16.824782   18.415680   15.622015
  N     17.422317   19.145013   17.860293
  C     18.039863   19.137778   19.084201
  S     18.064698   20.478130   20.052139
  N     18.636941   17.962030   19.469397
  C     18.598762   16.693464   18.713904
  C     17.945848   15.571683   19.519043
  C     18.445217   14.259296   19.425592
  C     17.841145   13.208582   20.135542
  C     16.725675   13.469882   20.948666
  C     16.224023   14.774414   21.046005
  O     15.140424   15.029103   21.821301
  C     16.827275   15.818482   20.337712
  H     15.412619   16.681158   18.113523
  H     13.908470   15.875132   17.711072
  H     14.708160   16.846643   16.474687
  H     15.900390   14.291190   17.715235
  H     14.932705   14.293566   16.241736
  H     16.627383   17.531974   15.003872
  H     17.531567   19.045819   15.067363
  H     15.880392   18.966245   15.712446
  H     17.011504   20.023978   17.587129
  H     19.071703   17.983714   20.383306
  H     19.639831   16.397510   18.516231
  H     19.300353   14.050134   18.785684
  H     18.236903   12.197795   20.049747
  H     16.255041   12.660602   21.497364
  H     14.905782   14.204984   22.274419
  H     16.415612   16.818449   20.427155

 Total Charge           Charge          ....    0
 Multiplicity           Mult            ....    1
 Number of Electrons    NEL             ....  154
 Basis Dimension        Dim             ....  828

ORBITAL ENERGIES
----------------

  NO   OCC          E(Eh)            E(eV)
   0   2.0000     -91.890708     -2500.4733
   1   2.0000     -20.601460      -560.5942
   2   2.0000     -20.589431      -560.2669
   3   2.0000     -20.552232      -559.2547
   4   2.0000     -15.627512      -425.2462
   5   2.0000     -15.612356      -424.8338
   6   2.0000     -11.397267      -310.1354
   7   2.0000     -11.387486      -309.8692
   8   2.0000     -11.328628      -308.2676
   9   2.0000     -11.318705      -307.9976
  10   2.0000     -11.315577      -307.9125
  11   2.0000     -11.306284      -307.6596
  12   2.0000     -11.265977      -306.5628
  13   2.0000     -11.265079      -306.5384
  14   2.0000     -11.261569      -306.4429
  15   2.0000     -11.258664      -306.3638
  16   2.0000     -11.248102      -306.0764
  17   2.0000     -11.244107      -305.9677
  18   2.0000     -11.240523      -305.8702
  19   2.0000     -11.232752      -305.6587
  20   2.0000      -8.895809      -242.0673
  21   2.0000      -6.577394      -178.9800
  22   2.0000      -6.575372      -178.9250
  23   2.0000      -6.574793      -178.9092
  24   2.0000      -1.442915       -39.2637
  25   2.0000      -1.421282       -38.6750
  26   2.0000      -1.354084       -36.8465
  27   2.0000      -1.340489       -36.4766
  28   2.0000      -1.240449       -33.7543
  29   2.0000      -1.162837       -31.6424
  30   2.0000      -1.125581       -30.6286
  31   2.0000      -1.049520       -28.5589
  32   2.0000      -1.037116       -28.2214
  33   2.0000      -1.020666       -27.7737
  34   2.0000      -1.004973       -27.3467
  35   2.0000      -0.990753       -26.9598
  36   2.0000      -0.928507       -25.2660
  37   2.0000      -0.894939       -24.3525
  38   2.0000      -0.852733       -23.2040
  39   2.0000      -0.842263       -22.9191
  40   2.0000      -0.838464       -22.8158
  41   2.0000      -0.830482       -22.5986
  42   2.0000      -0.750660       -20.4265
  43   2.0000      -0.735277       -20.0079
  44   2.0000      -0.730132       -19.8679
  45   2.0000      -0.699338       -19.0299
  46   2.0000      -0.688664       -18.7395
  47   2.0000      -0.677791       -18.4436
  48   2.0000      -0.675070       -18.3696
  49   2.0000      -0.662514       -18.0279
  50   2.0000      -0.655158       -17.8278
  51   2.0000      -0.646762       -17.5993
  52   2.0000      -0.640330       -17.4243
  53   2.0000      -0.614199       -16.7132
  54   2.0000      -0.607872       -16.5410
  55   2.0000      -0.605492       -16.4763
  56   2.0000      -0.600853       -16.3500
  57   2.0000      -0.593413       -16.1476
  58   2.0000      -0.580093       -15.7851
  59   2.0000      -0.577862       -15.7244
  60   2.0000      -0.566930       -15.4269
  61   2.0000      -0.556859       -15.1529
  62   2.0000      -0.540639       -14.7115
  63   2.0000      -0.531585       -14.4652
  64   2.0000      -0.522117       -14.2075
  65   2.0000      -0.514150       -13.9907
  66   2.0000      -0.503687       -13.7060
  67   2.0000      -0.493896       -13.4396
  68   2.0000      -0.487953       -13.2779
  69   2.0000      -0.464563       -12.6414
  70   2.0000      -0.457586       -12.4515
  71   2.0000      -0.448300       -12.1989
  72   2.0000      -0.355601        -9.6764
  73   2.0000      -0.352932        -9.6038
  74   2.0000      -0.330304        -8.9880
  75   2.0000      -0.326540        -8.8856
  76   2.0000      -0.319272        -8.6878
  77   0.0000       0.084799         2.3075
  78   0.0000       0.102675         2.7939
  79   0.0000       0.118634         3.2282
  80   0.0000       0.125108         3.4044
  81   0.0000       0.128663         3.5011

MULLIKEN ATOMIC CHARGES
-----------------------
   0 C :   -0.342619
   1 C :    0.043080
   2 O :   -0.353612
   3 C :    0.406980
   4 O :   -0.375406
   5 C :   -0.189819
   6 C :    0.140148
   7 C :   -0.329125
   8 N :   -0.135272
   9 C :    0.207583
  10 S :   -0.439917
  11 N :   -0.226943
  12 C :    0.097478
  13 C :    0.009897
  14 C :   -0.211048
  15 C :   -0.132829
  16 C :   -0.278304
  17 C :    0.321774
  18 O :   -0.356413
  19 C :   -0.281161
  20 H :    0.114875
  21 H :    0.126989
  22 H :    0.103346
  23 H :    0.104497
  24 H :    0.124788
  25 H :    0.126274
  26 H :    0.149572
  27 H :    0.111218
  28 H :    0.196934
  29 H :    0.201602
  30 H :    0.165549
  31 H :    0.174244
  32 H :    0.165499
  33 H :    0.133460
  34 H :    0.241824
  35 H :    0.184860
Sum of atomic charges:    0.0000000

LOEWDIN ATOMIC CHARGES
----------------------
   0 C :    0.103409
   1 C :   -0.010680
   2 O :    0.281133
   3 C :   -0.415645
   4 O :    0.131087
   5 C :   -0.084905
   6 C :   -0.094115
   7 C :    0.124434
   8 N :    0.403623
   9 C :   -0.455660
  10 S :   -0.036834
  11 N :    0.397721
  12 C :   -0.044076
  13 C :   -0.043823
  14 C :    0.020636
  15 C :    0.043372
  16 C :   -0.001304
  17 C :   -0.194104
  18 O :    0.395768
  19 C :    0.027307
  20 H :   -0.036341
  21 H :   -0.020262
  22 H :   -0.030999
  23 H :   -0.027253
  24 H :   -0.019035
  25 H :   -0.010922
  26 H :   -0.008523
  27 H :   -0.018058
  28 H :   -0.057314
  29 H :   -0.064030
  30 H :   -0.002985
  31 H :   -0.021489
  32 H :   -0.018091
  33 H :   -0.034282
  34 H :   -0.152724
  35 H :   -0.025035

  Mayer bond orders larger than 0.100000
B(  0-C ,  1-C ) :   0.9580 B(  0-C , 20-H ) :   0.9688 B(  0-C , 21-H ) :   0.9778
B(  0-C , 22-H ) :   0.9769 B(  1-C ,  2-O ) :   0.9000 B(  1-C , 23-H ) :   0.9729
B(  1-C , 24-H ) :   0.9829 B(  2-O ,  3-C ) :   1.1535 B(  3-C ,  4-O ) :   2.0980
B(  3-C ,  5-C ) :   0.9333 B(  5-C ,  6-C ) :   1.6822 B(  5-C , 12-C ) :   0.9490
B(  6-C ,  7-C ) :   0.9498 B(  6-C ,  8-N ) :   1.1192 B(  7-C , 25-H ) :   0.9767
B(  7-C , 26-H ) :   0.9649 B(  7-C , 27-H ) :   0.9714 B(  8-N ,  9-C ) :   1.1959
B(  8-N , 28-H ) :   0.9513 B(  9-C , 10-S ) :   1.6107 B(  9-C , 11-N ) :   1.2851
B( 11-N , 12-C ) :   0.9934 B( 11-N , 29-H ) :   0.9478 B( 12-C , 13-C ) :   0.9417
B( 12-C , 30-H ) :   0.9980 B( 13-C , 14-C ) :   1.3884 B( 13-C , 19-C ) :   1.3395
B( 14-C , 15-C ) :   1.4024 B( 14-C , 31-H ) :   0.9596 B( 15-C , 16-C ) :   1.3576
B( 15-C , 32-H ) :   0.9697 B( 16-C , 17-C ) :   1.3316 B( 16-C , 33-H ) :   0.9843
B( 17-C , 18-O ) :   1.1115 B( 17-C , 19-C ) :   1.3647 B( 18-O , 34-H ) :   0.9790
B( 19-C , 35-H ) :   0.9511

MP2 TOTAL ENERGY:    -1274.324200251 Eh
FINAL SINGLE POINT ENERGY     -1274.324200251358

DIPOLE MOMENT
-------------
                                X             Y             Z
Electronic contribution:      9.42764       5.46313       5.82192
Nuclear contribution   :    -10.83739      -6.69797      -6.14127
                        -----------------------------------------
Total Dipole Moment    :     -1.40976      -1.23484      -0.31935
                        -----------------------------------------
Magnitude (a.u.)       :      1.90111
Magnitude (Debye)      :      4.83224

Rotational constants in cm-1:     0.012440     0.009331     0.006956
Rotational constants in MHz :   372.946841   279.739572   208.545918

                             ****ORCA TERMINATED NORMALLY****
TOTAL RUN TIME: 0 days 1 hours 57 minutes 42 seconds 736 msec
