                         Program Version 5.0.0 -  RELEASE  -
|  1> ! ri-mp2 cc-pvtz cc-pvtz/c TightSCF NoKeepInts
|  2>
|  3> %scf
|  4>   MaxCore 4096
|  5> end
|  6> *xyz  0  1
|  7>     C       15.0765518   15.2127433   16.8402530
|  8>     C       16.2970925   14.2626763   16.8474075
|  9>     O       17.4834670   14.8466566   16.2513001
| 10>     C       17.6334665   16.1880833   16.0323136
| 11>     O       17.4045747   16.6378597   14.9244938
| 12>     C       17.7655239   17.0418767   17.2653455
| 13>     C       17.3573782   18.3363521   17.2877086
| 14>     C       16.5740861   19.0693718   16.2203166
| 15>     N       17.7016501   19.1581263   18.3653114
| 16>     C       18.6502340   18.8417642   19.3022752
| 17>     S       19.1744852   19.9370811   20.4250360
| 18>     N       19.1575069   17.5675243   19.2470897
| 19>     C       18.5762203   16.4751670   18.4451035
| 20>     C       17.7898767   15.5636442   19.3789523
| 21>     C       18.2988129   14.2961915   19.7217278
| 22>     C       17.5879951   13.4519769   20.5914188
| 23>     C       16.3635750   13.8814613   21.1310407
| 24>     C       15.8639054   15.1502563   20.8079924
| 25>     O       14.6840980   15.5702601   21.3291804
| 26>     C       16.5735366   15.9885410   19.9430221
| 27>     H       15.2236678   16.0779825   17.4949074
| 28>     H       14.1862812   14.6805146   17.1966693
| 29>     H       14.8669849   15.5709741   15.8240264
| 30>     H       16.4960205   13.9377309   17.8725593
| 31>     H       16.0392810   13.3588475   16.2804702
| 32>     H       15.7357590   18.4583392   15.8628021
| 33>     H       17.2140281   19.2824377   15.3541628
| 34>     H       16.1583281   20.0199350   16.5743821
| 35>     H       17.3575057   20.1046020   18.3998434
| 36>     H       19.8424518   17.3564982   19.9614877
| 37>     H       19.4068877   15.8935904   18.0205654
| 38>     H       19.2459324   13.9604646   19.3070582
| 39>     H       17.9873179   12.4715771   20.8467323
| 40>     H       15.8112971   13.2327825   21.8033663
| 41>     H       14.3851811   14.8957148   21.9578936
| 42>     H       16.1760388   16.9723949   19.7197846
| 43> *
| 44>
| 45>                          ****END OF INPUT****

CARTESIAN COORDINATES (ANGSTROEM)
---------------------------------
  C     15.076552   15.212743   16.840253
  C     16.297093   14.262676   16.847407
  O     17.483467   14.846657   16.251300
  C     17.633467   16.188083   16.032314
  O     17.404575   16.637860   14.924494
  C     17.765524   17.041877   17.265345
  C     17.357378   18.336352   17.287709
  C     16.574086   19.069372   16.220317
  N     17.701650   19.158126   18.365311
  C     18.650234   18.841764   19.302275
  S     19.174485   19.937081   20.425036
  N     19.157507   17.567524   19.247090
  C     18.576220   16.475167   18.445103
  C     17.789877   15.563644   19.378952
  C     18.298813   14.296191   19.721728
  C     17.587995   13.451977   20.591419
  C     16.363575   13.881461   21.131041
  C     15.863905   15.150256   20.807992
  O     14.684098   15.570260   21.329180
  C     16.573537   15.988541   19.943022
  H     15.223668   16.077983   17.494907
  H     14.186281   14.680515   17.196669
  H     14.866985   15.570974   15.824026
  H     16.496021   13.937731   17.872559
  H     16.039281   13.358847   16.280470
  H     15.735759   18.458339   15.862802
  H     17.214028   19.282438   15.354163
  H     16.158328   20.019935   16.574382
  H     17.357506   20.104602   18.399843
  H     19.842452   17.356498   19.961488
  H     19.406888   15.893590   18.020565
  H     19.245932   13.960465   19.307058
  H     17.987318   12.471577   20.846732
  H     15.811297   13.232782   21.803366
  H     14.385181   14.895715   21.957894
  H     16.176039   16.972395   19.719785

 Total Charge           Charge          ....    0
 Multiplicity           Mult            ....    1
 Number of Electrons    NEL             ....  154
 Basis Dimension        Dim             ....  828

ORBITAL ENERGIES
----------------

  NO   OCC          E(Eh)            E(eV)
   0   2.0000     -91.891524     -2500.4955
   1   2.0000     -20.604201      -560.6688
   2   2.0000     -20.579106      -559.9860
   3   2.0000     -20.549426      -559.1783
   4   2.0000     -15.631145      -425.3451
   5   2.0000     -15.610728      -424.7895
   6   2.0000     -11.393276      -310.0268
   7   2.0000     -11.386113      -309.8319
   8   2.0000     -11.335960      -308.4671
   9   2.0000     -11.322068      -308.0891
  10   2.0000     -11.315170      -307.9014
  11   2.0000     -11.298227      -307.4404
  12   2.0000     -11.266607      -306.5800
  13   2.0000     -11.263080      -306.4840
  14   2.0000     -11.259471      -306.3858
  15   2.0000     -11.254403      -306.2479
  16   2.0000     -11.251167      -306.1598
  17   2.0000     -11.245597      -306.0083
  18   2.0000     -11.245503      -306.0057
  19   2.0000     -11.228830      -305.5520
  20   2.0000      -8.896538      -242.0871
  21   2.0000      -6.578100      -178.9992
  22   2.0000      -6.576109      -178.9450
  23   2.0000      -6.575511      -178.9288
  24   2.0000      -1.441476       -39.2246
  25   2.0000      -1.423857       -38.7451
  26   2.0000      -1.349969       -36.7345
  27   2.0000      -1.342851       -36.5408
  28   2.0000      -1.241688       -33.7881
  29   2.0000      -1.164609       -31.6906
  30   2.0000      -1.122305       -30.5395
  31   2.0000      -1.048445       -28.5297
  32   2.0000      -1.030753       -28.0482
  33   2.0000      -1.023016       -27.8377
  34   2.0000      -1.001585       -27.2545
  35   2.0000      -0.987752       -26.8781
  36   2.0000      -0.927301       -25.2331
  37   2.0000      -0.895984       -24.3810
  38   2.0000      -0.850187       -23.1348
  39   2.0000      -0.846485       -23.0340
  40   2.0000      -0.841136       -22.8885
  41   2.0000      -0.824437       -22.4341
  42   2.0000      -0.747018       -20.3274
  43   2.0000      -0.737502       -20.0685
  44   2.0000      -0.717007       -19.5108
  45   2.0000      -0.703009       -19.1299
  46   2.0000      -0.692793       -18.8519
  47   2.0000      -0.675580       -18.3835
  48   2.0000      -0.672003       -18.2861
  49   2.0000      -0.660087       -17.9619
  50   2.0000      -0.656295       -17.8587
  51   2.0000      -0.649394       -17.6709
  52   2.0000      -0.637764       -17.3544
  53   2.0000      -0.627766       -17.0824
  54   2.0000      -0.614428       -16.7194
  55   2.0000      -0.606075       -16.4921
  56   2.0000      -0.602577       -16.3970
  57   2.0000      -0.583725       -15.8840
  58   2.0000      -0.574626       -15.6364
  59   2.0000      -0.566753       -15.4221
  60   2.0000      -0.545036       -14.8312
  61   2.0000      -0.544075       -14.8050
  62   2.0000      -0.539446       -14.6791
  63   2.0000      -0.534010       -14.5311
  64   2.0000      -0.531963       -14.4754
  65   2.0000      -0.517338       -14.0775
  66   2.0000      -0.507414       -13.8074
  67   2.0000      -0.494623       -13.4594
  68   2.0000      -0.479869       -13.0579
  69   2.0000      -0.470458       -12.8018
  70   2.0000      -0.449472       -12.2308
  71   2.0000      -0.443795       -12.0763
  72   2.0000      -0.358730        -9.7615
  73   2.0000      -0.356324        -9.6961
  74   2.0000      -0.332580        -9.0499
  75   2.0000      -0.328528        -8.9397
  76   2.0000      -0.318423        -8.6647
  77   0.0000       0.068923         1.8755
  78   0.0000       0.101910         2.7731
  79   0.0000       0.120331         3.2744
  80   0.0000       0.125964         3.4276
  81   0.0000       0.131192         3.5699

MULLIKEN ATOMIC CHARGES
-----------------------
   0 C :   -0.342296
   1 C :    0.040279
   2 O :   -0.380683
   3 C :    0.489593
   4 O :   -0.387912
   5 C :   -0.291547
   6 C :    0.163115
   7 C :   -0.275181
   8 N :   -0.126231
   9 C :    0.209740
  10 S :   -0.434576
  11 N :   -0.195415
  12 C :    0.048287
  13 C :    0.057346
  14 C :   -0.175809
  15 C :   -0.131767
  16 C :   -0.274704
  17 C :    0.320400
  18 O :   -0.357309
  19 C :   -0.296175
  20 H :    0.102059
  21 H :    0.116409
  22 H :    0.123379
  23 H :    0.108158
  24 H :    0.122593
  25 H :    0.125127
  26 H :    0.142585
  27 H :    0.094181
  28 H :    0.198372
  29 H :    0.191221
  30 H :    0.148716
  31 H :    0.149121
  32 H :    0.163713
  33 H :    0.134207
  34 H :    0.242629
  35 H :    0.178378
Sum of atomic charges:    0.0000000

LOEWDIN ATOMIC CHARGES
----------------------
   0 C :    0.104691
   1 C :   -0.008186
   2 O :    0.276362
   3 C :   -0.424259
   4 O :    0.128793
   5 C :   -0.097324
   6 C :   -0.065470
   7 C :    0.130014
   8 N :    0.406800
   9 C :   -0.456197
  10 S :   -0.031440
  11 N :    0.396495
  12 C :   -0.053171
  13 C :   -0.039719
  14 C :    0.012883
  15 C :    0.042324
  16 C :   -0.000344
  17 C :   -0.190056
  18 O :    0.396932
  19 C :    0.034229
  20 H :   -0.037022
  21 H :   -0.021426
  22 H :   -0.025359
  23 H :   -0.034863
  24 H :   -0.024170
  25 H :   -0.007714
  26 H :   -0.002397
  27 H :   -0.022735
  28 H :   -0.057497
  29 H :   -0.065605
  30 H :   -0.005342
  31 H :   -0.028923
  32 H :   -0.019153
  33 H :   -0.033728
  34 H :   -0.151985
  35 H :   -0.025438

  Mayer bond orders larger than 0.100000
B(  0-C ,  1-C ) :   0.9639 B(  0-C , 20-H ) :   0.9685 B(  0-C , 21-H ) :   0.9760
B(  0-C , 22-H ) :   0.9722 B(  1-C ,  2-O ) :   0.8918 B(  1-C , 23-H ) :   0.9677
B(  1-C , 24-H ) :   0.9838 B(  2-O ,  3-C ) :   1.1241 B(  3-C ,  4-O ) :   2.0598
B(  3-C ,  5-C ) :   1.0069 B(  5-C ,  6-C ) :   1.6641 B(  5-C , 12-C ) :   0.9752
B(  6-C ,  7-C ) :   0.9655 B(  6-C ,  8-N ) :   1.1483 B(  7-C , 25-H ) :   0.9679
B(  7-C , 26-H ) :   0.9561 B(  7-C , 27-H ) :   0.9863 B(  8-N ,  9-C ) :   1.1802
B(  8-N , 28-H ) :   0.9492 B(  9-C , 10-S ) :   1.6164 B(  9-C , 11-N ) :   1.2981
B( 11-N , 12-C ) :   0.9721 B( 11-N , 29-H ) :   0.9546 B( 12-C , 13-C ) :   0.9473
B( 12-C , 30-H ) :   1.0035 B( 13-C , 14-C ) :   1.3465 B( 13-C , 19-C ) :   1.3601
B( 14-C , 15-C ) :   1.3940 B( 14-C , 31-H ) :   0.9747 B( 15-C , 16-C ) :   1.3661
B( 15-C , 32-H ) :   0.9700 B( 16-C , 17-C ) :   1.3270 B( 16-C , 33-H ) :   0.9833
B( 17-C , 18-O ) :   1.1144 B( 17-C , 19-C ) :   1.3728 B( 18-O , 34-H ) :   0.9788
B( 19-C , 35-H ) :   0.9524

MP2 TOTAL ENERGY:    -1274.324960740 Eh
FINAL SINGLE POINT ENERGY     -1274.324960740281

DIPOLE MOMENT
-------------
                                X             Y             Z
Electronic contribution:     10.01484       7.24910       5.33947
Nuclear contribution   :    -11.22689      -8.82961      -4.87384
                        -----------------------------------------
Total Dipole Moment    :     -1.21204      -1.58051       0.46563
                        -----------------------------------------
Magnitude (a.u.)       :      2.04545
Magnitude (Debye)      :      5.19913

Rotational constants in cm-1:     0.011765     0.009859     0.006791
Rotational constants in MHz :   352.709810   295.552877   203.597781

                             ****ORCA TERMINATED NORMALLY****
TOTAL RUN TIME: 0 days 2 hours 35 minutes 14 seconds 708 msec
