                         Program Version 5.0.0 -  RELEASE  -
|  1> ! ri-mp2 cc-pvtz cc-pvtz/c TightSCF NoKeepInts
|  2>
|  3> %scf
|  4>   MaxCore 4096
|  5> end
|  6> *xyz  0  1
|  7>     C       14.6248997   14.4382379   17.0143572
|  8>     C       15.5811986   15.6175874   16.7767821
|  9>     O       16.8467528   15.0551857   16.3804079
| 10>     C       18.0705750   15.6503449   16.5663679
| 11>     O       19.0781676   14.9746093   16.4708876
| 12>     C       18.0741660   16.8900441   17.3985081
| 13>     C       17.5742922   18.0670152   16.9581037
| 14>     C       16.9813116   18.3503022   15.5950228
| 15>     N       17.6461332   19.1998812   17.7713230
| 16>     C       18.2781050   19.2472950   18.9872391
| 17>     S       18.3598924   20.6443992   19.8676288
| 18>     N       18.8340070   18.0758075   19.4415151
| 19>     C       18.7274964   16.7631962   18.7729466
| 20>     C       17.9641700   15.7560570   19.6282023
| 21>     C       18.4144655   14.4264851   19.7212348
| 22>     C       17.6996611   13.4786199   20.4720962
| 23>     C       16.5204816   13.8611043   21.1335284
| 24>     C       16.0644087   15.1824881   21.0379900
| 25>     O       14.9175351   15.5517770   21.6614714
| 26>     C       16.7785132   16.1247234   20.2910799
| 27>     H       15.0130993   13.7840442   17.8057624
| 28>     H       14.5085430   13.8429059   16.1001032
| 29>     H       13.6354045   14.7979445   17.3213541
| 30>     H       15.1836097   16.2759505   15.9949310
| 31>     H       15.6610779   16.1788228   17.7160407
| 32>     H       17.0897954   17.5022173   14.9076520
| 33>     H       17.4850512   19.2032832   15.1222338
| 34>     H       15.9135724   18.5900439   15.6698296
| 35>     H       17.2584685   20.0735565   17.4507923
| 36>     H       19.2752262   18.1368496   20.3505977
| 37>     H       19.7479606   16.3805500   18.6224527
| 38>     H       19.3139288   14.1215524   19.1902390
| 39>     H       18.0564335   12.4516330   20.5300593
| 40>     H       15.9630664   13.1303124   21.7101205
| 41>     H       14.6028254   14.7867041   22.1666598
| 42>     H       16.4027044   17.1404689   20.2284787
| 43> *
| 44>
| 45>                          ****END OF INPUT****

CARTESIAN COORDINATES (ANGSTROEM)
---------------------------------
  C     14.624900   14.438238   17.014357
  C     15.581199   15.617587   16.776782
  O     16.846753   15.055186   16.380408
  C     18.070575   15.650345   16.566368
  O     19.078168   14.974609   16.470888
  C     18.074166   16.890044   17.398508
  C     17.574292   18.067015   16.958104
  C     16.981312   18.350302   15.595023
  N     17.646133   19.199881   17.771323
  C     18.278105   19.247295   18.987239
  S     18.359892   20.644399   19.867629
  N     18.834007   18.075807   19.441515
  C     18.727496   16.763196   18.772947
  C     17.964170   15.756057   19.628202
  C     18.414465   14.426485   19.721235
  C     17.699661   13.478620   20.472096
  C     16.520482   13.861104   21.133528
  C     16.064409   15.182488   21.037990
  O     14.917535   15.551777   21.661471
  C     16.778513   16.124723   20.291080
  H     15.013099   13.784044   17.805762
  H     14.508543   13.842906   16.100103
  H     13.635404   14.797944   17.321354
  H     15.183610   16.275951   15.994931
  H     15.661078   16.178823   17.716041
  H     17.089795   17.502217   14.907652
  H     17.485051   19.203283   15.122234
  H     15.913572   18.590044   15.669830
  H     17.258468   20.073556   17.450792
  H     19.275226   18.136850   20.350598
  H     19.747961   16.380550   18.622453
  H     19.313929   14.121552   19.190239
  H     18.056433   12.451633   20.530059
  H     15.963066   13.130312   21.710120
  H     14.602825   14.786704   22.166660
  H     16.402704   17.140469   20.228479

 Total Charge           Charge          ....    0
 Multiplicity           Mult            ....    1
 Number of Electrons    NEL             ....  154
 Basis Dimension        Dim             ....  828

ORBITAL ENERGIES
----------------

  NO   OCC          E(Eh)            E(eV)
   0   2.0000     -91.890165     -2500.4585
   1   2.0000     -20.602334      -560.6180
   2   2.0000     -20.600194      -560.5598
   3   2.0000     -20.549581      -559.1825
   4   2.0000     -15.626942      -425.2307
   5   2.0000     -15.612011      -424.8244
   6   2.0000     -11.397456      -310.1405
   7   2.0000     -11.387081      -309.8582
   8   2.0000     -11.328682      -308.2691
   9   2.0000     -11.317044      -307.9524
  10   2.0000     -11.315503      -307.9105
  11   2.0000     -11.303103      -307.5731
  12   2.0000     -11.270523      -306.6865
  13   2.0000     -11.264751      -306.5295
  14   2.0000     -11.263897      -306.5062
  15   2.0000     -11.256805      -306.3132
  16   2.0000     -11.246132      -306.0228
  17   2.0000     -11.242610      -305.9270
  18   2.0000     -11.239209      -305.8344
  19   2.0000     -11.230691      -305.6027
  20   2.0000      -8.895283      -242.0530
  21   2.0000      -6.576872      -178.9658
  22   2.0000      -6.574845      -178.9106
  23   2.0000      -6.574271      -178.8950
  24   2.0000      -1.448648       -39.4197
  25   2.0000      -1.420002       -38.6402
  26   2.0000      -1.359567       -36.9957
  27   2.0000      -1.340321       -36.4720
  28   2.0000      -1.240177       -33.7469
  29   2.0000      -1.161656       -31.6103
  30   2.0000      -1.125998       -30.6400
  31   2.0000      -1.049482       -28.5579
  32   2.0000      -1.039735       -28.2926
  33   2.0000      -1.019165       -27.7329
  34   2.0000      -1.005576       -27.3631
  35   2.0000      -0.989675       -26.9304
  36   2.0000      -0.928276       -25.2597
  37   2.0000      -0.880883       -23.9700
  38   2.0000      -0.855918       -23.2907
  39   2.0000      -0.842082       -22.9142
  40   2.0000      -0.837221       -22.7819
  41   2.0000      -0.836849       -22.7718
  42   2.0000      -0.756698       -20.5908
  43   2.0000      -0.740321       -20.1452
  44   2.0000      -0.731682       -19.9101
  45   2.0000      -0.698380       -19.0039
  46   2.0000      -0.688804       -18.7433
  47   2.0000      -0.681727       -18.5507
  48   2.0000      -0.677476       -18.4351
  49   2.0000      -0.660308       -17.9679
  50   2.0000      -0.658819       -17.9274
  51   2.0000      -0.650022       -17.6880
  52   2.0000      -0.640211       -17.4210
  53   2.0000      -0.612316       -16.6620
  54   2.0000      -0.608372       -16.5546
  55   2.0000      -0.604018       -16.4362
  56   2.0000      -0.597321       -16.2539
  57   2.0000      -0.583534       -15.8788
  58   2.0000      -0.578079       -15.7303
  59   2.0000      -0.570850       -15.5336
  60   2.0000      -0.562822       -15.3152
  61   2.0000      -0.557649       -15.1744
  62   2.0000      -0.551277       -15.0010
  63   2.0000      -0.528036       -14.3686
  64   2.0000      -0.518130       -14.0990
  65   2.0000      -0.515790       -14.0354
  66   2.0000      -0.504270       -13.7219
  67   2.0000      -0.502474       -13.6730
  68   2.0000      -0.488669       -13.2974
  69   2.0000      -0.471291       -12.8245
  70   2.0000      -0.453011       -12.3270
  71   2.0000      -0.450839       -12.2679
  72   2.0000      -0.356837        -9.7100
  73   2.0000      -0.352107        -9.5813
  74   2.0000      -0.329852        -8.9757
  75   2.0000      -0.324634        -8.8337
  76   2.0000      -0.318605        -8.6697
  77   0.0000       0.085910         2.3377
  78   0.0000       0.103981         2.8295
  79   0.0000       0.112027         3.0484
  80   0.0000       0.127376         3.4661
  81   0.0000       0.133039         3.6202

MULLIKEN ATOMIC CHARGES
-----------------------
   0 C :   -0.258090
   1 C :    0.006514
   2 O :   -0.304264
   3 C :    0.394729
   4 O :   -0.382667
   5 C :   -0.189812
   6 C :    0.143374
   7 C :   -0.331534
   8 N :   -0.137014
   9 C :    0.204668
  10 S :   -0.440879
  11 N :   -0.216096
  12 C :    0.075219
  13 C :    0.033114
  14 C :   -0.194284
  15 C :   -0.129517
  16 C :   -0.278545
  17 C :    0.321596
  18 O :   -0.358154
  19 C :   -0.296794
  20 H :    0.108779
  21 H :    0.103849
  22 H :    0.088109
  23 H :    0.096796
  24 H :    0.105319
  25 H :    0.126109
  26 H :    0.140467
  27 H :    0.122228
  28 H :    0.196225
  29 H :    0.198996
  30 H :    0.164856
  31 H :    0.167258
  32 H :    0.163942
  33 H :    0.132769
  34 H :    0.241873
  35 H :    0.180861
Sum of atomic charges:   -0.0000000

LOEWDIN ATOMIC CHARGES
----------------------
   0 C :    0.112391
   1 C :   -0.025022
   2 O :    0.312115
   3 C :   -0.417556
   4 O :    0.123482
   5 C :   -0.082170
   6 C :   -0.103272
   7 C :    0.123751
   8 N :    0.401128
   9 C :   -0.455777
  10 S :   -0.037789
  11 N :    0.397237
  12 C :   -0.043911
  13 C :   -0.042790
  14 C :    0.024076
  15 C :    0.046108
  16 C :   -0.000051
  17 C :   -0.193813
  18 O :    0.394674
  19 C :    0.026508
  20 H :   -0.021935
  21 H :   -0.025924
  22 H :   -0.025262
  23 H :   -0.037948
  24 H :   -0.036699
  25 H :   -0.008494
  26 H :   -0.009538
  27 H :   -0.017179
  28 H :   -0.057941
  29 H :   -0.063606
  30 H :   -0.002201
  31 H :   -0.021671
  32 H :   -0.018344
  33 H :   -0.034683
  34 H :   -0.152867
  35 H :   -0.025028

  Mayer bond orders larger than 0.100000
B(  0-C ,  1-C ) :   0.9844 B(  0-C , 20-H ) :   0.9763 B(  0-C , 21-H ) :   0.9800
B(  0-C , 22-H ) :   0.9768 B(  1-C ,  2-O ) :   0.9132 B(  1-C , 23-H ) :   0.9742
B(  1-C , 24-H ) :   0.9577 B(  2-O ,  3-C ) :   1.1858 B(  3-C ,  4-O ) :   2.0908
B(  3-C ,  5-C ) :   0.9203 B(  5-C ,  6-C ) :   1.6872 B(  5-C , 12-C ) :   0.9595
B(  6-C ,  7-C ) :   0.9420 B(  6-C ,  8-N ) :   1.1163 B(  7-C , 25-H ) :   0.9815
B(  7-C , 26-H ) :   0.9691 B(  7-C , 27-H ) :   0.9664 B(  8-N ,  9-C ) :   1.1955
B(  8-N , 28-H ) :   0.9525 B(  9-C , 10-S ) :   1.6113 B(  9-C , 11-N ) :   1.2870
B( 11-N , 12-C ) :   0.9970 B( 11-N , 29-H ) :   0.9488 B( 12-C , 13-C ) :   0.9427
B( 12-C , 30-H ) :   0.9971 B( 13-C , 14-C ) :   1.3885 B( 13-C , 19-C ) :   1.3395
B( 14-C , 15-C ) :   1.3973 B( 14-C , 31-H ) :   0.9613 B( 15-C , 16-C ) :   1.3626
B( 15-C , 32-H ) :   0.9699 B( 16-C , 17-C ) :   1.3296 B( 16-C , 33-H ) :   0.9843
B( 17-C , 18-O ) :   1.1093 B( 17-C , 19-C ) :   1.3656 B( 18-O , 34-H ) :   0.9791
B( 19-C , 35-H ) :   0.9559

MP2 TOTAL ENERGY:    -1274.332730092 Eh
FINAL SINGLE POINT ENERGY     -1274.332730091735

DIPOLE MOMENT
-------------
                                X             Y             Z
Electronic contribution:     10.57596       8.18499       6.55498
Nuclear contribution   :    -12.10574      -9.16835      -7.01688
                        -----------------------------------------
Total Dipole Moment    :     -1.52978      -0.98336      -0.46190
                        -----------------------------------------
Magnitude (a.u.)       :      1.87632
Magnitude (Debye)      :      4.76924

Rotational constants in cm-1:     0.012330     0.009022     0.006860
Rotational constants in MHz :   369.646544   270.486906   205.653940

                             ****ORCA TERMINATED NORMALLY****
TOTAL RUN TIME: 0 days 2 hours 10 minutes 51 seconds 780 msec
