                         Program Version 4.2.0 -  RELEASE  -
|  1> ! ri-mp2 cc-pvtz cc-pvtz/c TightSCF  NoKeepInts
|  2>
|  3> %scf
|  4>   MaxCore 4096
|  5> end
|  6> *xyz  0  1
|  7>     C       14.6526009   14.4307984   15.1012893
|  8>     C       15.5378397   14.5331751   16.3545212
|  9>     O       16.4903599   15.5848176   16.1208619
| 10>     C       17.6776429   15.5580525   16.7924119
| 11>     O       18.2271967   14.5067367   17.0771297
| 12>     C       17.9384014   16.8166333   17.5664786
| 13>     C       17.4957389   18.0468052   17.1994526
| 14>     C       16.7004351   18.4145671   15.9636717
| 15>     N       17.8383787   19.1655052   17.9655955
| 16>     C       18.7263080   19.1575785   19.0090145
| 17>     S       19.1703049   20.5485301   19.7859439
| 18>     N       19.2288833   17.9345895   19.3755838
| 19>     C       18.7699336   16.6384499   18.8411815
| 20>     C       17.9832289   15.8721276   19.9014212
| 21>     C       18.3617004   14.5665506   20.2649948
| 22>     C       17.6369725   13.8542920   21.2352387
| 23>     C       16.5226311   14.4517172   21.8483966
| 24>     C       16.1397323   15.7503090   21.4863666
| 25>     O       15.0597340   16.3272925   22.0711271
| 26>     C       16.8626466   16.4564601   20.5198427
| 27>     H       15.2604348   14.1989814   14.2176961
| 28>     H       14.1244618   15.3753280   14.9216083
| 29>     H       13.9059642   13.6364744   15.2218941
| 30>     H       14.9344732   14.7526162   17.2451899
| 31>     H       16.0410852   13.5679240   16.5040278
| 32>     H       17.1043971   17.9142023   15.0746528
| 33>     H       16.7149258   19.4918671   15.7583857
| 34>     H       15.6521812   18.1098021   16.0734412
| 35>     H       17.4806014   20.0724652   17.7115576
| 36>     H       19.8579018   17.9528567   20.1680345
| 37>     H       19.6618177   16.0503221   18.5806441
| 38>     H       19.2125573   14.0955229   19.7786999
| 39>     H       17.9371818   12.8428450   21.5031136
| 40>     H       15.9591780   13.9044832   22.5967548
| 41>     H       14.7280481   15.7096734   22.7400361
| 42>     H       16.5511209   17.4616478   20.2577397
| 43> *
| 44>
| 45>                          ****END OF INPUT****

CARTESIAN COORDINATES (ANGSTROEM)
---------------------------------
  C     14.652601   14.430798   15.101289
  C     15.537840   14.533175   16.354521
  O     16.490360   15.584818   16.120862
  C     17.677643   15.558053   16.792412
  O     18.227197   14.506737   17.077130
  C     17.938401   16.816633   17.566479
  C     17.495739   18.046805   17.199453
  C     16.700435   18.414567   15.963672
  N     17.838379   19.165505   17.965595
  C     18.726308   19.157578   19.009014
  S     19.170305   20.548530   19.785944
  N     19.228883   17.934590   19.375584
  C     18.769934   16.638450   18.841181
  C     17.983229   15.872128   19.901421
  C     18.361700   14.566551   20.264995
  C     17.636972   13.854292   21.235239
  C     16.522631   14.451717   21.848397
  C     16.139732   15.750309   21.486367
  O     15.059734   16.327292   22.071127
  C     16.862647   16.456460   20.519843
  H     15.260435   14.198981   14.217696
  H     14.124462   15.375328   14.921608
  H     13.905964   13.636474   15.221894
  H     14.934473   14.752616   17.245190
  H     16.041085   13.567924   16.504028
  H     17.104397   17.914202   15.074653
  H     16.714926   19.491867   15.758386
  H     15.652181   18.109802   16.073441
  H     17.480601   20.072465   17.711558
  H     19.857902   17.952857   20.168035
  H     19.661818   16.050322   18.580644
  H     19.212557   14.095523   19.778700
  H     17.937182   12.842845   21.503114
  H     15.959178   13.904483   22.596755
  H     14.728048   15.709673   22.740036
  H     16.551121   17.461648   20.257740

 Total Charge           Charge          ....    0
 Multiplicity           Mult            ....    1
 Number of Electrons    NEL             ....  154
 Basis Dimension        Dim             ....  828

ORBITAL ENERGIES
----------------

  NO   OCC          E(Eh)            E(eV)
   0   2.0000     -91.888242     -2500.4062
   1   2.0000     -20.593911      -560.3888
   2   2.0000     -20.593429      -560.3757
   3   2.0000     -20.550765      -559.2147
   4   2.0000     -15.628222      -425.2655
   5   2.0000     -15.607257      -424.6950
   6   2.0000     -11.395282      -310.0814
   7   2.0000     -11.383419      -309.7586
   8   2.0000     -11.334467      -308.4265
   9   2.0000     -11.309361      -307.7434
  10   2.0000     -11.306881      -307.6759
  11   2.0000     -11.298186      -307.4393
  12   2.0000     -11.259960      -306.3991
  13   2.0000     -11.259498      -306.3865
  14   2.0000     -11.255107      -306.2670
  15   2.0000     -11.249438      -306.1128
  16   2.0000     -11.239078      -305.8309
  17   2.0000     -11.235143      -305.7238
  18   2.0000     -11.232223      -305.6443
  19   2.0000     -11.231945      -305.6368
  20   2.0000      -8.893311      -241.9993
  21   2.0000      -6.574890      -178.9118
  22   2.0000      -6.572881      -178.8572
  23   2.0000      -6.572297      -178.8413
  24   2.0000      -1.453502       -39.5518
  25   2.0000      -1.413178       -38.4545
  26   2.0000      -1.357336       -36.9350
  27   2.0000      -1.339235       -36.4424
  28   2.0000      -1.237164       -33.6650
  29   2.0000      -1.153673       -31.3930
  30   2.0000      -1.120199       -30.4822
  31   2.0000      -1.044103       -28.4115
  32   2.0000      -1.036447       -28.2032
  33   2.0000      -1.011100       -27.5134
  34   2.0000      -0.998107       -27.1599
  35   2.0000      -0.983635       -26.7661
  36   2.0000      -0.921871       -25.0854
  37   2.0000      -0.884860       -24.0783
  38   2.0000      -0.847433       -23.0598
  39   2.0000      -0.836474       -22.7616
  40   2.0000      -0.829588       -22.5742
  41   2.0000      -0.821758       -22.3612
  42   2.0000      -0.759419       -20.6648
  43   2.0000      -0.735904       -20.0250
  44   2.0000      -0.726279       -19.7631
  45   2.0000      -0.691691       -18.8219
  46   2.0000      -0.685108       -18.6427
  47   2.0000      -0.680637       -18.5211
  48   2.0000      -0.674464       -18.3531
  49   2.0000      -0.654664       -17.8143
  50   2.0000      -0.649635       -17.6775
  51   2.0000      -0.642118       -17.4729
  52   2.0000      -0.632326       -17.2065
  53   2.0000      -0.616084       -16.7645
  54   2.0000      -0.601909       -16.3788
  55   2.0000      -0.601406       -16.3651
  56   2.0000      -0.596785       -16.2394
  57   2.0000      -0.577850       -15.7241
  58   2.0000      -0.574635       -15.6366
  59   2.0000      -0.562529       -15.3072
  60   2.0000      -0.560667       -15.2565
  61   2.0000      -0.546133       -14.8610
  62   2.0000      -0.536452       -14.5976
  63   2.0000      -0.526813       -14.3353
  64   2.0000      -0.518821       -14.1178
  65   2.0000      -0.510332       -13.8869
  66   2.0000      -0.500959       -13.6318
  67   2.0000      -0.496050       -13.4982
  68   2.0000      -0.481754       -13.1092
  69   2.0000      -0.464409       -12.6372
  70   2.0000      -0.460994       -12.5443
  71   2.0000      -0.451266       -12.2796
  72   2.0000      -0.353929        -9.6309
  73   2.0000      -0.345483        -9.4011
  74   2.0000      -0.327453        -8.9105
  75   2.0000      -0.316543        -8.6136
  76   2.0000      -0.314978        -8.5710
  77   0.0000       0.073450         1.9987
  78   0.0000       0.109106         2.9689
  79   0.0000       0.119726         3.2579
  80   0.0000       0.134573         3.6619
  81   0.0000       0.137520         3.7421

MULLIKEN ATOMIC CHARGES
-----------------------
   0 C :   -0.264388
   1 C :    0.032827
   2 O :   -0.362840
   3 C :    0.459026
   4 O :   -0.412297
   5 C :   -0.188783
   6 C :    0.140760
   7 C :   -0.284455
   8 N :   -0.124056
   9 C :    0.202391
  10 S :   -0.439849
  11 N :   -0.199222
  12 C :    0.044386
  13 C :    0.053406
  14 C :   -0.162444
  15 C :   -0.133123
  16 C :   -0.280019
  17 C :    0.311407
  18 O :   -0.358949
  19 C :   -0.275553
  20 H :    0.099723
  21 H :    0.089662
  22 H :    0.091907
  23 H :    0.094965
  24 H :    0.116142
  25 H :    0.125285
  26 H :    0.103771
  27 H :    0.125554
  28 H :    0.197072
  29 H :    0.193972
  30 H :    0.154382
  31 H :    0.154375
  32 H :    0.159734
  33 H :    0.128846
  34 H :    0.240382
  35 H :    0.166000
Sum of atomic charges:   -0.0000000

LOEWDIN ATOMIC CHARGES
----------------------
   0 C :    0.106654
   1 C :   -0.014162
   2 O :    0.298473
   3 C :   -0.413765
   4 O :    0.116530
   5 C :   -0.092570
   6 C :   -0.070475
   7 C :    0.125371
   8 N :    0.404399
   9 C :   -0.458148
  10 S :   -0.036407
  11 N :    0.397390
  12 C :   -0.045868
  13 C :   -0.039360
  14 C :    0.021733
  15 C :    0.041200
  16 C :   -0.002333
  17 C :   -0.193338
  18 O :    0.393039
  19 C :    0.028014
  20 H :   -0.024710
  21 H :   -0.030557
  22 H :   -0.024817
  23 H :   -0.031574
  24 H :   -0.026702
  25 H :   -0.008188
  26 H :   -0.020204
  27 H :   -0.010365
  28 H :   -0.058917
  29 H :   -0.063911
  30 H :   -0.004805
  31 H :   -0.025091
  32 H :   -0.020932
  33 H :   -0.036175
  34 H :   -0.154618
  35 H :   -0.024811

  Mayer bond orders larger than 0.100000
B(  0-C ,  1-C ) :   0.9755 B(  0-C , 20-H ) :   0.9775 B(  0-C , 21-H ) :   0.9796
B(  0-C , 22-H ) :   0.9766 B(  1-C ,  2-O ) :   0.8910 B(  1-C , 23-H ) :   0.9729
B(  1-C , 24-H ) :   0.9757 B(  2-O ,  3-C ) :   1.1092 B(  3-C ,  4-O ) :   2.0098
B(  3-C ,  5-C ) :   1.0409 B(  5-C ,  6-C ) :   1.6601 B(  5-C , 12-C ) :   0.9647
B(  6-C ,  7-C ) :   0.9525 B(  6-C ,  8-N ) :   1.1412 B(  7-C , 25-H ) :   0.9687
B(  7-C , 26-H ) :   0.9897 B(  7-C , 27-H ) :   0.9634 B(  8-N ,  9-C ) :   1.1821
B(  8-N , 28-H ) :   0.9494 B(  9-C , 10-S ) :   1.6104 B(  9-C , 11-N ) :   1.3021
B( 11-N , 12-C ) :   0.9910 B( 11-N , 29-H ) :   0.9518 B( 12-C , 13-C ) :   0.9472
B( 12-C , 30-H ) :   0.9988 B( 13-C , 14-C ) :   1.3770 B( 13-C , 19-C ) :   1.3680
B( 14-C , 15-C ) :   1.3946 B( 14-C , 31-H ) :   0.9645 B( 15-C , 16-C ) :   1.3632
B( 15-C , 32-H ) :   0.9712 B( 16-C , 17-C ) :   1.3314 B( 16-C , 33-H ) :   0.9857
B( 17-C , 18-O ) :   1.1085 B( 17-C , 19-C ) :   1.3774 B( 18-O , 34-H ) :   0.9803
B( 19-C , 35-H ) :   0.9582

MP2 TOTAL ENERGY:    -1274.334670305 Eh
FINAL SINGLE POINT ENERGY     -1274.334670304603

DIPOLE MOMENT
-------------
                                X             Y             Z
Electronic contribution:     11.33401       9.77300      10.17102
Nuclear contribution   :    -12.79582     -11.10394     -10.89789
                        -----------------------------------------
Total Dipole Moment    :     -1.46181      -1.33094      -0.72687
                        -----------------------------------------
Magnitude (a.u.)       :      2.10633
Magnitude (Debye)      :      5.35388

Rotational constants in cm-1:     0.010598     0.009076     0.006083
Rotational constants in MHz :   317.712706   272.106285   182.349793

                             ****ORCA TERMINATED NORMALLY****
TOTAL RUN TIME: 0 days 1 hours 34 minutes 14 seconds 9 msec
