                         Program Version 5.0.0 -  RELEASE  -
|  1> ! ri-mp2 cc-pvtz cc-pvtz/c TightSCF NoKeepInts
|  2>
|  3> %scf
|  4>   MaxCore 4096
|  5> end
|  6> *xyz  0  1
|  7>     C       15.0024236   14.1243004   15.9066427
|  8>     C       16.1175255   14.2760871   16.9605519
|  9>     O       17.1917909   15.0973016   16.4542184
| 10>     C       17.0053211   16.4420925   16.2974712
| 11>     O       16.2206856   16.8819894   15.4766241
| 12>     C       17.6205576   17.2617167   17.4016078
| 13>     C       17.4194045   18.6007667   17.5103938
| 14>     C       16.5459673   19.4749541   16.6357941
| 15>     N       18.0939112   19.3331922   18.4923036
| 16>     C       19.1031146   18.8418853   19.2767091
| 17>     S       19.9592036   19.8077337   20.3110030
| 18>     N       19.3762856   17.5038527   19.1509778
| 19>     C       18.5524347   16.5438768   18.3945522
| 20>     C       17.7987248   15.6528112   19.3763425
| 21>     C       18.1916855   14.3142280   19.5647322
| 22>     C       17.4982475   13.4852282   20.4624393
| 23>     C       16.4073660   14.0002477   21.1832283
| 24>     C       16.0209608   15.3359503   21.0075401
| 25>     O       14.9695722   15.8369834   21.7030428
| 26>     C       16.7110008   16.1578597   20.1112398
| 27>     H       14.4401614   15.0579594   15.7839675
| 28>     H       14.2928149   13.3456917   16.2109307
| 29>     H       15.4240616   13.8429459   14.9335915
| 30>     H       15.6995345   14.7017879   17.8818463
| 31>     H       16.5152843   13.2814731   17.1993189
| 32>     H       15.5070935   19.1213854   16.6518712
| 33>     H       16.8866679   19.4399091   15.5930249
| 34>     H       16.5413637   20.5261236   16.9469523
| 35>     H       17.9128152   20.3196623   18.5887469
| 36>     H       20.1076858   17.1645982   19.7624103
| 37>     H       19.2359037   15.9124444   17.8092141
| 38>     H       19.0344698   13.9128970   19.0077379
| 39>     H       17.8087170   12.4506622   20.6002039
| 40>     H       15.8700106   13.3644100   21.8794572
| 41>     H       14.6636581   15.1461376   22.3100858
| 42>     H       16.4005745   17.1908549   19.9972257
| 43> *
| 44>
| 45>                          ****END OF INPUT****

CARTESIAN COORDINATES (ANGSTROEM)
---------------------------------
  C     15.002424   14.124300   15.906643
  C     16.117525   14.276087   16.960552
  O     17.191791   15.097302   16.454218
  C     17.005321   16.442093   16.297471
  O     16.220686   16.881989   15.476624
  C     17.620558   17.261717   17.401608
  C     17.419404   18.600767   17.510394
  C     16.545967   19.474954   16.635794
  N     18.093911   19.333192   18.492304
  C     19.103115   18.841885   19.276709
  S     19.959204   19.807734   20.311003
  N     19.376286   17.503853   19.150978
  C     18.552435   16.543877   18.394552
  C     17.798725   15.652811   19.376342
  C     18.191685   14.314228   19.564732
  C     17.498248   13.485228   20.462439
  C     16.407366   14.000248   21.183228
  C     16.020961   15.335950   21.007540
  O     14.969572   15.836983   21.703043
  C     16.711001   16.157860   20.111240
  H     14.440161   15.057959   15.783967
  H     14.292815   13.345692   16.210931
  H     15.424062   13.842946   14.933592
  H     15.699535   14.701788   17.881846
  H     16.515284   13.281473   17.199319
  H     15.507093   19.121385   16.651871
  H     16.886668   19.439909   15.593025
  H     16.541364   20.526124   16.946952
  H     17.912815   20.319662   18.588747
  H     20.107686   17.164598   19.762410
  H     19.235904   15.912444   17.809214
  H     19.034470   13.912897   19.007738
  H     17.808717   12.450662   20.600204
  H     15.870011   13.364410   21.879457
  H     14.663658   15.146138   22.310086
  H     16.400575   17.190855   19.997226

 Total Charge           Charge          ....    0
 Multiplicity           Mult            ....    1
 Number of Electrons    NEL             ....  154
 Basis Dimension        Dim             ....  828

ORBITAL ENERGIES
----------------

  NO   OCC          E(Eh)            E(eV)
   0   2.0000     -91.890609     -2500.4706
   1   2.0000     -20.601599      -560.5980
   2   2.0000     -20.583186      -560.0970
   3   2.0000     -20.547240      -559.1188
   4   2.0000     -15.631152      -425.3453
   5   2.0000     -15.609693      -424.7614
   6   2.0000     -11.394225      -310.0526
   7   2.0000     -11.385356      -309.8113
   8   2.0000     -11.337774      -308.5165
   9   2.0000     -11.319436      -308.0175
  10   2.0000     -11.311386      -307.7985
  11   2.0000     -11.296654      -307.3976
  12   2.0000     -11.263951      -306.5077
  13   2.0000     -11.260708      -306.4194
  14   2.0000     -11.259325      -306.3818
  15   2.0000     -11.253586      -306.2256
  16   2.0000     -11.248465      -306.0863
  17   2.0000     -11.243024      -305.9382
  18   2.0000     -11.242816      -305.9326
  19   2.0000     -11.216264      -305.2101
  20   2.0000      -8.895650      -242.0630
  21   2.0000      -6.577219      -178.9752
  22   2.0000      -6.575221      -178.9208
  23   2.0000      -6.574628      -178.9047
  24   2.0000      -1.445464       -39.3331
  25   2.0000      -1.421294       -38.6754
  26   2.0000      -1.353351       -36.8266
  27   2.0000      -1.342216       -36.5235
  28   2.0000      -1.240627       -33.7592
  29   2.0000      -1.162166       -31.6241
  30   2.0000      -1.121439       -30.5159
  31   2.0000      -1.046086       -28.4654
  32   2.0000      -1.030074       -28.0298
  33   2.0000      -1.020429       -27.7673
  34   2.0000      -0.997265       -27.1370
  35   2.0000      -0.985579       -26.8190
  36   2.0000      -0.925331       -25.1795
  37   2.0000      -0.885334       -24.0912
  38   2.0000      -0.849606       -23.1190
  39   2.0000      -0.842874       -22.9358
  40   2.0000      -0.838739       -22.8232
  41   2.0000      -0.826160       -22.4810
  42   2.0000      -0.752256       -20.4699
  43   2.0000      -0.735064       -20.0021
  44   2.0000      -0.719004       -19.5651
  45   2.0000      -0.700446       -19.0601
  46   2.0000      -0.691249       -18.8098
  47   2.0000      -0.679619       -18.4934
  48   2.0000      -0.668850       -18.2003
  49   2.0000      -0.661060       -17.9884
  50   2.0000      -0.650150       -17.6915
  51   2.0000      -0.647891       -17.6300
  52   2.0000      -0.638311       -17.3693
  53   2.0000      -0.612082       -16.6556
  54   2.0000      -0.606090       -16.4926
  55   2.0000      -0.601525       -16.3683
  56   2.0000      -0.594404       -16.1745
  57   2.0000      -0.581792       -15.8314
  58   2.0000      -0.574211       -15.6251
  59   2.0000      -0.571539       -15.5524
  60   2.0000      -0.563419       -15.3314
  61   2.0000      -0.540648       -14.7118
  62   2.0000      -0.535209       -14.5638
  63   2.0000      -0.528691       -14.3864
  64   2.0000      -0.518629       -14.1126
  65   2.0000      -0.515539       -14.0285
  66   2.0000      -0.504469       -13.7273
  67   2.0000      -0.497185       -13.5291
  68   2.0000      -0.482407       -13.1270
  69   2.0000      -0.463541       -12.6136
  70   2.0000      -0.455383       -12.3916
  71   2.0000      -0.441194       -12.0055
  72   2.0000      -0.356978        -9.7139
  73   2.0000      -0.354184        -9.6378
  74   2.0000      -0.330593        -8.9959
  75   2.0000      -0.326642        -8.8884
  76   2.0000      -0.317793        -8.6476
  77   0.0000       0.069896         1.9020
  78   0.0000       0.100389         2.7317
  79   0.0000       0.122606         3.3363
  80   0.0000       0.128940         3.5086
  81   0.0000       0.133298         3.6272

MULLIKEN ATOMIC CHARGES
-----------------------
   0 C :   -0.269479
   1 C :    0.026729
   2 O :   -0.388920
   3 C :    0.504223
   4 O :   -0.411381
   5 C :   -0.271645
   6 C :    0.159695
   7 C :   -0.270099
   8 N :   -0.124124
   9 C :    0.212873
  10 S :   -0.437472
  11 N :   -0.202760
  12 C :    0.056094
  13 C :    0.026759
  14 C :   -0.164157
  15 C :   -0.131547
  16 C :   -0.275441
  17 C :    0.311026
  18 O :   -0.356212
  19 C :   -0.255719
  20 H :    0.106452
  21 H :    0.089572
  22 H :    0.100123
  23 H :    0.100969
  24 H :    0.105679
  25 H :    0.129376
  26 H :    0.134172
  27 H :    0.095166
  28 H :    0.198206
  29 H :    0.193665
  30 H :    0.151252
  31 H :    0.148799
  32 H :    0.164128
  33 H :    0.133543
  34 H :    0.241771
  35 H :    0.168684
Sum of atomic charges:   -0.0000000

LOEWDIN ATOMIC CHARGES
----------------------
   0 C :    0.105108
   1 C :   -0.020395
   2 O :    0.284040
   3 C :   -0.415714
   4 O :    0.120649
   5 C :   -0.098732
   6 C :   -0.057546
   7 C :    0.131152
   8 N :    0.407036
   9 C :   -0.456630
  10 S :   -0.033321
  11 N :    0.396379
  12 C :   -0.052922
  13 C :   -0.038446
  14 C :    0.016068
  15 C :    0.041836
  16 C :   -0.001449
  17 C :   -0.190975
  18 O :    0.396543
  19 C :    0.029617
  20 H :   -0.028829
  21 H :   -0.030508
  22 H :   -0.024656
  23 H :   -0.031495
  24 H :   -0.023923
  25 H :   -0.005404
  26 H :   -0.003128
  27 H :   -0.023239
  28 H :   -0.057337
  29 H :   -0.065044
  30 H :   -0.008021
  31 H :   -0.029198
  32 H :   -0.020010
  33 H :   -0.034433
  34 H :   -0.152671
  35 H :   -0.024402

  Mayer bond orders larger than 0.100000
B(  0-C ,  1-C ) :   0.9845 B(  0-C , 20-H ) :   0.9722 B(  0-C , 21-H ) :   0.9766
B(  0-C , 22-H ) :   0.9779 B(  1-C ,  2-O ) :   0.8816 B(  1-C , 23-H ) :   0.9663
B(  1-C , 24-H ) :   0.9806 B(  2-O ,  3-C ) :   1.0858 B(  3-C ,  4-O ) :   2.0048
B(  3-C ,  5-C ) :   1.0748 B(  5-C ,  6-C ) :   1.6493 B(  5-C , 12-C ) :   0.9697
B(  6-C ,  7-C ) :   0.9683 B(  6-C ,  8-N ) :   1.1594 B(  7-C , 25-H ) :   0.9616
B(  7-C , 26-H ) :   0.9581 B(  7-C , 27-H ) :   0.9901 B(  8-N ,  9-C ) :   1.1800
B(  8-N , 28-H ) :   0.9477 B(  9-C , 10-S ) :   1.6100 B(  9-C , 11-N ) :   1.3053
B( 11-N , 12-C ) :   0.9735 B( 11-N , 29-H ) :   0.9530 B( 12-C , 13-C ) :   0.9463
B( 12-C , 30-H ) :   1.0008 B( 13-C , 14-C ) :   1.3483 B( 13-C , 19-C ) :   1.3749
B( 14-C , 15-C ) :   1.3872 B( 14-C , 31-H ) :   0.9767 B( 15-C , 16-C ) :   1.3660
B( 15-C , 32-H ) :   0.9695 B( 16-C , 17-C ) :   1.3284 B( 16-C , 33-H ) :   0.9837
B( 17-C , 18-O ) :   1.1143 B( 17-C , 19-C ) :   1.3725 B( 18-O , 34-H ) :   0.9790
B( 19-C , 35-H ) :   0.9575

MP2 TOTAL ENERGY:    -1274.332920447 Eh
FINAL SINGLE POINT ENERGY     -1274.332920447355

DIPOLE MOMENT
-------------
                                X             Y             Z
Electronic contribution:     10.57264       9.54557       7.14200
Nuclear contribution   :    -11.57904     -11.09757      -6.95644
                        -----------------------------------------
Total Dipole Moment    :     -1.00641      -1.55200       0.18556
                        -----------------------------------------
Magnitude (a.u.)       :      1.85903
Magnitude (Debye)      :      4.72527

Rotational constants in cm-1:     0.012025     0.009018     0.006348
Rotational constants in MHz :   360.507583   270.350670   190.321487

                             ****ORCA TERMINATED NORMALLY****
TOTAL RUN TIME: 0 days 1 hours 36 minutes 39 seconds 558 msec
