                         Program Version 4.2.0 -  RELEASE  -
|  1> ! ri-mp2 cc-pvtz cc-pvtz/c TightSCF  NoKeepInts
|  2>
|  3> %scf
|  4>   MaxCore 4096
|  5> end
|  6> *xyz  0  1
|  7>     C       15.3833722   13.8894914   15.0374894
|  8>     C       15.0965809   14.8898725   16.1756544
|  9>     O       16.0941153   15.9288670   16.1666281
| 10>     C       17.3081868   15.7198378   16.7592272
| 11>     O       17.7561526   14.6003192   16.9449861
| 12>     C       17.7715988   16.8923725   17.5738691
| 13>     C       17.4494251   18.1855392   17.3117776
| 14>     C       16.6088638   18.7196371   16.1701855
| 15>     N       17.9821679   19.2083888   18.1030843
| 16>     C       18.9471122   19.0360338   19.0602473
| 17>     S       19.6157556   20.3173784   19.8644204
| 18>     N       19.3307335   17.7438754   19.3160420
| 19>     C       18.6763722   16.5439183   18.7610504
| 20>     C       17.8936954   15.8116016   19.8481145
| 21>     C       18.1355981   14.4494884   20.1054099
| 22>     C       17.4149561   13.7691459   21.1012573
| 23>     C       16.4425905   14.4559780   21.8478280
| 24>     C       16.1955609   15.8116060   21.5922488
| 25>     O       15.2525102   16.4759581   22.3068418
| 26>     C       16.9139715   16.4858544   20.5999114
| 27>     H       15.4543969   14.4090039   14.0740589
| 28>     H       14.5775039   13.1489912   14.9684404
| 29>     H       16.3218659   13.3481528   15.2083068
| 30>     H       14.1088705   15.3387078   16.0101444
| 31>     H       15.0786970   14.3747502   17.1462003
| 32>     H       16.8865305   18.2414426   15.2225370
| 33>     H       16.7274292   19.8008465   16.0292397
| 34>     H       15.5445266   18.5216648   16.3482189
| 35>     H       17.7135256   20.1638474   17.9299650
| 36>     H       20.0212933   17.6416398   20.0485670
| 37>     H       19.4670284   15.8732349   18.3946730
| 38>     H       18.8747300   13.9115505   19.5166848
| 39>     H       17.6079716   12.7139365   21.2859543
| 40>     H       15.8826225   13.9339822   22.6165151
| 41>     H       14.9016122   15.8593378   22.9667237
| 42>     H       16.7090764   17.5357473   20.4214973
| 43> *
| 44>
| 45>                          ****END OF INPUT****

CARTESIAN COORDINATES (ANGSTROEM)
---------------------------------
  C     15.383372   13.889491   15.037489
  C     15.096581   14.889872   16.175654
  O     16.094115   15.928867   16.166628
  C     17.308187   15.719838   16.759227
  O     17.756153   14.600319   16.944986
  C     17.771599   16.892373   17.573869
  C     17.449425   18.185539   17.311778
  C     16.608864   18.719637   16.170185
  N     17.982168   19.208389   18.103084
  C     18.947112   19.036034   19.060247
  S     19.615756   20.317378   19.864420
  N     19.330734   17.743875   19.316042
  C     18.676372   16.543918   18.761050
  C     17.893695   15.811602   19.848115
  C     18.135598   14.449488   20.105410
  C     17.414956   13.769146   21.101257
  C     16.442591   14.455978   21.847828
  C     16.195561   15.811606   21.592249
  O     15.252510   16.475958   22.306842
  C     16.913971   16.485854   20.599911
  H     15.454397   14.409004   14.074059
  H     14.577504   13.148991   14.968440
  H     16.321866   13.348153   15.208307
  H     14.108871   15.338708   16.010144
  H     15.078697   14.374750   17.146200
  H     16.886530   18.241443   15.222537
  H     16.727429   19.800846   16.029240
  H     15.544527   18.521665   16.348219
  H     17.713526   20.163847   17.929965
  H     20.021293   17.641640   20.048567
  H     19.467028   15.873235   18.394673
  H     18.874730   13.911551   19.516685
  H     17.607972   12.713936   21.285954
  H     15.882622   13.933982   22.616515
  H     14.901612   15.859338   22.966724
  H     16.709076   17.535747   20.421497

 Total Charge           Charge          ....    0
 Multiplicity           Mult            ....    1
 Number of Electrons    NEL             ....  154
 Basis Dimension        Dim             ....  828

ORBITAL ENERGIES
----------------

  NO   OCC          E(Eh)            E(eV)
   0   2.0000     -91.887854     -2500.3956
   1   2.0000     -20.597193      -560.4781
   2   2.0000     -20.592654      -560.3546
   3   2.0000     -20.550383      -559.2044
   4   2.0000     -15.627673      -425.2506
   5   2.0000     -15.606894      -424.6852
   6   2.0000     -11.397107      -310.1310
   7   2.0000     -11.382964      -309.7462
   8   2.0000     -11.334018      -308.4143
   9   2.0000     -11.308637      -307.7236
  10   2.0000     -11.306572      -307.6675
  11   2.0000     -11.301375      -307.5261
  12   2.0000     -11.259983      -306.3997
  13   2.0000     -11.258784      -306.3671
  14   2.0000     -11.254533      -306.2514
  15   2.0000     -11.248890      -306.0979
  16   2.0000     -11.238483      -305.8147
  17   2.0000     -11.234441      -305.7047
  18   2.0000     -11.231662      -305.6291
  19   2.0000     -11.222165      -305.3706
  20   2.0000      -8.892924      -241.9888
  21   2.0000      -6.574504      -178.9013
  22   2.0000      -6.572495      -178.8467
  23   2.0000      -6.571911      -178.8308
  24   2.0000      -1.453128       -39.5416
  25   2.0000      -1.412396       -38.4333
  26   2.0000      -1.358141       -36.9569
  27   2.0000      -1.338822       -36.4312
  28   2.0000      -1.236761       -33.6540
  29   2.0000      -1.153058       -31.3763
  30   2.0000      -1.119747       -30.4699
  31   2.0000      -1.042347       -28.3637
  32   2.0000      -1.033064       -28.1111
  33   2.0000      -1.010454       -27.4958
  34   2.0000      -0.997105       -27.1326
  35   2.0000      -0.982501       -26.7352
  36   2.0000      -0.921579       -25.0774
  37   2.0000      -0.889883       -24.2149
  38   2.0000      -0.847557       -23.0632
  39   2.0000      -0.836263       -22.7559
  40   2.0000      -0.829002       -22.5583
  41   2.0000      -0.820121       -22.3166
  42   2.0000      -0.752027       -20.4637
  43   2.0000      -0.733439       -19.9579
  44   2.0000      -0.725743       -19.7485
  45   2.0000      -0.691574       -18.8187
  46   2.0000      -0.685306       -18.6481
  47   2.0000      -0.680499       -18.5173
  48   2.0000      -0.671509       -18.2727
  49   2.0000      -0.661561       -18.0020
  50   2.0000      -0.645872       -17.5751
  51   2.0000      -0.641140       -17.4463
  52   2.0000      -0.631947       -17.1962
  53   2.0000      -0.606848       -16.5132
  54   2.0000      -0.600656       -16.3447
  55   2.0000      -0.599417       -16.3110
  56   2.0000      -0.595696       -16.2097
  57   2.0000      -0.585894       -15.9430
  58   2.0000      -0.573804       -15.6140
  59   2.0000      -0.567778       -15.4500
  60   2.0000      -0.560582       -15.2542
  61   2.0000      -0.546381       -14.8678
  62   2.0000      -0.535369       -14.5681
  63   2.0000      -0.519118       -14.1259
  64   2.0000      -0.517624       -14.0853
  65   2.0000      -0.510915       -13.9027
  66   2.0000      -0.502097       -13.6627
  67   2.0000      -0.495972       -13.4961
  68   2.0000      -0.480278       -13.0690
  69   2.0000      -0.461918       -12.5694
  70   2.0000      -0.456300       -12.4166
  71   2.0000      -0.453518       -12.3409
  72   2.0000      -0.353491        -9.6190
  73   2.0000      -0.344875        -9.3845
  74   2.0000      -0.327066        -8.8999
  75   2.0000      -0.316026        -8.5995
  76   2.0000      -0.314454        -8.5567
  77   0.0000       0.075218         2.0468
  78   0.0000       0.110880         3.0172
  79   0.0000       0.121411         3.3037
  80   0.0000       0.135201         3.6790
  81   0.0000       0.140152         3.8137

MULLIKEN ATOMIC CHARGES
-----------------------
   0 C :   -0.290975
   1 C :    0.044797
   2 O :   -0.355517
   3 C :    0.427752
   4 O :   -0.421640
   5 C :   -0.146808
   6 C :    0.138753
   7 C :   -0.284177
   8 N :   -0.122927
   9 C :    0.202211
  10 S :   -0.440262
  11 N :   -0.198267
  12 C :    0.039962
  13 C :    0.053143
  14 C :   -0.163767
  15 C :   -0.134183
  16 C :   -0.279811
  17 C :    0.311320
  18 O :   -0.358668
  19 C :   -0.271230
  20 H :    0.090029
  21 H :    0.092026
  22 H :    0.121919
  23 H :    0.101254
  24 H :    0.098769
  25 H :    0.123993
  26 H :    0.101970
  27 H :    0.127497
  28 H :    0.196876
  29 H :    0.193653
  30 H :    0.154201
  31 H :    0.154249
  32 H :    0.159655
  33 H :    0.128672
  34 H :    0.240125
  35 H :    0.165405
Sum of atomic charges:   -0.0000000

LOEWDIN ATOMIC CHARGES
----------------------
   0 C :    0.104465
   1 C :   -0.014624
   2 O :    0.298056
   3 C :   -0.411708
   4 O :    0.115123
   5 C :   -0.090983
   6 C :   -0.069633
   7 C :    0.125303
   8 N :    0.404344
   9 C :   -0.458372
  10 S :   -0.036757
  11 N :    0.397471
  12 C :   -0.045829
  13 C :   -0.039233
  14 C :    0.021146
  15 C :    0.040459
  16 C :   -0.002466
  17 C :   -0.192757
  18 O :    0.393197
  19 C :    0.028762
  20 H :   -0.030365
  21 H :   -0.028963
  22 H :   -0.025360
  23 H :   -0.025790
  24 H :   -0.026601
  25 H :   -0.008805
  26 H :   -0.020445
  27 H :   -0.009542
  28 H :   -0.059022
  29 H :   -0.063890
  30 H :   -0.005039
  31 H :   -0.025318
  32 H :   -0.021118
  33 H :   -0.036265
  34 H :   -0.154783
  35 H :   -0.024659

  Mayer bond orders larger than 0.100000
B(  0-C ,  1-C ) :   0.9697 B(  0-C , 20-H ) :   0.9761 B(  0-C , 21-H ) :   0.9768
B(  0-C , 22-H ) :   0.9728 B(  1-C ,  2-O ) :   0.9026 B(  1-C , 23-H ) :   0.9842
B(  1-C , 24-H ) :   0.9755 B(  2-O ,  3-C ) :   1.1161 B(  3-C ,  4-O ) :   1.9737
B(  3-C ,  5-C ) :   1.0472 B(  5-C ,  6-C ) :   1.6560 B(  5-C , 12-C ) :   0.9641
B(  6-C ,  7-C ) :   0.9543 B(  6-C ,  8-N ) :   1.1406 B(  7-C , 25-H ) :   0.9684
B(  7-C , 26-H ) :   0.9902 B(  7-C , 27-H ) :   0.9628 B(  8-N ,  9-C ) :   1.1818
B(  8-N , 28-H ) :   0.9494 B(  9-C , 10-S ) :   1.6100 B(  9-C , 11-N ) :   1.3019
B( 11-N , 12-C ) :   0.9928 B( 11-N , 29-H ) :   0.9518 B( 12-C , 13-C ) :   0.9459
B( 12-C , 30-H ) :   0.9990 B( 13-C , 14-C ) :   1.3758 B( 13-C , 19-C ) :   1.3701
B( 14-C , 15-C ) :   1.3946 B( 14-C , 31-H ) :   0.9647 B( 15-C , 16-C ) :   1.3629
B( 15-C , 32-H ) :   0.9712 B( 16-C , 17-C ) :   1.3311 B( 16-C , 33-H ) :   0.9858
B( 17-C , 18-O ) :   1.1085 B( 17-C , 19-C ) :   1.3782 B( 18-O , 34-H ) :   0.9805
B( 19-C , 35-H ) :   0.9582

MP2 TOTAL ENERGY:    -1274.337449043 Eh
FINAL SINGLE POINT ENERGY     -1274.337449043439

DIPOLE MOMENT
-------------
                                X             Y             Z
Electronic contribution:     10.41691      10.26064      10.49361
Nuclear contribution   :    -12.03344     -11.43769     -11.26639
                        -----------------------------------------
Total Dipole Moment    :     -1.61653      -1.17706      -0.77278
                        -----------------------------------------
Magnitude (a.u.)       :      2.14379
Magnitude (Debye)      :      5.44907

Rotational constants in cm-1:     0.010837     0.008976     0.005956
Rotational constants in MHz :   324.889199   269.086482   178.556871

                             ****ORCA TERMINATED NORMALLY****
TOTAL RUN TIME: 0 days 1 hours 35 minutes 3 seconds 425 msec
