                         Program Version 4.2.0 -  RELEASE  -
|  1> ! ri-mp2 cc-pvtz cc-pvtz/c TightSCF  NoKeepInts
|  2>
|  3> %scf
|  4>   MaxCore 4096
|  5> end
|  6> *xyz  0  1
|  7>     C       15.2531825   14.1294105   15.1461803
|  8>     C       16.0413660   13.9515507   16.4623041
|  9>     O       16.9204369   15.0568455   16.7850141
| 10>     C       16.6162858   16.3900076   16.6652992
| 11>     O       15.6737735   16.8191021   16.0245216
| 12>     C       17.4691464   17.2428604   17.5665429
| 13>     C       17.3760288   18.5974195   17.5910451
| 14>     C       16.4528674   19.4705493   16.7678417
| 15>     N       18.2206826   19.3442388   18.4179758
| 16>     C       19.2494346   18.8281592   19.1594819
| 17>     S       20.2675814   19.7936844   20.0353634
| 18>     N       19.3962524   17.4650100   19.1359175
| 19>     C       18.4642081   16.5215124   18.4921690
| 20>     C       17.7537974   15.6935959   19.5596986
| 21>     C       18.0237161   14.3184039   19.6922788
| 22>     C       17.3693062   13.5523905   20.6716678
| 23>     C       16.4395765   14.1666580   21.5279614
| 24>     C       16.1722113   15.5368422   21.4021558
| 25>     O       15.2764920   16.1330945   22.2287084
| 26>     C       16.8247140   16.2963900   20.4262686
| 27>     H       14.4047138   14.8122586   15.2764490
| 28>     H       14.8476597   13.1660373   14.8147644
| 29>     H       15.9006705   14.5178854   14.3502296
| 30>     H       15.3234503   13.8120840   17.2812992
| 31>     H       16.6437755   13.0365419   16.3975860
| 32>     H       15.4039678   19.2522458   17.0063872
| 33>     H       16.5913140   19.2773372   15.6965076
| 34>     H       16.6143792   20.5421819   16.9329553
| 35>     H       18.1280585   20.3470273   18.4467035
| 36>     H       20.1400789   17.1109294   19.7233637
| 37>     H       19.0660229   15.8439735   17.8703655
| 38>     H       18.7394459   13.8405596   19.0287844
| 39>     H       17.5839219   12.4893170   20.7657649
| 40>     H       15.9322389   13.5797810   22.2865671
| 41>     H       14.9573979   15.4594918   22.8477110
| 42>     H       16.6088442   17.3566226   20.3501657
| 43> *
| 44>
| 45>                          ****END OF INPUT****

CARTESIAN COORDINATES (ANGSTROEM)
---------------------------------
  C     15.253182   14.129411   15.146180
  C     16.041366   13.951551   16.462304
  O     16.920437   15.056845   16.785014
  C     16.616286   16.390008   16.665299
  O     15.673773   16.819102   16.024522
  C     17.469146   17.242860   17.566543
  C     17.376029   18.597420   17.591045
  C     16.452867   19.470549   16.767842
  N     18.220683   19.344239   18.417976
  C     19.249435   18.828159   19.159482
  S     20.267581   19.793684   20.035363
  N     19.396252   17.465010   19.135918
  C     18.464208   16.521512   18.492169
  C     17.753797   15.693596   19.559699
  C     18.023716   14.318404   19.692279
  C     17.369306   13.552390   20.671668
  C     16.439577   14.166658   21.527961
  C     16.172211   15.536842   21.402156
  O     15.276492   16.133094   22.228708
  C     16.824714   16.296390   20.426269
  H     14.404714   14.812259   15.276449
  H     14.847660   13.166037   14.814764
  H     15.900670   14.517885   14.350230
  H     15.323450   13.812084   17.281299
  H     16.643776   13.036542   16.397586
  H     15.403968   19.252246   17.006387
  H     16.591314   19.277337   15.696508
  H     16.614379   20.542182   16.932955
  H     18.128059   20.347027   18.446704
  H     20.140079   17.110929   19.723364
  H     19.066023   15.843973   17.870365
  H     18.739446   13.840560   19.028784
  H     17.583922   12.489317   20.765765
  H     15.932239   13.579781   22.286567
  H     14.957398   15.459492   22.847711
  H     16.608844   17.356623   20.350166

 Total Charge           Charge          ....    0
 Multiplicity           Mult            ....    1
 Number of Electrons    NEL             ....  154
 Basis Dimension        Dim             ....  828

ORBITAL ENERGIES
----------------

  NO   OCC          E(Eh)            E(eV)
   0   2.0000     -91.887973     -2500.3988
   1   2.0000     -20.597941      -560.4985
   2   2.0000     -20.595918      -560.4434
   3   2.0000     -20.541298      -558.9571
   4   2.0000     -15.628036      -425.2605
   5   2.0000     -15.607182      -424.6930
   6   2.0000     -11.397392      -310.1388
   7   2.0000     -11.382965      -309.7462
   8   2.0000     -11.334712      -308.4332
   9   2.0000     -11.312997      -307.8423
  10   2.0000     -11.307734      -307.6991
  11   2.0000     -11.302100      -307.5458
  12   2.0000     -11.258810      -306.3678
  13   2.0000     -11.258087      -306.3481
  14   2.0000     -11.254542      -306.2517
  15   2.0000     -11.251309      -306.1637
  16   2.0000     -11.242181      -305.9153
  17   2.0000     -11.237451      -305.7866
  18   2.0000     -11.237320      -305.7830
  19   2.0000     -11.221044      -305.3401
  20   2.0000      -8.893043      -241.9920
  21   2.0000      -6.574621      -178.9045
  22   2.0000      -6.572614      -178.8499
  23   2.0000      -6.572030      -178.8340
  24   2.0000      -1.444479       -39.3063
  25   2.0000      -1.415556       -38.5192
  26   2.0000      -1.354846       -36.8672
  27   2.0000      -1.339110       -36.4390
  28   2.0000      -1.237542       -33.6752
  29   2.0000      -1.156580       -31.4721
  30   2.0000      -1.118923       -30.4475
  31   2.0000      -1.041671       -28.3453
  32   2.0000      -1.035573       -28.1794
  33   2.0000      -1.014225       -27.5985
  34   2.0000      -0.994356       -27.0578
  35   2.0000      -0.982732       -26.7415
  36   2.0000      -0.921519       -25.0758
  37   2.0000      -0.895980       -24.3808
  38   2.0000      -0.846461       -23.0334
  39   2.0000      -0.837241       -22.7825
  40   2.0000      -0.833208       -22.6727
  41   2.0000      -0.818629       -22.2760
  42   2.0000      -0.747447       -20.3391
  43   2.0000      -0.729990       -19.8640
  44   2.0000      -0.719010       -19.5653
  45   2.0000      -0.694944       -18.9104
  46   2.0000      -0.687532       -18.7087
  47   2.0000      -0.678631       -18.4665
  48   2.0000      -0.668154       -18.1814
  49   2.0000      -0.656841       -17.8736
  50   2.0000      -0.650668       -17.7056
  51   2.0000      -0.644314       -17.5327
  52   2.0000      -0.634095       -17.2546
  53   2.0000      -0.606228       -16.4963
  54   2.0000      -0.601200       -16.3595
  55   2.0000      -0.598108       -16.2754
  56   2.0000      -0.597235       -16.2516
  57   2.0000      -0.582558       -15.8522
  58   2.0000      -0.574642       -15.6368
  59   2.0000      -0.570130       -15.5140
  60   2.0000      -0.561706       -15.2848
  61   2.0000      -0.538358       -14.6495
  62   2.0000      -0.535394       -14.5688
  63   2.0000      -0.524092       -14.2613
  64   2.0000      -0.521373       -14.1873
  65   2.0000      -0.512136       -13.9359
  66   2.0000      -0.501902       -13.6575
  67   2.0000      -0.498775       -13.5724
  68   2.0000      -0.483400       -13.1540
  69   2.0000      -0.463269       -12.6062
  70   2.0000      -0.453905       -12.3514
  71   2.0000      -0.439303       -11.9540
  72   2.0000      -0.353124        -9.6090
  73   2.0000      -0.348530        -9.4840
  74   2.0000      -0.327404        -8.9091
  75   2.0000      -0.320584        -8.7235
  76   2.0000      -0.315129        -8.5751
  77   0.0000       0.076852         2.0913
  78   0.0000       0.107841         2.9345
  79   0.0000       0.125009         3.4017
  80   0.0000       0.133191         3.6243
  81   0.0000       0.137848         3.7510

MULLIKEN ATOMIC CHARGES
-----------------------
   0 C :   -0.286651
   1 C :    0.050228
   2 O :   -0.367173
   3 C :    0.462171
   4 O :   -0.432012
   5 C :   -0.204641
   6 C :    0.147268
   7 C :   -0.273526
   8 N :   -0.120407
   9 C :    0.212434
  10 S :   -0.441489
  11 N :   -0.204286
  12 C :    0.054429
  13 C :    0.071793
  14 C :   -0.191525
  15 C :   -0.130306
  16 C :   -0.280028
  17 C :    0.316254
  18 O :   -0.356590
  19 C :   -0.270199
  20 H :    0.119735
  21 H :    0.093940
  22 H :    0.098028
  23 H :    0.091459
  24 H :    0.098656
  25 H :    0.132286
  26 H :    0.129468
  27 H :    0.095057
  28 H :    0.197154
  29 H :    0.194219
  30 H :    0.149004
  31 H :    0.150214
  32 H :    0.159922
  33 H :    0.129752
  34 H :    0.240567
  35 H :    0.164794
Sum of atomic charges:   -0.0000000

LOEWDIN ATOMIC CHARGES
----------------------
   0 C :    0.102678
   1 C :   -0.009974
   2 O :    0.295789
   3 C :   -0.412227
   4 O :    0.107681
   5 C :   -0.093561
   6 C :   -0.059522
   7 C :    0.130618
   8 N :    0.406351
   9 C :   -0.456683
  10 S :   -0.036631
  11 N :    0.396365
  12 C :   -0.052694
  13 C :   -0.037715
  14 C :    0.013854
  15 C :    0.038634
  16 C :   -0.002552
  17 C :   -0.189541
  18 O :    0.395167
  19 C :    0.031229
  20 H :   -0.025963
  21 H :   -0.029593
  22 H :   -0.025752
  23 H :   -0.028373
  24 H :   -0.025074
  25 H :   -0.004853
  26 H :   -0.004508
  27 H :   -0.023599
  28 H :   -0.057772
  29 H :   -0.064791
  30 H :   -0.011173
  31 H :   -0.030545
  32 H :   -0.021575
  33 H :   -0.035822
  34 H :   -0.154055
  35 H :   -0.023819

  Mayer bond orders larger than 0.100000
B(  0-C ,  1-C ) :   0.9777 B(  0-C , 20-H ) :   0.9723 B(  0-C , 21-H ) :   0.9767
B(  0-C , 22-H ) :   0.9758 B(  1-C ,  2-O ) :   0.8944 B(  1-C , 23-H ) :   0.9738
B(  1-C , 24-H ) :   0.9827 B(  2-O ,  3-C ) :   1.1415 B(  3-C ,  4-O ) :   1.9700
B(  3-C ,  5-C ) :   1.0670 B(  5-C ,  6-C ) :   1.6566 B(  5-C , 12-C ) :   0.9750
B(  6-C ,  7-C ) :   0.9676 B(  6-C ,  8-N ) :   1.1621 B(  7-C , 25-H ) :   0.9599
B(  7-C , 26-H ) :   0.9609 B(  7-C , 27-H ) :   0.9910 B(  8-N ,  9-C ) :   1.1832
B(  8-N , 28-H ) :   0.9480 B(  9-C , 10-S ) :   1.6057 B(  9-C , 11-N ) :   1.3058
B( 11-N , 12-C ) :   0.9850 B( 11-N , 29-H ) :   0.9517 B( 12-C , 13-C ) :   0.9363
B( 12-C , 30-H ) :   1.0024 B( 13-C , 14-C ) :   1.3525 B( 13-C , 19-C ) :   1.3838
B( 14-C , 15-C ) :   1.3914 B( 14-C , 31-H ) :   0.9720 B( 15-C , 16-C ) :   1.3634
B( 15-C , 32-H ) :   0.9708 B( 16-C , 17-C ) :   1.3316 B( 16-C , 33-H ) :   0.9852
B( 17-C , 18-O ) :   1.1103 B( 17-C , 19-C ) :   1.3722 B( 18-O , 34-H ) :   0.9800
B( 19-C , 35-H ) :   0.9583

MP2 TOTAL ENERGY:    -1274.340038787 Eh
FINAL SINGLE POINT ENERGY     -1274.340038787450

DIPOLE MOMENT
-------------
                                X             Y             Z
Electronic contribution:      9.96252       9.86147       9.68279
Nuclear contribution   :    -11.00298     -11.62004     -10.05287
                        -----------------------------------------
Total Dipole Moment    :     -1.04045      -1.75857      -0.37008
                        -----------------------------------------
Magnitude (a.u.)       :      2.07656
Magnitude (Debye)      :      5.27818

Rotational constants in cm-1:     0.011289     0.008755     0.006046
Rotational constants in MHz :   338.425293   262.481388   181.252885

                             ****ORCA TERMINATED NORMALLY****
TOTAL RUN TIME: 0 days 1 hours 38 minutes 39 seconds 301 msec
