                         Program Version 4.2.0 -  RELEASE  -
|  1> ! ri-mp2 cc-pvtz cc-pvtz/c TightSCF  NoKeepInts
|  2>
|  3> %scf
|  4>   MaxCore 4096
|  5> end
|  6> *xyz  0  1
|  7>     C       14.8616673   14.4282033   17.2728311
|  8>     C       15.5157253   15.6641385   16.6338650
|  9>     O       16.7819419   15.2320405   16.0921366
| 10>     C       18.0133695   15.6627801   16.5217875
| 11>     O       18.9664435   14.9071710   16.4754057
| 12>     C       18.0481999   16.8888785   17.3761427
| 13>     C       17.5599034   18.0843731   16.9702373
| 14>     C       16.9430969   18.4075497   15.6261488
| 15>     N       17.6642247   19.1979170   17.8066151
| 16>     C       18.3257139   19.2115167   19.0073868
| 17>     S       18.4510328   20.5892947   19.9128135
| 18>     N       18.8732378   18.0226438   19.4244560
| 19>     C       18.7229537   16.7250138   18.7359422
| 20>     C       17.9407985   15.7302880   19.5878291
| 21>     C       18.3918151   14.4045031   19.7210543
| 22>     C       17.6603373   13.4715707   20.4747421
| 23>     C       16.4637880   13.8653554   21.0974832
| 24>     C       16.0065048   15.1827338   20.9601265
| 25>     O       14.8425554   15.5621609   21.5445944
| 26>     C       16.7369001   16.1097275   20.2099780
| 27>     H       15.4940659   14.0302254   18.0767710
| 28>     H       14.7164741   13.6372447   16.5264181
| 29>     H       13.8846384   14.6841419   17.7001676
| 30>     H       14.8743433   16.0418411   15.8272611
| 31>     H       15.6083613   16.4417459   17.3998986
| 32>     H       17.1407125   17.6260902   14.8817909
| 33>     H       17.3557419   19.3388179   15.2174262
| 34>     H       15.8562390   18.5286028   15.7083300
| 35>     H       17.2810059   20.0831850   17.5138484
| 36>     H       19.3354458   18.0581064   20.3243793
| 37>     H       19.7298690   16.3164148   18.5641580
| 38>     H       19.3056314   14.0910538   19.2205768
| 39>     H       18.0182161   12.4473101   20.5654188
| 40>     H       15.8938211   13.1460901   21.6763540
| 41>     H       14.5199901   14.8099012   22.0639321
| 42>     H       16.3622341   17.1233686   20.1156934
| 43> *
| 44>
| 45>                          ****END OF INPUT****

CARTESIAN COORDINATES (ANGSTROEM)
---------------------------------
  C     14.861667   14.428203   17.272831
  C     15.515725   15.664138   16.633865
  O     16.781942   15.232040   16.092137
  C     18.013369   15.662780   16.521787
  O     18.966444   14.907171   16.475406
  C     18.048200   16.888879   17.376143
  C     17.559903   18.084373   16.970237
  C     16.943097   18.407550   15.626149
  N     17.664225   19.197917   17.806615
  C     18.325714   19.211517   19.007387
  S     18.451033   20.589295   19.912813
  N     18.873238   18.022644   19.424456
  C     18.722954   16.725014   18.735942
  C     17.940798   15.730288   19.587829
  C     18.391815   14.404503   19.721054
  C     17.660337   13.471571   20.474742
  C     16.463788   13.865355   21.097483
  C     16.006505   15.182734   20.960127
  O     14.842555   15.562161   21.544594
  C     16.736900   16.109728   20.209978
  H     15.494066   14.030225   18.076771
  H     14.716474   13.637245   16.526418
  H     13.884638   14.684142   17.700168
  H     14.874343   16.041841   15.827261
  H     15.608361   16.441746   17.399899
  H     17.140712   17.626090   14.881791
  H     17.355742   19.338818   15.217426
  H     15.856239   18.528603   15.708330
  H     17.281006   20.083185   17.513848
  H     19.335446   18.058106   20.324379
  H     19.729869   16.316415   18.564158
  H     19.305631   14.091054   19.220577
  H     18.018216   12.447310   20.565419
  H     15.893821   13.146090   21.676354
  H     14.519990   14.809901   22.063932
  H     16.362234   17.123369   20.115693

 Total Charge           Charge          ....    0
 Multiplicity           Mult            ....    1
 Number of Electrons    NEL             ....  154
 Basis Dimension        Dim             ....  828

ORBITAL ENERGIES
----------------

  NO   OCC          E(Eh)            E(eV)
   0   2.0000     -91.890994     -2500.4811
   1   2.0000     -20.600617      -560.5713
   2   2.0000     -20.600423      -560.5660
   3   2.0000     -20.548279      -559.1471
   4   2.0000     -15.628915      -425.2844
   5   2.0000     -15.612135      -424.8278
   6   2.0000     -11.397647      -310.1457
   7   2.0000     -11.387665      -309.8741
   8   2.0000     -11.331932      -308.3575
   9   2.0000     -11.317356      -307.9609
  10   2.0000     -11.314223      -307.8757
  11   2.0000     -11.304020      -307.5980
  12   2.0000     -11.268919      -306.6429
  13   2.0000     -11.264543      -306.5238
  14   2.0000     -11.263902      -306.5064
  15   2.0000     -11.257334      -306.3276
  16   2.0000     -11.246614      -306.0359
  17   2.0000     -11.243099      -305.9403
  18   2.0000     -11.239903      -305.8533
  19   2.0000     -11.226614      -305.4917
  20   2.0000      -8.896096      -242.0751
  21   2.0000      -6.577679      -178.9877
  22   2.0000      -6.575658      -178.9327
  23   2.0000      -6.575078      -178.9170
  24   2.0000      -1.446864       -39.3712
  25   2.0000      -1.420381       -38.6505
  26   2.0000      -1.358517       -36.9671
  27   2.0000      -1.341574       -36.5061
  28   2.0000      -1.240873       -33.7659
  29   2.0000      -1.162176       -31.6244
  30   2.0000      -1.126347       -30.6494
  31   2.0000      -1.049557       -28.5599
  32   2.0000      -1.037448       -28.2304
  33   2.0000      -1.019398       -27.7392
  34   2.0000      -1.005771       -27.3684
  35   2.0000      -0.990135       -26.9430
  36   2.0000      -0.928463       -25.2648
  37   2.0000      -0.883206       -24.0333
  38   2.0000      -0.855690       -23.2845
  39   2.0000      -0.842643       -22.9295
  40   2.0000      -0.837654       -22.7937
  41   2.0000      -0.836091       -22.7512
  42   2.0000      -0.754187       -20.5225
  43   2.0000      -0.741043       -20.1648
  44   2.0000      -0.731779       -19.9127
  45   2.0000      -0.698740       -19.0137
  46   2.0000      -0.688971       -18.7479
  47   2.0000      -0.680468       -18.5165
  48   2.0000      -0.677607       -18.4386
  49   2.0000      -0.659526       -17.9466
  50   2.0000      -0.657760       -17.8986
  51   2.0000      -0.648274       -17.6404
  52   2.0000      -0.640808       -17.4373
  53   2.0000      -0.612342       -16.6627
  54   2.0000      -0.609205       -16.5773
  55   2.0000      -0.605979       -16.4895
  56   2.0000      -0.599947       -16.3254
  57   2.0000      -0.583686       -15.8829
  58   2.0000      -0.579256       -15.7624
  59   2.0000      -0.570067       -15.5123
  60   2.0000      -0.560674       -15.2567
  61   2.0000      -0.558490       -15.1973
  62   2.0000      -0.547610       -14.9012
  63   2.0000      -0.529022       -14.3954
  64   2.0000      -0.519243       -14.1293
  65   2.0000      -0.514573       -14.0022
  66   2.0000      -0.503099       -13.6900
  67   2.0000      -0.501502       -13.6466
  68   2.0000      -0.488956       -13.3052
  69   2.0000      -0.471840       -12.8394
  70   2.0000      -0.452975       -12.3261
  71   2.0000      -0.449098       -12.2206
  72   2.0000      -0.357573        -9.7300
  73   2.0000      -0.353118        -9.6088
  74   2.0000      -0.330571        -8.9953
  75   2.0000      -0.325126        -8.8471
  76   2.0000      -0.319200        -8.6859
  77   0.0000       0.080896         2.2013
  78   0.0000       0.103051         2.8041
  79   0.0000       0.114362         3.1119
  80   0.0000       0.127210         3.4616
  81   0.0000       0.134842         3.6692

MULLIKEN ATOMIC CHARGES
-----------------------
   0 C :   -0.263748
   1 C :    0.003417
   2 O :   -0.318823
   3 C :    0.405618
   4 O :   -0.386224
   5 C :   -0.196233
   6 C :    0.135684
   7 C :   -0.319130
   8 N :   -0.135031
   9 C :    0.202035
  10 S :   -0.439056
  11 N :   -0.209718
  12 C :    0.069162
  13 C :    0.030308
  14 C :   -0.190367
  15 C :   -0.127724
  16 C :   -0.280499
  17 C :    0.315864
  18 O :   -0.360991
  19 C :   -0.282617
  20 H :    0.107807
  21 H :    0.108034
  22 H :    0.090543
  23 H :    0.111107
  24 H :    0.102223
  25 H :    0.133034
  26 H :    0.133347
  27 H :    0.121782
  28 H :    0.197161
  29 H :    0.197292
  30 H :    0.163034
  31 H :    0.167131
  32 H :    0.164045
  33 H :    0.132410
  34 H :    0.242092
  35 H :    0.177030
Sum of atomic charges:    0.0000000

LOEWDIN ATOMIC CHARGES
----------------------
   0 C :    0.109034
   1 C :   -0.021869
   2 O :    0.307262
   3 C :   -0.417257
   4 O :    0.121464
   5 C :   -0.086369
   6 C :   -0.097554
   7 C :    0.126863
   8 N :    0.401929
   9 C :   -0.456397
  10 S :   -0.036151
  11 N :    0.397225
  12 C :   -0.044993
  13 C :   -0.043882
  14 C :    0.022867
  15 C :    0.045039
  16 C :   -0.000332
  17 C :   -0.193491
  18 O :    0.394934
  19 C :    0.027159
  20 H :   -0.022478
  21 H :   -0.025480
  22 H :   -0.026410
  23 H :   -0.032096
  24 H :   -0.039339
  25 H :   -0.006552
  26 H :   -0.010927
  27 H :   -0.016235
  28 H :   -0.057532
  29 H :   -0.063518
  30 H :   -0.002538
  31 H :   -0.021677
  32 H :   -0.018420
  33 H :   -0.034631
  34 H :   -0.152688
  35 H :   -0.024959

  Mayer bond orders larger than 0.100000
B(  0-C ,  1-C ) :   0.9827 B(  0-C , 20-H ) :   0.9712 B(  0-C , 21-H ) :   0.9804
B(  0-C , 22-H ) :   0.9758 B(  1-C ,  2-O ) :   0.8987 B(  1-C , 23-H ) :   0.9778
B(  1-C , 24-H ) :   0.9598 B(  2-O ,  3-C ) :   1.1911 B(  3-C ,  4-O ) :   2.0880
B(  3-C ,  5-C ) :   0.9317 B(  5-C ,  6-C ) :   1.6805 B(  5-C , 12-C ) :   0.9600
B(  6-C ,  7-C ) :   0.9449 B(  6-C ,  8-N ) :   1.1223 B(  7-C , 25-H ) :   0.9781
B(  7-C , 26-H ) :   0.9748 B(  7-C , 27-H ) :   0.9640 B(  8-N ,  9-C ) :   1.1913
B(  8-N , 28-H ) :   0.9515 B(  9-C , 10-S ) :   1.6134 B(  9-C , 11-N ) :   1.2898
B( 11-N , 12-C ) :   0.9998 B( 11-N , 29-H ) :   0.9499 B( 12-C , 13-C ) :   0.9415
B( 12-C , 30-H ) :   0.9971 B( 13-C , 14-C ) :   1.3883 B( 13-C , 19-C ) :   1.3463
B( 14-C , 15-C ) :   1.3940 B( 14-C , 31-H ) :   0.9608 B( 15-C , 16-C ) :   1.3614
B( 15-C , 32-H ) :   0.9705 B( 16-C , 17-C ) :   1.3299 B( 16-C , 33-H ) :   0.9851
B( 17-C , 18-O ) :   1.1061 B( 17-C , 19-C ) :   1.3714 B( 18-O , 34-H ) :   0.9789
B( 19-C , 35-H ) :   0.9562

MP2 TOTAL ENERGY:    -1274.336494814 Eh
FINAL SINGLE POINT ENERGY     -1274.336494813964

DIPOLE MOMENT
-------------
                                X             Y             Z
Electronic contribution:     10.24362       8.20554       5.87638
Nuclear contribution   :    -11.75993      -9.11639      -6.24558
                        -----------------------------------------
Total Dipole Moment    :     -1.51631      -0.91085      -0.36920
                        -----------------------------------------
Magnitude (a.u.)       :      1.80698
Magnitude (Debye)      :      4.59298

Rotational constants in cm-1:     0.012449     0.009130     0.006903
Rotational constants in MHz :   373.224902   273.717654   206.945706

                             ****ORCA TERMINATED NORMALLY****
TOTAL RUN TIME: 0 days 1 hours 53 minutes 33 seconds 322 msec
