                         Program Version 4.2.0 -  RELEASE  -
|  1> ! ri-mp2 cc-pvtz cc-pvtz/c TightSCF  NoKeepInts
|  2>
|  3> %scf
|  4>   MaxCore 4096
|  5> end
|  6> *xyz  0  1
|  7>     C       15.4088890   13.5585545   16.6757637
|  8>     C       16.5695217   14.1051788   15.8246497
|  9>     O       17.2314890   15.1267951   16.5904219
| 10>     C       16.8169267   16.4276958   16.5027028
| 11>     O       15.9754884   16.7949226   15.6998334
| 12>     C       17.5329329   17.3287957   17.4703352
| 13>     C       17.3658921   18.6756614   17.4727401
| 14>     C       16.4834113   19.4913569   16.5522789
| 15>     N       18.0767423   19.4689213   18.3782783
| 16>     C       19.0300081   19.0070753   19.2459612
| 17>     S       19.8848742   20.0259890   20.2293175
| 18>     N       19.2422631   17.6521892   19.2581700
| 19>     C       18.4553356   16.6602170   18.5028785
| 20>     C       17.6746891   15.7742751   19.4698063
| 21>     C       17.9960433   14.4106645   19.6063121
| 22>     C       17.2738113   13.5906809   20.4895770
| 23>     C       16.2229761   14.1387554   21.2446887
| 24>     C       15.9033566   15.4972765   21.1146870
| 25>     O       14.8898735   16.0295266   21.8430938
| 26>     C       16.6241465   16.3108947   20.2351735
| 27>     H       15.7747992   13.1964802   17.6448136
| 28>     H       14.9119620   12.7273045   16.1613969
| 29>     H       14.6625046   14.3417692   16.8595765
| 30>     H       17.2754750   13.2887686   15.6260701
| 31>     H       16.2079344   14.4845433   14.8589780
| 32>     H       15.4322771   19.1968952   16.6668878
| 33>     H       16.7578565   19.3215893   15.5033909
| 34>     H       16.5475119   20.5694792   16.7402201
| 35>     H       17.9341744   20.4662529   18.3839097
| 36>     H       19.9226156   17.3377531   19.9379359
| 37>     H       19.1687401   16.0302686   17.9532500
| 38>     H       18.8030832   13.9828305   19.0177418
| 39>     H       17.5281515   12.5366456   20.5858433
| 40>     H       15.6619847   13.5096722   21.9278858
| 41>     H       14.5342338   15.3253047   22.4055238
| 42>     H       16.3650251   17.3610162   20.1539064
| 43> *
| 44>
| 45>                          ****END OF INPUT****

CARTESIAN COORDINATES (ANGSTROEM)
---------------------------------
  C     15.408889   13.558554   16.675764
  C     16.569522   14.105179   15.824650
  O     17.231489   15.126795   16.590422
  C     16.816927   16.427696   16.502703
  O     15.975488   16.794923   15.699833
  C     17.532933   17.328796   17.470335
  C     17.365892   18.675661   17.472740
  C     16.483411   19.491357   16.552279
  N     18.076742   19.468921   18.378278
  C     19.030008   19.007075   19.245961
  S     19.884874   20.025989   20.229318
  N     19.242263   17.652189   19.258170
  C     18.455336   16.660217   18.502878
  C     17.674689   15.774275   19.469806
  C     17.996043   14.410664   19.606312
  C     17.273811   13.590681   20.489577
  C     16.222976   14.138755   21.244689
  C     15.903357   15.497276   21.114687
  O     14.889873   16.029527   21.843094
  C     16.624146   16.310895   20.235173
  H     15.774799   13.196480   17.644814
  H     14.911962   12.727304   16.161397
  H     14.662505   14.341769   16.859576
  H     17.275475   13.288769   15.626070
  H     16.207934   14.484543   14.858978
  H     15.432277   19.196895   16.666888
  H     16.757856   19.321589   15.503391
  H     16.547512   20.569479   16.740220
  H     17.934174   20.466253   18.383910
  H     19.922616   17.337753   19.937936
  H     19.168740   16.030269   17.953250
  H     18.803083   13.982830   19.017742
  H     17.528151   12.536646   20.585843
  H     15.661985   13.509672   21.927886
  H     14.534234   15.325305   22.405524
  H     16.365025   17.361016   20.153906

 Total Charge           Charge          ....    0
 Multiplicity           Mult            ....    1
 Number of Electrons    NEL             ....  154
 Basis Dimension        Dim             ....  828

ORBITAL ENERGIES
----------------

  NO   OCC          E(Eh)            E(eV)
   0   2.0000     -91.888652     -2500.4173
   1   2.0000     -20.601909      -560.6065
   2   2.0000     -20.596284      -560.4534
   3   2.0000     -20.541564      -558.9644
   4   2.0000     -15.628805      -425.2814
   5   2.0000     -15.608110      -424.7183
   6   2.0000     -11.395463      -310.0863
   7   2.0000     -11.383833      -309.7698
   8   2.0000     -11.335813      -308.4632
   9   2.0000     -11.313490      -307.8557
  10   2.0000     -11.308627      -307.7234
  11   2.0000     -11.295802      -307.3744
  12   2.0000     -11.259280      -306.3806
  13   2.0000     -11.258888      -306.3699
  14   2.0000     -11.254773      -306.2580
  15   2.0000     -11.251893      -306.1796
  16   2.0000     -11.242989      -305.9373
  17   2.0000     -11.238382      -305.8119
  18   2.0000     -11.237843      -305.7972
  19   2.0000     -11.223148      -305.3974
  20   2.0000      -8.893717      -242.0103
  21   2.0000      -6.575293      -178.9228
  22   2.0000      -6.573287      -178.8682
  23   2.0000      -6.572701      -178.8523
  24   2.0000      -1.451500       -39.4973
  25   2.0000      -1.415956       -38.5301
  26   2.0000      -1.354877       -36.8681
  27   2.0000      -1.339785       -36.4574
  28   2.0000      -1.238289       -33.6956
  29   2.0000      -1.157489       -31.4969
  30   2.0000      -1.120373       -30.4869
  31   2.0000      -1.042700       -28.3733
  32   2.0000      -1.036456       -28.2034
  33   2.0000      -1.014858       -27.6157
  34   2.0000      -0.995105       -27.0782
  35   2.0000      -0.984009       -26.7762
  36   2.0000      -0.922312       -25.0974
  37   2.0000      -0.892893       -24.2969
  38   2.0000      -0.846736       -23.0409
  39   2.0000      -0.837409       -22.7871
  40   2.0000      -0.833787       -22.6885
  41   2.0000      -0.815706       -22.1965
  42   2.0000      -0.758981       -20.6529
  43   2.0000      -0.732292       -19.9267
  44   2.0000      -0.723031       -19.6747
  45   2.0000      -0.695648       -18.9296
  46   2.0000      -0.688606       -18.7379
  47   2.0000      -0.679600       -18.4929
  48   2.0000      -0.670534       -18.2461
  49   2.0000      -0.660191       -17.9647
  50   2.0000      -0.647779       -17.6270
  51   2.0000      -0.641331       -17.4515
  52   2.0000      -0.631153       -17.1746
  53   2.0000      -0.609290       -16.5796
  54   2.0000      -0.606392       -16.5008
  55   2.0000      -0.599377       -16.3099
  56   2.0000      -0.598543       -16.2872
  57   2.0000      -0.577452       -15.7133
  58   2.0000      -0.570489       -15.5238
  59   2.0000      -0.568238       -15.4625
  60   2.0000      -0.561196       -15.2709
  61   2.0000      -0.543833       -14.7984
  62   2.0000      -0.533169       -14.5083
  63   2.0000      -0.531186       -14.4543
  64   2.0000      -0.524686       -14.2774
  65   2.0000      -0.513095       -13.9620
  66   2.0000      -0.500864       -13.6292
  67   2.0000      -0.499044       -13.5797
  68   2.0000      -0.482468       -13.1286
  69   2.0000      -0.463791       -12.6204
  70   2.0000      -0.454184       -12.3590
  71   2.0000      -0.448310       -12.1991
  72   2.0000      -0.354106        -9.6357
  73   2.0000      -0.349366        -9.5067
  74   2.0000      -0.328040        -8.9264
  75   2.0000      -0.320911        -8.7324
  76   2.0000      -0.315922        -8.5967
  77   0.0000       0.076814         2.0902
  78   0.0000       0.106480         2.8975
  79   0.0000       0.125051         3.4028
  80   0.0000       0.132900         3.6164
  81   0.0000       0.138731         3.7751

MULLIKEN ATOMIC CHARGES
-----------------------
   0 C :   -0.287221
   1 C :    0.014429
   2 O :   -0.350637
   3 C :    0.470592
   4 O :   -0.437653
   5 C :   -0.225299
   6 C :    0.151070
   7 C :   -0.273771
   8 N :   -0.120267
   9 C :    0.211551
  10 S :   -0.440480
  11 N :   -0.205114
  12 C :    0.055824
  13 C :    0.068731
  14 C :   -0.189042
  15 C :   -0.135647
  16 C :   -0.276864
  17 C :    0.315898
  18 O :   -0.356599
  19 C :   -0.267048
  20 H :    0.100814
  21 H :    0.096730
  22 H :    0.105669
  23 H :    0.107673
  24 H :    0.119147
  25 H :    0.132061
  26 H :    0.130728
  27 H :    0.095080
  28 H :    0.197063
  29 H :    0.194901
  30 H :    0.150090
  31 H :    0.148698
  32 H :    0.162593
  33 H :    0.130307
  34 H :    0.240626
  35 H :    0.165366
Sum of atomic charges:    0.0000000

LOEWDIN ATOMIC CHARGES
----------------------
   0 C :    0.104994
   1 C :   -0.017518
   2 O :    0.310391
   3 C :   -0.413400
   4 O :    0.094114
   5 C :   -0.093998
   6 C :   -0.059343
   7 C :    0.131526
   8 N :    0.406509
   9 C :   -0.456321
  10 S :   -0.035870
  11 N :    0.396515
  12 C :   -0.052316
  13 C :   -0.039151
  14 C :    0.014368
  15 C :    0.039267
  16 C :   -0.001591
  17 C :   -0.189340
  18 O :    0.395273
  19 C :    0.032018
  20 H :   -0.027288
  21 H :   -0.027957
  22 H :   -0.024983
  23 H :   -0.027244
  24 H :   -0.027885
  25 H :   -0.004547
  26 H :   -0.004037
  27 H :   -0.023439
  28 H :   -0.057601
  29 H :   -0.064524
  30 H :   -0.011532
  31 H :   -0.030335
  32 H :   -0.021699
  33 H :   -0.035513
  34 H :   -0.153950
  35 H :   -0.023593

  Mayer bond orders larger than 0.100000
B(  0-C ,  1-C ) :   0.9645 B(  0-C , 20-H ) :   0.9721 B(  0-C , 21-H ) :   0.9768
B(  0-C , 22-H ) :   0.9777 B(  1-C ,  2-O ) :   0.8936 B(  1-C , 23-H ) :   0.9849
B(  1-C , 24-H ) :   0.9772 B(  2-O ,  3-C ) :   1.1708 B(  3-C ,  4-O ) :   1.9606
B(  3-C ,  5-C ) :   1.0614 B(  5-C ,  6-C ) :   1.6550 B(  5-C , 12-C ) :   0.9721
B(  6-C ,  7-C ) :   0.9667 B(  6-C ,  8-N ) :   1.1658 B(  7-C , 25-H ) :   0.9605
B(  7-C , 26-H ) :   0.9604 B(  7-C , 27-H ) :   0.9904 B(  8-N ,  9-C ) :   1.1833
B(  8-N , 28-H ) :   0.9479 B(  9-C , 10-S ) :   1.6066 B(  9-C , 11-N ) :   1.3055
B( 11-N , 12-C ) :   0.9876 B( 11-N , 29-H ) :   0.9513 B( 12-C , 13-C ) :   0.9362
B( 12-C , 30-H ) :   1.0024 B( 13-C , 14-C ) :   1.3527 B( 13-C , 19-C ) :   1.3824
B( 14-C , 15-C ) :   1.3908 B( 14-C , 31-H ) :   0.9721 B( 15-C , 16-C ) :   1.3598
B( 15-C , 32-H ) :   0.9706 B( 16-C , 17-C ) :   1.3319 B( 16-C , 33-H ) :   0.9851
B( 17-C , 18-O ) :   1.1101 B( 17-C , 19-C ) :   1.3712 B( 18-O , 34-H ) :   0.9799
B( 19-C , 35-H ) :   0.9581

MP2 TOTAL ENERGY:    -1274.352056146 Eh
FINAL SINGLE POINT ENERGY     -1274.352056146337

DIPOLE MOMENT
-------------
                                X             Y             Z
Electronic contribution:      8.86451      11.26563       7.57050
Nuclear contribution   :     -9.70527     -13.04034      -8.06113
                        -----------------------------------------
Total Dipole Moment    :     -0.84077      -1.77471      -0.49063
                        -----------------------------------------
Magnitude (a.u.)       :      2.02415
Magnitude (Debye)      :      5.14498

Rotational constants in cm-1:     0.012122     0.008638     0.006212
Rotational constants in MHz :   363.395795   258.964897   186.244733

                             ****ORCA TERMINATED NORMALLY****
TOTAL RUN TIME: 0 days 1 hours 41 minutes 44 seconds 622 msec
