                         Program Version 4.2.0 -  RELEASE  -
|  1> ! ri-mp2 cc-pvtz cc-pvtz/c TightSCF  NoKeepInts
|  2>
|  3> %scf
|  4>   MaxCore 4096
|  5> end
|  6> *xyz  0  1
|  7>     C       15.6384316   13.7849698   15.0840381
|  8>     C       15.0629815   14.9877471   15.8641643
|  9>     O       16.0508757   16.0079583   16.1408976
| 10>     C       17.2467746   15.7731617   16.7662113
| 11>     O       17.7181551   14.6591954   16.9171570
| 12>     C       17.7096709   16.9320481   17.6029721
| 13>     C       17.3734613   18.2301112   17.3822134
| 14>     C       16.5098896   18.7935921   16.2720438
| 15>     N       17.9126411   19.2349704   18.1923392
| 16>     C       18.8983034   19.0455321   19.1245952
| 17>     S       19.5738312   20.3106940   19.9484683
| 18>     N       19.2964390   17.7503423   19.3377839
| 19>     C       18.6368024   16.5610691   18.7666632
| 20>     C       17.8781135   15.7997942   19.8509262
| 21>     C       18.1298720   14.4328349   20.0703873
| 22>     C       17.4328306   13.7261570   21.0646986
| 23>     C       16.4743754   14.3912802   21.8480008
| 24>     C       16.2175212   15.7516828   21.6302337
| 25>     O       15.2879694   16.3952428   22.3807005
| 26>     C       16.9125655   16.4522323   20.6394691
| 27>     H       16.3109697   14.1216095   14.2854132
| 28>     H       14.8263360   13.2087041   14.6248448
| 29>     H       16.1885834   13.1023402   15.7428300
| 30>     H       14.2529503   15.4378275   15.2761530
| 31>     H       14.6287325   14.6278322   16.8063755
| 32>     H       15.4522060   18.5627989   16.4500912
| 33>     H       16.7909532   18.3644928   15.3022043
| 34>     H       16.6005906   19.8825454   16.1778141
| 35>     H       17.6334066   20.1925046   18.0505979
| 36>     H       20.0025028   17.6337694   20.0531444
| 37>     H       19.4241939   15.9030670   18.3714127
| 38>     H       18.8580527   13.9119523   19.4533749
| 39>     H       17.6329731   12.6675336   21.2197006
| 40>     H       15.9324826   13.8489285   22.6155116
| 41>     H       14.9500495   15.7601830   23.0297272
| 42>     H       16.7005120   17.5052951   20.4908411
| 43> *
| 44>
| 45>                          ****END OF INPUT****

CARTESIAN COORDINATES (ANGSTROEM)
---------------------------------
  C     15.638432   13.784970   15.084038
  C     15.062981   14.987747   15.864164
  O     16.050876   16.007958   16.140898
  C     17.246775   15.773162   16.766211
  O     17.718155   14.659195   16.917157
  C     17.709671   16.932048   17.602972
  C     17.373461   18.230111   17.382213
  C     16.509890   18.793592   16.272044
  N     17.912641   19.234970   18.192339
  C     18.898303   19.045532   19.124595
  S     19.573831   20.310694   19.948468
  N     19.296439   17.750342   19.337784
  C     18.636802   16.561069   18.766663
  C     17.878114   15.799794   19.850926
  C     18.129872   14.432835   20.070387
  C     17.432831   13.726157   21.064699
  C     16.474375   14.391280   21.848001
  C     16.217521   15.751683   21.630234
  O     15.287969   16.395243   22.380700
  C     16.912565   16.452232   20.639469
  H     16.310970   14.121609   14.285413
  H     14.826336   13.208704   14.624845
  H     16.188583   13.102340   15.742830
  H     14.252950   15.437827   15.276153
  H     14.628732   14.627832   16.806376
  H     15.452206   18.562799   16.450091
  H     16.790953   18.364493   15.302204
  H     16.600591   19.882545   16.177814
  H     17.633407   20.192505   18.050598
  H     20.002503   17.633769   20.053144
  H     19.424194   15.903067   18.371413
  H     18.858053   13.911952   19.453375
  H     17.632973   12.667534   21.219701
  H     15.932483   13.848928   22.615512
  H     14.950050   15.760183   23.029727
  H     16.700512   17.505295   20.490841

 Total Charge           Charge          ....    0
 Multiplicity           Mult            ....    1
 Number of Electrons    NEL             ....  154
 Basis Dimension        Dim             ....  828

ORBITAL ENERGIES
----------------

  NO   OCC          E(Eh)            E(eV)
   0   2.0000     -91.887277     -2500.3799
   1   2.0000     -20.598935      -560.5255
   2   2.0000     -20.591757      -560.3302
   3   2.0000     -20.547616      -559.1291
   4   2.0000     -15.627015      -425.2327
   5   2.0000     -15.606154      -424.6651
   6   2.0000     -11.397970      -310.1545
   7   2.0000     -11.382234      -309.7263
   8   2.0000     -11.333705      -308.4058
   9   2.0000     -11.307629      -307.6962
  10   2.0000     -11.305476      -307.6376
  11   2.0000     -11.304580      -307.6133
  12   2.0000     -11.259423      -306.3845
  13   2.0000     -11.258070      -306.3476
  14   2.0000     -11.253500      -306.2233
  15   2.0000     -11.247886      -306.0705
  16   2.0000     -11.237464      -305.7869
  17   2.0000     -11.233404      -305.6765
  18   2.0000     -11.230605      -305.6003
  19   2.0000     -11.222607      -305.3827
  20   2.0000      -8.892350      -241.9731
  21   2.0000      -6.573930      -178.8857
  22   2.0000      -6.571921      -178.8311
  23   2.0000      -6.571338      -178.8152
  24   2.0000      -1.449033       -39.4302
  25   2.0000      -1.411493       -38.4087
  26   2.0000      -1.357889       -36.9501
  27   2.0000      -1.338246       -36.4155
  28   2.0000      -1.236104       -33.6361
  29   2.0000      -1.151979       -31.3469
  30   2.0000      -1.118640       -30.4397
  31   2.0000      -1.041652       -28.3448
  32   2.0000      -1.033412       -28.1206
  33   2.0000      -1.009454       -27.4686
  34   2.0000      -0.996367       -27.1125
  35   2.0000      -0.981786       -26.7158
  36   2.0000      -0.920958       -25.0605
  37   2.0000      -0.893900       -24.3242
  38   2.0000      -0.847158       -23.0523
  39   2.0000      -0.835547       -22.7364
  40   2.0000      -0.828004       -22.5311
  41   2.0000      -0.818402       -22.2699
  42   2.0000      -0.746376       -20.3099
  43   2.0000      -0.729670       -19.8553
  44   2.0000      -0.724732       -19.7210
  45   2.0000      -0.690768       -18.7968
  46   2.0000      -0.684339       -18.6218
  47   2.0000      -0.679571       -18.4921
  48   2.0000      -0.670412       -18.2428
  49   2.0000      -0.664435       -18.0802
  50   2.0000      -0.645100       -17.5541
  51   2.0000      -0.641868       -17.4661
  52   2.0000      -0.633580       -17.2406
  53   2.0000      -0.603981       -16.4352
  54   2.0000      -0.599598       -16.3159
  55   2.0000      -0.597502       -16.2588
  56   2.0000      -0.594769       -16.1845
  57   2.0000      -0.587188       -15.9782
  58   2.0000      -0.572612       -15.5816
  59   2.0000      -0.568959       -15.4821
  60   2.0000      -0.559481       -15.2243
  61   2.0000      -0.544457       -14.8154
  62   2.0000      -0.536049       -14.5866
  63   2.0000      -0.520633       -14.1672
  64   2.0000      -0.517251       -14.0751
  65   2.0000      -0.510499       -13.8914
  66   2.0000      -0.500774       -13.6268
  67   2.0000      -0.495073       -13.4716
  68   2.0000      -0.479366       -13.0442
  69   2.0000      -0.461098       -12.5471
  70   2.0000      -0.457740       -12.4558
  71   2.0000      -0.447426       -12.1751
  72   2.0000      -0.352969        -9.6048
  73   2.0000      -0.343889        -9.3577
  74   2.0000      -0.326494        -8.8843
  75   2.0000      -0.315197        -8.5770
  76   2.0000      -0.313669        -8.5354
  77   0.0000       0.076797         2.0897
  78   0.0000       0.112380         3.0580
  79   0.0000       0.121674         3.3109
  80   0.0000       0.136015         3.7012
  81   0.0000       0.140387         3.8201

MULLIKEN ATOMIC CHARGES
-----------------------
   0 C :   -0.295374
   1 C :    0.050802
   2 O :   -0.358513
   3 C :    0.436170
   4 O :   -0.424854
   5 C :   -0.143967
   6 C :    0.135736
   7 C :   -0.285639
   8 N :   -0.121936
   9 C :    0.201732
  10 S :   -0.440945
  11 N :   -0.197629
  12 C :    0.036034
  13 C :    0.055260
  14 C :   -0.163623
  15 C :   -0.134233
  16 C :   -0.279459
  17 C :    0.311227
  18 O :   -0.358857
  19 C :   -0.270645
  20 H :    0.094741
  21 H :    0.094195
  22 H :    0.125245
  23 H :    0.098873
  24 H :    0.092000
  25 H :    0.127208
  26 H :    0.123836
  27 H :    0.102005
  28 H :    0.196621
  29 H :    0.193408
  30 H :    0.154390
  31 H :    0.153935
  32 H :    0.159128
  33 H :    0.128132
  34 H :    0.239971
  35 H :    0.165025
Sum of atomic charges:   -0.0000000

LOEWDIN ATOMIC CHARGES
----------------------
   0 C :    0.103158
   1 C :   -0.010756
   2 O :    0.293947
   3 C :   -0.411595
   4 O :    0.116632
   5 C :   -0.090196
   6 C :   -0.068686
   7 C :    0.124709
   8 N :    0.404290
   9 C :   -0.458739
  10 S :   -0.037297
  11 N :    0.397613
  12 C :   -0.046043
  13 C :   -0.038778
  14 C :    0.021174
  15 C :    0.040440
  16 C :   -0.002565
  17 C :   -0.192637
  18 O :    0.393088
  19 C :    0.028921
  20 H :   -0.026983
  21 H :   -0.029748
  22 H :   -0.025910
  23 H :   -0.024790
  24 H :   -0.028164
  25 H :   -0.009801
  26 H :   -0.009070
  27 H :   -0.020838
  28 H :   -0.059254
  29 H :   -0.063874
  30 H :   -0.005274
  31 H :   -0.025460
  32 H :   -0.021336
  33 H :   -0.036441
  34 H :   -0.154949
  35 H :   -0.024791

  Mayer bond orders larger than 0.100000
B(  0-C ,  1-C ) :   0.9690 B(  0-C , 20-H ) :   0.9758 B(  0-C , 21-H ) :   0.9766
B(  0-C , 22-H ) :   0.9716 B(  1-C ,  2-O ) :   0.9068 B(  1-C , 23-H ) :   0.9838
B(  1-C , 24-H ) :   0.9793 B(  2-O ,  3-C ) :   1.1252 B(  3-C ,  4-O ) :   1.9758
B(  3-C ,  5-C ) :   1.0530 B(  5-C ,  6-C ) :   1.6535 B(  5-C , 12-C ) :   0.9641
B(  6-C ,  7-C ) :   0.9555 B(  6-C ,  8-N ) :   1.1421 B(  7-C , 25-H ) :   0.9630
B(  7-C , 26-H ) :   0.9676 B(  7-C , 27-H ) :   0.9909 B(  8-N ,  9-C ) :   1.1812
B(  8-N , 28-H ) :   0.9494 B(  9-C , 10-S ) :   1.6094 B(  9-C , 11-N ) :   1.3028
B( 11-N , 12-C ) :   0.9931 B( 11-N , 29-H ) :   0.9520 B( 12-C , 13-C ) :   0.9468
B( 12-C , 30-H ) :   0.9992 B( 13-C , 14-C ) :   1.3759 B( 13-C , 19-C ) :   1.3699
B( 14-C , 15-C ) :   1.3946 B( 14-C , 31-H ) :   0.9649 B( 15-C , 16-C ) :   1.3629
B( 15-C , 32-H ) :   0.9714 B( 16-C , 17-C ) :   1.3312 B( 16-C , 33-H ) :   0.9860
B( 17-C , 18-O ) :   1.1082 B( 17-C , 19-C ) :   1.3787 B( 18-O , 34-H ) :   0.9806
B( 19-C , 35-H ) :   0.9583

MP2 TOTAL ENERGY:    -1274.336261612 Eh
FINAL SINGLE POINT ENERGY     -1274.336261612375

DIPOLE MOMENT
-------------
                                X             Y             Z
Electronic contribution:      9.85828      10.37012      10.80178
Nuclear contribution   :    -11.50720     -11.57324     -11.72766
                        -----------------------------------------
Total Dipole Moment    :     -1.64892      -1.20312      -0.92588
                        -----------------------------------------
Magnitude (a.u.)       :      2.24136
Magnitude (Debye)      :      5.69708

Rotational constants in cm-1:     0.010771     0.008938     0.005916
Rotational constants in MHz :   322.898921   267.964921   177.358771

                             ****ORCA TERMINATED NORMALLY****
TOTAL RUN TIME: 0 days 1 hours 33 minutes 48 seconds 361 msec
