                         Program Version 4.2.0 -  RELEASE  -
|  1> ! ri-mp2 cc-pvtz cc-pvtz/c TightSCF  NoKeepInts
|  2>
|  3> %scf
|  4>   MaxCore 4096
|  5> end
|  6> *xyz  0  1
|  7>     C       15.2719086   14.8251811   17.3116387
|  8>     C       16.2890143   14.2231296   16.3228121
|  9>     O       17.6082714   14.8029992   16.4476641
| 10>     C       17.7896917   16.1064749   16.0847950
| 11>     O       17.4487931   16.4601298   14.9698024
| 12>     C       17.8062100   17.0442287   17.2609488
| 13>     C       17.3493679   18.3210450   17.1914568
| 14>     C       16.6108131   18.9749376   16.0434512
| 15>     N       17.6063664   19.2095656   18.2405579
| 16>     C       18.5159732   18.9800729   19.2397826
| 17>     S       18.9385312   20.1518578   20.3275800
| 18>     N       19.0619351   17.7213918   19.2873454
| 19>     C       18.5617130   16.5686117   18.5138887
| 20>     C       17.7470078   15.6604857   19.4307487
| 21>     C       18.0919100   14.3025749   19.5712505
| 22>     C       17.3724507   13.4667522   20.4419778
| 23>     C       16.3024816   13.9931517   21.1855065
| 24>     C       15.9593114   15.3456946   21.0545062
| 25>     O       14.9245636   15.8561494   21.7680204
| 26>     C       16.6749660   16.1745440   20.1846675
| 27>     H       15.4907763   14.5048527   18.3339461
| 28>     H       14.2625630   14.4708735   17.0703996
| 29>     H       15.2574603   15.9202724   17.2714719
| 30>     H       16.3532375   13.1416836   16.4984712
| 31>     H       15.9237833   14.3663211   15.2965448
| 32>     H       17.2817748   19.1171290   15.1865008
| 33>     H       16.1911571   19.9526411   16.3074896
| 34>     H       15.7800945   18.3422809   15.7063983
| 35>     H       17.2255001   20.1418036   18.2074514
| 36>     H       19.7092992   17.5703942   20.0504193
| 37>     H       19.4379521   16.0001757   18.1716650
| 38>     H       18.9189478   13.8913654   18.9982497
| 39>     H       17.6466370   12.4177254   20.5401131
| 40>     H       15.7449266   13.3518071   21.8602252
| 41>     H       14.5960963   15.1542705   22.3497895
| 42>     H       16.3955138   17.2194256   20.1064630
| 43> *
| 44>
| 45>                          ****END OF INPUT****

CARTESIAN COORDINATES (ANGSTROEM)
---------------------------------
  C     15.271909   14.825181   17.311639
  C     16.289014   14.223130   16.322812
  O     17.608271   14.802999   16.447664
  C     17.789692   16.106475   16.084795
  O     17.448793   16.460130   14.969802
  C     17.806210   17.044229   17.260949
  C     17.349368   18.321045   17.191457
  C     16.610813   18.974938   16.043451
  N     17.606366   19.209566   18.240558
  C     18.515973   18.980073   19.239783
  S     18.938531   20.151858   20.327580
  N     19.061935   17.721392   19.287345
  C     18.561713   16.568612   18.513889
  C     17.747008   15.660486   19.430749
  C     18.091910   14.302575   19.571250
  C     17.372451   13.466752   20.441978
  C     16.302482   13.993152   21.185506
  C     15.959311   15.345695   21.054506
  O     14.924564   15.856149   21.768020
  C     16.674966   16.174544   20.184667
  H     15.490776   14.504853   18.333946
  H     14.262563   14.470873   17.070400
  H     15.257460   15.920272   17.271472
  H     16.353237   13.141684   16.498471
  H     15.923783   14.366321   15.296545
  H     17.281775   19.117129   15.186501
  H     16.191157   19.952641   16.307490
  H     15.780095   18.342281   15.706398
  H     17.225500   20.141804   18.207451
  H     19.709299   17.570394   20.050419
  H     19.437952   16.000176   18.171665
  H     18.918948   13.891365   18.998250
  H     17.646637   12.417725   20.540113
  H     15.744927   13.351807   21.860225
  H     14.596096   15.154271   22.349789
  H     16.395514   17.219426   20.106463

 Total Charge           Charge          ....    0
 Multiplicity           Mult            ....    1
 Number of Electrons    NEL             ....  154
 Basis Dimension        Dim             ....  828

ORBITAL ENERGIES
----------------

  NO   OCC          E(Eh)            E(eV)
   0   2.0000     -91.890936     -2500.4795
   1   2.0000     -20.598194      -560.5053
   2   2.0000     -20.581816      -560.0597
   3   2.0000     -20.553082      -559.2778
   4   2.0000     -15.630587      -425.3299
   5   2.0000     -15.609381      -424.7528
   6   2.0000     -11.394688      -310.0652
   7   2.0000     -11.385322      -309.8104
   8   2.0000     -11.336017      -308.4687
   9   2.0000     -11.315466      -307.9095
  10   2.0000     -11.312613      -307.8318
  11   2.0000     -11.298409      -307.4453
  12   2.0000     -11.261240      -306.4339
  13   2.0000     -11.260925      -306.4253
  14   2.0000     -11.257117      -306.3217
  15   2.0000     -11.254400      -306.2478
  16   2.0000     -11.245521      -306.0062
  17   2.0000     -11.239857      -305.8521
  18   2.0000     -11.239567      -305.8442
  19   2.0000     -11.222610      -305.3828
  20   2.0000      -8.895946      -242.0710
  21   2.0000      -6.577511      -178.9832
  22   2.0000      -6.575518      -178.9289
  23   2.0000      -6.574920      -178.9127
  24   2.0000      -1.449596       -39.4455
  25   2.0000      -1.417975       -38.5851
  26   2.0000      -1.351744       -36.7828
  27   2.0000      -1.341808       -36.5125
  28   2.0000      -1.239960       -33.7410
  29   2.0000      -1.158765       -31.5316
  30   2.0000      -1.120987       -30.5036
  31   2.0000      -1.044078       -28.4108
  32   2.0000      -1.031903       -28.0795
  33   2.0000      -1.016988       -27.6737
  34   2.0000      -0.999477       -27.1971
  35   2.0000      -0.986448       -26.8426
  36   2.0000      -0.924644       -25.1609
  37   2.0000      -0.893136       -24.3035
  38   2.0000      -0.847991       -23.0750
  39   2.0000      -0.841465       -22.8974
  40   2.0000      -0.835858       -22.7449
  41   2.0000      -0.817165       -22.2362
  42   2.0000      -0.752303       -20.4712
  43   2.0000      -0.733808       -19.9679
  44   2.0000      -0.723780       -19.6950
  45   2.0000      -0.697662       -18.9844
  46   2.0000      -0.690909       -18.8006
  47   2.0000      -0.677757       -18.4427
  48   2.0000      -0.668109       -18.1802
  49   2.0000      -0.667563       -18.1653
  50   2.0000      -0.650115       -17.6905
  51   2.0000      -0.646152       -17.5827
  52   2.0000      -0.637334       -17.3428
  53   2.0000      -0.609872       -16.5955
  54   2.0000      -0.607722       -16.5369
  55   2.0000      -0.600546       -16.3417
  56   2.0000      -0.599522       -16.3138
  57   2.0000      -0.579239       -15.7619
  58   2.0000      -0.572806       -15.5868
  59   2.0000      -0.564595       -15.3634
  60   2.0000      -0.557954       -15.1827
  61   2.0000      -0.549065       -14.9408
  62   2.0000      -0.540552       -14.7092
  63   2.0000      -0.526549       -14.3281
  64   2.0000      -0.522381       -14.2147
  65   2.0000      -0.515165       -14.0184
  66   2.0000      -0.503233       -13.6937
  67   2.0000      -0.502637       -13.6774
  68   2.0000      -0.474351       -12.9077
  69   2.0000      -0.464938       -12.6516
  70   2.0000      -0.452534       -12.3141
  71   2.0000      -0.445504       -12.1228
  72   2.0000      -0.357643        -9.7319
  73   2.0000      -0.349827        -9.5193
  74   2.0000      -0.329987        -8.9794
  75   2.0000      -0.324201        -8.8220
  76   2.0000      -0.317587        -8.6420
  77   0.0000       0.066660         1.8139
  78   0.0000       0.105108         2.8601
  79   0.0000       0.119187         3.2432
  80   0.0000       0.129597         3.5265
  81   0.0000       0.132255         3.5988

MULLIKEN ATOMIC CHARGES
-----------------------
   0 C :   -0.322211
   1 C :    0.039776
   2 O :   -0.385847
   3 C :    0.476221
   4 O :   -0.400309
   5 C :   -0.234079
   6 C :    0.161772
   7 C :   -0.274868
   8 N :   -0.122768
   9 C :    0.191767
  10 S :   -0.432145
  11 N :   -0.190499
  12 C :    0.025127
  13 C :    0.056679
  14 C :   -0.187457
  15 C :   -0.132337
  16 C :   -0.275893
  17 C :    0.299352
  18 O :   -0.358350
  19 C :   -0.243373
  20 H :    0.113946
  21 H :    0.118587
  22 H :    0.097550
  23 H :    0.111962
  24 H :    0.115584
  25 H :    0.139370
  26 H :    0.094549
  27 H :    0.124189
  28 H :    0.198234
  29 H :    0.190219
  30 H :    0.148643
  31 H :    0.154332
  32 H :    0.161753
  33 H :    0.132007
  34 H :    0.240822
  35 H :    0.167694
Sum of atomic charges:   -0.0000000

LOEWDIN ATOMIC CHARGES
----------------------
   0 C :    0.106895
   1 C :   -0.013813
   2 O :    0.278615
   3 C :   -0.418021
   4 O :    0.127378
   5 C :   -0.096209
   6 C :   -0.063614
   7 C :    0.129356
   8 N :    0.406720
   9 C :   -0.459297
  10 S :   -0.031356
  11 N :    0.396626
  12 C :   -0.052367
  13 C :   -0.039045
  14 C :    0.016009
  15 C :    0.038599
  16 C :   -0.002883
  17 C :   -0.192598
  18 O :    0.396575
  19 C :    0.033747
  20 H :   -0.027017
  21 H :   -0.024579
  22 H :   -0.032296
  23 H :   -0.021943
  24 H :   -0.029195
  25 H :   -0.003335
  26 H :   -0.022779
  27 H :   -0.008495
  28 H :   -0.057974
  29 H :   -0.065146
  30 H :   -0.006280
  31 H :   -0.028572
  32 H :   -0.020563
  33 H :   -0.035082
  34 H :   -0.153571
  35 H :   -0.024488

  Mayer bond orders larger than 0.100000
B(  0-C ,  1-C ) :   0.9583 B(  0-C , 20-H ) :   0.9729 B(  0-C , 21-H ) :   0.9782
B(  0-C , 22-H ) :   0.9714 B(  1-C ,  2-O ) :   0.8812 B(  1-C , 23-H ) :   0.9838
B(  1-C , 24-H ) :   0.9832 B(  2-O ,  3-C ) :   1.1036 B(  3-C ,  4-O ) :   2.0157
B(  3-C ,  5-C ) :   1.0444 B(  5-C ,  6-C ) :   1.6618 B(  5-C , 12-C ) :   0.9689
B(  6-C ,  7-C ) :   0.9689 B(  6-C ,  8-N ) :   1.1349 B(  7-C , 25-H ) :   0.9572
B(  7-C , 26-H ) :   0.9872 B(  7-C , 27-H ) :   0.9667 B(  8-N ,  9-C ) :   1.1788
B(  8-N , 28-H ) :   0.9489 B(  9-C , 10-S ) :   1.6218 B(  9-C , 11-N ) :   1.2956
B( 11-N , 12-C ) :   0.9904 B( 11-N , 29-H ) :   0.9539 B( 12-C , 13-C ) :   0.9383
B( 12-C , 30-H ) :   1.0074 B( 13-C , 14-C ) :   1.3672 B( 13-C , 19-C ) :   1.3658
B( 14-C , 15-C ) :   1.3886 B( 14-C , 31-H ) :   0.9676 B( 15-C , 16-C ) :   1.3604
B( 15-C , 32-H ) :   0.9712 B( 16-C , 17-C ) :   1.3311 B( 16-C , 33-H ) :   0.9848
B( 17-C , 18-O ) :   1.1137 B( 17-C , 19-C ) :   1.3798 B( 18-O , 34-H ) :   0.9797
B( 19-C , 35-H ) :   0.9570

MP2 TOTAL ENERGY:    -1274.321969844 Eh
FINAL SINGLE POINT ENERGY     -1274.321969844488

DIPOLE MOMENT
-------------
                                X             Y             Z
Electronic contribution:      9.81883       8.51661       5.62147
Nuclear contribution   :    -10.91166     -10.15951      -5.67565
                        -----------------------------------------
Total Dipole Moment    :     -1.09282      -1.64291      -0.05418
                        -----------------------------------------
Magnitude (a.u.)       :      1.97391
Magnitude (Debye)      :      5.01729

Rotational constants in cm-1:     0.011696     0.010013     0.006597
Rotational constants in MHz :   350.636284   300.196392   197.758413

                             ****ORCA TERMINATED NORMALLY****
TOTAL RUN TIME: 0 days 1 hours 49 minutes 25 seconds 984 msec
