                         Program Version 4.2.0 -  RELEASE  -
|  1> ! ri-mp2 cc-pvtz cc-pvtz/c TightSCF  NoKeepInts
|  2>
|  3> %scf
|  4>   MaxCore 4096
|  5> end
|  6> *xyz  0  1
|  7>     C       15.4225566   13.6996052   15.4716481
|  8>     C       15.4555223   15.1749711   15.0154326
|  9>     O       16.1957607   16.0847597   15.8724449
| 10>     C       17.1381121   15.7662305   16.8156249
| 11>     O       17.6448185   14.6630547   16.9262046
| 12>     C       17.6158644   16.9326560   17.6399325
| 13>     C       17.2446327   18.2315631   17.4742886
| 14>     C       16.2789769   18.8172775   16.4635441
| 15>     N       17.8209481   19.2254835   18.2734496
| 16>     C       18.8641892   19.0318615   19.1392364
| 17>     S       19.5765418   20.2901648   19.9423733
| 18>     N       19.2850672   17.7378368   19.3054181
| 19>     C       18.5985827   16.5541650   18.7562340
| 20>     C       17.8958691   15.7804231   19.8693106
| 21>     C       18.1556056   14.4102641   20.0575088
| 22>     C       17.5106594   13.6917832   21.0781516
| 23>     C       16.5969189   14.3482201   21.9199860
| 24>     C       16.3324095   15.7118539   21.7340851
| 25>     O       15.4459987   16.3472898   22.5415148
| 26>     C       16.9754803   16.4241549   20.7169245
| 27>     H       16.3937982   13.2129841   15.3181840
| 28>     H       14.6814899   13.1399959   14.8884872
| 29>     H       15.1485451   13.6195610   16.5312266
| 30>     H       15.8915375   15.2076250   14.0085711
| 31>     H       14.4247259   15.5421213   14.9302544
| 32>     H       15.2764365   18.3911181   16.5934883
| 33>     H       16.6109361   18.6029572   15.4400766
| 34>     H       16.1810960   19.9061605   16.5502923
| 35>     H       17.5259956   20.1826766   18.1662385
| 36>     H       20.0346298   17.6151651   19.9739262
| 37>     H       19.3684190   15.9023569   18.3182887
| 38>     H       18.8487996   13.8961460   19.3960437
| 39>     H       17.7159254   12.6307992   21.2082613
| 40>     H       16.0951063   13.7967290   22.7079526
| 41>     H       15.1365837   15.7024956   23.1951329
| 42>     H       16.7584608   17.4794903   20.5942626
| 43> *
| 44>
| 45>                          ****END OF INPUT****

CARTESIAN COORDINATES (ANGSTROEM)
---------------------------------
  C     15.422557   13.699605   15.471648
  C     15.455522   15.174971   15.015433
  O     16.195761   16.084760   15.872445
  C     17.138112   15.766231   16.815625
  O     17.644818   14.663055   16.926205
  C     17.615864   16.932656   17.639933
  C     17.244633   18.231563   17.474289
  C     16.278977   18.817277   16.463544
  N     17.820948   19.225483   18.273450
  C     18.864189   19.031862   19.139236
  S     19.576542   20.290165   19.942373
  N     19.285067   17.737837   19.305418
  C     18.598583   16.554165   18.756234
  C     17.895869   15.780423   19.869311
  C     18.155606   14.410264   20.057509
  C     17.510659   13.691783   21.078152
  C     16.596919   14.348220   21.919986
  C     16.332410   15.711854   21.734085
  O     15.445999   16.347290   22.541515
  C     16.975480   16.424155   20.716924
  H     16.393798   13.212984   15.318184
  H     14.681490   13.139996   14.888487
  H     15.148545   13.619561   16.531227
  H     15.891538   15.207625   14.008571
  H     14.424726   15.542121   14.930254
  H     15.276437   18.391118   16.593488
  H     16.610936   18.602957   15.440077
  H     16.181096   19.906160   16.550292
  H     17.525996   20.182677   18.166238
  H     20.034630   17.615165   19.973926
  H     19.368419   15.902357   18.318289
  H     18.848800   13.896146   19.396044
  H     17.715925   12.630799   21.208261
  H     16.095106   13.796729   22.707953
  H     15.136584   15.702496   23.195133
  H     16.758461   17.479490   20.594263

 Total Charge           Charge          ....    0
 Multiplicity           Mult            ....    1
 Number of Electrons    NEL             ....  154
 Basis Dimension        Dim             ....  828

ORBITAL ENERGIES
----------------

  NO   OCC          E(Eh)            E(eV)
   0   2.0000     -91.887286     -2500.3802
   1   2.0000     -20.601557      -560.5969
   2   2.0000     -20.590581      -560.2982
   3   2.0000     -20.542522      -558.9904
   4   2.0000     -15.627577      -425.2480
   5   2.0000     -15.605682      -424.6522
   6   2.0000     -11.398806      -310.1773
   7   2.0000     -11.381799      -309.7145
   8   2.0000     -11.336129      -308.4718
   9   2.0000     -11.307356      -307.6888
  10   2.0000     -11.306275      -307.6594
  11   2.0000     -11.303760      -307.5909
  12   2.0000     -11.260077      -306.4023
  13   2.0000     -11.257907      -306.3432
  14   2.0000     -11.252120      -306.1858
  15   2.0000     -11.246394      -306.0299
  16   2.0000     -11.236066      -305.7489
  17   2.0000     -11.232183      -305.6432
  18   2.0000     -11.228989      -305.5563
  19   2.0000     -11.225455      -305.4602
  20   2.0000      -8.892352      -241.9732
  21   2.0000      -6.573931      -178.8858
  22   2.0000      -6.571925      -178.8312
  23   2.0000      -6.571340      -178.8152
  24   2.0000      -1.445823       -39.3428
  25   2.0000      -1.410317       -38.3767
  26   2.0000      -1.356240       -36.9052
  27   2.0000      -1.338623       -36.4258
  28   2.0000      -1.236073       -33.6353
  29   2.0000      -1.150686       -31.3118
  30   2.0000      -1.117544       -30.4099
  31   2.0000      -1.041418       -28.3384
  32   2.0000      -1.034410       -28.1477
  33   2.0000      -1.008224       -27.4352
  34   2.0000      -0.996216       -27.1084
  35   2.0000      -0.981486       -26.7076
  36   2.0000      -0.920513       -25.0484
  37   2.0000      -0.897597       -24.4249
  38   2.0000      -0.847390       -23.0586
  39   2.0000      -0.834895       -22.7186
  40   2.0000      -0.826618       -22.4934
  41   2.0000      -0.816565       -22.2199
  42   2.0000      -0.742908       -20.2155
  43   2.0000      -0.727356       -19.7924
  44   2.0000      -0.723379       -19.6841
  45   2.0000      -0.688903       -18.7460
  46   2.0000      -0.683651       -18.6031
  47   2.0000      -0.677803       -18.4440
  48   2.0000      -0.672826       -18.3085
  49   2.0000      -0.662579       -18.0297
  50   2.0000      -0.646990       -17.6055
  51   2.0000      -0.643015       -17.4973
  52   2.0000      -0.633063       -17.2265
  53   2.0000      -0.606720       -16.5097
  54   2.0000      -0.599703       -16.3188
  55   2.0000      -0.598134       -16.2760
  56   2.0000      -0.594134       -16.1672
  57   2.0000      -0.581030       -15.8106
  58   2.0000      -0.572319       -15.5736
  59   2.0000      -0.568156       -15.4603
  60   2.0000      -0.558037       -15.1850
  61   2.0000      -0.540512       -14.7081
  62   2.0000      -0.538215       -14.6456
  63   2.0000      -0.525336       -14.2951
  64   2.0000      -0.516079       -14.0432
  65   2.0000      -0.510646       -13.8954
  66   2.0000      -0.499428       -13.5901
  67   2.0000      -0.494240       -13.4490
  68   2.0000      -0.478730       -13.0269
  69   2.0000      -0.462933       -12.5971
  70   2.0000      -0.452393       -12.3102
  71   2.0000      -0.447268       -12.1708
  72   2.0000      -0.353250        -9.6124
  73   2.0000      -0.342853        -9.3295
  74   2.0000      -0.326416        -8.8822
  75   2.0000      -0.314767        -8.5653
  76   2.0000      -0.312348        -8.4994
  77   0.0000       0.076450         2.0803
  78   0.0000       0.114843         3.1250
  79   0.0000       0.121845         3.3156
  80   0.0000       0.136748         3.7211
  81   0.0000       0.139633         3.7996

MULLIKEN ATOMIC CHARGES
-----------------------
   0 C :   -0.293680
   1 C :    0.049647
   2 O :   -0.355414
   3 C :    0.456287
   4 O :   -0.433851
   5 C :   -0.170074
   6 C :    0.141287
   7 C :   -0.283406
   8 N :   -0.120040
   9 C :    0.200690
  10 S :   -0.440077
  11 N :   -0.196445
  12 C :    0.031724
  13 C :    0.060491
  14 C :   -0.161786
  15 C :   -0.134302
  16 C :   -0.279074
  17 C :    0.311586
  18 O :   -0.359340
  19 C :   -0.274215
  20 H :    0.121405
  21 H :    0.096347
  22 H :    0.104865
  23 H :    0.089064
  24 H :    0.094324
  25 H :    0.125807
  26 H :    0.127686
  27 H :    0.102189
  28 H :    0.196323
  29 H :    0.193352
  30 H :    0.154401
  31 H :    0.153487
  32 H :    0.158686
  33 H :    0.127645
  34 H :    0.239914
  35 H :    0.164496
Sum of atomic charges:   -0.0000000

LOEWDIN ATOMIC CHARGES
----------------------
   0 C :    0.103359
   1 C :   -0.008076
   2 O :    0.294478
   3 C :   -0.413961
   4 O :    0.110949
   5 C :   -0.090393
   6 C :   -0.063540
   7 C :    0.124168
   8 N :    0.404797
   9 C :   -0.459726
  10 S :   -0.036684
  11 N :    0.398269
  12 C :   -0.047042
  13 C :   -0.038564
  14 C :    0.022109
  15 C :    0.040388
  16 C :   -0.002654
  17 C :   -0.192758
  18 O :    0.392828
  19 C :    0.028137
  20 H :   -0.024385
  21 H :   -0.027865
  22 H :   -0.024763
  23 H :   -0.029226
  24 H :   -0.026975
  25 H :   -0.009905
  26 H :   -0.008473
  27 H :   -0.021747
  28 H :   -0.059592
  29 H :   -0.063578
  30 H :   -0.005816
  31 H :   -0.025356
  32 H :   -0.021444
  33 H :   -0.036592
  34 H :   -0.155050
  35 H :   -0.025317

  Mayer bond orders larger than 0.100000
B(  0-C ,  1-C ) :   0.9764 B(  0-C , 20-H ) :   0.9720 B(  0-C , 21-H ) :   0.9741
B(  0-C , 22-H ) :   0.9750 B(  1-C ,  2-O ) :   0.8989 B(  1-C , 23-H ) :   0.9786
B(  1-C , 24-H ) :   0.9807 B(  2-O ,  3-C ) :   1.1579 B(  3-C ,  4-O ) :   1.9648
B(  3-C ,  5-C ) :   1.0650 B(  5-C ,  6-C ) :   1.6438 B(  5-C , 12-C ) :   0.9679
B(  6-C ,  7-C ) :   0.9562 B(  6-C ,  8-N ) :   1.1512 B(  7-C , 25-H ) :   0.9654
B(  7-C , 26-H ) :   0.9639 B(  7-C , 27-H ) :   0.9922 B(  8-N ,  9-C ) :   1.1771
B(  8-N , 28-H ) :   0.9486 B(  9-C , 10-S ) :   1.6101 B(  9-C , 11-N ) :   1.3059
B( 11-N , 12-C ) :   0.9919 B( 11-N , 29-H ) :   0.9521 B( 12-C , 13-C ) :   0.9454
B( 12-C , 30-H ) :   1.0013 B( 13-C , 14-C ) :   1.3745 B( 13-C , 19-C ) :   1.3694
B( 14-C , 15-C ) :   1.3946 B( 14-C , 31-H ) :   0.9649 B( 15-C , 16-C ) :   1.3619
B( 15-C , 32-H ) :   0.9716 B( 16-C , 17-C ) :   1.3319 B( 16-C , 33-H ) :   0.9861
B( 17-C , 18-O ) :   1.1078 B( 17-C , 19-C ) :   1.3794 B( 18-O , 34-H ) :   0.9807
B( 19-C , 35-H ) :   0.9583

MP2 TOTAL ENERGY:    -1274.338207456 Eh
FINAL SINGLE POINT ENERGY     -1274.338207456388

DIPOLE MOMENT
-------------
                                X             Y             Z
Electronic contribution:     10.03058      10.23480      10.79267
Nuclear contribution   :    -11.68365     -11.40967     -11.90172
                        -----------------------------------------
Total Dipole Moment    :     -1.65308      -1.17487      -1.10906
                        -----------------------------------------
Magnitude (a.u.)       :      2.31149
Magnitude (Debye)      :      5.87534

Rotational constants in cm-1:     0.010575     0.008906     0.005789
Rotational constants in MHz :   317.041286   266.990064   173.546067

                             ****ORCA TERMINATED NORMALLY****
TOTAL RUN TIME: 0 days 1 hours 43 minutes 47 seconds 796 msec
