                         Program Version 4.2.0 -  RELEASE  -
|  1> ! ri-mp2 cc-pvtz cc-pvtz/c TightSCF  NoKeepInts
|  2>
|  3> %scf
|  4>   MaxCore 4096
|  5> end
|  6> *xyz  0  1
|  7>     C       15.5327176   13.4988951   16.9726934
|  8>     C       16.4406266   14.1314716   15.9033900
|  9>     O       17.2191503   15.1564706   16.5473162
| 10>     C       16.8626246   16.4717777   16.4261616
| 11>     O       16.0321086   16.8552854   15.6198259
| 12>     C       17.5571509   17.3553218   17.4256790
| 13>     C       17.3986888   18.7034075   17.4395604
| 14>     C       16.5447918   19.5362449   16.5074201
| 15>     N       18.0915263   19.4818248   18.3714519
| 16>     C       19.0233941   19.0049817   19.2539055
| 17>     S       19.8616039   20.0076481   20.2679100
| 18>     N       19.2307681   17.6494414   19.2522565
| 19>     C       18.4548310   16.6702499   18.4699362
| 20>     C       17.6604126   15.7746319   19.4163459
| 21>     C       18.0641831   14.4453695   19.6425898
| 22>     C       17.3371663   13.6153188   20.5125160
| 23>     C       16.1972904   14.1184261   21.1623515
| 24>     C       15.7959097   15.4434598   20.9438661
| 25>     O       14.6973697   15.9328902   21.5720550
| 26>     C       16.5229050   16.2680371   20.0798522
| 27>     H       16.1303589   13.0789292   17.7907652
| 28>     H       14.9292415   12.6929638   16.5382246
| 29>     H       14.8514689   14.2493168   17.3934619
| 30>     H       17.1136548   13.3593521   15.5093927
| 31>     H       15.8455331   14.5197144   15.0657086
| 32>     H       15.4885934   19.2509233   16.5954653
| 33>     H       16.8412386   19.3739646   15.4633348
| 34>     H       16.6148468   20.6119155   16.7069831
| 35>     H       17.9529920   20.4796128   18.3867081
| 36>     H       19.8947601   17.3238419   19.9427866
| 37>     H       19.1750856   16.0437193   17.9252579
| 38>     H       18.9416483   14.0521693   19.1364259
| 39>     H       17.6564808   12.5881031   20.6795064
| 40>     H       15.6318578   13.4812149   21.8342759
| 41>     H       14.3534689   15.2320641   22.1459643
| 42>     H       16.2005510   17.2930413   19.9326553
| 43> *
| 44>
| 45>                          ****END OF INPUT****

CARTESIAN COORDINATES (ANGSTROEM)
---------------------------------
  C     15.532718   13.498895   16.972693
  C     16.440627   14.131472   15.903390
  O     17.219150   15.156471   16.547316
  C     16.862625   16.471778   16.426162
  O     16.032109   16.855285   15.619826
  C     17.557151   17.355322   17.425679
  C     17.398689   18.703408   17.439560
  C     16.544792   19.536245   16.507420
  N     18.091526   19.481825   18.371452
  C     19.023394   19.004982   19.253905
  S     19.861604   20.007648   20.267910
  N     19.230768   17.649441   19.252257
  C     18.454831   16.670250   18.469936
  C     17.660413   15.774632   19.416346
  C     18.064183   14.445369   19.642590
  C     17.337166   13.615319   20.512516
  C     16.197290   14.118426   21.162351
  C     15.795910   15.443460   20.943866
  O     14.697370   15.932890   21.572055
  C     16.522905   16.268037   20.079852
  H     16.130359   13.078929   17.790765
  H     14.929241   12.692964   16.538225
  H     14.851469   14.249317   17.393462
  H     17.113655   13.359352   15.509393
  H     15.845533   14.519714   15.065709
  H     15.488593   19.250923   16.595465
  H     16.841239   19.373965   15.463335
  H     16.614847   20.611915   16.706983
  H     17.952992   20.479613   18.386708
  H     19.894760   17.323842   19.942787
  H     19.175086   16.043719   17.925258
  H     18.941648   14.052169   19.136426
  H     17.656481   12.588103   20.679506
  H     15.631858   13.481215   21.834276
  H     14.353469   15.232064   22.145964
  H     16.200551   17.293041   19.932655

 Total Charge           Charge          ....    0
 Multiplicity           Mult            ....    1
 Number of Electrons    NEL             ....  154
 Basis Dimension        Dim             ....  828

ORBITAL ENERGIES
----------------

  NO   OCC          E(Eh)            E(eV)
   0   2.0000     -91.888679     -2500.4181
   1   2.0000     -20.601041      -560.5828
   2   2.0000     -20.597304      -560.4811
   3   2.0000     -20.541113      -558.9521
   4   2.0000     -15.628912      -425.2843
   5   2.0000     -15.608203      -424.7208
   6   2.0000     -11.395181      -310.0786
   7   2.0000     -11.383870      -309.7709
   8   2.0000     -11.336073      -308.4702
   9   2.0000     -11.314535      -307.8841
  10   2.0000     -11.308968      -307.7327
  11   2.0000     -11.294046      -307.3266
  12   2.0000     -11.260236      -306.4066
  13   2.0000     -11.258954      -306.3717
  14   2.0000     -11.255712      -306.2835
  15   2.0000     -11.251971      -306.1817
  16   2.0000     -11.243571      -305.9531
  17   2.0000     -11.238742      -305.8217
  18   2.0000     -11.238358      -305.8113
  19   2.0000     -11.222757      -305.3867
  20   2.0000      -8.893743      -242.0111
  21   2.0000      -6.575319      -178.9235
  22   2.0000      -6.573313      -178.8689
  23   2.0000      -6.572727      -178.8530
  24   2.0000      -1.450477       -39.4695
  25   2.0000      -1.416953       -38.5573
  26   2.0000      -1.354408       -36.8553
  27   2.0000      -1.339957       -36.4621
  28   2.0000      -1.238541       -33.7024
  29   2.0000      -1.158098       -31.5134
  30   2.0000      -1.120474       -30.4896
  31   2.0000      -1.043065       -28.3832
  32   2.0000      -1.036321       -28.1997
  33   2.0000      -1.015724       -27.6392
  34   2.0000      -0.995450       -27.0876
  35   2.0000      -0.984141       -26.7798
  36   2.0000      -0.922667       -25.1070
  37   2.0000      -0.891214       -24.2512
  38   2.0000      -0.846951       -23.0467
  39   2.0000      -0.837960       -22.8021
  40   2.0000      -0.834308       -22.7027
  41   2.0000      -0.814904       -22.1747
  42   2.0000      -0.760561       -20.6959
  43   2.0000      -0.732690       -19.9375
  44   2.0000      -0.722774       -19.6677
  45   2.0000      -0.696384       -18.9496
  46   2.0000      -0.688467       -18.7341
  47   2.0000      -0.679280       -18.4841
  48   2.0000      -0.670262       -18.2388
  49   2.0000      -0.662986       -18.0408
  50   2.0000      -0.647726       -17.6255
  51   2.0000      -0.642128       -17.4732
  52   2.0000      -0.632875       -17.2214
  53   2.0000      -0.607795       -16.5390
  54   2.0000      -0.602968       -16.4076
  55   2.0000      -0.599410       -16.3108
  56   2.0000      -0.598744       -16.2927
  57   2.0000      -0.578192       -15.7334
  58   2.0000      -0.570621       -15.5274
  59   2.0000      -0.566635       -15.4189
  60   2.0000      -0.561490       -15.2789
  61   2.0000      -0.545683       -14.8488
  62   2.0000      -0.535264       -14.5653
  63   2.0000      -0.529314       -14.4034
  64   2.0000      -0.525672       -14.3043
  65   2.0000      -0.513098       -13.9621
  66   2.0000      -0.501501       -13.6465
  67   2.0000      -0.498156       -13.5555
  68   2.0000      -0.482443       -13.1279
  69   2.0000      -0.463520       -12.6130
  70   2.0000      -0.452493       -12.3130
  71   2.0000      -0.448451       -12.2030
  72   2.0000      -0.354175        -9.6376
  73   2.0000      -0.350111        -9.5270
  74   2.0000      -0.328187        -8.9304
  75   2.0000      -0.321816        -8.7570
  76   2.0000      -0.316227        -8.6050
  77   0.0000       0.077069         2.0972
  78   0.0000       0.105276         2.8647
  79   0.0000       0.124498         3.3878
  80   0.0000       0.132558         3.6071
  81   0.0000       0.137985         3.7548

MULLIKEN ATOMIC CHARGES
-----------------------
   0 C :   -0.286581
   1 C :    0.016432
   2 O :   -0.352234
   3 C :    0.467357
   4 O :   -0.434747
   5 C :   -0.239534
   6 C :    0.155782
   7 C :   -0.272406
   8 N :   -0.121435
   9 C :    0.214724
  10 S :   -0.441348
  11 N :   -0.207937
  12 C :    0.066598
  13 C :    0.077166
  14 C :   -0.197475
  15 C :   -0.136491
  16 C :   -0.275614
  17 C :    0.316803
  18 O :   -0.356793
  19 C :   -0.268183
  20 H :    0.096774
  21 H :    0.102002
  22 H :    0.103130
  23 H :    0.102095
  24 H :    0.122852
  25 H :    0.131750
  26 H :    0.131096
  27 H :    0.095017
  28 H :    0.196982
  29 H :    0.195503
  30 H :    0.148628
  31 H :    0.148328
  32 H :    0.164171
  33 H :    0.130823
  34 H :    0.240944
  35 H :    0.165819
Sum of atomic charges:    0.0000000

LOEWDIN ATOMIC CHARGES
----------------------
   0 C :    0.104538
   1 C :   -0.014546
   2 O :    0.308979
   3 C :   -0.414414
   4 O :    0.094967
   5 C :   -0.094680
   6 C :   -0.059207
   7 C :    0.131466
   8 N :    0.406740
   9 C :   -0.455471
  10 S :   -0.036135
  11 N :    0.396328
  12 C :   -0.052151
  13 C :   -0.037316
  14 C :    0.013359
  15 C :    0.040736
  16 C :   -0.001661
  17 C :   -0.188887
  18 O :    0.395618
  19 C :    0.031571
  20 H :   -0.028448
  21 H :   -0.027687
  22 H :   -0.025425
  23 H :   -0.028415
  24 H :   -0.028652
  25 H :   -0.004635
  26 H :   -0.003909
  27 H :   -0.023444
  28 H :   -0.057560
  29 H :   -0.064782
  30 H :   -0.011198
  31 H :   -0.030722
  32 H :   -0.021488
  33 H :   -0.035488
  34 H :   -0.153730
  35 H :   -0.024250

  Mayer bond orders larger than 0.100000
B(  0-C ,  1-C ) :   0.9667 B(  0-C , 20-H ) :   0.9727 B(  0-C , 21-H ) :   0.9775
B(  0-C , 22-H ) :   0.9766 B(  1-C ,  2-O ) :   0.8893 B(  1-C , 23-H ) :   0.9851
B(  1-C , 24-H ) :   0.9756 B(  2-O ,  3-C ) :   1.1744 B(  3-C ,  4-O ) :   1.9723
B(  3-C ,  5-C ) :   1.0533 B(  5-C ,  6-C ) :   1.6537 B(  5-C , 12-C ) :   0.9732
B(  6-C ,  7-C ) :   0.9668 B(  6-C ,  8-N ) :   1.1665 B(  7-C , 25-H ) :   0.9602
B(  7-C , 26-H ) :   0.9604 B(  7-C , 27-H ) :   0.9903 B(  8-N ,  9-C ) :   1.1837
B(  8-N , 28-H ) :   0.9478 B(  9-C , 10-S ) :   1.6038 B(  9-C , 11-N ) :   1.3077
B( 11-N , 12-C ) :   0.9804 B( 11-N , 29-H ) :   0.9514 B( 12-C , 13-C ) :   0.9377
B( 12-C , 30-H ) :   1.0020 B( 13-C , 14-C ) :   1.3497 B( 13-C , 19-C ) :   1.3800
B( 14-C , 15-C ) :   1.3879 B( 14-C , 31-H ) :   0.9734 B( 15-C , 16-C ) :   1.3594
B( 15-C , 32-H ) :   0.9706 B( 16-C , 17-C ) :   1.3314 B( 16-C , 33-H ) :   0.9849
B( 17-C , 18-O ) :   1.1104 B( 17-C , 19-C ) :   1.3699 B( 18-O , 34-H ) :   0.9796
B( 19-C , 35-H ) :   0.9585

MP2 TOTAL ENERGY:    -1274.351464263 Eh
FINAL SINGLE POINT ENERGY     -1274.351464262971

DIPOLE MOMENT
-------------
                                X             Y             Z
Electronic contribution:      8.60095      11.33109       6.68496
Nuclear contribution   :     -9.45198     -13.08941      -7.09386
                        -----------------------------------------
Total Dipole Moment    :     -0.85103      -1.75831      -0.40890
                        -----------------------------------------
Magnitude (a.u.)       :      1.99577
Magnitude (Debye)      :      5.07285

Rotational constants in cm-1:     0.012433     0.008594     0.006288
Rotational constants in MHz :   372.734013   257.632698   188.518428

                             ****ORCA TERMINATED NORMALLY****
TOTAL RUN TIME: 0 days 1 hours 46 minutes 16 seconds 121 msec
