                         Program Version 4.2.0 -  RELEASE  -
|  1> ! ri-mp2 cc-pvtz cc-pvtz/c TightSCF  NoKeepInts
|  2>
|  3> %scf
|  4>   MaxCore 4096
|  5> end
|  6> *xyz  0  1
|  7>     C       14.5129209   14.5201668   16.2782212
|  8>     C       15.6139795   15.3841403   16.9134848
|  9>     O       16.8130131   15.1819449   16.1411773
| 10>     C       18.0327015   15.5617309   16.6336118
| 11>     O       18.9489610   14.7620560   16.6839759
| 12>     C       18.0471466   16.8254567   17.4348715
| 13>     C       17.5170796   17.9903483   16.9905874
| 14>     C       16.8808272   18.2549908   15.6416301
| 15>     N       17.6144711   19.1416575   17.7755428
| 16>     C       18.3260748   19.2315295   18.9436841
| 17>     S       18.4562617   20.6555490   19.7737231
| 18>     N       18.9223871   18.0785910   19.3923264
| 19>     C       18.7579251   16.7428253   18.7853110
| 20>     C       18.0051388   15.7996862   19.7188558
| 21>     C       18.4603620   14.4826871   19.9118357
| 22>     C       17.7570066   13.5962371   20.7441781
| 23>     C       16.5851252   14.0282464   21.3879751
| 24>     C       16.1242414   15.3370634   21.1935280
| 25>     O       14.9848118   15.7533433   21.8006980
| 26>     C       16.8256967   16.2172551   20.3634939
| 27>     H       14.8083354   13.4632396   16.2727075
| 28>     H       14.3246272   14.8314355   15.2432337
| 29>     H       13.5767251   14.6118316   16.8421940
| 30>     H       15.3041277   16.4348261   16.9262125
| 31>     H       15.7718250   15.0513836   17.9485365
| 32>     H       17.0841870   17.4530214   14.9214595
| 33>     H       17.2736667   19.1777737   15.1959923
| 34>     H       15.7929249   18.3618347   15.7280125
| 35>     H       17.1962428   20.0017786   17.4569067
| 36>     H       19.4236093   18.1701103   20.2670612
| 37>     H       19.7618333   16.3274776   18.6120097
| 38>     H       19.3558816   14.1389909   19.3981457
| 39>     H       18.1180887   12.5781548   20.8806748
| 40>     H       16.0374654   13.3450785   22.0288783
| 41>     H       14.6829932   15.0343854   22.3766536
| 42>     H       16.4483351   17.2251720   20.2266094
| 43> *
| 44>
| 45>                          ****END OF INPUT****

CARTESIAN COORDINATES (ANGSTROEM)
---------------------------------
  C     14.512921   14.520167   16.278221
  C     15.613979   15.384140   16.913485
  O     16.813013   15.181945   16.141177
  C     18.032702   15.561731   16.633612
  O     18.948961   14.762056   16.683976
  C     18.047147   16.825457   17.434871
  C     17.517080   17.990348   16.990587
  C     16.880827   18.254991   15.641630
  N     17.614471   19.141658   17.775543
  C     18.326075   19.231530   18.943684
  S     18.456262   20.655549   19.773723
  N     18.922387   18.078591   19.392326
  C     18.757925   16.742825   18.785311
  C     18.005139   15.799686   19.718856
  C     18.460362   14.482687   19.911836
  C     17.757007   13.596237   20.744178
  C     16.585125   14.028246   21.387975
  C     16.124241   15.337063   21.193528
  O     14.984812   15.753343   21.800698
  C     16.825697   16.217255   20.363494
  H     14.808335   13.463240   16.272707
  H     14.324627   14.831435   15.243234
  H     13.576725   14.611832   16.842194
  H     15.304128   16.434826   16.926212
  H     15.771825   15.051384   17.948536
  H     17.084187   17.453021   14.921459
  H     17.273667   19.177774   15.195992
  H     15.792925   18.361835   15.728013
  H     17.196243   20.001779   17.456907
  H     19.423609   18.170110   20.267061
  H     19.761833   16.327478   18.612010
  H     19.355882   14.138991   19.398146
  H     18.118089   12.578155   20.880675
  H     16.037465   13.345078   22.028878
  H     14.682993   15.034385   22.376654
  H     16.448335   17.225172   20.226609

 Total Charge           Charge          ....    0
 Multiplicity           Mult            ....    1
 Number of Electrons    NEL             ....  154
 Basis Dimension        Dim             ....  828

ORBITAL ENERGIES
----------------

  NO   OCC          E(Eh)            E(eV)
   0   2.0000     -91.890830     -2500.4766
   1   2.0000     -20.599559      -560.5425
   2   2.0000     -20.594567      -560.4067
   3   2.0000     -20.552950      -559.2742
   4   2.0000     -15.629104      -425.2895
   5   2.0000     -15.611340      -424.8062
   6   2.0000     -11.396097      -310.1036
   7   2.0000     -11.387197      -309.8614
   8   2.0000     -11.333679      -308.4051
   9   2.0000     -11.316296      -307.9321
  10   2.0000     -11.312936      -307.8406
  11   2.0000     -11.302866      -307.5666
  12   2.0000     -11.267233      -306.5970
  13   2.0000     -11.263956      -306.5078
  14   2.0000     -11.262399      -306.4655
  15   2.0000     -11.256351      -306.3009
  16   2.0000     -11.245891      -306.0162
  17   2.0000     -11.241694      -305.9021
  18   2.0000     -11.238716      -305.8210
  19   2.0000     -11.232715      -305.6577
  20   2.0000      -8.895927      -242.0705
  21   2.0000      -6.577509      -178.9831
  22   2.0000      -6.575490      -178.9282
  23   2.0000      -6.574909      -178.9124
  24   2.0000      -1.449245       -39.4360
  25   2.0000      -1.419392       -38.6236
  26   2.0000      -1.360199       -37.0129
  27   2.0000      -1.341556       -36.5056
  28   2.0000      -1.240503       -33.7558
  29   2.0000      -1.160902       -31.5898
  30   2.0000      -1.125184       -30.6178
  31   2.0000      -1.048395       -28.5283
  32   2.0000      -1.038804       -28.2673
  33   2.0000      -1.018336       -27.7103
  34   2.0000      -1.004751       -27.3407
  35   2.0000      -0.989252       -26.9189
  36   2.0000      -0.927523       -25.2392
  37   2.0000      -0.878464       -23.9042
  38   2.0000      -0.855610       -23.2823
  39   2.0000      -0.842993       -22.9390
  40   2.0000      -0.836973       -22.7752
  41   2.0000      -0.835866       -22.7451
  42   2.0000      -0.757167       -20.6036
  43   2.0000      -0.739287       -20.1170
  44   2.0000      -0.731854       -19.9148
  45   2.0000      -0.697204       -18.9719
  46   2.0000      -0.688289       -18.7293
  47   2.0000      -0.682602       -18.5745
  48   2.0000      -0.676743       -18.4151
  49   2.0000      -0.663208       -18.0468
  50   2.0000      -0.653286       -17.7768
  51   2.0000      -0.649746       -17.6805
  52   2.0000      -0.641310       -17.4509
  53   2.0000      -0.611414       -16.6374
  54   2.0000      -0.607741       -16.5375
  55   2.0000      -0.603555       -16.4236
  56   2.0000      -0.601218       -16.3600
  57   2.0000      -0.585676       -15.9370
  58   2.0000      -0.577635       -15.7182
  59   2.0000      -0.567050       -15.4302
  60   2.0000      -0.560246       -15.2451
  61   2.0000      -0.558309       -15.1924
  62   2.0000      -0.546432       -14.8692
  63   2.0000      -0.525625       -14.3030
  64   2.0000      -0.520760       -14.1706
  65   2.0000      -0.515843       -14.0368
  66   2.0000      -0.502486       -13.6733
  67   2.0000      -0.499775       -13.5996
  68   2.0000      -0.490999       -13.3608
  69   2.0000      -0.468839       -12.7578
  70   2.0000      -0.458681       -12.4813
  71   2.0000      -0.451373       -12.2825
  72   2.0000      -0.358228        -9.7479
  73   2.0000      -0.351458        -9.5637
  74   2.0000      -0.330326        -8.9886
  75   2.0000      -0.324211        -8.8222
  76   2.0000      -0.319142        -8.6843
  77   0.0000       0.077891         2.1195
  78   0.0000       0.104482         2.8431
  79   0.0000       0.114564         3.1174
  80   0.0000       0.129229         3.5165
  81   0.0000       0.132590         3.6080

MULLIKEN ATOMIC CHARGES
-----------------------
   0 C :   -0.259194
   1 C :    0.020450
   2 O :   -0.327163
   3 C :    0.416143
   4 O :   -0.378611
   5 C :   -0.193830
   6 C :    0.127885
   7 C :   -0.316654
   8 N :   -0.131962
   9 C :    0.199575
  10 S :   -0.438519
  11 N :   -0.208488
  12 C :    0.063682
  13 C :    0.020596
  14 C :   -0.182872
  15 C :   -0.134112
  16 C :   -0.276317
  17 C :    0.320073
  18 O :   -0.358812
  19 C :   -0.279902
  20 H :    0.107776
  21 H :    0.096479
  22 H :    0.090258
  23 H :    0.085530
  24 H :    0.115360
  25 H :    0.136359
  26 H :    0.131303
  27 H :    0.119668
  28 H :    0.196799
  29 H :    0.196758
  30 H :    0.162439
  31 H :    0.168054
  32 H :    0.163605
  33 H :    0.132686
  34 H :    0.241619
  35 H :    0.173340
Sum of atomic charges:   -0.0000000

LOEWDIN ATOMIC CHARGES
----------------------
   0 C :    0.112263
   1 C :   -0.024210
   2 O :    0.297404
   3 C :   -0.417149
   4 O :    0.128565
   5 C :   -0.086650
   6 C :   -0.091340
   7 C :    0.126174
   8 N :    0.402788
   9 C :   -0.457144
  10 S :   -0.035685
  11 N :    0.397127
  12 C :   -0.044986
  13 C :   -0.044931
  14 C :    0.021369
  15 C :    0.044359
  16 C :   -0.000833
  17 C :   -0.195288
  18 O :    0.394453
  19 C :    0.027207
  20 H :   -0.021812
  21 H :   -0.027635
  22 H :   -0.024700
  23 H :   -0.039202
  24 H :   -0.026892
  25 H :   -0.007474
  26 H :   -0.011914
  27 H :   -0.017705
  28 H :   -0.057116
  29 H :   -0.063615
  30 H :   -0.002792
  31 H :   -0.022050
  32 H :   -0.018648
  33 H :   -0.034630
  34 H :   -0.153004
  35 H :   -0.024302

  Mayer bond orders larger than 0.100000
B(  0-C ,  1-C ) :   0.9840 B(  0-C , 20-H ) :   0.9782 B(  0-C , 21-H ) :   0.9793
B(  0-C , 22-H ) :   0.9765 B(  1-C ,  2-O ) :   0.9008 B(  1-C , 23-H ) :   0.9685
B(  1-C , 24-H ) :   0.9700 B(  2-O ,  3-C ) :   1.1677 B(  3-C ,  4-O ) :   2.0956
B(  3-C ,  5-C ) :   0.9378 B(  5-C ,  6-C ) :   1.6738 B(  5-C , 12-C ) :   0.9616
B(  6-C ,  7-C ) :   0.9433 B(  6-C ,  8-N ) :   1.1256 B(  7-C , 25-H ) :   0.9753
B(  7-C , 26-H ) :   0.9748 B(  7-C , 27-H ) :   0.9649 B(  8-N ,  9-C ) :   1.1892
B(  8-N , 28-H ) :   0.9516 B(  9-C , 10-S ) :   1.6134 B(  9-C , 11-N ) :   1.2924
B( 11-N , 12-C ) :   0.9963 B( 11-N , 29-H ) :   0.9504 B( 12-C , 13-C ) :   0.9403
B( 12-C , 30-H ) :   0.9978 B( 13-C , 14-C ) :   1.3875 B( 13-C , 19-C ) :   1.3527
B( 14-C , 15-C ) :   1.3957 B( 14-C , 31-H ) :   0.9600 B( 15-C , 16-C ) :   1.3643
B( 15-C , 32-H ) :   0.9702 B( 16-C , 17-C ) :   1.3283 B( 16-C , 33-H ) :   0.9843
B( 17-C , 18-O ) :   1.1105 B( 17-C , 19-C ) :   1.3676 B( 18-O , 34-H ) :   0.9791
B( 19-C , 35-H ) :   0.9588

MP2 TOTAL ENERGY:    -1274.334496787 Eh
FINAL SINGLE POINT ENERGY     -1274.334496786795

DIPOLE MOMENT
-------------
                                X             Y             Z
Electronic contribution:     10.95912       8.45596       7.46536
Nuclear contribution   :    -12.42068      -9.48312      -7.77982
                        -----------------------------------------
Total Dipole Moment    :     -1.46156      -1.02716      -0.31446
                        -----------------------------------------
Magnitude (a.u.)       :      1.81386
Magnitude (Debye)      :      4.61047

Rotational constants in cm-1:     0.011461     0.009211     0.006724
Rotational constants in MHz :   343.587667   276.148271   201.579326

                             ****ORCA TERMINATED NORMALLY****
TOTAL RUN TIME: 0 days 1 hours 45 minutes 48 seconds 803 msec
