                         Program Version 4.2.0 -  RELEASE  -
|  1> ! ri-mp2 cc-pvtz cc-pvtz/c TightSCF  NoKeepInts
|  2>
|  3> %scf
|  4>   MaxCore 4096
|  5> end
|  6> *xyz  0  1
|  7>     C       14.1638842   15.3251795   16.1974956
|  8>     C       15.4460000   15.4320805   17.0392187
|  9>     O       16.5622835   15.3469023   16.1301321
| 10>     C       17.8282615   15.7044451   16.5118474
| 11>     O       18.7538373   14.9283259   16.3616285
| 12>     C       17.9359381   16.8837502   17.4260154
| 13>     C       17.3339539   18.0711563   17.1769935
| 14>     C       16.5055990   18.4379310   15.9637829
| 15>     N       17.5116317   19.1389462   18.0597869
| 16>     C       18.3546338   19.1251832   19.1407216
| 17>     S       18.5579097   20.4565592   20.0998676
| 18>     N       19.0171054   17.9483735   19.3914242
| 19>     C       18.8121798   16.6819693   18.6606884
| 20>     C       18.1989954   15.6163851   19.5636439
| 21>     C       18.7343663   14.3158578   19.5909308
| 22>     C       18.1548952   13.3197416   20.3943267
| 23>     C       17.0268589   13.6244342   21.1749241
| 24>     C       16.4858107   14.9166009   21.1447048
| 25>     O       15.3872093   15.2108504   21.8841704
| 26>     C       17.0643608   15.9062805   20.3438873
| 27>     H       13.2761218   15.3681540   16.8402209
| 28>     H       14.1432798   14.3755623   15.6478576
| 29>     H       14.1045590   16.1450885   15.4713508
| 30>     H       15.4227133   16.3758197   17.5949925
| 31>     H       15.4935273   14.6101891   17.7666360
| 32>     H       16.7069792   17.7733726   15.1142680
| 33>     H       16.7281917   19.4565508   15.6216656
| 34>     H       15.4331823   18.3842436   16.1859120
| 35>     H       17.0431012   20.0147842   17.8878114
| 36>     H       19.6143744   17.9609753   20.2086370
| 37>     H       19.7960186   16.3254107   18.3212686
| 38>     H       19.5937315   14.0713566   18.9701200
| 39>     H       18.5762757   12.3158268   20.4022452
| 40>     H       16.5743915   12.8563125   21.7935157
| 41>     H       15.1762661   14.4276865   22.4151630
| 42>     H       16.6285718   16.8997146   20.3361449
| 43> *
| 44>
| 45>                          ****END OF INPUT****

CARTESIAN COORDINATES (ANGSTROEM)
---------------------------------
  C     14.163884   15.325179   16.197496
  C     15.446000   15.432080   17.039219
  O     16.562283   15.346902   16.130132
  C     17.828261   15.704445   16.511847
  O     18.753837   14.928326   16.361628
  C     17.935938   16.883750   17.426015
  C     17.333954   18.071156   17.176993
  C     16.505599   18.437931   15.963783
  N     17.511632   19.138946   18.059787
  C     18.354634   19.125183   19.140722
  S     18.557910   20.456559   20.099868
  N     19.017105   17.948373   19.391424
  C     18.812180   16.681969   18.660688
  C     18.198995   15.616385   19.563644
  C     18.734366   14.315858   19.590931
  C     18.154895   13.319742   20.394327
  C     17.026859   13.624434   21.174924
  C     16.485811   14.916601   21.144705
  O     15.387209   15.210850   21.884170
  C     17.064361   15.906280   20.343887
  H     13.276122   15.368154   16.840221
  H     14.143280   14.375562   15.647858
  H     14.104559   16.145088   15.471351
  H     15.422713   16.375820   17.594993
  H     15.493527   14.610189   17.766636
  H     16.706979   17.773373   15.114268
  H     16.728192   19.456551   15.621666
  H     15.433182   18.384244   16.185912
  H     17.043101   20.014784   17.887811
  H     19.614374   17.960975   20.208637
  H     19.796019   16.325411   18.321269
  H     19.593732   14.071357   18.970120
  H     18.576276   12.315827   20.402245
  H     16.574392   12.856312   21.793516
  H     15.176266   14.427686   22.415163
  H     16.628572   16.899715   20.336145

 Total Charge           Charge          ....    0
 Multiplicity           Mult            ....    1
 Number of Electrons    NEL             ....  154
 Basis Dimension        Dim             ....  828

ORBITAL ENERGIES
----------------

  NO   OCC          E(Eh)            E(eV)
   0   2.0000     -91.890845     -2500.4770
   1   2.0000     -20.599443      -560.5394
   2   2.0000     -20.595529      -560.4328
   3   2.0000     -20.552169      -559.2530
   4   2.0000     -15.629405      -425.2977
   5   2.0000     -15.611367      -424.8069
   6   2.0000     -11.395980      -310.1004
   7   2.0000     -11.387242      -309.8626
   8   2.0000     -11.333166      -308.3911
   9   2.0000     -11.315895      -307.9211
  10   2.0000     -11.312612      -307.8318
  11   2.0000     -11.303710      -307.5896
  12   2.0000     -11.267471      -306.6035
  13   2.0000     -11.263364      -306.4917
  14   2.0000     -11.261906      -306.4520
  15   2.0000     -11.255792      -306.2857
  16   2.0000     -11.245488      -306.0053
  17   2.0000     -11.241597      -305.8994
  18   2.0000     -11.238474      -305.8144
  19   2.0000     -11.235482      -305.7330
  20   2.0000      -8.895941      -242.0709
  21   2.0000      -6.577522      -178.9835
  22   2.0000      -6.575504      -178.9286
  23   2.0000      -6.574923      -178.9127
  24   2.0000      -1.448527       -39.4164
  25   2.0000      -1.419246       -38.6196
  26   2.0000      -1.359590       -36.9963
  27   2.0000      -1.341553       -36.5055
  28   2.0000      -1.240444       -33.7542
  29   2.0000      -1.160636       -31.5825
  30   2.0000      -1.125303       -30.6210
  31   2.0000      -1.048234       -28.5239
  32   2.0000      -1.040822       -28.3222
  33   2.0000      -1.017883       -27.6980
  34   2.0000      -1.004540       -27.3349
  35   2.0000      -0.989499       -26.9256
  36   2.0000      -0.927351       -25.2345
  37   2.0000      -0.881134       -23.9769
  38   2.0000      -0.854850       -23.2616
  39   2.0000      -0.842870       -22.9357
  40   2.0000      -0.836526       -22.7630
  41   2.0000      -0.835667       -22.7397
  42   2.0000      -0.758100       -20.6290
  43   2.0000      -0.739667       -20.1274
  44   2.0000      -0.731742       -19.9117
  45   2.0000      -0.697167       -18.9709
  46   2.0000      -0.687954       -18.7202
  47   2.0000      -0.683273       -18.5928
  48   2.0000      -0.676518       -18.4090
  49   2.0000      -0.662615       -18.0307
  50   2.0000      -0.652473       -17.7547
  51   2.0000      -0.644394       -17.5348
  52   2.0000      -0.641324       -17.4513
  53   2.0000      -0.614989       -16.7347
  54   2.0000      -0.607822       -16.5397
  55   2.0000      -0.606409       -16.5012
  56   2.0000      -0.603076       -16.4105
  57   2.0000      -0.585260       -15.9257
  58   2.0000      -0.577920       -15.7260
  59   2.0000      -0.567806       -15.4508
  60   2.0000      -0.561189       -15.2707
  61   2.0000      -0.556690       -15.1483
  62   2.0000      -0.541249       -14.7281
  63   2.0000      -0.531246       -14.4559
  64   2.0000      -0.524678       -14.2772
  65   2.0000      -0.516070       -14.0430
  66   2.0000      -0.502445       -13.6722
  67   2.0000      -0.498810       -13.5733
  68   2.0000      -0.489784       -13.3277
  69   2.0000      -0.469241       -12.7687
  70   2.0000      -0.460148       -12.5213
  71   2.0000      -0.450145       -12.2491
  72   2.0000      -0.357429        -9.7261
  73   2.0000      -0.351451        -9.5635
  74   2.0000      -0.330320        -8.9885
  75   2.0000      -0.323600        -8.8056
  76   2.0000      -0.318799        -8.6750
  77   0.0000       0.077219         2.1012
  78   0.0000       0.104287         2.8378
  79   0.0000       0.115707         3.1486
  80   0.0000       0.129262         3.5174
  81   0.0000       0.133614         3.6358

MULLIKEN ATOMIC CHARGES
-----------------------
   0 C :   -0.264339
   1 C :    0.008845
   2 O :   -0.332883
   3 C :    0.426755
   4 O :   -0.380882
   5 C :   -0.218167
   6 C :    0.144136
   7 C :   -0.317170
   8 N :   -0.132124
   9 C :    0.202072
  10 S :   -0.438623
  11 N :   -0.206719
  12 C :    0.060162
  13 C :    0.035619
  14 C :   -0.182875
  15 C :   -0.130787
  16 C :   -0.278691
  17 C :    0.314168
  18 O :   -0.358615
  19 C :   -0.284178
  20 H :    0.093514
  21 H :    0.109970
  22 H :    0.092000
  23 H :    0.096142
  24 H :    0.126307
  25 H :    0.137033
  26 H :    0.130150
  27 H :    0.119356
  28 H :    0.197326
  29 H :    0.196409
  30 H :    0.161494
  31 H :    0.164936
  32 H :    0.163110
  33 H :    0.132251
  34 H :    0.241857
  35 H :    0.172442
Sum of atomic charges:   -0.0000000

LOEWDIN ATOMIC CHARGES
----------------------
   0 C :    0.109622
   1 C :   -0.020715
   2 O :    0.298757
   3 C :   -0.416741
   4 O :    0.128635
   5 C :   -0.088864
   6 C :   -0.092141
   7 C :    0.127466
   8 N :    0.402588
   9 C :   -0.456761
  10 S :   -0.035681
  11 N :    0.397156
  12 C :   -0.045563
  13 C :   -0.043917
  14 C :    0.022523
  15 C :    0.044509
  16 C :   -0.000836
  17 C :   -0.194894
  18 O :    0.393843
  19 C :    0.028057
  20 H :   -0.023861
  21 H :   -0.022782
  22 H :   -0.030518
  23 H :   -0.040425
  24 H :   -0.025623
  25 H :   -0.006822
  26 H :   -0.012641
  27 H :   -0.016266
  28 H :   -0.057642
  29 H :   -0.063566
  30 H :   -0.003076
  31 H :   -0.022308
  32 H :   -0.018840
  33 H :   -0.034735
  34 H :   -0.152995
  35 H :   -0.024944

  Mayer bond orders larger than 0.100000
B(  0-C ,  1-C ) :   0.9771 B(  0-C , 20-H ) :   0.9761 B(  0-C , 21-H ) :   0.9792
B(  0-C , 22-H ) :   0.9782 B(  1-C ,  2-O ) :   0.8967 B(  1-C , 23-H ) :   0.9652
B(  1-C , 24-H ) :   0.9757 B(  2-O ,  3-C ) :   1.1635 B(  3-C ,  4-O ) :   2.0983
B(  3-C ,  5-C ) :   0.9409 B(  5-C ,  6-C ) :   1.6748 B(  5-C , 12-C ) :   0.9612
B(  6-C ,  7-C ) :   0.9454 B(  6-C ,  8-N ) :   1.1251 B(  7-C , 25-H ) :   0.9744
B(  7-C , 26-H ) :   0.9793 B(  7-C , 27-H ) :   0.9632 B(  8-N ,  9-C ) :   1.1881
B(  8-N , 28-H ) :   0.9509 B(  9-C , 10-S ) :   1.6134 B(  9-C , 11-N ) :   1.2926
B( 11-N , 12-C ) :   1.0000 B( 11-N , 29-H ) :   0.9504 B( 12-C , 13-C ) :   0.9430
B( 12-C , 30-H ) :   0.9978 B( 13-C , 14-C ) :   1.3854 B( 13-C , 19-C ) :   1.3518
B( 14-C , 15-C ) :   1.3951 B( 14-C , 31-H ) :   0.9612 B( 15-C , 16-C ) :   1.3646
B( 15-C , 32-H ) :   0.9703 B( 16-C , 17-C ) :   1.3279 B( 16-C , 33-H ) :   0.9845
B( 17-C , 18-O ) :   1.1107 B( 17-C , 19-C ) :   1.3727 B( 18-O , 34-H ) :   0.9791
B( 19-C , 35-H ) :   0.9584

MP2 TOTAL ENERGY:    -1274.334120526 Eh
FINAL SINGLE POINT ENERGY     -1274.334120525999

DIPOLE MOMENT
-------------
                                X             Y             Z
Electronic contribution:     12.00820       6.48312       7.47246
Nuclear contribution   :    -13.49643      -7.48244      -7.72573
                        -----------------------------------------
Total Dipole Moment    :     -1.48823      -0.99932      -0.25327
                        -----------------------------------------
Magnitude (a.u.)       :      1.81042
Magnitude (Debye)      :      4.60173

Rotational constants in cm-1:     0.011206     0.009289     0.006809
Rotational constants in MHz :   335.936138   278.466017   204.114066

                             ****ORCA TERMINATED NORMALLY****
TOTAL RUN TIME: 0 days 1 hours 58 minutes 44 seconds 844 msec
