                         Program Version 5.0.0 -  RELEASE  -
|  1> ! ri-mp2 cc-pvtz cc-pvtz/c TightSCF NoKeepInts
|  2>
|  3> %scf
|  4>   MaxCore 4096
|  5> end
|  6> *xyz  0  1
|  7>     C       14.1857705   14.9604874   15.3963178
|  8>     C       15.5560116   14.6146771   16.0027014
|  9>     O       16.3254621   15.8263316   16.0486668
| 10>     C       17.5460626   15.7895168   16.6555253
| 11>     O       18.1860725   14.7539016   16.7395290
| 12>     C       17.8021072   16.9589264   17.5611512
| 13>     C       17.2340586   18.1845577   17.4178272
| 14>     C       16.2707723   18.6428091   16.3420267
| 15>     N       17.5883485   19.2201067   18.2887379
| 16>     C       18.5961267   19.1547250   19.2145177
| 17>     S       19.0357875   20.4680767   20.1186046
| 18>     N       19.2225775   17.9419154   19.3516801
| 19>     C       18.7885310   16.6902742   18.7029755
| 20>     C       18.1866071   15.7368483   19.7320924
| 21>     C       18.6904384   14.4306664   19.8738853
| 22>     C       18.1369875   13.5473709   20.8159117
| 23>     C       17.0693248   13.9726609   21.6245180
| 24>     C       16.5618550   15.2714230   21.4839893
| 25>     O       15.5265425   15.6829752   22.2586394
| 26>     C       17.1144243   16.1480874   20.5450752
| 27>     H       13.6667504   15.7052536   16.0122756
| 28>     H       13.5554329   14.0648888   15.3363413
| 29>     H       14.3025879   15.3666957   14.3838885
| 30>     H       15.4243611   14.2076569   17.0146885
| 31>     H       16.0639750   13.8610363   15.3855358
| 32>     H       16.6161272   18.3297436   15.3487828
| 33>     H       16.1579538   19.7333376   16.3125850
| 34>     H       15.2757167   18.2099511   16.5041985
| 35>     H       17.1404058   20.1184731   18.2031665
| 36>     H       19.9410601   17.9117926   20.0635968
| 37>     H       19.6798471   16.2128674   18.2707268
| 38>     H       19.5046100   14.0935367   19.2369225
| 39>     H       18.5324099   12.5377169   20.9112758
| 40>     H       16.6378551   13.2931866   22.3519023
| 41>     H       15.3153492   14.9596786   22.8677786
| 42>     H       16.7086894   17.1498468   20.4559623
| 43> *
| 44>
| 45>                          ****END OF INPUT****

CARTESIAN COORDINATES (ANGSTROEM)
---------------------------------
  C     14.185771   14.960487   15.396318
  C     15.556012   14.614677   16.002701
  O     16.325462   15.826332   16.048667
  C     17.546063   15.789517   16.655525
  O     18.186073   14.753902   16.739529
  C     17.802107   16.958926   17.561151
  C     17.234059   18.184558   17.417827
  C     16.270772   18.642809   16.342027
  N     17.588348   19.220107   18.288738
  C     18.596127   19.154725   19.214518
  S     19.035788   20.468077   20.118605
  N     19.222577   17.941915   19.351680
  C     18.788531   16.690274   18.702976
  C     18.186607   15.736848   19.732092
  C     18.690438   14.430666   19.873885
  C     18.136987   13.547371   20.815912
  C     17.069325   13.972661   21.624518
  C     16.561855   15.271423   21.483989
  O     15.526542   15.682975   22.258639
  C     17.114424   16.148087   20.545075
  H     13.666750   15.705254   16.012276
  H     13.555433   14.064889   15.336341
  H     14.302588   15.366696   14.383888
  H     15.424361   14.207657   17.014688
  H     16.063975   13.861036   15.385536
  H     16.616127   18.329744   15.348783
  H     16.157954   19.733338   16.312585
  H     15.275717   18.209951   16.504199
  H     17.140406   20.118473   18.203166
  H     19.941060   17.911793   20.063597
  H     19.679847   16.212867   18.270727
  H     19.504610   14.093537   19.236922
  H     18.532410   12.537717   20.911276
  H     16.637855   13.293187   22.351902
  H     15.315349   14.959679   22.867779
  H     16.708689   17.149847   20.455962

 Total Charge           Charge          ....    0
 Multiplicity           Mult            ....    1
 Number of Electrons    NEL             ....  154
 Basis Dimension        Dim             ....  828

ORBITAL ENERGIES
----------------

  NO   OCC          E(Eh)            E(eV)
   0   2.0000     -91.888175     -2500.4044
   1   2.0000     -20.598024      -560.5007
   2   2.0000     -20.592698      -560.3558
   3   2.0000     -20.548785      -559.1609
   4   2.0000     -15.628307      -425.2679
   5   2.0000     -15.607040      -424.6892
   6   2.0000     -11.394640      -310.0639
   7   2.0000     -11.383243      -309.7538
   8   2.0000     -11.335167      -308.4456
   9   2.0000     -11.308566      -307.7217
  10   2.0000     -11.306417      -307.6633
  11   2.0000     -11.298998      -307.4614
  12   2.0000     -11.260274      -306.4076
  13   2.0000     -11.259281      -306.3806
  14   2.0000     -11.254383      -306.2473
  15   2.0000     -11.248653      -306.0914
  16   2.0000     -11.238331      -305.8105
  17   2.0000     -11.234693      -305.7115
  18   2.0000     -11.234401      -305.7036
  19   2.0000     -11.231409      -305.6222
  20   2.0000      -8.893241      -241.9974
  21   2.0000      -6.574819      -178.9099
  22   2.0000      -6.572811      -178.8553
  23   2.0000      -6.572226      -178.8394
  24   2.0000      -1.455172       -39.5972
  25   2.0000      -1.412441       -38.4345
  26   2.0000      -1.357218       -36.9318
  27   2.0000      -1.339278       -36.4436
  28   2.0000      -1.237082       -33.6627
  29   2.0000      -1.153015       -31.3751
  30   2.0000      -1.120005       -30.4769
  31   2.0000      -1.044500       -28.4223
  32   2.0000      -1.037066       -28.2200
  33   2.0000      -1.010402       -27.4944
  34   2.0000      -0.998011       -27.1573
  35   2.0000      -0.983679       -26.7673
  36   2.0000      -0.921536       -25.0763
  37   2.0000      -0.886777       -24.1304
  38   2.0000      -0.847086       -23.0504
  39   2.0000      -0.835714       -22.7409
  40   2.0000      -0.828815       -22.5532
  41   2.0000      -0.819805       -22.3080
  42   2.0000      -0.760642       -20.6981
  43   2.0000      -0.735902       -20.0249
  44   2.0000      -0.725638       -19.7456
  45   2.0000      -0.691216       -18.8089
  46   2.0000      -0.683576       -18.6010
  47   2.0000      -0.681962       -18.5571
  48   2.0000      -0.676259       -18.4019
  49   2.0000      -0.657251       -17.8847
  50   2.0000      -0.651271       -17.7220
  51   2.0000      -0.643541       -17.5116
  52   2.0000      -0.635026       -17.2799
  53   2.0000      -0.603996       -16.4356
  54   2.0000      -0.601252       -16.3609
  55   2.0000      -0.600799       -16.3486
  56   2.0000      -0.596073       -16.2200
  57   2.0000      -0.576857       -15.6971
  58   2.0000      -0.574092       -15.6218
  59   2.0000      -0.563864       -15.3435
  60   2.0000      -0.561068       -15.2674
  61   2.0000      -0.550529       -14.9807
  62   2.0000      -0.542621       -14.7655
  63   2.0000      -0.519790       -14.1442
  64   2.0000      -0.517478       -14.0813
  65   2.0000      -0.510445       -13.8899
  66   2.0000      -0.506371       -13.7790
  67   2.0000      -0.496189       -13.5020
  68   2.0000      -0.481329       -13.0976
  69   2.0000      -0.462950       -12.5975
  70   2.0000      -0.461156       -12.5487
  71   2.0000      -0.453959       -12.3528
  72   2.0000      -0.354023        -9.6335
  73   2.0000      -0.344853        -9.3839
  74   2.0000      -0.327346        -8.9075
  75   2.0000      -0.316018        -8.5993
  76   2.0000      -0.314589        -8.5604
  77   0.0000       0.074661         2.0316
  78   0.0000       0.110825         3.0157
  79   0.0000       0.120034         3.2663
  80   0.0000       0.135099         3.6762
  81   0.0000       0.138580         3.7710

MULLIKEN ATOMIC CHARGES
-----------------------
   0 C :   -0.276860
   1 C :    0.052079
   2 O :   -0.346609
   3 C :    0.432607
   4 O :   -0.414624
   5 C :   -0.174165
   6 C :    0.142486
   7 C :   -0.286976
   8 N :   -0.123915
   9 C :    0.202227
  10 S :   -0.439606
  11 N :   -0.198394
  12 C :    0.041937
  13 C :    0.053943
  14 C :   -0.160919
  15 C :   -0.133717
  16 C :   -0.279994
  17 C :    0.311265
  18 O :   -0.358996
  19 C :   -0.274013
  20 H :    0.092476
  21 H :    0.100225
  22 H :    0.097726
  23 H :    0.090066
  24 H :    0.102545
  25 H :    0.126116
  26 H :    0.104255
  27 H :    0.126499
  28 H :    0.197009
  29 H :    0.193825
  30 H :    0.153972
  31 H :    0.153843
  32 H :    0.159559
  33 H :    0.128610
  34 H :    0.240219
  35 H :    0.165299
Sum of atomic charges:    0.0000000

LOEWDIN ATOMIC CHARGES
----------------------
   0 C :    0.107593
   1 C :   -0.018106
   2 O :    0.301731
   3 C :   -0.414796
   4 O :    0.111955
   5 C :   -0.092065
   6 C :   -0.068844
   7 C :    0.125388
   8 N :    0.404528
   9 C :   -0.458381
  10 S :   -0.036237
  11 N :    0.397555
  12 C :   -0.045993
  13 C :   -0.039186
  14 C :    0.022008
  15 C :    0.040974
  16 C :   -0.002510
  17 C :   -0.193089
  18 O :    0.392993
  19 C :    0.028053
  20 H :   -0.029216
  21 H :   -0.022932
  22 H :   -0.026635
  23 H :   -0.027765
  24 H :   -0.028009
  25 H :   -0.008305
  26 H :   -0.020453
  27 H :   -0.010475
  28 H :   -0.059010
  29 H :   -0.063820
  30 H :   -0.004781
  31 H :   -0.025148
  32 H :   -0.021031
  33 H :   -0.036285
  34 H :   -0.154777
  35 H :   -0.024930

  Mayer bond orders larger than 0.100000
B(  0-C ,  1-C ) :   0.9704 B(  0-C , 20-H ) :   0.9783 B(  0-C , 21-H ) :   0.9783
B(  0-C , 22-H ) :   0.9770 B(  1-C ,  2-O ) :   0.9056 B(  1-C , 23-H ) :   0.9730
B(  1-C , 24-H ) :   0.9798 B(  2-O ,  3-C ) :   1.1342 B(  3-C ,  4-O ) :   2.0043
B(  3-C ,  5-C ) :   1.0402 B(  5-C ,  6-C ) :   1.6552 B(  5-C , 12-C ) :   0.9663
B(  6-C ,  7-C ) :   0.9532 B(  6-C ,  8-N ) :   1.1407 B(  7-C , 25-H ) :   0.9676
B(  7-C , 26-H ) :   0.9909 B(  7-C , 27-H ) :   0.9627 B(  8-N ,  9-C ) :   1.1811
B(  8-N , 28-H ) :   0.9492 B(  9-C , 10-S ) :   1.6105 B(  9-C , 11-N ) :   1.3028
B( 11-N , 12-C ) :   0.9912 B( 11-N , 29-H ) :   0.9519 B( 12-C , 13-C ) :   0.9467
B( 12-C , 30-H ) :   0.9992 B( 13-C , 14-C ) :   1.3765 B( 13-C , 19-C ) :   1.3691
B( 14-C , 15-C ) :   1.3947 B( 14-C , 31-H ) :   0.9646 B( 15-C , 16-C ) :   1.3628
B( 15-C , 32-H ) :   0.9713 B( 16-C , 17-C ) :   1.3312 B( 16-C , 33-H ) :   0.9858
B( 17-C , 18-O ) :   1.1083 B( 17-C , 19-C ) :   1.3784 B( 18-O , 34-H ) :   0.9804
B( 19-C , 35-H ) :   0.9583

MP2 TOTAL ENERGY:    -1274.340824529 Eh
FINAL SINGLE POINT ENERGY     -1274.340824528697

DIPOLE MOMENT
-------------
                                X             Y             Z
Electronic contribution:     12.12115       8.72733       9.93321
Nuclear contribution   :    -13.58522     -10.06452     -10.77684
                        -----------------------------------------
Total Dipole Moment    :     -1.46407      -1.33719      -0.84363
                        -----------------------------------------
Magnitude (a.u.)       :      2.15483
Magnitude (Debye)      :      5.47714

Rotational constants in cm-1:     0.010430     0.009111     0.006100
Rotational constants in MHz :   312.686406   273.139347   182.881140

                             ****ORCA TERMINATED NORMALLY****
TOTAL RUN TIME: 0 days 1 hours 51 minutes 53 seconds 933 msec
