                         Program Version 5.0.0 -  RELEASE  -
|  1> ! ri-mp2 cc-pvtz cc-pvtz/c TightSCF NoKeepInts
|  2>
|  3> %scf
|  4>   MaxCore 4096
|  5> end
|  6> *xyz  0  1
|  7>     C       15.4781246   14.2034525   17.0033580
|  8>     C       15.4350458   15.2549896   15.8715712
|  9>     O       16.7033275   15.9077668   15.6146595
| 10>     C       17.7671322   15.8260692   16.4665533
| 11>     O       18.4009972   14.7932746   16.6003701
| 12>     C       17.9012675   16.9835682   17.4137990
| 13>     C       17.4040492   18.2282181   17.1925492
| 14>     C       16.6539569   18.7295223   15.9755081
| 15>     N       17.6412591   19.2456391   18.1226441
| 16>     C       18.4843438   19.1433892   19.1976186
| 17>     S       18.8084279   20.4362821   20.1766104
| 18>     N       19.0443010   17.9109718   19.4200023
| 19>     C       18.6807178   16.6773898   18.6975197
| 20>     C       17.8895440   15.7379203   19.6038193
| 21>     C       18.2819326   14.3948625   19.7524923
| 22>     C       17.5481371   13.5199573   20.5708034
| 23>     C       16.4106834   13.9908936   21.2481498
| 24>     C       16.0144530   15.3269544   21.1011184
| 25>     O       14.9106752   15.7823452   21.7454397
| 26>     C       16.7460141   16.1952133   20.2847512
| 27>     H       16.1893540   13.4007401   16.7705295
| 28>     H       14.4904325   13.7447978   17.1315804
| 29>     H       15.7596155   14.6562482   17.9611381
| 30>     H       15.0879221   14.7753104   14.9472375
| 31>     H       14.6931830   16.0173784   16.1412638
| 32>     H       15.6219915   18.3595896   15.9734190
| 33>     H       17.1379473   18.3913565   15.0504739
| 34>     H       16.6136647   19.8246834   15.9285110
| 35>     H       17.2426560   20.1591361   17.9749632
| 36>     H       19.6409936   17.8543744   20.2354065
| 37>     H       19.6149246   16.1728443   18.4106411
| 38>     H       19.1500472   14.0227305   19.2132717
| 39>     H       17.8592311   12.4815916   20.6710957
| 40>     H       15.8398669   13.3176905   21.8790512
| 41>     H       14.5796458   15.0595751   22.2996437
| 42>     H       16.4211342   17.2252731   20.1864360
| 43> *
| 44>
| 45>                          ****END OF INPUT****

CARTESIAN COORDINATES (ANGSTROEM)
---------------------------------
  C     15.478125   14.203452   17.003358
  C     15.435046   15.254990   15.871571
  O     16.703328   15.907767   15.614660
  C     17.767132   15.826069   16.466553
  O     18.400997   14.793275   16.600370
  C     17.901267   16.983568   17.413799
  C     17.404049   18.228218   17.192549
  C     16.653957   18.729522   15.975508
  N     17.641259   19.245639   18.122644
  C     18.484344   19.143389   19.197619
  S     18.808428   20.436282   20.176610
  N     19.044301   17.910972   19.420002
  C     18.680718   16.677390   18.697520
  C     17.889544   15.737920   19.603819
  C     18.281933   14.394862   19.752492
  C     17.548137   13.519957   20.570803
  C     16.410683   13.990894   21.248150
  C     16.014453   15.326954   21.101118
  O     14.910675   15.782345   21.745440
  C     16.746014   16.195213   20.284751
  H     16.189354   13.400740   16.770529
  H     14.490433   13.744798   17.131580
  H     15.759616   14.656248   17.961138
  H     15.087922   14.775310   14.947237
  H     14.693183   16.017378   16.141264
  H     15.621991   18.359590   15.973419
  H     17.137947   18.391357   15.050474
  H     16.613665   19.824683   15.928511
  H     17.242656   20.159136   17.974963
  H     19.640994   17.854374   20.235406
  H     19.614925   16.172844   18.410641
  H     19.150047   14.022730   19.213272
  H     17.859231   12.481592   20.671096
  H     15.839867   13.317690   21.879051
  H     14.579646   15.059575   22.299644
  H     16.421134   17.225273   20.186436

 Total Charge           Charge          ....    0
 Multiplicity           Mult            ....    1
 Number of Electrons    NEL             ....  154
 Basis Dimension        Dim             ....  828

ORBITAL ENERGIES
----------------

  NO   OCC          E(Eh)            E(eV)
   0   2.0000     -91.889915     -2500.4517
   1   2.0000     -20.595813      -560.4406
   2   2.0000     -20.583976      -560.1185
   3   2.0000     -20.551661      -559.2391
   4   2.0000     -15.630323      -425.3227
   5   2.0000     -15.608597      -424.7315
   6   2.0000     -11.395615      -310.0905
   7   2.0000     -11.384938      -309.7999
   8   2.0000     -11.337827      -308.5180
   9   2.0000     -11.312171      -307.8198
  10   2.0000     -11.307652      -307.6969
  11   2.0000     -11.307110      -307.6821
  12   2.0000     -11.261211      -306.4331
  13   2.0000     -11.260991      -306.4271
  14   2.0000     -11.257502      -306.3322
  15   2.0000     -11.252084      -306.1848
  16   2.0000     -11.241849      -305.9063
  17   2.0000     -11.237764      -305.7951
  18   2.0000     -11.234241      -305.6992
  19   2.0000     -11.225392      -305.4584
  20   2.0000      -8.894974      -242.0445
  21   2.0000      -6.576548      -178.9570
  22   2.0000      -6.574542      -178.9024
  23   2.0000      -6.573954      -178.8864
  24   2.0000      -1.445411       -39.3316
  25   2.0000      -1.415629       -38.5212
  26   2.0000      -1.354838       -36.8670
  27   2.0000      -1.341257       -36.4975
  28   2.0000      -1.238933       -33.7131
  29   2.0000      -1.156243       -31.4630
  30   2.0000      -1.121236       -30.5104
  31   2.0000      -1.044057       -28.4102
  32   2.0000      -1.032331       -28.0912
  33   2.0000      -1.013880       -27.5891
  34   2.0000      -1.000640       -27.2288
  35   2.0000      -0.985931       -26.8285
  36   2.0000      -0.924397       -25.1541
  37   2.0000      -0.895310       -24.3626
  38   2.0000      -0.850632       -23.1469
  39   2.0000      -0.839324       -22.8392
  40   2.0000      -0.832165       -22.6444
  41   2.0000      -0.821609       -22.3571
  42   2.0000      -0.743632       -20.2353
  43   2.0000      -0.728543       -19.8247
  44   2.0000      -0.726422       -19.7669
  45   2.0000      -0.693601       -18.8738
  46   2.0000      -0.686323       -18.6758
  47   2.0000      -0.677579       -18.4379
  48   2.0000      -0.675508       -18.3815
  49   2.0000      -0.664151       -18.0725
  50   2.0000      -0.650052       -17.6888
  51   2.0000      -0.647257       -17.6128
  52   2.0000      -0.636058       -17.3080
  53   2.0000      -0.624200       -16.9854
  54   2.0000      -0.604519       -16.4498
  55   2.0000      -0.603005       -16.4086
  56   2.0000      -0.599687       -16.3183
  57   2.0000      -0.578353       -15.7378
  58   2.0000      -0.575219       -15.6525
  59   2.0000      -0.565083       -15.3767
  60   2.0000      -0.551387       -15.0040
  61   2.0000      -0.546574       -14.8730
  62   2.0000      -0.537495       -14.6260
  63   2.0000      -0.528300       -14.3758
  64   2.0000      -0.519390       -14.1333
  65   2.0000      -0.511635       -13.9223
  66   2.0000      -0.500109       -13.6087
  67   2.0000      -0.494178       -13.4473
  68   2.0000      -0.481750       -13.1091
  69   2.0000      -0.465595       -12.6695
  70   2.0000      -0.455875       -12.4050
  71   2.0000      -0.449193       -12.2232
  72   2.0000      -0.356091        -9.6897
  73   2.0000      -0.348021        -9.4701
  74   2.0000      -0.329094        -8.9551
  75   2.0000      -0.319555        -8.6955
  76   2.0000      -0.316998        -8.6260
  77   0.0000       0.070723         1.9245
  78   0.0000       0.106928         2.9096
  79   0.0000       0.120308         3.2738
  80   0.0000       0.132385         3.6024
  81   0.0000       0.138400         3.7661

MULLIKEN ATOMIC CHARGES
-----------------------
   0 C :   -0.317148
   1 C :    0.055540
   2 O :   -0.386968
   3 C :    0.476710
   4 O :   -0.399695
   5 C :   -0.207046
   6 C :    0.139623
   7 C :   -0.290359
   8 N :   -0.122175
   9 C :    0.196775
  10 S :   -0.437053
  11 N :   -0.200202
  12 C :    0.049539
  13 C :    0.015239
  14 C :   -0.153704
  15 C :   -0.141463
  16 C :   -0.270265
  17 C :    0.304415
  18 O :   -0.360217
  19 C :   -0.252202
  20 H :    0.121603
  21 H :    0.107270
  22 H :    0.110367
  23 H :    0.108852
  24 H :    0.081223
  25 H :    0.120414
  26 H :    0.134245
  27 H :    0.107370
  28 H :    0.197333
  29 H :    0.194188
  30 H :    0.156192
  31 H :    0.160652
  32 H :    0.161199
  33 H :    0.131089
  34 H :    0.240670
  35 H :    0.167991
Sum of atomic charges:   -0.0000000

LOEWDIN ATOMIC CHARGES
----------------------
   0 C :    0.108289
   1 C :   -0.012270
   2 O :    0.282683
   3 C :   -0.420136
   4 O :    0.125503
   5 C :   -0.095282
   6 C :   -0.068075
   7 C :    0.126573
   8 N :    0.405022
   9 C :   -0.459301
  10 S :   -0.034469
  11 N :    0.397662
  12 C :   -0.046132
  13 C :   -0.042416
  14 C :    0.022418
  15 C :    0.042165
  16 C :   -0.001948
  17 C :   -0.194279
  18 O :    0.394054
  19 C :    0.026352
  20 H :   -0.022377
  21 H :   -0.024561
  22 H :   -0.026110
  23 H :   -0.024202
  24 H :   -0.036153
  25 H :   -0.012391
  26 H :   -0.005892
  27 H :   -0.019575
  28 H :   -0.058653
  29 H :   -0.063737
  30 H :   -0.004113
  31 H :   -0.024088
  32 H :   -0.020151
  33 H :   -0.035562
  34 H :   -0.154043
  35 H :   -0.024803

  Mayer bond orders larger than 0.100000
B(  0-C ,  1-C ) :   0.9720 B(  0-C , 20-H ) :   0.9700 B(  0-C , 21-H ) :   0.9745
B(  0-C , 22-H ) :   0.9658 B(  1-C ,  2-O ) :   0.8995 B(  1-C , 23-H ) :   0.9812
B(  1-C , 24-H ) :   0.9756 B(  2-O ,  3-C ) :   1.0877 B(  3-C ,  4-O ) :   2.0339
B(  3-C ,  5-C ) :   1.0290 B(  5-C ,  6-C ) :   1.6616 B(  5-C , 12-C ) :   0.9599
B(  6-C ,  7-C ) :   0.9518 B(  6-C ,  8-N ) :   1.1452 B(  7-C , 25-H ) :   0.9675
B(  7-C , 26-H ) :   0.9652 B(  7-C , 27-H ) :   0.9892 B(  8-N ,  9-C ) :   1.1797
B(  8-N , 28-H ) :   0.9489 B(  9-C , 10-S ) :   1.6138 B(  9-C , 11-N ) :   1.3021
B( 11-N , 12-C ) :   0.9902 B( 11-N , 29-H ) :   0.9521 B( 12-C , 13-C ) :   0.9456
B( 12-C , 30-H ) :   0.9994 B( 13-C , 14-C ) :   1.3858 B( 13-C , 19-C ) :   1.3656
B( 14-C , 15-C ) :   1.3942 B( 14-C , 31-H ) :   0.9612 B( 15-C , 16-C ) :   1.3621
B( 15-C , 32-H ) :   0.9710 B( 16-C , 17-C ) :   1.3318 B( 16-C , 33-H ) :   0.9847
B( 17-C , 18-O ) :   1.1109 B( 17-C , 19-C ) :   1.3737 B( 18-O , 34-H ) :   0.9800
B( 19-C , 35-H ) :   0.9584

MP2 TOTAL ENERGY:    -1274.330458809 Eh
FINAL SINGLE POINT ENERGY     -1274.330458809159

DIPOLE MOMENT
-------------
                                X             Y             Z
Electronic contribution:      9.68717       9.36356       6.79047
Nuclear contribution   :    -11.19254     -10.51191      -7.44080
                        -----------------------------------------
Total Dipole Moment    :     -1.50537      -1.14835      -0.65033
                        -----------------------------------------
Magnitude (a.u.)       :      2.00194
Magnitude (Debye)      :      5.08854

Rotational constants in cm-1:     0.011677     0.009509     0.006587
Rotational constants in MHz :   350.060607   285.073468   197.463893

                             ****ORCA TERMINATED NORMALLY****
TOTAL RUN TIME: 0 days 2 hours 7 minutes 47 seconds 226 msec
