                         Program Version 5.0.0 -  RELEASE  -
|  1> ! ri-mp2 cc-pvtz cc-pvtz/c TightSCF NoKeepInts
|  2>
|  3> %scf
|  4>   MaxCore 4096
|  5> end
|  6> *xyz  0  1
|  7>     C       14.1776607   15.0269900   15.7321334
|  8>     C       15.6519039   14.6194327   15.8916584
|  9>     O       16.4260709   15.8273819   15.9659805
| 10>     C       17.6217729   15.7901516   16.6203401
| 11>     O       18.2636875   14.7570064   16.7187994
| 12>     C       17.8437991   16.9578157   17.5371017
| 13>     C       17.2756515   18.1817789   17.3803227
| 14>     C       16.3454696   18.6408801   16.2761454
| 15>     N       17.5968848   19.2149293   18.2667732
| 16>     C       18.5728658   19.1491325   19.2259712
| 17>     S       18.9764163   20.4600435   20.1502167
| 18>     N       19.1989231   17.9380571   19.3791307
| 19>     C       18.7926192   16.6878963   18.7099878
| 20>     C       18.1603817   15.7267657   19.7133971
| 21>     C       18.6665277   14.4229206   19.8678163
| 22>     C       18.0848098   13.5324052   20.7857053
| 23>     C       16.9862105   13.9480160   21.5570543
| 24>     C       16.4764145   15.2444118   21.4036675
| 25>     O       15.4113497   15.6465734   22.1420732
| 26>     C       17.0572689   16.1283288   20.4889522
| 27>     H       13.8487990   15.6312009   16.5868200
| 28>     H       13.5378046   14.1380348   15.6740498
| 29>     H       14.0354120   15.6132701   14.8158379
| 30>     H       15.7600460   14.0346675   16.8161422
| 31>     H       15.9838708   14.0016531   15.0467591
| 32>     H       16.7253600   18.3360191   15.2930152
| 33>     H       16.2268733   19.7308624   16.2494617
| 34>     H       15.3483012   18.2011372   16.4028486
| 35>     H       17.1487531   20.1120507   18.1699195
| 36>     H       19.8928722   17.9073886   20.1149581
| 37>     H       19.7000595   16.2164961   18.3055880
| 38>     H       19.5049636   14.0932091   19.2590803
| 39>     H       18.4824859   12.5246321   20.8910685
| 40>     H       16.5328354   13.2628931   22.2655695
| 41>     H       15.1827965   14.9194768   22.7403306
| 42>     H       16.6490791   17.1280909   20.3893238
| 43> *
| 44>
| 45>                          ****END OF INPUT****

CARTESIAN COORDINATES (ANGSTROEM)
---------------------------------
  C     14.177661   15.026990   15.732133
  C     15.651904   14.619433   15.891658
  O     16.426071   15.827382   15.965980
  C     17.621773   15.790152   16.620340
  O     18.263687   14.757006   16.718799
  C     17.843799   16.957816   17.537102
  C     17.275651   18.181779   17.380323
  C     16.345470   18.640880   16.276145
  N     17.596885   19.214929   18.266773
  C     18.572866   19.149133   19.225971
  S     18.976416   20.460044   20.150217
  N     19.198923   17.938057   19.379131
  C     18.792619   16.687896   18.709988
  C     18.160382   15.726766   19.713397
  C     18.666528   14.422921   19.867816
  C     18.084810   13.532405   20.785705
  C     16.986210   13.948016   21.557054
  C     16.476415   15.244412   21.403667
  O     15.411350   15.646573   22.142073
  C     17.057269   16.128329   20.488952
  H     13.848799   15.631201   16.586820
  H     13.537805   14.138035   15.674050
  H     14.035412   15.613270   14.815838
  H     15.760046   14.034667   16.816142
  H     15.983871   14.001653   15.046759
  H     16.725360   18.336019   15.293015
  H     16.226873   19.730862   16.249462
  H     15.348301   18.201137   16.402849
  H     17.148753   20.112051   18.169919
  H     19.892872   17.907389   20.114958
  H     19.700059   16.216496   18.305588
  H     19.504964   14.093209   19.259080
  H     18.482486   12.524632   20.891068
  H     16.532835   13.262893   22.265569
  H     15.182797   14.919477   22.740331
  H     16.649079   17.128091   20.389324

 Total Charge           Charge          ....    0
 Multiplicity           Mult            ....    1
 Number of Electrons    NEL             ....  154
 Basis Dimension        Dim             ....  828

ORBITAL ENERGIES
----------------

  NO   OCC          E(Eh)            E(eV)
   0   2.0000     -91.888230     -2500.4058
   1   2.0000     -20.598035      -560.5010
   2   2.0000     -20.592951      -560.3627
   3   2.0000     -20.548529      -559.1539
   4   2.0000     -15.628348      -425.2690
   5   2.0000     -15.607129      -424.6916
   6   2.0000     -11.394664      -310.0646
   7   2.0000     -11.383300      -309.7553
   8   2.0000     -11.335208      -308.4467
   9   2.0000     -11.308825      -307.7288
  10   2.0000     -11.306512      -307.6658
  11   2.0000     -11.299409      -307.4726
  12   2.0000     -11.260375      -306.4104
  13   2.0000     -11.259238      -306.3795
  14   2.0000     -11.254615      -306.2536
  15   2.0000     -11.248926      -306.0988
  16   2.0000     -11.238582      -305.8174
  17   2.0000     -11.234658      -305.7106
  18   2.0000     -11.234639      -305.7101
  19   2.0000     -11.231668      -305.6292
  20   2.0000      -8.893295      -241.9989
  21   2.0000      -6.574873      -178.9114
  22   2.0000      -6.572865      -178.8568
  23   2.0000      -6.572280      -178.8408
  24   2.0000      -1.454942       -39.5910
  25   2.0000      -1.412695       -38.4414
  26   2.0000      -1.357081       -36.9280
  27   2.0000      -1.339342       -36.4454
  28   2.0000      -1.237166       -33.6650
  29   2.0000      -1.153251       -31.3816
  30   2.0000      -1.120083       -30.4790
  31   2.0000      -1.044536       -28.4233
  32   2.0000      -1.037200       -28.2236
  33   2.0000      -1.010645       -27.5010
  34   2.0000      -0.998189       -27.1621
  35   2.0000      -0.983856       -26.7721
  36   2.0000      -0.921678       -25.0801
  37   2.0000      -0.887650       -24.1542
  38   2.0000      -0.847134       -23.0517
  39   2.0000      -0.835851       -22.7447
  40   2.0000      -0.829063       -22.5599
  41   2.0000      -0.819285       -22.2939
  42   2.0000      -0.760838       -20.7035
  43   2.0000      -0.735936       -20.0258
  44   2.0000      -0.725783       -19.7495
  45   2.0000      -0.691657       -18.8209
  46   2.0000      -0.683643       -18.6029
  47   2.0000      -0.682034       -18.5591
  48   2.0000      -0.676414       -18.4062
  49   2.0000      -0.659280       -17.9399
  50   2.0000      -0.650670       -17.7056
  51   2.0000      -0.643937       -17.5224
  52   2.0000      -0.635405       -17.2902
  53   2.0000      -0.601993       -16.3811
  54   2.0000      -0.601016       -16.3545
  55   2.0000      -0.598303       -16.2807
  56   2.0000      -0.596247       -16.2247
  57   2.0000      -0.577200       -15.7064
  58   2.0000      -0.574264       -15.6265
  59   2.0000      -0.565608       -15.3910
  60   2.0000      -0.560589       -15.2544
  61   2.0000      -0.555675       -15.1207
  62   2.0000      -0.541784       -14.7427
  63   2.0000      -0.518621       -14.1124
  64   2.0000      -0.516814       -14.0632
  65   2.0000      -0.511660       -13.9230
  66   2.0000      -0.504668       -13.7327
  67   2.0000      -0.496419       -13.5083
  68   2.0000      -0.481277       -13.0962
  69   2.0000      -0.462319       -12.5803
  70   2.0000      -0.460772       -12.5382
  71   2.0000      -0.456032       -12.4093
  72   2.0000      -0.354058        -9.6344
  73   2.0000      -0.345088        -9.3903
  74   2.0000      -0.327408        -8.9092
  75   2.0000      -0.316216        -8.6047
  76   2.0000      -0.314707        -8.5636
  77   0.0000       0.074848         2.0367
  78   0.0000       0.110384         3.0037
  79   0.0000       0.119785         3.2595
  80   0.0000       0.135034         3.6745
  81   0.0000       0.139147         3.7864

MULLIKEN ATOMIC CHARGES
-----------------------
   0 C :   -0.282229
   1 C :    0.054324
   2 O :   -0.347221
   3 C :    0.428742
   4 O :   -0.414293
   5 C :   -0.172219
   6 C :    0.142785
   7 C :   -0.286842
   8 N :   -0.123915
   9 C :    0.202189
  10 S :   -0.439616
  11 N :   -0.198577
  12 C :    0.042862
  13 C :    0.053942
  14 C :   -0.161338
  15 C :   -0.133841
  16 C :   -0.280000
  17 C :    0.311326
  18 O :   -0.359031
  19 C :   -0.274372
  20 H :    0.096307
  21 H :    0.103801
  22 H :    0.096060
  23 H :    0.093246
  24 H :    0.097693
  25 H :    0.126594
  26 H :    0.104825
  27 H :    0.126004
  28 H :    0.197024
  29 H :    0.193867
  30 H :    0.153885
  31 H :    0.154018
  32 H :    0.159756
  33 H :    0.128701
  34 H :    0.240281
  35 H :    0.165262
Sum of atomic charges:    0.0000000

LOEWDIN ATOMIC CHARGES
----------------------
   0 C :    0.106349
   1 C :   -0.016500
   2 O :    0.302549
   3 C :   -0.416041
   4 O :    0.111393
   5 C :   -0.092276
   6 C :   -0.068896
   7 C :    0.125364
   8 N :    0.404518
   9 C :   -0.458377
  10 S :   -0.036231
  11 N :    0.397561
  12 C :   -0.046018
  13 C :   -0.039208
  14 C :    0.021957
  15 C :    0.040873
  16 C :   -0.002497
  17 C :   -0.193068
  18 O :    0.392972
  19 C :    0.027940
  20 H :   -0.027721
  21 H :   -0.022814
  22 H :   -0.028281
  23 H :   -0.025697
  24 H :   -0.029230
  25 H :   -0.008207
  26 H :   -0.020464
  27 H :   -0.010343
  28 H :   -0.059020
  29 H :   -0.063814
  30 H :   -0.004762
  31 H :   -0.025088
  32 H :   -0.020989
  33 H :   -0.036260
  34 H :   -0.154743
  35 H :   -0.024932

  Mayer bond orders larger than 0.100000
B(  0-C ,  1-C ) :   0.9698 B(  0-C , 20-H ) :   0.9772 B(  0-C , 21-H ) :   0.9787
B(  0-C , 22-H ) :   0.9771 B(  1-C ,  2-O ) :   0.9055 B(  1-C , 23-H ) :   0.9723
B(  1-C , 24-H ) :   0.9821 B(  2-O ,  3-C ) :   1.1353 B(  3-C ,  4-O ) :   2.0075
B(  3-C ,  5-C ) :   1.0406 B(  5-C ,  6-C ) :   1.6554 B(  5-C , 12-C ) :   0.9663
B(  6-C ,  7-C ) :   0.9534 B(  6-C ,  8-N ) :   1.1417 B(  7-C , 25-H ) :   0.9675
B(  7-C , 26-H ) :   0.9906 B(  7-C , 27-H ) :   0.9634 B(  8-N ,  9-C ) :   1.1812
B(  8-N , 28-H ) :   0.9491 B(  9-C , 10-S ) :   1.6104 B(  9-C , 11-N ) :   1.3028
B( 11-N , 12-C ) :   0.9912 B( 11-N , 29-H ) :   0.9519 B( 12-C , 13-C ) :   0.9462
B( 12-C , 30-H ) :   0.9990 B( 13-C , 14-C ) :   1.3763 B( 13-C , 19-C ) :   1.3694
B( 14-C , 15-C ) :   1.3945 B( 14-C , 31-H ) :   0.9646 B( 15-C , 16-C ) :   1.3627
B( 15-C , 32-H ) :   0.9712 B( 16-C , 17-C ) :   1.3312 B( 16-C , 33-H ) :   0.9858
B( 17-C , 18-O ) :   1.1083 B( 17-C , 19-C ) :   1.3782 B( 18-O , 34-H ) :   0.9804
B( 19-C , 35-H ) :   0.9585

MP2 TOTAL ENERGY:    -1274.340784196 Eh
FINAL SINGLE POINT ENERGY     -1274.340784196348

DIPOLE MOMENT
-------------
                                X             Y             Z
Electronic contribution:     12.03352       8.56975       9.36420
Nuclear contribution   :    -13.47688      -9.90546     -10.22582
                        -----------------------------------------
Total Dipole Moment    :     -1.44336      -1.33571      -0.86162
                        -----------------------------------------
Magnitude (a.u.)       :      2.14704
Magnitude (Debye)      :      5.45735

Rotational constants in cm-1:     0.010498     0.009186     0.006218
Rotational constants in MHz :   314.731683   275.379906   186.402481

                             ****ORCA TERMINATED NORMALLY****
TOTAL RUN TIME: 0 days 1 hours 52 minutes 29 seconds 64 msec
