                         Program Version 4.2.0 -  RELEASE  -
|  1> ! ri-mp2 cc-pvtz cc-pvtz/c TightSCF  NoKeepInts
|  2>
|  3> %scf
|  4>   MaxCore 4096
|  5> end
|  6> *xyz  0  1
|  7>     C       15.1169878   14.1295805   15.3128878
|  8>     C       16.2597745   13.8742595   16.3184864
|  9>     O       16.9911287   15.0439300   16.7737066
| 10>     C       16.6368877   16.3678670   16.6686841
| 11>     O       15.7445729   16.7907795   15.9561695
| 12>     C       17.4763015   17.2415802   17.5631573
| 13>     C       17.3728383   18.5957827   17.5678482
| 14>     C       16.4492495   19.4511963   16.7266366
| 15>     N       18.2023152   19.3605864   18.3937112
| 16>     C       19.2204092   18.8624504   19.1615261
| 17>     S       20.2168032   19.8476518   20.0405263
| 18>     N       19.3747749   17.5000609   19.1630334
| 19>     C       18.4643952   16.5407049   18.5118376
| 20>     C       17.7456711   15.7128961   19.5736747
| 21>     C       18.0248872   14.3407852   19.7182025
| 22>     C       17.3632048   13.5752795   20.6931055
| 23>     C       16.4166881   14.1869855   21.5326959
| 24>     C       16.1399276   15.5541515   21.3948841
| 25>     O       15.2280246   16.1479605   22.2053512
| 26>     C       16.7998886   16.3132651   20.4236746
| 27>     H       14.3040890   14.7046554   15.7737854
| 28>     H       14.6944824   13.1775236   14.9702232
| 29>     H       15.4813931   14.6716761   14.4311862
| 30>     H       15.8284519   13.3766181   17.1968935
| 31>     H       16.9730967   13.1698969   15.8718738
| 32>     H       15.4002516   19.2091725   16.9404411
| 33>     H       16.6164915   19.2645094   15.6582237
| 34>     H       16.5826031   20.5255756   16.8987980
| 35>     H       18.1040706   20.3631787   18.4044278
| 36>     H       20.1092775   17.1596446   19.7699555
| 37>     H       19.0853675   15.8658294   17.9062421
| 38>     H       18.7537292   13.8649741   19.0676930
| 39>     H       17.5849722   12.5145625   20.7965842
| 40>     H       15.9035033   13.6004479   22.2876127
| 41>     H       14.9037277   15.4746782   22.8219927
| 42>     H       16.5767621   17.3713037   20.3382677
| 43> *
| 44>
| 45>                          ****END OF INPUT****

CARTESIAN COORDINATES (ANGSTROEM)
---------------------------------
  C     15.116988   14.129580   15.312888
  C     16.259774   13.874260   16.318486
  O     16.991129   15.043930   16.773707
  C     16.636888   16.367867   16.668684
  O     15.744573   16.790779   15.956169
  C     17.476302   17.241580   17.563157
  C     17.372838   18.595783   17.567848
  C     16.449250   19.451196   16.726637
  N     18.202315   19.360586   18.393711
  C     19.220409   18.862450   19.161526
  S     20.216803   19.847652   20.040526
  N     19.374775   17.500061   19.163033
  C     18.464395   16.540705   18.511838
  C     17.745671   15.712896   19.573675
  C     18.024887   14.340785   19.718203
  C     17.363205   13.575280   20.693105
  C     16.416688   14.186986   21.532696
  C     16.139928   15.554151   21.394884
  O     15.228025   16.147960   22.205351
  C     16.799889   16.313265   20.423675
  H     14.304089   14.704655   15.773785
  H     14.694482   13.177524   14.970223
  H     15.481393   14.671676   14.431186
  H     15.828452   13.376618   17.196894
  H     16.973097   13.169897   15.871874
  H     15.400252   19.209173   16.940441
  H     16.616491   19.264509   15.658224
  H     16.582603   20.525576   16.898798
  H     18.104071   20.363179   18.404428
  H     20.109278   17.159645   19.769955
  H     19.085368   15.865829   17.906242
  H     18.753729   13.864974   19.067693
  H     17.584972   12.514563   20.796584
  H     15.903503   13.600448   22.287613
  H     14.903728   15.474678   22.821993
  H     16.576762   17.371304   20.338268

 Total Charge           Charge          ....    0
 Multiplicity           Mult            ....    1
 Number of Electrons    NEL             ....  154
 Basis Dimension        Dim             ....  828

ORBITAL ENERGIES
----------------

  NO   OCC          E(Eh)            E(eV)
   0   2.0000     -91.887662     -2500.3904
   1   2.0000     -20.598365      -560.5100
   2   2.0000     -20.595806      -560.4404
   3   2.0000     -20.539771      -558.9156
   4   2.0000     -15.627656      -425.2501
   5   2.0000     -15.606861      -424.6843
   6   2.0000     -11.398203      -310.1609
   7   2.0000     -11.382633      -309.7372
   8   2.0000     -11.334461      -308.4264
   9   2.0000     -11.312865      -307.8387
  10   2.0000     -11.307159      -307.6834
  11   2.0000     -11.303356      -307.5799
  12   2.0000     -11.258669      -306.3639
  13   2.0000     -11.257728      -306.3384
  14   2.0000     -11.254468      -306.2496
  15   2.0000     -11.250878      -306.1519
  16   2.0000     -11.242143      -305.9143
  17   2.0000     -11.237386      -305.7848
  18   2.0000     -11.237328      -305.7832
  19   2.0000     -11.222452      -305.3784
  20   2.0000      -8.892737      -241.9837
  21   2.0000      -6.574316      -178.8962
  22   2.0000      -6.572309      -178.8416
  23   2.0000      -6.571725      -178.8257
  24   2.0000      -1.441947       -39.2374
  25   2.0000      -1.415446       -38.5162
  26   2.0000      -1.354255       -36.8511
  27   2.0000      -1.338777       -36.4300
  28   2.0000      -1.237229       -33.6667
  29   2.0000      -1.156467       -31.4691
  30   2.0000      -1.118540       -30.4370
  31   2.0000      -1.041534       -28.3416
  32   2.0000      -1.036469       -28.2038
  33   2.0000      -1.014134       -27.5960
  34   2.0000      -0.994279       -27.0557
  35   2.0000      -0.982525       -26.7359
  36   2.0000      -0.921215       -25.0675
  37   2.0000      -0.897856       -24.4319
  38   2.0000      -0.846198       -23.0262
  39   2.0000      -0.837061       -22.7776
  40   2.0000      -0.833131       -22.6706
  41   2.0000      -0.818052       -22.2603
  42   2.0000      -0.744416       -20.2566
  43   2.0000      -0.729482       -19.8502
  44   2.0000      -0.717366       -19.5205
  45   2.0000      -0.694802       -18.9065
  46   2.0000      -0.686912       -18.6918
  47   2.0000      -0.675280       -18.3753
  48   2.0000      -0.668029       -18.1780
  49   2.0000      -0.662370       -18.0240
  50   2.0000      -0.650197       -17.6928
  51   2.0000      -0.643558       -17.5121
  52   2.0000      -0.634705       -17.2712
  53   2.0000      -0.606008       -16.4903
  54   2.0000      -0.599763       -16.3204
  55   2.0000      -0.598115       -16.2755
  56   2.0000      -0.596728       -16.2378
  57   2.0000      -0.582240       -15.8436
  58   2.0000      -0.575292       -15.6545
  59   2.0000      -0.569797       -15.5050
  60   2.0000      -0.561012       -15.2659
  61   2.0000      -0.538480       -14.6528
  62   2.0000      -0.535073       -14.5601
  63   2.0000      -0.524508       -14.2726
  64   2.0000      -0.523383       -14.2420
  65   2.0000      -0.512011       -13.9325
  66   2.0000      -0.501495       -13.6464
  67   2.0000      -0.498200       -13.5567
  68   2.0000      -0.483770       -13.1641
  69   2.0000      -0.462571       -12.5872
  70   2.0000      -0.450512       -12.2591
  71   2.0000      -0.439669       -11.9640
  72   2.0000      -0.352754        -9.5989
  73   2.0000      -0.348429        -9.4812
  74   2.0000      -0.327137        -8.9018
  75   2.0000      -0.320518        -8.7217
  76   2.0000      -0.314868        -8.5680
  77   0.0000       0.077872         2.1190
  78   0.0000       0.107626         2.9286
  79   0.0000       0.125179         3.4063
  80   0.0000       0.133508         3.6329
  81   0.0000       0.137815         3.7501

MULLIKEN ATOMIC CHARGES
-----------------------
   0 C :   -0.284900
   1 C :    0.050226
   2 O :   -0.365857
   3 C :    0.456975
   4 O :   -0.431252
   5 C :   -0.199078
   6 C :    0.147071
   7 C :   -0.273019
   8 N :   -0.120294
   9 C :    0.212431
  10 S :   -0.442100
  11 N :   -0.204366
  12 C :    0.053057
  13 C :    0.070406
  14 C :   -0.187992
  15 C :   -0.131997
  16 C :   -0.280044
  17 C :    0.316401
  18 O :   -0.356701
  19 C :   -0.269715
  20 H :    0.111377
  21 H :    0.096366
  22 H :    0.107589
  23 H :    0.091645
  24 H :    0.092008
  25 H :    0.131426
  26 H :    0.130372
  27 H :    0.094781
  28 H :    0.197090
  29 H :    0.194303
  30 H :    0.148882
  31 H :    0.149512
  32 H :    0.160367
  33 H :    0.129599
  34 H :    0.240536
  35 H :    0.164894
Sum of atomic charges:   -0.0000000

LOEWDIN ATOMIC CHARGES
----------------------
   0 C :    0.102247
   1 C :   -0.008746
   2 O :    0.295086
   3 C :   -0.411709
   4 O :    0.107322
   5 C :   -0.093298
   6 C :   -0.059452
   7 C :    0.130465
   8 N :    0.406296
   9 C :   -0.456783
  10 S :   -0.037114
  11 N :    0.396438
  12 C :   -0.052928
  13 C :   -0.037929
  14 C :    0.014174
  15 C :    0.038443
  16 C :   -0.002368
  17 C :   -0.189502
  18 O :    0.395122
  19 C :    0.031370
  20 H :   -0.025229
  21 H :   -0.028129
  22 H :   -0.025034
  23 H :   -0.028341
  24 H :   -0.027130
  25 H :   -0.005014
  26 H :   -0.004433
  27 H :   -0.023758
  28 H :   -0.057830
  29 H :   -0.064785
  30 H :   -0.011728
  31 H :   -0.030446
  32 H :   -0.021614
  33 H :   -0.035817
  34 H :   -0.154072
  35 H :   -0.023776

  Mayer bond orders larger than 0.100000
B(  0-C ,  1-C ) :   0.9851 B(  0-C , 20-H ) :   0.9731 B(  0-C , 21-H ) :   0.9734
B(  0-C , 22-H ) :   0.9743 B(  1-C ,  2-O ) :   0.8982 B(  1-C , 23-H ) :   0.9730
B(  1-C , 24-H ) :   0.9798 B(  2-O ,  3-C ) :   1.1430 B(  3-C ,  4-O ) :   1.9760
B(  3-C ,  5-C ) :   1.0655 B(  5-C ,  6-C ) :   1.6558 B(  5-C , 12-C ) :   0.9767
B(  6-C ,  7-C ) :   0.9675 B(  6-C ,  8-N ) :   1.1611 B(  7-C , 25-H ) :   0.9604
B(  7-C , 26-H ) :   0.9604 B(  7-C , 27-H ) :   0.9910 B(  8-N ,  9-C ) :   1.1838
B(  8-N , 28-H ) :   0.9480 B(  9-C , 10-S ) :   1.6050 B(  9-C , 11-N ) :   1.3061
B( 11-N , 12-C ) :   0.9852 B( 11-N , 29-H ) :   0.9516 B( 12-C , 13-C ) :   0.9364
B( 12-C , 30-H ) :   1.0028 B( 13-C , 14-C ) :   1.3522 B( 13-C , 19-C ) :   1.3837
B( 14-C , 15-C ) :   1.3918 B( 14-C , 31-H ) :   0.9724 B( 15-C , 16-C ) :   1.3631
B( 15-C , 32-H ) :   0.9706 B( 16-C , 17-C ) :   1.3315 B( 16-C , 33-H ) :   0.9853
B( 17-C , 18-O ) :   1.1099 B( 17-C , 19-C ) :   1.3720 B( 18-O , 34-H ) :   0.9800
B( 19-C , 35-H ) :   0.9583

MP2 TOTAL ENERGY:    -1274.338516950 Eh
FINAL SINGLE POINT ENERGY     -1274.338516949997

DIPOLE MOMENT
-------------
                                X             Y             Z
Electronic contribution:      9.91935      10.05824       9.54961
Nuclear contribution   :    -10.93842     -11.87281      -9.95088
                        -----------------------------------------
Total Dipole Moment    :     -1.01907      -1.81457      -0.40127
                        -----------------------------------------
Magnitude (a.u.)       :      2.11948
Magnitude (Debye)      :      5.38728

Rotational constants in cm-1:     0.011283     0.008721     0.006041
Rotational constants in MHz :   338.270174   261.434900   181.098233

                             ****ORCA TERMINATED NORMALLY****
TOTAL RUN TIME: 0 days 1 hours 39 minutes 8 seconds 568 msec
