                         Program Version 4.2.0 -  RELEASE  -
|  1> ! ri-mp2 cc-pvtz cc-pvtz/c TightSCF  NoKeepInts
|  2>
|  3> %scf
|  4>   MaxCore 4096
|  5> end
|  6> *xyz  0  1
|  7>     C       15.3877974   13.7991882   16.5970031
|  8>     C       15.2405116   15.3294048   16.4695616
|  9>     O       16.4162611   15.9411355   15.8951368
| 10>     C       17.6258612   15.8238429   16.5175468
| 11>     O       18.1992948   14.7542227   16.6312051
| 12>     C       17.9374179   16.9897063   17.4057090
| 13>     C       17.5505824   18.2655947   17.1543234
| 14>     C       16.8006479   18.7796565   15.9431578
| 15>     N       17.9097710   19.2871961   18.0387011
| 16>     C       18.7397324   19.1329549   19.1180863
| 17>     S       19.1880126   20.4153896   20.0612189
| 18>     N       19.1776101   17.8586192   19.3785983
| 19>     C       18.7236263   16.6451371   18.6730308
| 20>     C       17.8821016   15.7677227   19.5958328
| 21>     C       18.2191179   14.4169696   19.7992567
| 22>     C       17.4317502   13.5989968   20.6266876
| 23>     C       16.2954490   14.1350374   21.2560224
| 24>     C       15.9539300   15.4788237   21.0526789
| 25>     O       14.8508983   15.9968712   21.6491636
| 26>     C       16.7393840   16.2905305   20.2284006
| 27>     H       15.7707861   13.3654631   15.6646919
| 28>     H       14.4171745   13.3387733   16.8164089
| 29>     H       16.0724279   13.5336439   17.4125373
| 30>     H       14.3795702   15.5496873   15.8255076
| 31>     H       15.0372951   15.7591432   17.4597911
| 32>     H       17.1713140   18.3094929   15.0234615
| 33>     H       16.9092224   19.8632803   15.8122726
| 34>     H       15.7297158   18.5575149   16.0258775
| 35>     H       17.6007737   20.2302908   17.8642429
| 36>     H       19.7645242   17.7689372   20.1981348
| 37>     H       19.6162349   16.0778269   18.3715258
| 38>     H       19.0849229   13.9942113   19.2950657
| 39>     H       17.7001351   12.5538012   20.7703032
| 40>     H       15.6830031   13.5056783   21.8931607
| 41>     H       14.4818137   15.3088527   22.2233940
| 42>     H       16.4583288   17.3284024   20.0863030
| 43> *
| 44>
| 45>                          ****END OF INPUT****

CARTESIAN COORDINATES (ANGSTROEM)
---------------------------------
  C     15.387797   13.799188   16.597003
  C     15.240512   15.329405   16.469562
  O     16.416261   15.941135   15.895137
  C     17.625861   15.823843   16.517547
  O     18.199295   14.754223   16.631205
  C     17.937418   16.989706   17.405709
  C     17.550582   18.265595   17.154323
  C     16.800648   18.779657   15.943158
  N     17.909771   19.287196   18.038701
  C     18.739732   19.132955   19.118086
  S     19.188013   20.415390   20.061219
  N     19.177610   17.858619   19.378598
  C     18.723626   16.645137   18.673031
  C     17.882102   15.767723   19.595833
  C     18.219118   14.416970   19.799257
  C     17.431750   13.598997   20.626688
  C     16.295449   14.135037   21.256022
  C     15.953930   15.478824   21.052679
  O     14.850898   15.996871   21.649164
  C     16.739384   16.290530   20.228401
  H     15.770786   13.365463   15.664692
  H     14.417174   13.338773   16.816409
  H     16.072428   13.533644   17.412537
  H     14.379570   15.549687   15.825508
  H     15.037295   15.759143   17.459791
  H     17.171314   18.309493   15.023461
  H     16.909222   19.863280   15.812273
  H     15.729716   18.557515   16.025877
  H     17.600774   20.230291   17.864243
  H     19.764524   17.768937   20.198135
  H     19.616235   16.077827   18.371526
  H     19.084923   13.994211   19.295066
  H     17.700135   12.553801   20.770303
  H     15.683003   13.505678   21.893161
  H     14.481814   15.308853   22.223394
  H     16.458329   17.328402   20.086303

 Total Charge           Charge          ....    0
 Multiplicity           Mult            ....    1
 Number of Electrons    NEL             ....  154
 Basis Dimension        Dim             ....  828

ORBITAL ENERGIES
----------------

  NO   OCC          E(Eh)            E(eV)
   0   2.0000     -91.889373     -2500.4370
   1   2.0000     -20.597041      -560.4740
   2   2.0000     -20.584240      -560.1256
   3   2.0000     -20.554760      -559.3235
   4   2.0000     -15.629090      -425.2892
   5   2.0000     -15.608838      -424.7381
   6   2.0000     -11.395435      -310.0856
   7   2.0000     -11.384869      -309.7980
   8   2.0000     -11.334835      -308.4365
   9   2.0000     -11.313301      -307.8506
  10   2.0000     -11.308515      -307.7203
  11   2.0000     -11.303607      -307.5868
  12   2.0000     -11.260466      -306.4128
  13   2.0000     -11.259215      -306.3788
  14   2.0000     -11.258673      -306.3641
  15   2.0000     -11.253247      -306.2164
  16   2.0000     -11.242905      -305.9350
  17   2.0000     -11.238941      -305.8271
  18   2.0000     -11.235939      -305.7455
  19   2.0000     -11.219782      -305.3058
  20   2.0000      -8.894449      -242.0303
  21   2.0000      -6.576027      -178.9428
  22   2.0000      -6.574018      -178.8881
  23   2.0000      -6.573433      -178.8722
  24   2.0000      -1.448209       -39.4078
  25   2.0000      -1.416826       -38.5538
  26   2.0000      -1.357603       -36.9423
  27   2.0000      -1.340199       -36.4687
  28   2.0000      -1.238470       -33.7005
  29   2.0000      -1.157387       -31.4941
  30   2.0000      -1.121629       -30.5211
  31   2.0000      -1.044776       -28.4298
  32   2.0000      -1.030474       -28.0406
  33   2.0000      -1.014844       -27.6153
  34   2.0000      -0.999815       -27.2064
  35   2.0000      -0.985060       -26.8048
  36   2.0000      -0.924181       -25.1482
  37   2.0000      -0.887631       -24.1537
  38   2.0000      -0.850134       -23.1333
  39   2.0000      -0.839622       -22.8473
  40   2.0000      -0.833400       -22.6780
  41   2.0000      -0.825864       -22.4729
  42   2.0000      -0.746334       -20.3088
  43   2.0000      -0.729312       -19.8456
  44   2.0000      -0.728715       -19.8294
  45   2.0000      -0.695123       -18.9153
  46   2.0000      -0.685952       -18.6657
  47   2.0000      -0.680822       -18.5261
  48   2.0000      -0.673003       -18.3133
  49   2.0000      -0.667333       -18.1591
  50   2.0000      -0.648113       -17.6361
  51   2.0000      -0.646341       -17.5878
  52   2.0000      -0.637003       -17.3337
  53   2.0000      -0.607003       -16.5174
  54   2.0000      -0.605638       -16.4803
  55   2.0000      -0.601584       -16.3699
  56   2.0000      -0.599885       -16.3237
  57   2.0000      -0.578089       -15.7306
  58   2.0000      -0.573744       -15.6124
  59   2.0000      -0.570909       -15.5352
  60   2.0000      -0.559880       -15.2351
  61   2.0000      -0.549795       -14.9607
  62   2.0000      -0.535398       -14.5689
  63   2.0000      -0.524323       -14.2676
  64   2.0000      -0.519748       -14.1431
  65   2.0000      -0.512078       -13.9343
  66   2.0000      -0.500505       -13.6194
  67   2.0000      -0.493278       -13.4228
  68   2.0000      -0.481523       -13.1029
  69   2.0000      -0.466255       -12.6874
  70   2.0000      -0.455884       -12.4052
  71   2.0000      -0.448361       -12.2005
  72   2.0000      -0.355046        -9.6613
  73   2.0000      -0.348998        -9.4967
  74   2.0000      -0.328711        -8.9447
  75   2.0000      -0.320393        -8.7183
  76   2.0000      -0.316565        -8.6142
  77   0.0000       0.071646         1.9496
  78   0.0000       0.104036         2.8310
  79   0.0000       0.120019         3.2659
  80   0.0000       0.131245         3.5714
  81   0.0000       0.137230         3.7342

MULLIKEN ATOMIC CHARGES
-----------------------
   0 C :   -0.273513
   1 C :    0.027026
   2 O :   -0.380396
   3 C :    0.462863
   4 O :   -0.396304
   5 C :   -0.211630
   6 C :    0.149669
   7 C :   -0.282529
   8 N :   -0.124603
   9 C :    0.203643
  10 S :   -0.439093
  11 N :   -0.203095
  12 C :    0.060084
  13 C :    0.054171
  14 C :   -0.175432
  15 C :   -0.131585
  16 C :   -0.279220
  17 C :    0.318298
  18 O :   -0.359684
  19 C :   -0.295902
  20 H :    0.105190
  21 H :    0.091390
  22 H :    0.113581
  23 H :    0.109757
  24 H :    0.089670
  25 H :    0.128496
  26 H :    0.105614
  27 H :    0.122428
  28 H :    0.197220
  29 H :    0.194753
  30 H :    0.154928
  31 H :    0.158287
  32 H :    0.162590
  33 H :    0.131115
  34 H :    0.241237
  35 H :    0.170974
Sum of atomic charges:   -0.0000000

LOEWDIN ATOMIC CHARGES
----------------------
   0 C :    0.106964
   1 C :   -0.018315
   2 O :    0.283860
   3 C :   -0.414446
   4 O :    0.133313
   5 C :   -0.095189
   6 C :   -0.072887
   7 C :    0.126137
   8 N :    0.404352
   9 C :   -0.457475
  10 S :   -0.035771
  11 N :    0.397108
  12 C :   -0.046017
  13 C :   -0.041449
  14 C :    0.021744
  15 C :    0.042025
  16 C :   -0.001715
  17 C :   -0.194276
  18 O :    0.393440
  19 C :    0.028090
  20 H :   -0.023124
  21 H :   -0.029180
  22 H :   -0.026508
  23 H :   -0.023439
  24 H :   -0.034556
  25 H :   -0.006750
  26 H :   -0.019539
  27 H :   -0.010537
  28 H :   -0.058573
  29 H :   -0.063978
  30 H :   -0.004947
  31 H :   -0.024475
  32 H :   -0.020162
  33 H :   -0.035400
  34 H :   -0.153706
  35 H :   -0.024621

  Mayer bond orders larger than 0.100000
B(  0-C ,  1-C ) :   0.9834 B(  0-C , 20-H ) :   0.9746 B(  0-C , 21-H ) :   0.9748
B(  0-C , 22-H ) :   0.9689 B(  1-C ,  2-O ) :   0.9001 B(  1-C , 23-H ) :   0.9797
B(  1-C , 24-H ) :   0.9699 B(  2-O ,  3-C ) :   1.0826 B(  3-C ,  4-O ) :   2.0382
B(  3-C ,  5-C ) :   1.0156 B(  5-C ,  6-C ) :   1.6643 B(  5-C , 12-C ) :   0.9637
B(  6-C ,  7-C ) :   0.9524 B(  6-C ,  8-N ) :   1.1422 B(  7-C , 25-H ) :   0.9688
B(  7-C , 26-H ) :   0.9879 B(  7-C , 27-H ) :   0.9648 B(  8-N ,  9-C ) :   1.1839
B(  8-N , 28-H ) :   0.9493 B(  9-C , 10-S ) :   1.6111 B(  9-C , 11-N ) :   1.3004
B( 11-N , 12-C ) :   0.9934 B( 11-N , 29-H ) :   0.9515 B( 12-C , 13-C ) :   0.9426
B( 12-C , 30-H ) :   0.9986 B( 13-C , 14-C ) :   1.3748 B( 13-C , 19-C ) :   1.3605
B( 14-C , 15-C ) :   1.3924 B( 14-C , 31-H ) :   0.9638 B( 15-C , 16-C ) :   1.3633
B( 15-C , 32-H ) :   0.9704 B( 16-C , 17-C ) :   1.3318 B( 16-C , 33-H ) :   0.9847
B( 17-C , 18-O ) :   1.1091 B( 17-C , 19-C ) :   1.3678 B( 18-O , 34-H ) :   0.9797
B( 19-C , 35-H ) :   0.9582

MP2 TOTAL ENERGY:    -1274.328407675 Eh
FINAL SINGLE POINT ENERGY     -1274.328407674831

DIPOLE MOMENT
-------------
                                X             Y             Z
Electronic contribution:     10.12894      10.07394       6.86638
Nuclear contribution   :    -11.62792     -11.15766      -7.39533
                        -----------------------------------------
Total Dipole Moment    :     -1.49898      -1.08373      -0.52895
                        -----------------------------------------
Magnitude (a.u.)       :      1.92385
Magnitude (Debye)      :      4.89003

Rotational constants in cm-1:     0.012264     0.009080     0.006545
Rotational constants in MHz :   367.661576   272.207442   196.216189

                             ****ORCA TERMINATED NORMALLY****
TOTAL RUN TIME: 0 days 1 hours 43 minutes 49 seconds 597 msec
