                         Program Version 4.2.0 -  RELEASE  -
|  1> ! ri-mp2 cc-pvtz cc-pvtz/c TightSCF  NoKeepInts
|  2>
|  3> %scf
|  4>   MaxCore 4096
|  5> end
|  6> *xyz  0  1
|  7>     C       14.6586431   14.4494811   17.2426776
|  8>     C       15.5999772   15.5595637   16.7488146
|  9>     O       16.9093479   14.9762550   16.6348011
| 10>     C       18.0587177   15.7104615   16.5050844
| 11>     O       19.0995501   15.1153095   16.2986287
| 12>     C       18.0833222   16.9210223   17.3743984
| 13>     C       17.5973762   18.1106816   16.9574686
| 14>     C       16.9795635   18.4096944   15.6089546
| 15>     N       17.6768366   19.2253949   17.7946208
| 16>     C       18.3033803   19.2386505   19.0144499
| 17>     S       18.3949996   20.6150565   19.9261194
| 18>     N       18.8428535   18.0507594   19.4465083
| 19>     C       18.7245851   16.7535580   18.7498031
| 20>     C       17.9475215   15.7397620   19.5834303
| 21>     C       18.4044171   14.4132298   19.6860858
| 22>     C       17.6799449   13.4614372   20.4227298
| 23>     C       16.4849388   13.8371425   21.0593883
| 24>     C       16.0220093   15.1553649   20.9522728
| 25>     O       14.8592331   15.5172148   21.5502480
| 26>     C       16.7454504   16.1014903   20.2195689
| 27>     H       15.0000579   14.0590250   18.2099029
| 28>     H       14.6311243   13.6186447   16.5266320
| 29>     H       13.6387713   14.8327472   17.3674368
| 30>     H       15.2622594   15.9469386   15.7789979
| 31>     H       15.5821645   16.3710287   17.4870304
| 32>     H       17.1901930   17.6243284   14.8724991
| 33>     H       17.3790532   19.3436281   15.1929976
| 34>     H       15.8907999   18.5157823   15.6892158
| 35>     H       17.2971904   20.1092390   17.4931681
| 36>     H       19.2778817   18.0866095   20.3598080
| 37>     H       19.7410970   16.3625627   18.5949445
| 38>     H       19.3161615   14.1141253   19.1735459
| 39>     H       18.0413328   12.4366243   20.4884920
| 40>     H       15.9201019   13.1032197   21.6245617
| 41>     H       14.5405104   14.7510054   22.0510864
| 42>     H       16.3656329   17.1149611   20.1476274
| 43> *
| 44>
| 45>                          ****END OF INPUT****

CARTESIAN COORDINATES (ANGSTROEM)
---------------------------------
  C     14.658643   14.449481   17.242678
  C     15.599977   15.559564   16.748815
  O     16.909348   14.976255   16.634801
  C     18.058718   15.710461   16.505084
  O     19.099550   15.115309   16.298629
  C     18.083322   16.921022   17.374398
  C     17.597376   18.110682   16.957469
  C     16.979563   18.409694   15.608955
  N     17.676837   19.225395   17.794621
  C     18.303380   19.238650   19.014450
  S     18.395000   20.615057   19.926119
  N     18.842853   18.050759   19.446508
  C     18.724585   16.753558   18.749803
  C     17.947522   15.739762   19.583430
  C     18.404417   14.413230   19.686086
  C     17.679945   13.461437   20.422730
  C     16.484939   13.837143   21.059388
  C     16.022009   15.155365   20.952273
  O     14.859233   15.517215   21.550248
  C     16.745450   16.101490   20.219569
  H     15.000058   14.059025   18.209903
  H     14.631124   13.618645   16.526632
  H     13.638771   14.832747   17.367437
  H     15.262259   15.946939   15.778998
  H     15.582164   16.371029   17.487030
  H     17.190193   17.624328   14.872499
  H     17.379053   19.343628   15.192998
  H     15.890800   18.515782   15.689216
  H     17.297190   20.109239   17.493168
  H     19.277882   18.086610   20.359808
  H     19.741097   16.362563   18.594945
  H     19.316161   14.114125   19.173546
  H     18.041333   12.436624   20.488492
  H     15.920102   13.103220   21.624562
  H     14.540510   14.751005   22.051086
  H     16.365633   17.114961   20.147627

 Total Charge           Charge          ....    0
 Multiplicity           Mult            ....    1
 Number of Electrons    NEL             ....  154
 Basis Dimension        Dim             ....  828

ORBITAL ENERGIES
----------------

  NO   OCC          E(Eh)            E(eV)
   0   2.0000     -91.888415     -2500.4109
   1   2.0000     -20.602738      -560.6290
   2   2.0000     -20.599754      -560.5478
   3   2.0000     -20.554954      -559.3287
   4   2.0000     -15.624069      -425.1525
   5   2.0000     -15.611122      -424.8002
   6   2.0000     -11.395974      -310.1002
   7   2.0000     -11.385480      -309.8147
   8   2.0000     -11.323397      -308.1253
   9   2.0000     -11.316294      -307.9320
  10   2.0000     -11.316158      -307.9283
  11   2.0000     -11.303511      -307.5842
  12   2.0000     -11.270179      -306.6772
  13   2.0000     -11.263749      -306.5022
  14   2.0000     -11.263104      -306.4846
  15   2.0000     -11.256285      -306.2991
  16   2.0000     -11.245412      -306.0032
  17   2.0000     -11.241644      -305.9007
  18   2.0000     -11.238887      -305.8257
  19   2.0000     -11.230438      -305.5958
  20   2.0000      -8.893553      -242.0059
  21   2.0000      -6.575148      -178.9189
  22   2.0000      -6.573115      -178.8636
  23   2.0000      -6.572547      -178.8481
  24   2.0000      -1.453438       -39.5501
  25   2.0000      -1.419549       -38.6279
  26   2.0000      -1.362006       -37.0621
  27   2.0000      -1.338116       -36.4120
  28   2.0000      -1.238554       -33.7028
  29   2.0000      -1.160721       -31.5848
  30   2.0000      -1.124998       -30.6128
  31   2.0000      -1.048787       -28.5390
  32   2.0000      -1.040027       -28.3006
  33   2.0000      -1.018245       -27.7079
  34   2.0000      -1.004494       -27.3337
  35   2.0000      -0.988253       -26.8917
  36   2.0000      -0.927421       -25.2364
  37   2.0000      -0.881044       -23.9744
  38   2.0000      -0.854125       -23.2419
  39   2.0000      -0.840801       -22.8794
  40   2.0000      -0.836616       -22.7655
  41   2.0000      -0.836348       -22.7582
  42   2.0000      -0.758286       -20.6340
  43   2.0000      -0.738386       -20.0925
  44   2.0000      -0.731141       -19.8954
  45   2.0000      -0.698212       -18.9993
  46   2.0000      -0.689470       -18.7614
  47   2.0000      -0.683104       -18.5882
  48   2.0000      -0.676994       -18.4219
  49   2.0000      -0.660690       -17.9783
  50   2.0000      -0.657259       -17.8849
  51   2.0000      -0.648271       -17.6403
  52   2.0000      -0.639273       -17.3955
  53   2.0000      -0.611678       -16.6446
  54   2.0000      -0.608988       -16.5714
  55   2.0000      -0.605250       -16.4697
  56   2.0000      -0.600871       -16.3505
  57   2.0000      -0.586418       -15.9572
  58   2.0000      -0.577831       -15.7236
  59   2.0000      -0.567258       -15.4359
  60   2.0000      -0.560853       -15.2616
  61   2.0000      -0.553872       -15.0716
  62   2.0000      -0.548107       -14.9147
  63   2.0000      -0.528994       -14.3946
  64   2.0000      -0.520126       -14.1534
  65   2.0000      -0.514147       -13.9907
  66   2.0000      -0.504637       -13.7319
  67   2.0000      -0.501713       -13.6523
  68   2.0000      -0.488673       -13.2975
  69   2.0000      -0.468799       -12.7567
  70   2.0000      -0.455284       -12.3889
  71   2.0000      -0.451867       -12.2959
  72   2.0000      -0.355419        -9.6714
  73   2.0000      -0.351260        -9.5583
  74   2.0000      -0.328307        -8.9337
  75   2.0000      -0.323793        -8.8109
  76   2.0000      -0.316622        -8.6157
  77   0.0000       0.090633         2.4663
  78   0.0000       0.102100         2.7783
  79   0.0000       0.107511         2.9255
  80   0.0000       0.126689         3.4474
  81   0.0000       0.129961         3.5364

MULLIKEN ATOMIC CHARGES
-----------------------
   0 C :   -0.263550
   1 C :    0.000058
   2 O :   -0.301664
   3 C :    0.382801
   4 O :   -0.369411
   5 C :   -0.153540
   6 C :    0.116229
   7 C :   -0.323199
   8 N :   -0.134854
   9 C :    0.206966
  10 S :   -0.444007
  11 N :   -0.213255
  12 C :    0.054630
  13 C :    0.037869
  14 C :   -0.184400
  15 C :   -0.126992
  16 C :   -0.280132
  17 C :    0.301365
  18 O :   -0.361078
  19 C :   -0.269194
  20 H :    0.111134
  21 H :    0.104671
  22 H :    0.088231
  23 H :    0.106231
  24 H :    0.098891
  25 H :    0.121781
  26 H :    0.133459
  27 H :    0.123716
  28 H :    0.195046
  29 H :    0.198175
  30 H :    0.165401
  31 H :    0.161595
  32 H :    0.162740
  33 H :    0.133210
  34 H :    0.241885
  35 H :    0.179191
Sum of atomic charges:   -0.0000000

LOEWDIN ATOMIC CHARGES
----------------------
   0 C :    0.113039
   1 C :   -0.029847
   2 O :    0.322368
   3 C :   -0.422175
   4 O :    0.134644
   5 C :   -0.080079
   6 C :   -0.112524
   7 C :    0.123800
   8 N :    0.399532
   9 C :   -0.455053
  10 S :   -0.040336
  11 N :    0.397390
  12 C :   -0.042448
  13 C :   -0.040424
  14 C :    0.024922
  15 C :    0.046319
  16 C :   -0.000914
  17 C :   -0.194071
  18 O :    0.394769
  19 C :    0.027847
  20 H :   -0.022339
  21 H :   -0.025724
  22 H :   -0.025415
  23 H :   -0.037312
  24 H :   -0.038573
  25 H :   -0.010174
  26 H :   -0.010571
  27 H :   -0.016637
  28 H :   -0.059385
  29 H :   -0.063714
  30 H :   -0.002433
  31 H :   -0.022815
  32 H :   -0.018685
  33 H :   -0.035025
  34 H :   -0.153027
  35 H :   -0.024931

  Mayer bond orders larger than 0.100000
B(  0-C ,  1-C ) :   0.9823 B(  0-C , 20-H ) :   0.9734 B(  0-C , 21-H ) :   0.9806
B(  0-C , 22-H ) :   0.9762 B(  1-C ,  2-O ) :   0.9196 B(  1-C , 23-H ) :   0.9758
B(  1-C , 24-H ) :   0.9610 B(  2-O ,  3-C ) :   1.1396 B(  3-C ,  4-O ) :   2.1007
B(  3-C ,  5-C ) :   0.9203 B(  5-C ,  6-C ) :   1.7070 B(  5-C , 12-C ) :   0.9663
B(  6-C ,  7-C ) :   0.9389 B(  6-C ,  8-N ) :   1.1058 B(  7-C , 25-H ) :   0.9823
B(  7-C , 26-H ) :   0.9738 B(  7-C , 27-H ) :   0.9653 B(  8-N ,  9-C ) :   1.1998
B(  8-N , 28-H ) :   0.9534 B(  9-C , 10-S ) :   1.6080 B(  9-C , 11-N ) :   1.2850
B( 11-N , 12-C ) :   0.9980 B( 11-N , 29-H ) :   0.9486 B( 12-C , 13-C ) :   0.9460
B( 12-C , 30-H ) :   0.9975 B( 13-C , 14-C ) :   1.3855 B( 13-C , 19-C ) :   1.3429
B( 14-C , 15-C ) :   1.3976 B( 14-C , 31-H ) :   0.9641 B( 15-C , 16-C ) :   1.3607
B( 15-C , 32-H ) :   0.9705 B( 16-C , 17-C ) :   1.3301 B( 16-C , 33-H ) :   0.9848
B( 17-C , 18-O ) :   1.1052 B( 17-C , 19-C ) :   1.3701 B( 18-O , 34-H ) :   0.9791
B( 19-C , 35-H ) :   0.9560

MP2 TOTAL ENERGY:    -1274.324487155 Eh
FINAL SINGLE POINT ENERGY     -1274.324487155093

DIPOLE MOMENT
-------------
                                X             Y             Z
Electronic contribution:     10.61878       8.06094       6.23052
Nuclear contribution   :    -12.20649      -9.15204      -6.81944
                        -----------------------------------------
Total Dipole Moment    :     -1.58771      -1.09110      -0.58892
                        -----------------------------------------
Magnitude (a.u.)       :      2.01449
Magnitude (Debye)      :      5.12042

Rotational constants in cm-1:     0.012686     0.008988     0.006921
Rotational constants in MHz :   380.325340   269.464420   207.489874

                             ****ORCA TERMINATED NORMALLY****
TOTAL RUN TIME: 0 days 1 hours 48 minutes 40 seconds 545 msec
