                         Program Version 4.2.0 -  RELEASE  -
|  1> ! ri-mp2 cc-pvtz cc-pvtz/c TightSCF  NoKeepInts
|  2>
|  3> %scf
|  4>   MaxCore 4096
|  5> end
|  6> *xyz  0  1
|  7>     C       15.4533986   13.3788068   16.1788672
|  8>     C       15.7142492   14.7062930   16.9087809
|  9>     O       16.9212184   15.2656549   16.3565329
| 10>     C       16.9692382   16.6182578   16.1918918
| 11>     O       16.2333437   17.1477754   15.3787721
| 12>     C       17.5773595   17.3472439   17.3616424
| 13>     C       17.4220430   18.6841868   17.5482042
| 14>     C       16.5778998   19.6384315   16.7303327
| 15>     N       18.1314176   19.3353820   18.5625784
| 16>     C       19.1602784   18.7759813   19.2729820
| 17>     S       20.0811289   19.6583722   20.3259800
| 18>     N       19.3978777   17.4432999   19.0514481
| 19>     C       18.5000169   16.5481836   18.2997031
| 20>     C       17.7439292   15.6688043   19.2888590
| 21>     C       18.0857988   14.3106450   19.4326914
| 22>     C       17.3949299   13.4921780   20.3420220
| 23>     C       16.3587493   14.0370057   21.1194243
| 24>     C       16.0236931   15.3914626   20.9876630
| 25>     O       15.0246213   15.9209841   21.7370889
| 26>     C       16.7106312   16.2032150   20.0797538
| 27>     H       14.5311339   12.9123519   16.5456059
| 28>     H       16.2822910   12.6790637   16.3420471
| 29>     H       15.3483026   13.5472070   15.0995767
| 30>     H       14.8601113   15.3757717   16.7355174
| 31>     H       15.8021937   14.5338072   17.9864557
| 32>     H       15.5338972   19.3015703   16.6992562
| 33>     H       16.9383933   19.6809546   15.6944942
| 34>     H       16.5816867   20.6612815   17.1247934
| 35>     H       17.9788525   20.3181936   18.7241097
| 36>     H       20.1474302   17.0515131   19.6069879
| 37>     H       19.1265814   15.8986629   17.6719654
| 38>     H       18.8854236   13.8855268   18.8315544
| 39>     H       17.6645635   12.4421345   20.4436933
| 40>     H       15.8235047   13.4088884   21.8242000
| 41>     H       14.7192770   15.2320492   22.3466768
| 42>     H       16.4415350   17.2508599   20.0018476
| 43> *
| 44>
| 45>                          ****END OF INPUT****

CARTESIAN COORDINATES (ANGSTROEM)
---------------------------------
  C     15.453399   13.378807   16.178867
  C     15.714249   14.706293   16.908781
  O     16.921218   15.265655   16.356533
  C     16.969238   16.618258   16.191892
  O     16.233344   17.147775   15.378772
  C     17.577359   17.347244   17.361642
  C     17.422043   18.684187   17.548204
  C     16.577900   19.638431   16.730333
  N     18.131418   19.335382   18.562578
  C     19.160278   18.775981   19.272982
  S     20.081129   19.658372   20.325980
  N     19.397878   17.443300   19.051448
  C     18.500017   16.548184   18.299703
  C     17.743929   15.668804   19.288859
  C     18.085799   14.310645   19.432691
  C     17.394930   13.492178   20.342022
  C     16.358749   14.037006   21.119424
  C     16.023693   15.391463   20.987663
  O     15.024621   15.920984   21.737089
  C     16.710631   16.203215   20.079754
  H     14.531134   12.912352   16.545606
  H     16.282291   12.679064   16.342047
  H     15.348303   13.547207   15.099577
  H     14.860111   15.375772   16.735517
  H     15.802194   14.533807   17.986456
  H     15.533897   19.301570   16.699256
  H     16.938393   19.680955   15.694494
  H     16.581687   20.661281   17.124793
  H     17.978852   20.318194   18.724110
  H     20.147430   17.051513   19.606988
  H     19.126581   15.898663   17.671965
  H     18.885424   13.885527   18.831554
  H     17.664563   12.442134   20.443693
  H     15.823505   13.408888   21.824200
  H     14.719277   15.232049   22.346677
  H     16.441535   17.250860   20.001848

 Total Charge           Charge          ....    0
 Multiplicity           Mult            ....    1
 Number of Electrons    NEL             ....  154
 Basis Dimension        Dim             ....  828

ORBITAL ENERGIES
----------------

  NO   OCC          E(Eh)            E(eV)
   0   2.0000     -91.891101     -2500.4840
   1   2.0000     -20.601944      -560.6074
   2   2.0000     -20.581539      -560.0522
   3   2.0000     -20.548281      -559.1472
   4   2.0000     -15.631640      -425.3585
   5   2.0000     -15.610009      -424.7700
   6   2.0000     -11.392796      -310.0137
   7   2.0000     -11.385680      -309.8201
   8   2.0000     -11.338058      -308.5242
   9   2.0000     -11.319905      -308.0303
  10   2.0000     -11.312343      -307.8245
  11   2.0000     -11.292457      -307.2834
  12   2.0000     -11.264222      -306.5151
  13   2.0000     -11.261206      -306.4330
  14   2.0000     -11.260167      -306.4047
  15   2.0000     -11.253770      -306.2306
  16   2.0000     -11.248829      -306.0962
  17   2.0000     -11.243270      -305.9449
  18   2.0000     -11.243130      -305.9411
  19   2.0000     -11.223306      -305.4017
  20   2.0000      -8.896128      -242.0759
  21   2.0000      -6.577693      -178.9881
  22   2.0000      -6.575699      -178.9339
  23   2.0000      -6.575103      -178.9176
  24   2.0000      -1.448531       -39.4165
  25   2.0000      -1.421618       -38.6842
  26   2.0000      -1.351969       -36.7890
  27   2.0000      -1.342743       -36.5379
  28   2.0000      -1.241115       -33.7725
  29   2.0000      -1.162544       -31.6344
  30   2.0000      -1.121665       -30.5221
  31   2.0000      -1.046435       -28.4749
  32   2.0000      -1.033019       -28.1099
  33   2.0000      -1.020782       -27.7769
  34   2.0000      -0.998289       -27.1648
  35   2.0000      -0.985982       -26.8299
  36   2.0000      -0.925877       -25.1944
  37   2.0000      -0.877602       -23.8808
  38   2.0000      -0.849701       -23.1215
  39   2.0000      -0.843116       -22.9424
  40   2.0000      -0.838870       -22.8268
  41   2.0000      -0.828969       -22.5574
  42   2.0000      -0.760616       -20.6974
  43   2.0000      -0.736356       -20.0373
  44   2.0000      -0.724398       -19.7119
  45   2.0000      -0.701147       -19.0792
  46   2.0000      -0.691884       -18.8271
  47   2.0000      -0.678700       -18.4684
  48   2.0000      -0.671972       -18.2853
  49   2.0000      -0.656897       -17.8751
  50   2.0000      -0.648829       -17.6555
  51   2.0000      -0.644855       -17.5474
  52   2.0000      -0.633534       -17.2393
  53   2.0000      -0.616050       -16.7636
  54   2.0000      -0.612504       -16.6671
  55   2.0000      -0.603797       -16.4301
  56   2.0000      -0.601164       -16.3585
  57   2.0000      -0.582191       -15.8422
  58   2.0000      -0.572746       -15.5852
  59   2.0000      -0.566039       -15.4027
  60   2.0000      -0.559121       -15.2145
  61   2.0000      -0.540729       -14.7140
  62   2.0000      -0.535578       -14.5738
  63   2.0000      -0.530050       -14.4234
  64   2.0000      -0.517460       -14.0808
  65   2.0000      -0.511251       -13.9119
  66   2.0000      -0.505460       -13.7543
  67   2.0000      -0.496692       -13.5157
  68   2.0000      -0.488634       -13.2964
  69   2.0000      -0.465463       -12.6659
  70   2.0000      -0.453916       -12.3517
  71   2.0000      -0.444993       -12.1089
  72   2.0000      -0.358180        -9.7466
  73   2.0000      -0.354683        -9.6514
  74   2.0000      -0.331191        -9.0122
  75   2.0000      -0.327158        -8.9024
  76   2.0000      -0.318079        -8.6554
  77   0.0000       0.067740         1.8433
  78   0.0000       0.101769         2.7693
  79   0.0000       0.121805         3.3145
  80   0.0000       0.126929         3.4539
  81   0.0000       0.132256         3.5989

MULLIKEN ATOMIC CHARGES
-----------------------
   0 C :   -0.260300
   1 C :    0.029068
   2 O :   -0.385744
   3 C :    0.497971
   4 O :   -0.403653
   5 C :   -0.275741
   6 C :    0.154840
   7 C :   -0.269168
   8 N :   -0.124483
   9 C :    0.212756
  10 S :   -0.436074
  11 N :   -0.199608
  12 C :    0.048835
  13 C :    0.027916
  14 C :   -0.171859
  15 C :   -0.132704
  16 C :   -0.274965
  17 C :    0.305393
  18 O :   -0.356477
  19 C :   -0.241050
  20 H :    0.084654
  21 H :    0.091003
  22 H :    0.105383
  23 H :    0.102650
  24 H :    0.116314
  25 H :    0.129095
  26 H :    0.135074
  27 H :    0.094627
  28 H :    0.198596
  29 H :    0.192411
  30 H :    0.148868
  31 H :    0.150427
  32 H :    0.162739
  33 H :    0.133403
  34 H :    0.241969
  35 H :    0.167835
Sum of atomic charges:    0.0000000

LOEWDIN ATOMIC CHARGES
----------------------
   0 C :    0.108480
   1 C :   -0.014545
   2 O :    0.287561
   3 C :   -0.421680
   4 O :    0.119968
   5 C :   -0.099107
   6 C :   -0.057945
   7 C :    0.130808
   8 N :    0.407099
   9 C :   -0.456648
  10 S :   -0.032278
  11 N :    0.396254
  12 C :   -0.053427
  13 C :   -0.038919
  14 C :    0.012861
  15 C :    0.041670
  16 C :   -0.001597
  17 C :   -0.190623
  18 O :    0.396692
  19 C :    0.030730
  20 H :   -0.027329
  21 H :   -0.029436
  22 H :   -0.023449
  23 H :   -0.029924
  24 H :   -0.033638
  25 H :   -0.005503
  26 H :   -0.003065
  27 H :   -0.023225
  28 H :   -0.057383
  29 H :   -0.065345
  30 H :   -0.006835
  31 H :   -0.029238
  32 H :   -0.019533
  33 H :   -0.034252
  34 H :   -0.152509
  35 H :   -0.024688

  Mayer bond orders larger than 0.100000
B(  0-C ,  1-C ) :   0.9853 B(  0-C , 20-H ) :   0.9761 B(  0-C , 21-H ) :   0.9797
B(  0-C , 22-H ) :   0.9796 B(  1-C ,  2-O ) :   0.8705 B(  1-C , 23-H ) :   0.9743
B(  1-C , 24-H ) :   0.9642 B(  2-O ,  3-C ) :   1.1033 B(  3-C ,  4-O ) :   2.0210
B(  3-C ,  5-C ) :   1.0605 B(  5-C ,  6-C ) :   1.6515 B(  5-C , 12-C ) :   0.9714
B(  6-C ,  7-C ) :   0.9701 B(  6-C ,  8-N ) :   1.1559 B(  7-C , 25-H ) :   0.9631
B(  7-C , 26-H ) :   0.9573 B(  7-C , 27-H ) :   0.9891 B(  8-N ,  9-C ) :   1.1788
B(  8-N , 28-H ) :   0.9479 B(  9-C , 10-S ) :   1.6126 B(  9-C , 11-N ) :   1.3033
B( 11-N , 12-C ) :   0.9713 B( 11-N , 29-H ) :   0.9540 B( 12-C , 13-C ) :   0.9446
B( 12-C , 30-H ) :   1.0027 B( 13-C , 14-C ) :   1.3530 B( 13-C , 19-C ) :   1.3767
B( 14-C , 15-C ) :   1.3926 B( 14-C , 31-H ) :   0.9731 B( 15-C , 16-C ) :   1.3635
B( 15-C , 32-H ) :   0.9705 B( 16-C , 17-C ) :   1.3270 B( 16-C , 33-H ) :   0.9841
B( 17-C , 18-O ) :   1.1149 B( 17-C , 19-C ) :   1.3777 B( 18-O , 34-H ) :   0.9787
B( 19-C , 35-H ) :   0.9564

MP2 TOTAL ENERGY:    -1274.328365327 Eh
FINAL SINGLE POINT ENERGY     -1274.328365326787

DIPOLE MOMENT
-------------
                                X             Y             Z
Electronic contribution:     10.09326      10.49347       6.39011
Nuclear contribution   :    -11.18756     -11.93330      -6.15330
                        -----------------------------------------
Total Dipole Moment    :     -1.09430      -1.43983       0.23682
                        -----------------------------------------
Magnitude (a.u.)       :      1.82391
Magnitude (Debye)      :      4.63602

Rotational constants in cm-1:     0.012144     0.008936     0.006337
Rotational constants in MHz :   364.073856   267.887996   189.991075

                             ****ORCA TERMINATED NORMALLY****
TOTAL RUN TIME: 0 days 1 hours 48 minutes 31 seconds 379 msec
