                         Program Version 4.2.0 -  RELEASE  -
|  1> ! ri-mp2 cc-pvtz cc-pvtz/c TightSCF  NoKeepInts
|  2>
|  3> %scf
|  4>   MaxCore 4096
|  5> end
|  6> *xyz  0  1
|  7>     C       15.0715036   14.6171992   16.9363595
|  8>     C       16.4469115   13.9821252   16.6248247
|  9>     O       17.5135974   14.9444024   16.4300923
| 10>     C       17.2801985   16.2700151   16.1939698
| 11>     O       16.5998991   16.6336969   15.2506754
| 12>     C       17.7410077   17.1653513   17.3127806
| 13>     C       17.4908931   18.4999075   17.3240924
| 14>     C       16.7017173   19.2956876   16.3065367
| 15>     N       18.0232346   19.3036679   18.3369856
| 16>     C       18.9394271   18.8850552   19.2648215
| 17>     S       19.6353872   19.9293219   20.3422186
| 18>     N       19.2586298   17.5512203   19.2482348
| 19>     C       18.5634493   16.5280045   18.4462824
| 20>     C       17.7186617   15.6556075   19.3693782
| 21>     C       18.0907678   14.3222680   19.6243522
| 22>     C       17.3177754   13.5142755   20.4750946
| 23>     C       16.1673566   14.0457953   21.0823336
| 24>     C       15.8021777   15.3775056   20.8425899
| 25>     O       14.6934256   15.8946525   21.4287470
| 26>     C       16.5733599   16.1790621   19.9954531
| 27>     H       15.1342433   15.3176352   17.7765492
| 28>     H       14.3503798   13.8364986   17.2063021
| 29>     H       14.6693266   15.1474771   16.0642353
| 30>     H       16.7232595   13.2990756   17.4376843
| 31>     H       16.3461964   13.3785975   15.7134245
| 32>     H       17.1670363   19.2228192   15.3151736
| 33>     H       16.6250407   20.3597007   16.5590307
| 34>     H       15.6807443   18.9029468   16.2176402
| 35>     H       17.8067839   20.2875008   18.3564202
| 36>     H       19.9150780   17.2664881   19.9636602
| 37>     H       19.3332687   15.8957275   17.9817343
| 38>     H       18.9794286   13.9084456   19.1548988
| 39>     H       17.6121509   12.4831811   20.6638298
| 40>     H       15.5673022   13.4260891   21.7407016
| 41>     H       14.3292365   15.2153818   22.0162032
| 42>     H       16.2781435   17.2096136   19.8306891
| 43> *
| 44>
| 45>                          ****END OF INPUT****

CARTESIAN COORDINATES (ANGSTROEM)
---------------------------------
  C     15.071504   14.617199   16.936359
  C     16.446911   13.982125   16.624825
  O     17.513597   14.944402   16.430092
  C     17.280199   16.270015   16.193970
  O     16.599899   16.633697   15.250675
  C     17.741008   17.165351   17.312781
  C     17.490893   18.499907   17.324092
  C     16.701717   19.295688   16.306537
  N     18.023235   19.303668   18.336986
  C     18.939427   18.885055   19.264821
  S     19.635387   19.929322   20.342219
  N     19.258630   17.551220   19.248235
  C     18.563449   16.528005   18.446282
  C     17.718662   15.655608   19.369378
  C     18.090768   14.322268   19.624352
  C     17.317775   13.514275   20.475095
  C     16.167357   14.045795   21.082334
  C     15.802178   15.377506   20.842590
  O     14.693426   15.894652   21.428747
  C     16.573360   16.179062   19.995453
  H     15.134243   15.317635   17.776549
  H     14.350380   13.836499   17.206302
  H     14.669327   15.147477   16.064235
  H     16.723260   13.299076   17.437684
  H     16.346196   13.378597   15.713424
  H     17.167036   19.222819   15.315174
  H     16.625041   20.359701   16.559031
  H     15.680744   18.902947   16.217640
  H     17.806784   20.287501   18.356420
  H     19.915078   17.266488   19.963660
  H     19.333269   15.895727   17.981734
  H     18.979429   13.908446   19.154899
  H     17.612151   12.483181   20.663830
  H     15.567302   13.426089   21.740702
  H     14.329236   15.215382   22.016203
  H     16.278143   17.209614   19.830689

 Total Charge           Charge          ....    0
 Multiplicity           Mult            ....    1
 Number of Electrons    NEL             ....  154
 Basis Dimension        Dim             ....  828

ORBITAL ENERGIES
----------------

  NO   OCC          E(Eh)            E(eV)
   0   2.0000     -91.890286     -2500.4618
   1   2.0000     -20.600833      -560.5772
   2   2.0000     -20.584044      -560.1203
   3   2.0000     -20.544190      -559.0358
   4   2.0000     -15.630668      -425.3321
   5   2.0000     -15.609326      -424.7513
   6   2.0000     -11.393740      -310.0394
   7   2.0000     -11.385080      -309.8038
   8   2.0000     -11.337129      -308.4990
   9   2.0000     -11.318220      -307.9844
  10   2.0000     -11.310832      -307.7834
  11   2.0000     -11.298767      -307.4551
  12   2.0000     -11.263465      -306.4945
  13   2.0000     -11.259934      -306.3984
  14   2.0000     -11.259053      -306.3744
  15   2.0000     -11.252989      -306.2094
  16   2.0000     -11.247662      -306.0644
  17   2.0000     -11.242409      -305.9215
  18   2.0000     -11.242241      -305.9169
  19   2.0000     -11.223447      -305.4055
  20   2.0000      -8.895327      -242.0541
  21   2.0000      -6.576895      -178.9664
  22   2.0000      -6.574897      -178.9121
  23   2.0000      -6.574305      -178.8959
  24   2.0000      -1.442884       -39.2629
  25   2.0000      -1.420518       -38.6543
  26   2.0000      -1.350123       -36.7387
  27   2.0000      -1.341672       -36.5087
  28   2.0000      -1.240104       -33.7450
  29   2.0000      -1.161463       -31.6050
  30   2.0000      -1.121205       -30.5095
  31   2.0000      -1.045468       -28.4486
  32   2.0000      -1.031285       -28.0627
  33   2.0000      -1.019801       -27.7502
  34   2.0000      -0.997866       -27.1533
  35   2.0000      -0.986022       -26.8310
  36   2.0000      -0.924776       -25.1644
  37   2.0000      -0.896524       -24.3957
  38   2.0000      -0.848683       -23.0938
  39   2.0000      -0.842360       -22.9218
  40   2.0000      -0.838283       -22.8108
  41   2.0000      -0.818462       -22.2715
  42   2.0000      -0.744594       -20.2614
  43   2.0000      -0.734297       -19.9812
  44   2.0000      -0.720729       -19.6120
  45   2.0000      -0.699852       -19.0439
  46   2.0000      -0.690975       -18.8024
  47   2.0000      -0.672912       -18.3109
  48   2.0000      -0.670980       -18.2583
  49   2.0000      -0.660186       -17.9646
  50   2.0000      -0.653236       -17.7755
  51   2.0000      -0.643654       -17.5147
  52   2.0000      -0.636327       -17.3153
  53   2.0000      -0.624870       -17.0036
  54   2.0000      -0.611282       -16.6338
  55   2.0000      -0.603508       -16.4223
  56   2.0000      -0.600834       -16.3495
  57   2.0000      -0.581024       -15.8105
  58   2.0000      -0.571745       -15.5580
  59   2.0000      -0.566373       -15.4118
  60   2.0000      -0.547168       -14.8892
  61   2.0000      -0.543521       -14.7900
  62   2.0000      -0.534666       -14.5490
  63   2.0000      -0.528690       -14.3864
  64   2.0000      -0.525638       -14.3033
  65   2.0000      -0.515394       -14.0246
  66   2.0000      -0.503883       -13.7114
  67   2.0000      -0.495808       -13.4916
  68   2.0000      -0.485729       -13.2174
  69   2.0000      -0.463136       -12.6026
  70   2.0000      -0.455262       -12.3883
  71   2.0000      -0.442122       -12.0308
  72   2.0000      -0.355895        -9.6844
  73   2.0000      -0.353240        -9.6122
  74   2.0000      -0.329998        -8.9797
  75   2.0000      -0.325828        -8.8662
  76   2.0000      -0.317469        -8.6388
  77   0.0000       0.070990         1.9317
  78   0.0000       0.101390         2.7590
  79   0.0000       0.122211         3.3255
  80   0.0000       0.129547         3.5252
  81   0.0000       0.134123         3.6497

MULLIKEN ATOMIC CHARGES
-----------------------
   0 C :   -0.330163
   1 C :    0.037483
   2 O :   -0.395950
   3 C :    0.509891
   4 O :   -0.420364
   5 C :   -0.265028
   6 C :    0.156920
   7 C :   -0.271722
   8 N :   -0.123335
   9 C :    0.210411
  10 S :   -0.437368
  11 N :   -0.201741
  12 C :    0.055543
  13 C :    0.077377
  14 C :   -0.209116
  15 C :   -0.122253
  16 C :   -0.277473
  17 C :    0.326171
  18 O :   -0.358857
  19 C :   -0.298872
  20 H :    0.105792
  21 H :    0.105072
  22 H :    0.126920
  23 H :    0.109778
  24 H :    0.118906
  25 H :    0.134367
  26 H :    0.095079
  27 H :    0.129997
  28 H :    0.198219
  29 H :    0.193566
  30 H :    0.152197
  31 H :    0.156262
  32 H :    0.165987
  33 H :    0.133209
  34 H :    0.241419
  35 H :    0.171675
Sum of atomic charges:   -0.0000000

LOEWDIN ATOMIC CHARGES
----------------------
   0 C :    0.106021
   1 C :   -0.009923
   2 O :    0.283722
   3 C :   -0.419481
   4 O :    0.111721
   5 C :   -0.098466
   6 C :   -0.058229
   7 C :    0.131494
   8 N :    0.406895
   9 C :   -0.456848
  10 S :   -0.033489
  11 N :    0.396547
  12 C :   -0.052610
  13 C :   -0.038263
  14 C :    0.016672
  15 C :    0.040093
  16 C :   -0.001491
  17 C :   -0.189996
  18 O :    0.396444
  19 C :    0.032406
  20 H :   -0.031370
  21 H :   -0.023997
  22 H :   -0.025987
  23 H :   -0.029711
  24 H :   -0.028464
  25 H :   -0.003031
  26 H :   -0.023344
  27 H :   -0.005337
  28 H :   -0.057432
  29 H :   -0.064945
  30 H :   -0.008165
  31 H :   -0.028874
  32 H :   -0.020504
  33 H :   -0.034694
  34 H :   -0.152910
  35 H :   -0.024452

  Mayer bond orders larger than 0.100000
B(  0-C ,  1-C ) :   0.9575 B(  0-C , 20-H ) :   0.9710 B(  0-C , 21-H ) :   0.9766
B(  0-C , 22-H ) :   0.9724 B(  1-C ,  2-O ) :   0.8828 B(  1-C , 23-H ) :   0.9750
B(  1-C , 24-H ) :   0.9861 B(  2-O ,  3-C ) :   1.1075 B(  3-C ,  4-O ) :   1.9974
B(  3-C ,  5-C ) :   1.0637 B(  5-C ,  6-C ) :   1.6501 B(  5-C , 12-C ) :   0.9707
B(  6-C ,  7-C ) :   0.9676 B(  6-C ,  8-N ) :   1.1594 B(  7-C , 25-H ) :   0.9583
B(  7-C , 26-H ) :   0.9897 B(  7-C , 27-H ) :   0.9622 B(  8-N ,  9-C ) :   1.1801
B(  8-N , 28-H ) :   0.9479 B(  9-C , 10-S ) :   1.6112 B(  9-C , 11-N ) :   1.3043
B( 11-N , 12-C ) :   0.9797 B( 11-N , 29-H ) :   0.9530 B( 12-C , 13-C ) :   0.9392
B( 12-C , 30-H ) :   1.0019 B( 13-C , 14-C ) :   1.3447 B( 13-C , 19-C ) :   1.3683
B( 14-C , 15-C ) :   1.3810 B( 14-C , 31-H ) :   0.9731 B( 15-C , 16-C ) :   1.3655
B( 15-C , 32-H ) :   0.9690 B( 16-C , 17-C ) :   1.3292 B( 16-C , 33-H ) :   0.9836
B( 17-C , 18-O ) :   1.1102 B( 17-C , 19-C ) :   1.3655 B( 18-O , 34-H ) :   0.9794
B( 19-C , 35-H ) :   0.9594

MP2 TOTAL ENERGY:    -1274.335186381 Eh
FINAL SINGLE POINT ENERGY     -1274.335186381430

DIPOLE MOMENT
-------------
                                X             Y             Z
Electronic contribution:      9.98328       8.94572       5.70328
Nuclear contribution   :    -11.03238     -10.59391      -5.61824
                        -----------------------------------------
Total Dipole Moment    :     -1.04910      -1.64819       0.08504
                        -----------------------------------------
Magnitude (a.u.)       :      1.95560
Magnitude (Debye)      :      4.97075

Rotational constants in cm-1:     0.012379     0.009226     0.006612
Rotational constants in MHz :   371.107256   276.576653   198.234203

                             ****ORCA TERMINATED NORMALLY****
TOTAL RUN TIME: 0 days 2 hours 32 minutes 56 seconds 481 msec
