                         Program Version 4.2.0 -  RELEASE  -
|  1> ! ri-mp2 cc-pvtz cc-pvtz/c TightSCF  NoKeepInts
|  2>
|  3> %scf
|  4>   MaxCore 4096
|  5> end
|  6> *xyz  0  1
|  7>     C       14.7934673   14.3250273   16.4701245
|  8>     C       15.6822569   14.8670642   15.3337805
|  9>     O       16.3962015   16.0165068   15.8244298
| 10>     C       17.5025010   15.8408252   16.6059188
| 11>     O       18.0707026   14.7646144   16.6997208
| 12>     C       17.8147666   16.9968508   17.5124506
| 13>     C       17.3604294   18.2667531   17.3455234
| 14>     C       16.4831948   18.8067694   16.2346059
| 15>     N       17.7626482   19.2699274   18.2337228
| 16>     C       18.7118399   19.1195232   19.2099058
| 17>     S       19.2181101   20.3922024   20.1370875
| 18>     N       19.2205500   17.8568904   19.3780668
| 19>     C       18.7147500   16.6472025   18.7028450
| 20>     C       17.9797799   15.7487043   19.6943557
| 21>     C       18.3584061   14.4027576   19.8528728
| 22>     C       17.6790541   13.5688336   20.7567060
| 23>     C       16.6104325   14.0841115   21.5097714
| 24>     C       16.2275313   15.4230079   21.3523146
| 25>     O       15.1915057   15.9217273   22.0729259
| 26>     C       16.9054321   16.2504713   20.4516876
| 27>     H       15.4055454   13.9670179   17.3082290
| 28>     H       14.1841023   13.4859671   16.1133631
| 29>     H       14.1191846   15.1059362   16.8428390
| 30>     H       16.3714824   14.0910154   14.9730689
| 31>     H       15.0419866   15.1693345   14.4952515
| 32>     H       16.8729903   18.5126167   15.2521647
| 33>     H       16.4191871   19.9016089   16.2395229
| 34>     H       15.4618095   18.4160730   16.3241381
| 35>     H       17.4005088   20.2039510   18.1270744
| 36>     H       19.8954472   17.7654939   20.1264361
| 37>     H       19.5834543   16.0952246   18.3156874
| 38>     H       19.1724480   13.9967870   19.2572527
| 39>     H       17.9780447   12.5278222   20.8648731
| 40>     H       16.0816838   13.4430146   22.2071318
| 41>     H       14.8815095   15.2163015   22.6603176
| 42>     H       16.5940552   17.2840648   20.3478336
| 43> *
| 44>
| 45>                          ****END OF INPUT****

CARTESIAN COORDINATES (ANGSTROEM)
---------------------------------
  C     14.793467   14.325027   16.470125
  C     15.682257   14.867064   15.333780
  O     16.396202   16.016507   15.824430
  C     17.502501   15.840825   16.605919
  O     18.070703   14.764614   16.699721
  C     17.814767   16.996851   17.512451
  C     17.360429   18.266753   17.345523
  C     16.483195   18.806769   16.234606
  N     17.762648   19.269927   18.233723
  C     18.711840   19.119523   19.209906
  S     19.218110   20.392202   20.137087
  N     19.220550   17.856890   19.378067
  C     18.714750   16.647202   18.702845
  C     17.979780   15.748704   19.694356
  C     18.358406   14.402758   19.852873
  C     17.679054   13.568834   20.756706
  C     16.610433   14.084112   21.509771
  C     16.227531   15.423008   21.352315
  O     15.191506   15.921727   22.072926
  C     16.905432   16.250471   20.451688
  H     15.405545   13.967018   17.308229
  H     14.184102   13.485967   16.113363
  H     14.119185   15.105936   16.842839
  H     16.371482   14.091015   14.973069
  H     15.041987   15.169334   14.495252
  H     16.872990   18.512617   15.252165
  H     16.419187   19.901609   16.239523
  H     15.461809   18.416073   16.324138
  H     17.400509   20.203951   18.127074
  H     19.895447   17.765494   20.126436
  H     19.583454   16.095225   18.315687
  H     19.172448   13.996787   19.257253
  H     17.978045   12.527822   20.864873
  H     16.081684   13.443015   22.207132
  H     14.881509   15.216302   22.660318
  H     16.594055   17.284065   20.347834

 Total Charge           Charge          ....    0
 Multiplicity           Mult            ....    1
 Number of Electrons    NEL             ....  154
 Basis Dimension        Dim             ....  828

ORBITAL ENERGIES
----------------

  NO   OCC          E(Eh)            E(eV)
   0   2.0000     -91.888173     -2500.4043
   1   2.0000     -20.602214      -560.6148
   2   2.0000     -20.592246      -560.3435
   3   2.0000     -20.546136      -559.0888
   4   2.0000     -15.628432      -425.2713
   5   2.0000     -15.606963      -424.6870
   6   2.0000     -11.396284      -310.1087
   7   2.0000     -11.383154      -309.7514
   8   2.0000     -11.336217      -308.4741
   9   2.0000     -11.308179      -307.7112
  10   2.0000     -11.305893      -307.6490
  11   2.0000     -11.299219      -307.4674
  12   2.0000     -11.260479      -306.4132
  13   2.0000     -11.258807      -306.3677
  14   2.0000     -11.253987      -306.2366
  15   2.0000     -11.248362      -306.0835
  16   2.0000     -11.238022      -305.8021
  17   2.0000     -11.234065      -305.6945
  18   2.0000     -11.231081      -305.6132
  19   2.0000     -11.226844      -305.4980
  20   2.0000      -8.893237      -241.9973
  21   2.0000      -6.574814      -178.9098
  22   2.0000      -6.572807      -178.8552
  23   2.0000      -6.572221      -178.8392
  24   2.0000      -1.453901       -39.5627
  25   2.0000      -1.411993       -38.4223
  26   2.0000      -1.357117       -36.9290
  27   2.0000      -1.339392       -36.4467
  28   2.0000      -1.237108       -33.6634
  29   2.0000      -1.152821       -31.3699
  30   2.0000      -1.119847       -30.4726
  31   2.0000      -1.042404       -28.3653
  32   2.0000      -1.034090       -28.1390
  33   2.0000      -1.010089       -27.4859
  34   2.0000      -0.997737       -27.1498
  35   2.0000      -0.983243       -26.7554
  36   2.0000      -0.921642       -25.0791
  37   2.0000      -0.893692       -24.3186
  38   2.0000      -0.847579       -23.0638
  39   2.0000      -0.835428       -22.7331
  40   2.0000      -0.828503       -22.5447
  41   2.0000      -0.814961       -22.1762
  42   2.0000      -0.754723       -20.5371
  43   2.0000      -0.736187       -20.0327
  44   2.0000      -0.725261       -19.7354
  45   2.0000      -0.691247       -18.8098
  46   2.0000      -0.685643       -18.6573
  47   2.0000      -0.679255       -18.4835
  48   2.0000      -0.671495       -18.2723
  49   2.0000      -0.656101       -17.8534
  50   2.0000      -0.651142       -17.7185
  51   2.0000      -0.644618       -17.5409
  52   2.0000      -0.632069       -17.1995
  53   2.0000      -0.610393       -16.6096
  54   2.0000      -0.600559       -16.3420
  55   2.0000      -0.599874       -16.3234
  56   2.0000      -0.595588       -16.2068
  57   2.0000      -0.580817       -15.8048
  58   2.0000      -0.574343       -15.6287
  59   2.0000      -0.563206       -15.3256
  60   2.0000      -0.557601       -15.1731
  61   2.0000      -0.549029       -14.9398
  62   2.0000      -0.534151       -14.5350
  63   2.0000      -0.531856       -14.4725
  64   2.0000      -0.517463       -14.0809
  65   2.0000      -0.509431       -13.8623
  66   2.0000      -0.497573       -13.5397
  67   2.0000      -0.494826       -13.4649
  68   2.0000      -0.481983       -13.1154
  69   2.0000      -0.463352       -12.6085
  70   2.0000      -0.459860       -12.5134
  71   2.0000      -0.451985       -12.2991
  72   2.0000      -0.354262        -9.6399
  73   2.0000      -0.344630        -9.3779
  74   2.0000      -0.327324        -8.9069
  75   2.0000      -0.315944        -8.5973
  76   2.0000      -0.314350        -8.5539
  77   0.0000       0.075824         2.0633
  78   0.0000       0.112074         3.0497
  79   0.0000       0.120361         3.2752
  80   0.0000       0.135396         3.6843
  81   0.0000       0.142006         3.8642

MULLIKEN ATOMIC CHARGES
-----------------------
   0 C :   -0.289590
   1 C :    0.025424
   2 O :   -0.352301
   3 C :    0.441963
   4 O :   -0.428329
   5 C :   -0.167387
   6 C :    0.141514
   7 C :   -0.283861
   8 N :   -0.122321
   9 C :    0.202379
  10 S :   -0.439287
  11 N :   -0.198827
  12 C :    0.040908
  13 C :    0.054076
  14 C :   -0.162946
  15 C :   -0.134533
  16 C :   -0.279861
  17 C :    0.312540
  18 O :   -0.358939
  19 C :   -0.273224
  20 H :    0.118849
  21 H :    0.094732
  22 H :    0.092714
  23 H :    0.113093
  24 H :    0.106415
  25 H :    0.126494
  26 H :    0.101531
  27 H :    0.126969
  28 H :    0.196902
  29 H :    0.193909
  30 H :    0.153698
  31 H :    0.154189
  32 H :    0.159614
  33 H :    0.128633
  34 H :    0.240128
  35 H :    0.164734
Sum of atomic charges:   -0.0000000

LOEWDIN ATOMIC CHARGES
----------------------
   0 C :    0.105922
   1 C :   -0.018126
   2 O :    0.305147
   3 C :   -0.414435
   4 O :    0.103853
   5 C :   -0.091029
   6 C :   -0.066296
   7 C :    0.125311
   8 N :    0.404793
   9 C :   -0.458551
  10 S :   -0.035963
  11 N :    0.397839
  12 C :   -0.046291
  13 C :   -0.039378
  14 C :    0.021799
  15 C :    0.040344
  16 C :   -0.002402
  17 C :   -0.192686
  18 O :    0.393159
  19 C :    0.028650
  20 H :   -0.022416
  21 H :   -0.026422
  22 H :   -0.029255
  23 H :   -0.027625
  24 H :   -0.026650
  25 H :   -0.008225
  26 H :   -0.020983
  27 H :   -0.009989
  28 H :   -0.059089
  29 H :   -0.063686
  30 H :   -0.005055
  31 H :   -0.025177
  32 H :   -0.021113
  33 H :   -0.036261
  34 H :   -0.154822
  35 H :   -0.024892

  Mayer bond orders larger than 0.100000
B(  0-C ,  1-C ) :   0.9635 B(  0-C , 20-H ) :   0.9737 B(  0-C , 21-H ) :   0.9758
B(  0-C , 22-H ) :   0.9776 B(  1-C ,  2-O ) :   0.8917 B(  1-C , 23-H ) :   0.9771
B(  1-C , 24-H ) :   0.9844 B(  2-O ,  3-C ) :   1.1492 B(  3-C ,  4-O ) :   1.9834
B(  3-C ,  5-C ) :   1.0490 B(  5-C ,  6-C ) :   1.6477 B(  5-C , 12-C ) :   0.9666
B(  6-C ,  7-C ) :   0.9555 B(  6-C ,  8-N ) :   1.1475 B(  7-C , 25-H ) :   0.9662
B(  7-C , 26-H ) :   0.9907 B(  7-C , 27-H ) :   0.9634 B(  8-N ,  9-C ) :   1.1794
B(  8-N , 28-H ) :   0.9489 B(  9-C , 10-S ) :   1.6107 B(  9-C , 11-N ) :   1.3038
B( 11-N , 12-C ) :   0.9922 B( 11-N , 29-H ) :   0.9518 B( 12-C , 13-C ) :   0.9452
B( 12-C , 30-H ) :   0.9999 B( 13-C , 14-C ) :   1.3756 B( 13-C , 19-C ) :   1.3701
B( 14-C , 15-C ) :   1.3946 B( 14-C , 31-H ) :   0.9646 B( 15-C , 16-C ) :   1.3623
B( 15-C , 32-H ) :   0.9713 B( 16-C , 17-C ) :   1.3313 B( 16-C , 33-H ) :   0.9858
B( 17-C , 18-O ) :   1.1082 B( 17-C , 19-C ) :   1.3782 B( 18-O , 34-H ) :   0.9805
B( 19-C , 35-H ) :   0.9584

MP2 TOTAL ENERGY:    -1274.347964823 Eh
FINAL SINGLE POINT ENERGY     -1274.347964822582

DIPOLE MOMENT
-------------
                                X             Y             Z
Electronic contribution:     10.83285       9.67627       8.47956
Nuclear contribution   :    -12.30865     -10.92685      -9.51144
                        -----------------------------------------
Total Dipole Moment    :     -1.47581      -1.25058      -1.03188
                        -----------------------------------------
Magnitude (a.u.)       :      2.19243
Magnitude (Debye)      :      5.57270

Rotational constants in cm-1:     0.011004     0.009221     0.006202
Rotational constants in MHz :   329.878211   276.449533   185.924428

                             ****ORCA TERMINATED NORMALLY****
TOTAL RUN TIME: 0 days 1 hours 46 minutes 31 seconds 583 msec
