                         Program Version 4.2.0 -  RELEASE  -
|  1> ! ri-mp2 cc-pvtz cc-pvtz/c TightSCF  NoKeepInts
|  2>
|  3> %scf
|  4>   MaxCore 4096
|  5> end
|  6> *xyz  0  1
|  7>     C       15.5275390   13.4316215   15.8223832
|  8>     C       15.6848276   14.5444591   16.8714930
|  9>     O       16.8411277   15.3200651   16.5053453
| 10>     C       16.7082153   16.6754848   16.4219350
| 11>     O       15.7909350   17.1753495   15.7942745
| 12>     C       17.5127880   17.4097199   17.4609377
| 13>     C       17.4322105   18.7554747   17.6241141
| 14>     C       16.5542336   19.7229973   16.8592003
| 15>     N       18.2502602   19.3989383   18.5576666
| 16>     C       19.2626054   18.7978355   19.2565887
| 17>     S       20.2677121   19.6538539   20.2529651
| 18>     N       19.4079308   17.4457538   19.0797601
| 19>     C       18.4719782   16.5836427   18.3360421
| 20>     C       17.7392674   15.6742865   19.3177690
| 21>     C       18.1100566   14.3219472   19.4414457
| 22>     C       17.4385150   13.4757416   20.3398146
| 23>     C       16.3909470   13.9866514   21.1249140
| 24>     C       16.0257658   15.3350596   21.0116992
| 25>     O       15.0164169   15.8319852   21.7697819
| 26>     C       16.6946867   16.1745403   20.1156759
| 27>     H       14.6615940   12.8009056   16.0568510
| 28>     H       16.4208686   12.7955884   15.7954535
| 29>     H       15.3780989   13.8632747   14.8245656
| 30>     H       14.7744320   15.1596689   16.8877307
| 31>     H       15.8185761   14.1058748   17.8682018
| 32>     H       15.4937208   19.4918556   17.0220966
| 33>     H       16.7431103   19.6468717   15.7807731
| 34>     H       16.7137753   20.7684182   17.1481694
| 35>     H       18.1614304   20.3931439   18.6948614
| 36>     H       20.1429053   17.0257121   19.6340159
| 37>     H       19.0694678   15.9523665   17.6630546
| 38>     H       18.9179451   13.9234820   18.8332679
| 39>     H       17.7314709   12.4306826   20.4268199
| 40>     H       15.8702900   13.3373770   21.8213342
| 41>     H       14.7192089   15.1244276   22.3616145
| 42>     H       16.4020867   17.2169428   20.0513839
| 43> *
| 44>
| 45>                          ****END OF INPUT****

CARTESIAN COORDINATES (ANGSTROEM)
---------------------------------
  C     15.527539   13.431621   15.822383
  C     15.684828   14.544459   16.871493
  O     16.841128   15.320065   16.505345
  C     16.708215   16.675485   16.421935
  O     15.790935   17.175349   15.794275
  C     17.512788   17.409720   17.460938
  C     17.432211   18.755475   17.624114
  C     16.554234   19.722997   16.859200
  N     18.250260   19.398938   18.557667
  C     19.262605   18.797835   19.256589
  S     20.267712   19.653854   20.252965
  N     19.407931   17.445754   19.079760
  C     18.471978   16.583643   18.336042
  C     17.739267   15.674286   19.317769
  C     18.110057   14.321947   19.441446
  C     17.438515   13.475742   20.339815
  C     16.390947   13.986651   21.124914
  C     16.025766   15.335060   21.011699
  O     15.016417   15.831985   21.769782
  C     16.694687   16.174540   20.115676
  H     14.661594   12.800906   16.056851
  H     16.420869   12.795588   15.795454
  H     15.378099   13.863275   14.824566
  H     14.774432   15.159669   16.887731
  H     15.818576   14.105875   17.868202
  H     15.493721   19.491856   17.022097
  H     16.743110   19.646872   15.780773
  H     16.713775   20.768418   17.148169
  H     18.161430   20.393144   18.694861
  H     20.142905   17.025712   19.634016
  H     19.069468   15.952367   17.663055
  H     18.917945   13.923482   18.833268
  H     17.731471   12.430683   20.426820
  H     15.870290   13.337377   21.821334
  H     14.719209   15.124428   22.361615
  H     16.402087   17.216943   20.051384

 Total Charge           Charge          ....    0
 Multiplicity           Mult            ....    1
 Number of Electrons    NEL             ....  154
 Basis Dimension        Dim             ....  828

ORBITAL ENERGIES
----------------

  NO   OCC          E(Eh)            E(eV)
   0   2.0000     -91.890054     -2500.4555
   1   2.0000     -20.600760      -560.5752
   2   2.0000     -20.587337      -560.2099
   3   2.0000     -20.545466      -559.0705
   4   2.0000     -15.630468      -425.3267
   5   2.0000     -15.609460      -424.7550
   6   2.0000     -11.393677      -310.0377
   7   2.0000     -11.385047      -309.8029
   8   2.0000     -11.337083      -308.4977
   9   2.0000     -11.318582      -307.9943
  10   2.0000     -11.311054      -307.7894
  11   2.0000     -11.292367      -307.2809
  12   2.0000     -11.263459      -306.4943
  13   2.0000     -11.259879      -306.3969
  14   2.0000     -11.259479      -306.3860
  15   2.0000     -11.253180      -306.2146
  16   2.0000     -11.247307      -306.0548
  17   2.0000     -11.242151      -305.9145
  18   2.0000     -11.241903      -305.9077
  19   2.0000     -11.222562      -305.3814
  20   2.0000      -8.895106      -242.0481
  21   2.0000      -6.576678      -178.9605
  22   2.0000      -6.574675      -178.9060
  23   2.0000      -6.574086      -178.8900
  24   2.0000      -1.449069       -39.4312
  25   2.0000      -1.420406       -38.6512
  26   2.0000      -1.352737       -36.8098
  27   2.0000      -1.341535       -36.5050
  28   2.0000      -1.240148       -33.7462
  29   2.0000      -1.161377       -31.6027
  30   2.0000      -1.121386       -30.5145
  31   2.0000      -1.045405       -28.4469
  32   2.0000      -1.034124       -28.1399
  33   2.0000      -1.019451       -27.7407
  34   2.0000      -0.997001       -27.1298
  35   2.0000      -0.985198       -26.8086
  36   2.0000      -0.924782       -25.1646
  37   2.0000      -0.881573       -23.9888
  38   2.0000      -0.848835       -23.0980
  39   2.0000      -0.841214       -22.8906
  40   2.0000      -0.837576       -22.7916
  41   2.0000      -0.824657       -22.4401
  42   2.0000      -0.760873       -20.7044
  43   2.0000      -0.735436       -20.0122
  44   2.0000      -0.724343       -19.7104
  45   2.0000      -0.699642       -19.0382
  46   2.0000      -0.690140       -18.7797
  47   2.0000      -0.678548       -18.4642
  48   2.0000      -0.672162       -18.2905
  49   2.0000      -0.655340       -17.8327
  50   2.0000      -0.648118       -17.6362
  51   2.0000      -0.643752       -17.5174
  52   2.0000      -0.628195       -17.0940
  53   2.0000      -0.617617       -16.8062
  54   2.0000      -0.611384       -16.6366
  55   2.0000      -0.602933       -16.4066
  56   2.0000      -0.600786       -16.3482
  57   2.0000      -0.581205       -15.8154
  58   2.0000      -0.572369       -15.5750
  59   2.0000      -0.566244       -15.4083
  60   2.0000      -0.563658       -15.3379
  61   2.0000      -0.539480       -14.6800
  62   2.0000      -0.533876       -14.5275
  63   2.0000      -0.528868       -14.3912
  64   2.0000      -0.516456       -14.0535
  65   2.0000      -0.514539       -14.0013
  66   2.0000      -0.503912       -13.7121
  67   2.0000      -0.495862       -13.4931
  68   2.0000      -0.489170       -13.3110
  69   2.0000      -0.464280       -12.6337
  70   2.0000      -0.453717       -12.3463
  71   2.0000      -0.446719       -12.1558
  72   2.0000      -0.355824        -9.6824
  73   2.0000      -0.353653        -9.6234
  74   2.0000      -0.330051        -8.9811
  75   2.0000      -0.325754        -8.8642
  76   2.0000      -0.317538        -8.6406
  77   0.0000       0.071102         1.9348
  78   0.0000       0.102570         2.7911
  79   0.0000       0.123124         3.3504
  80   0.0000       0.129313         3.5188
  81   0.0000       0.133395         3.6299

MULLIKEN ATOMIC CHARGES
-----------------------
   0 C :   -0.261289
   1 C :    0.026192
   2 O :   -0.382042
   3 C :    0.487966
   4 O :   -0.415904
   5 C :   -0.272624
   6 C :    0.162856
   7 C :   -0.268700
   8 N :   -0.124275
   9 C :    0.215144
  10 S :   -0.439407
  11 N :   -0.207527
  12 C :    0.070494
  13 C :    0.029621
  14 C :   -0.180962
  15 C :   -0.134515
  16 C :   -0.276281
  17 C :    0.306762
  18 O :   -0.355593
  19 C :   -0.239848
  20 H :    0.086235
  21 H :    0.090410
  22 H :    0.104228
  23 H :    0.104491
  24 H :    0.117849
  25 H :    0.131273
  26 H :    0.131705
  27 H :    0.095308
  28 H :    0.197875
  29 H :    0.194859
  30 H :    0.149303
  31 H :    0.150913
  32 H :    0.162612
  33 H :    0.132920
  34 H :    0.241648
  35 H :    0.168306
Sum of atomic charges:   -0.0000000

LOEWDIN ATOMIC CHARGES
----------------------
   0 C :    0.106158
   1 C :   -0.015166
   2 O :    0.296950
   3 C :   -0.418549
   4 O :    0.109136
   5 C :   -0.097952
   6 C :   -0.058348
   7 C :    0.131459
   8 N :    0.407071
   9 C :   -0.455709
  10 S :   -0.034537
  11 N :    0.396110
  12 C :   -0.052649
  13 C :   -0.036996
  14 C :    0.012424
  15 C :    0.040086
  16 C :   -0.002666
  17 C :   -0.189628
  18 O :    0.396444
  19 C :    0.031092
  20 H :   -0.028050
  21 H :   -0.029438
  22 H :   -0.023672
  23 H :   -0.028882
  24 H :   -0.030200
  25 H :   -0.004918
  26 H :   -0.003595
  27 H :   -0.023208
  28 H :   -0.057355
  29 H :   -0.065073
  30 H :   -0.008958
  31 H :   -0.029557
  32 H :   -0.020080
  33 H :   -0.034758
  34 H :   -0.152859
  35 H :   -0.024131

  Mayer bond orders larger than 0.100000
B(  0-C ,  1-C ) :   0.9848 B(  0-C , 20-H ) :   0.9770 B(  0-C , 21-H ) :   0.9794
B(  0-C , 22-H ) :   0.9791 B(  1-C ,  2-O ) :   0.8689 B(  1-C , 23-H ) :   0.9722
B(  1-C , 24-H ) :   0.9679 B(  2-O ,  3-C ) :   1.1137 B(  3-C ,  4-O ) :   2.0004
B(  3-C ,  5-C ) :   1.0721 B(  5-C ,  6-C ) :   1.6474 B(  5-C , 12-C ) :   0.9699
B(  6-C ,  7-C ) :   0.9669 B(  6-C ,  8-N ) :   1.1604 B(  7-C , 25-H ) :   0.9601
B(  7-C , 26-H ) :   0.9601 B(  7-C , 27-H ) :   0.9903 B(  8-N ,  9-C ) :   1.1826
B(  8-N , 28-H ) :   0.9476 B(  9-C , 10-S ) :   1.6059 B(  9-C , 11-N ) :   1.3071
B( 11-N , 12-C ) :   0.9726 B( 11-N , 29-H ) :   0.9522 B( 12-C , 13-C ) :   0.9407
B( 12-C , 30-H ) :   1.0021 B( 13-C , 14-C ) :   1.3521 B( 13-C , 19-C ) :   1.3794
B( 14-C , 15-C ) :   1.3948 B( 14-C , 31-H ) :   0.9734 B( 15-C , 16-C ) :   1.3606
B( 15-C , 32-H ) :   0.9707 B( 16-C , 17-C ) :   1.3295 B( 16-C , 33-H ) :   0.9843
B( 17-C , 18-O ) :   1.1139 B( 17-C , 19-C ) :   1.3733 B( 18-O , 34-H ) :   0.9790
B( 19-C , 35-H ) :   0.9571

MP2 TOTAL ENERGY:    -1274.336122973 Eh
FINAL SINGLE POINT ENERGY     -1274.336122972938

DIPOLE MOMENT
-------------
                                X             Y             Z
Electronic contribution:      9.73971      10.64038       7.42687
Nuclear contribution   :    -10.76472     -12.14904      -7.40801
                        -----------------------------------------
Total Dipole Moment    :     -1.02501      -1.50866       0.01887
                        -----------------------------------------
Magnitude (a.u.)       :      1.82402
Magnitude (Debye)      :      4.63630

Rotational constants in cm-1:     0.012300     0.008582     0.006267
Rotational constants in MHz :   368.741379   257.270417   187.871057

                             ****ORCA TERMINATED NORMALLY****
TOTAL RUN TIME: 0 days 1 hours 48 minutes 42 seconds 296 msec
