                         Program Version 4.2.0 -  RELEASE  -
|  1> ! ri-mp2 cc-pvtz cc-pvtz/c TightSCF  NoKeepInts
|  2>
|  3> %scf
|  4>   MaxCore 4096
|  5> end
|  6> *xyz  0  1
|  7>     C       15.0192483   15.8315690   17.3740267
|  8>     C       15.5489733   15.2010084   16.0686913
|  9>     O       16.9748398   14.9328614   16.0231711
| 10>     C       18.0855420   15.6081488   16.4821651
| 11>     O       19.1555763   15.0289630   16.4462755
| 12>     C       17.9190796   16.7672957   17.4065038
| 13>     C       17.4159160   17.9465964   16.9726775
| 14>     C       16.9063781   18.2630302   15.5815323
| 15>     N       17.4130907   19.0578875   17.8182707
| 16>     C       18.0414152   19.1106076   19.0348987
| 17>     S       18.0635448   20.4933373   19.9414080
| 18>     N       18.6568841   17.9593559   19.4609718
| 19>     C       18.5815107   16.6489567   18.7829204
| 20>     C       17.8937881   15.5999018   19.6541746
| 21>     C       18.3135370   14.2580362   19.5937885
| 22>     C       17.6893326   13.2737748   20.3776865
| 23>     C       16.6340653   13.6319930   21.2330710
| 24>     C       16.2105664   14.9659972   21.2971126
| 25>     O       15.1846568   15.3133835   22.1140789
| 26>     C       16.8333341   15.9443731   20.5153584
| 27>     H       15.4807767   15.3560090   18.2454177
| 28>     H       13.9393037   15.6552431   17.4495313
| 29>     H       15.1569169   16.9128498   17.4271902
| 30>     H       15.0265044   14.2489609   15.9073920
| 31>     H       15.2760037   15.8549403   15.2309616
| 32>     H       17.1790076   17.4912391   14.8517060
| 33>     H       17.3356864   19.2036306   15.2131405
| 34>     H       15.8148385   18.3670301   15.5721241
| 35>     H       16.9873007   19.9191832   17.5137450
| 36>     H       19.1043275   18.0243287   20.3666034
| 37>     H       19.6148471   16.3081747   18.6197893
| 38>     H       19.1242521   13.9744246   18.9255268
| 39>     H       18.0231328   12.2392957   20.3164464
| 40>     H       16.1480132   12.8742300   21.8386467
| 41>     H       14.9167750   14.5178507   22.5983613
| 42>     H       16.4780345   16.9675318   20.5786340
| 43> *
| 44>
| 45>                          ****END OF INPUT****

CARTESIAN COORDINATES (ANGSTROEM)
---------------------------------
  C     15.019248   15.831569   17.374027
  C     15.548973   15.201008   16.068691
  O     16.974840   14.932861   16.023171
  C     18.085542   15.608149   16.482165
  O     19.155576   15.028963   16.446275
  C     17.919080   16.767296   17.406504
  C     17.415916   17.946596   16.972677
  C     16.906378   18.263030   15.581532
  N     17.413091   19.057887   17.818271
  C     18.041415   19.110608   19.034899
  S     18.063545   20.493337   19.941408
  N     18.656884   17.959356   19.460972
  C     18.581511   16.648957   18.782920
  C     17.893788   15.599902   19.654175
  C     18.313537   14.258036   19.593788
  C     17.689333   13.273775   20.377686
  C     16.634065   13.631993   21.233071
  C     16.210566   14.965997   21.297113
  O     15.184657   15.313383   22.114079
  C     16.833334   15.944373   20.515358
  H     15.480777   15.356009   18.245418
  H     13.939304   15.655243   17.449531
  H     15.156917   16.912850   17.427190
  H     15.026504   14.248961   15.907392
  H     15.276004   15.854940   15.230962
  H     17.179008   17.491239   14.851706
  H     17.335686   19.203631   15.213140
  H     15.814839   18.367030   15.572124
  H     16.987301   19.919183   17.513745
  H     19.104328   18.024329   20.366603
  H     19.614847   16.308175   18.619789
  H     19.124252   13.974425   18.925527
  H     18.023133   12.239296   20.316446
  H     16.148013   12.874230   21.838647
  H     14.916775   14.517851   22.598361
  H     16.478034   16.967532   20.578634

 Total Charge           Charge          ....    0
 Multiplicity           Mult            ....    1
 Number of Electrons    NEL             ....  154
 Basis Dimension        Dim             ....  828

ORBITAL ENERGIES
----------------

  NO   OCC          E(Eh)            E(eV)
   0   2.0000     -91.890269     -2500.4613
   1   2.0000     -20.597839      -560.4957
   2   2.0000     -20.597723      -560.4925
   3   2.0000     -20.546964      -559.1113
   4   2.0000     -15.627842      -425.2552
   5   2.0000     -15.611163      -424.8013
   6   2.0000     -11.400444      -310.2219
   7   2.0000     -11.386829      -309.8514
   8   2.0000     -11.329728      -308.2976
   9   2.0000     -11.314542      -307.8843
  10   2.0000     -11.314070      -307.8715
  11   2.0000     -11.313026      -307.8431
  12   2.0000     -11.271221      -306.7055
  13   2.0000     -11.265027      -306.5370
  14   2.0000     -11.262341      -306.4639
  15   2.0000     -11.254928      -306.2622
  16   2.0000     -11.243817      -305.9598
  17   2.0000     -11.239611      -305.8454
  18   2.0000     -11.236307      -305.7555
  19   2.0000     -11.233545      -305.6803
  20   2.0000      -8.895370      -242.0553
  21   2.0000      -6.576959      -178.9681
  22   2.0000      -6.574933      -178.9130
  23   2.0000      -6.574357      -178.8974
  24   2.0000      -1.442552       -39.2538
  25   2.0000      -1.417539       -38.5732
  26   2.0000      -1.354018       -36.8447
  27   2.0000      -1.340757       -36.4839
  28   2.0000      -1.239998       -33.7421
  29   2.0000      -1.159096       -31.5406
  30   2.0000      -1.125300       -30.6210
  31   2.0000      -1.047897       -28.5147
  32   2.0000      -1.041164       -28.3315
  33   2.0000      -1.017457       -27.6864
  34   2.0000      -1.005323       -27.3562
  35   2.0000      -0.990433       -26.9511
  36   2.0000      -0.927973       -25.2514
  37   2.0000      -0.901077       -24.5196
  38   2.0000      -0.854274       -23.2460
  39   2.0000      -0.840572       -22.8731
  40   2.0000      -0.834362       -22.7041
  41   2.0000      -0.828577       -22.5467
  42   2.0000      -0.745492       -20.2859
  43   2.0000      -0.736272       -20.0350
  44   2.0000      -0.730637       -19.8817
  45   2.0000      -0.694813       -18.9068
  46   2.0000      -0.686714       -18.6865
  47   2.0000      -0.677880       -18.4460
  48   2.0000      -0.674260       -18.3475
  49   2.0000      -0.662519       -18.0281
  50   2.0000      -0.655731       -17.8433
  51   2.0000      -0.652060       -17.7435
  52   2.0000      -0.641363       -17.4524
  53   2.0000      -0.614330       -16.7168
  54   2.0000      -0.608120       -16.5478
  55   2.0000      -0.604596       -16.4519
  56   2.0000      -0.601903       -16.3786
  57   2.0000      -0.593012       -16.1367
  58   2.0000      -0.579323       -15.7642
  59   2.0000      -0.574212       -15.6251
  60   2.0000      -0.565572       -15.3900
  61   2.0000      -0.558204       -15.1895
  62   2.0000      -0.542702       -14.7677
  63   2.0000      -0.529353       -14.4044
  64   2.0000      -0.518589       -14.1115
  65   2.0000      -0.513763       -13.9802
  66   2.0000      -0.501205       -13.6385
  67   2.0000      -0.500098       -13.6083
  68   2.0000      -0.483879       -13.1670
  69   2.0000      -0.465823       -12.6757
  70   2.0000      -0.453502       -12.3404
  71   2.0000      -0.449717       -12.2374
  72   2.0000      -0.356144        -9.6912
  73   2.0000      -0.348693        -9.4884
  74   2.0000      -0.329872        -8.9763
  75   2.0000      -0.323029        -8.7901
  76   2.0000      -0.318561        -8.6685
  77   0.0000       0.085606         2.3295
  78   0.0000       0.107187         2.9167
  79   0.0000       0.113201         3.0804
  80   0.0000       0.128950         3.5089
  81   0.0000       0.131213         3.5705

MULLIKEN ATOMIC CHARGES
-----------------------
   0 C :   -0.343989
   1 C :    0.043140
   2 O :   -0.330438
   3 C :    0.411877
   4 O :   -0.383514
   5 C :   -0.187144
   6 C :    0.132356
   7 C :   -0.330707
   8 N :   -0.140276
   9 C :    0.204853
  10 S :   -0.440968
  11 N :   -0.228944
  12 C :    0.092043
  13 C :    0.016557
  14 C :   -0.214012
  15 C :   -0.135903
  16 C :   -0.275644
  17 C :    0.320919
  18 O :   -0.357891
  19 C :   -0.275104
  20 H :    0.134780
  21 H :    0.118982
  22 H :    0.105380
  23 H :    0.131026
  24 H :    0.084147
  25 H :    0.127519
  26 H :    0.139259
  27 H :    0.122761
  28 H :    0.196726
  29 H :    0.203058
  30 H :    0.168285
  31 H :    0.176433
  32 H :    0.163963
  33 H :    0.131994
  34 H :    0.241027
  35 H :    0.177446
Sum of atomic charges:   -0.0000000

LOEWDIN ATOMIC CHARGES
----------------------
   0 C :    0.105104
   1 C :   -0.015493
   2 O :    0.295351
   3 C :   -0.417632
   4 O :    0.121970
   5 C :   -0.079196
   6 C :   -0.100516
   7 C :    0.125940
   8 N :    0.402399
   9 C :   -0.456639
  10 S :   -0.037607
  11 N :    0.398344
  12 C :   -0.041753
  13 C :   -0.042915
  14 C :    0.020438
  15 C :    0.044519
  16 C :   -0.001676
  17 C :   -0.193901
  18 O :    0.395360
  19 C :    0.026606
  20 H :   -0.022629
  21 H :   -0.022354
  22 H :   -0.037067
  23 H :   -0.016321
  24 H :   -0.037188
  25 H :   -0.008489
  26 H :   -0.009339
  27 H :   -0.017932
  28 H :   -0.058067
  29 H :   -0.063651
  30 H :   -0.001780
  31 H :   -0.021549
  32 H :   -0.018481
  33 H :   -0.035078
  34 H :   -0.153553
  35 H :   -0.025223

  Mayer bond orders larger than 0.100000
B(  0-C ,  1-C ) :   0.9530 B(  0-C , 20-H ) :   0.9640 B(  0-C , 21-H ) :   0.9793
B(  0-C , 22-H ) :   0.9754 B(  1-C ,  2-O ) :   0.9118 B(  1-C , 23-H ) :   0.9790
B(  1-C , 24-H ) :   0.9760 B(  2-O ,  3-C ) :   1.1651 B(  3-C ,  4-O ) :   2.0744
B(  3-C ,  5-C ) :   0.9275 B(  5-C ,  6-C ) :   1.7023 B(  5-C , 12-C ) :   0.9528
B(  6-C ,  7-C ) :   0.9424 B(  6-C ,  8-N ) :   1.0960 B(  7-C , 25-H ) :   0.9793
B(  7-C , 26-H ) :   0.9732 B(  7-C , 27-H ) :   0.9643 B(  8-N ,  9-C ) :   1.1971
B(  8-N , 28-H ) :   0.9521 B(  9-C , 10-S ) :   1.6081 B(  9-C , 11-N ) :   1.2886
B( 11-N , 12-C ) :   0.9849 B( 11-N , 29-H ) :   0.9472 B( 12-C , 13-C ) :   0.9503
B( 12-C , 30-H ) :   0.9934 B( 13-C , 14-C ) :   1.3904 B( 13-C , 19-C ) :   1.3425
B( 14-C , 15-C ) :   1.4019 B( 14-C , 31-H ) :   0.9578 B( 15-C , 16-C ) :   1.3592
B( 15-C , 32-H ) :   0.9700 B( 16-C , 17-C ) :   1.3311 B( 16-C , 33-H ) :   0.9847
B( 17-C , 18-O ) :   1.1093 B( 17-C , 19-C ) :   1.3660 B( 18-O , 34-H ) :   0.9796
B( 19-C , 35-H ) :   0.9583

MP2 TOTAL ENERGY:    -1274.322071060 Eh
FINAL SINGLE POINT ENERGY     -1274.322071059838

DIPOLE MOMENT
-------------
                                X             Y             Z
Electronic contribution:      9.47287       5.57903       6.77832
Nuclear contribution   :    -11.09720      -6.64140      -7.46411
                        -----------------------------------------
Total Dipole Moment    :     -1.62432      -1.06236      -0.68579
                        -----------------------------------------
Magnitude (a.u.)       :      2.05848
Magnitude (Debye)      :      5.23224

Rotational constants in cm-1:     0.011615     0.009583     0.006766
Rotational constants in MHz :   348.221015   287.280994   202.831335

                             ****ORCA TERMINATED NORMALLY****
TOTAL RUN TIME: 0 days 2 hours 33 minutes 4 seconds 395 msec
