                         Program Version 4.2.0 -  RELEASE  -
|  1> ! ri-mp2 cc-pvtz cc-pvtz/c TightSCF  NoKeepInts
|  2>
|  3> %scf
|  4>   MaxCore 4096
|  5> end
|  6> *xyz  0  1
|  7>     C       15.2280509   14.2254378   17.0777528
|  8>     C       16.4887555   13.9831683   16.2203173
|  9>     O       17.4876819   14.9898561   16.4833653
| 10>     C       17.2060504   16.3071370   16.2511478
| 11>     O       16.4530337   16.6499031   15.3553852
| 12>     C       17.6995899   17.2154208   17.3441776
| 13>     C       17.4548830   18.5508656   17.3458600
| 14>     C       16.6548032   19.3392526   16.3310167
| 15>     N       18.0057085   19.3625886   18.3423606
| 16>     C       18.9242392   18.9470485   19.2692576
| 17>     S       19.6334793   19.9979375   20.3315393
| 18>     N       19.2332572   17.6107067   19.2659395
| 19>     C       18.5343809   16.5842493   18.4711261
| 20>     C       17.6948426   15.7106394   19.3982147
| 21>     C       18.0497667   14.3674900   19.6253516
| 22>     C       17.2870867   13.5623692   20.4882187
| 23>     C       16.1621143   14.1051896   21.1323629
| 24>     C       15.8089995   15.4437951   20.9128510
| 25>     O       14.7233611   15.9706814   21.5328586
| 26>     C       16.5695065   16.2423651   20.0531742
| 27>     H       15.4771101   14.2320217   18.1445002
| 28>     H       14.4959092   13.4270063   16.9081420
| 29>     H       14.7461879   15.1781946   16.8261560
| 30>     H       16.9011222   12.9934510   16.4542726
| 31>     H       16.2170283   13.9937475   15.1559878
| 32>     H       17.0850148   19.2258940   15.3277715
| 33>     H       16.6155925   20.4117570   16.5545735
| 34>     H       15.6213229   18.9724209   16.2868289
| 35>     H       17.7945372   20.3476469   18.3544388
| 36>     H       19.8891110   17.3280389   19.9826973
| 37>     H       19.3027611   15.9532483   18.0026688
| 38>     H       18.9179190   13.9447724   19.1267463
| 39>     H       17.5691001   12.5244116   20.6563435
| 40>     H       15.5704179   13.4877288   21.8002067
| 41>     H       14.3594840   15.2872506   22.1154701
| 42>     H       16.2847911   17.2783079   19.9049184
| 43> *
| 44>
| 45>                          ****END OF INPUT****

CARTESIAN COORDINATES (ANGSTROEM)
---------------------------------
  C     15.228051   14.225438   17.077753
  C     16.488755   13.983168   16.220317
  O     17.487682   14.989856   16.483365
  C     17.206050   16.307137   16.251148
  O     16.453034   16.649903   15.355385
  C     17.699590   17.215421   17.344178
  C     17.454883   18.550866   17.345860
  C     16.654803   19.339253   16.331017
  N     18.005709   19.362589   18.342361
  C     18.924239   18.947048   19.269258
  S     19.633479   19.997937   20.331539
  N     19.233257   17.610707   19.265940
  C     18.534381   16.584249   18.471126
  C     17.694843   15.710639   19.398215
  C     18.049767   14.367490   19.625352
  C     17.287087   13.562369   20.488219
  C     16.162114   14.105190   21.132363
  C     15.808999   15.443795   20.912851
  O     14.723361   15.970681   21.532859
  C     16.569506   16.242365   20.053174
  H     15.477110   14.232022   18.144500
  H     14.495909   13.427006   16.908142
  H     14.746188   15.178195   16.826156
  H     16.901122   12.993451   16.454273
  H     16.217028   13.993747   15.155988
  H     17.085015   19.225894   15.327771
  H     16.615593   20.411757   16.554574
  H     15.621323   18.972421   16.286829
  H     17.794537   20.347647   18.354439
  H     19.889111   17.328039   19.982697
  H     19.302761   15.953248   18.002669
  H     18.917919   13.944772   19.126746
  H     17.569100   12.524412   20.656343
  H     15.570418   13.487729   21.800207
  H     14.359484   15.287251   22.115470
  H     16.284791   17.278308   19.904918

 Total Charge           Charge          ....    0
 Multiplicity           Mult            ....    1
 Number of Electrons    NEL             ....  154
 Basis Dimension        Dim             ....  828

ORBITAL ENERGIES
----------------

  NO   OCC          E(Eh)            E(eV)
   0   2.0000     -91.889737     -2500.4469
   1   2.0000     -20.598515      -560.5141
   2   2.0000     -20.593673      -560.3823
   3   2.0000     -20.542636      -558.9935
   4   2.0000     -15.630167      -425.3185
   5   2.0000     -15.608824      -424.7377
   6   2.0000     -11.394472      -310.0593
   7   2.0000     -11.384631      -309.7915
   8   2.0000     -11.336930      -308.4936
   9   2.0000     -11.316014      -307.9244
  10   2.0000     -11.309985      -307.7603
  11   2.0000     -11.296860      -307.4032
  12   2.0000     -11.261317      -306.4360
  13   2.0000     -11.259582      -306.3888
  14   2.0000     -11.257519      -306.3327
  15   2.0000     -11.252697      -306.2014
  16   2.0000     -11.245304      -306.0003
  17   2.0000     -11.240161      -305.8603
  18   2.0000     -11.239961      -305.8549
  19   2.0000     -11.220543      -305.3265
  20   2.0000      -8.894781      -242.0393
  21   2.0000      -6.576351      -178.9516
  22   2.0000      -6.574351      -178.8972
  23   2.0000      -6.573760      -178.8811
  24   2.0000      -1.448626       -39.4191
  25   2.0000      -1.418219       -38.5917
  26   2.0000      -1.352353       -36.7994
  27   2.0000      -1.341088       -36.4928
  28   2.0000      -1.239428       -33.7266
  29   2.0000      -1.159409       -31.5491
  30   2.0000      -1.121043       -30.5051
  31   2.0000      -1.043907       -28.4062
  32   2.0000      -1.032490       -28.0955
  33   2.0000      -1.017182       -27.6789
  34   2.0000      -0.996534       -27.1171
  35   2.0000      -0.985156       -26.8075
  36   2.0000      -0.923717       -25.1356
  37   2.0000      -0.894959       -24.3531
  38   2.0000      -0.847784       -23.0694
  39   2.0000      -0.839952       -22.8563
  40   2.0000      -0.835841       -22.7444
  41   2.0000      -0.815328       -22.1862
  42   2.0000      -0.751365       -20.4457
  43   2.0000      -0.733811       -19.9680
  44   2.0000      -0.723091       -19.6763
  45   2.0000      -0.697736       -18.9864
  46   2.0000      -0.690051       -18.7773
  47   2.0000      -0.676659       -18.4128
  48   2.0000      -0.669830       -18.2270
  49   2.0000      -0.663717       -18.0607
  50   2.0000      -0.649221       -17.6662
  51   2.0000      -0.642392       -17.4804
  52   2.0000      -0.634583       -17.2679
  53   2.0000      -0.613471       -16.6934
  54   2.0000      -0.608969       -16.5709
  55   2.0000      -0.601582       -16.3699
  56   2.0000      -0.599844       -16.3226
  57   2.0000      -0.579278       -15.7630
  58   2.0000      -0.571163       -15.5421
  59   2.0000      -0.566394       -15.4124
  60   2.0000      -0.553763       -15.0687
  61   2.0000      -0.543828       -14.7983
  62   2.0000      -0.532384       -14.4869
  63   2.0000      -0.531153       -14.4534
  64   2.0000      -0.526685       -14.3318
  65   2.0000      -0.514301       -13.9948
  66   2.0000      -0.502843       -13.6831
  67   2.0000      -0.501028       -13.6337
  68   2.0000      -0.477645       -12.9974
  69   2.0000      -0.465363       -12.6632
  70   2.0000      -0.453284       -12.3345
  71   2.0000      -0.444771       -12.1028
  72   2.0000      -0.355739        -9.6802
  73   2.0000      -0.351456        -9.5636
  74   2.0000      -0.329175        -8.9573
  75   2.0000      -0.324007        -8.8167
  76   2.0000      -0.316873        -8.6226
  77   0.0000       0.072856         1.9825
  78   0.0000       0.105274         2.8647
  79   0.0000       0.123575         3.3626
  80   0.0000       0.130827         3.5600
  81   0.0000       0.136821         3.7231

MULLIKEN ATOMIC CHARGES
-----------------------
   0 C :   -0.319495
   1 C :    0.027354
   2 O :   -0.375755
   3 C :    0.465382
   4 O :   -0.428815
   5 C :   -0.222308
   6 C :    0.152136
   7 C :   -0.270833
   8 N :   -0.123251
   9 C :    0.210250
  10 S :   -0.437918
  11 N :   -0.202203
  12 C :    0.051105
  13 C :    0.045552
  14 C :   -0.181228
  15 C :   -0.133171
  16 C :   -0.275306
  17 C :    0.302796
  18 O :   -0.358674
  19 C :   -0.243745
  20 H :    0.109794
  21 H :    0.106037
  22 H :    0.113033
  23 H :    0.113921
  24 H :    0.119813
  25 H :    0.132617
  26 H :    0.095212
  27 H :    0.131200
  28 H :    0.198212
  29 H :    0.193611
  30 H :    0.151669
  31 H :    0.153417
  32 H :    0.160804
  33 H :    0.131379
  34 H :    0.241048
  35 H :    0.166364
Sum of atomic charges:    0.0000000

LOEWDIN ATOMIC CHARGES
----------------------
   0 C :    0.106376
   1 C :   -0.016082
   2 O :    0.296045
   3 C :   -0.416436
   4 O :    0.101536
   5 C :   -0.095493
   6 C :   -0.057913
   7 C :    0.131551
   8 N :    0.406833
   9 C :   -0.456794
  10 S :   -0.033975
  11 N :    0.396719
  12 C :   -0.052174
  13 C :   -0.039068
  14 C :    0.013858
  15 C :    0.039181
  16 C :   -0.002514
  17 C :   -0.190758
  18 O :    0.396408
  19 C :    0.031961
  20 H :   -0.027204
  21 H :   -0.026164
  22 H :   -0.026995
  23 H :   -0.024651
  24 H :   -0.028268
  25 H :   -0.003425
  26 H :   -0.023328
  27 H :   -0.005084
  28 H :   -0.057477
  29 H :   -0.064781
  30 H :   -0.008873
  31 H :   -0.029427
  32 H :   -0.020857
  33 H :   -0.035224
  34 H :   -0.153433
  35 H :   -0.024069

  Mayer bond orders larger than 0.100000
B(  0-C ,  1-C ) :   0.9569 B(  0-C , 20-H ) :   0.9698 B(  0-C , 21-H ) :   0.9783
B(  0-C , 22-H ) :   0.9743 B(  1-C ,  2-O ) :   0.8865 B(  1-C , 23-H ) :   0.9834
B(  1-C , 24-H ) :   0.9839 B(  2-O ,  3-C ) :   1.1360 B(  3-C ,  4-O ) :   1.9807
B(  3-C ,  5-C ) :   1.0651 B(  5-C ,  6-C ) :   1.6534 B(  5-C , 12-C ) :   0.9717
B(  6-C ,  7-C ) :   0.9674 B(  6-C ,  8-N ) :   1.1604 B(  7-C , 25-H ) :   0.9593
B(  7-C , 26-H ) :   0.9901 B(  7-C , 27-H ) :   0.9613 B(  8-N ,  9-C ) :   1.1808
B(  8-N , 28-H ) :   0.9478 B(  9-C , 10-S ) :   1.6104 B(  9-C , 11-N ) :   1.3045
B( 11-N , 12-C ) :   0.9821 B( 11-N , 29-H ) :   0.9528 B( 12-C , 13-C ) :   0.9359
B( 12-C , 30-H ) :   1.0027 B( 13-C , 14-C ) :   1.3576 B( 13-C , 19-C ) :   1.3841
B( 14-C , 15-C ) :   1.3882 B( 14-C , 31-H ) :   0.9708 B( 15-C , 16-C ) :   1.3606
B( 15-C , 32-H ) :   0.9717 B( 16-C , 17-C ) :   1.3316 B( 16-C , 33-H ) :   0.9851
B( 17-C , 18-O ) :   1.1125 B( 17-C , 19-C ) :   1.3743 B( 18-O , 34-H ) :   0.9795
B( 19-C , 35-H ) :   0.9566

MP2 TOTAL ENERGY:    -1274.346076071 Eh
FINAL SINGLE POINT ENERGY     -1274.346076070709

DIPOLE MOMENT
-------------
                                X             Y             Z
Electronic contribution:      9.57199       9.85569       6.07835
Nuclear contribution   :    -10.50296     -11.56364      -6.25536
                        -----------------------------------------
Total Dipole Moment    :     -0.93097      -1.70794      -0.17701
                        -----------------------------------------
Magnitude (a.u.)       :      1.95323
Magnitude (Debye)      :      4.96471

Rotational constants in cm-1:     0.012331     0.009090     0.006488
Rotational constants in MHz :   369.660997   272.513022   194.516816

                             ****ORCA TERMINATED NORMALLY****
TOTAL RUN TIME: 0 days 1 hours 45 minutes 15 seconds 974 msec
