                         Program Version 4.2.0 -  RELEASE  -
|  1> ! ri-mp2 cc-pvtz cc-pvtz/c TightSCF  NoKeepInts
|  2>
|  3> %scf
|  4>   MaxCore 4096
|  5> end
|  6> *xyz  0  1
|  7>     C       15.1119093   14.4374229   17.3139373
|  8>     C       15.4257883   15.6648565   16.4395329
|  9>     O       16.7049010   15.4456401   15.8078331
| 10>     C       17.8932171   15.6694034   16.4544926
| 11>     O       18.7496688   14.8045738   16.4783068
| 12>     C       17.9629542   16.8688720   17.3505766
| 13>     C       17.5045305   18.0941660   16.9938523
| 14>     C       16.8909791   18.4968877   15.6683487
| 15>     N       17.6667334   19.1778985   17.8604554
| 16>     C       18.3907180   19.1461902   19.0233605
| 17>     S       18.6040782   20.4983716   19.9507561
| 18>     N       18.9287901   17.9346177   19.3796300
| 19>     C       18.6839508   16.6564084   18.6831786
| 20>     C       17.9031972   15.6942256   19.5717426
| 21>     C       18.3350722   14.3644200   19.7276941
| 22>     C       17.6113852   13.4661688   20.5296294
| 23>     C       16.4433403   13.8996696   21.1796987
| 24>     C       16.0066806   15.2219310   21.0223952
| 25>     O       14.8715275   15.6399909   21.6364574
| 26>     C       16.7289848   16.1142491   20.2238115
| 27>     H       15.8813860   14.2891440   18.0797517
| 28>     H       15.0663542   13.5294523   16.6996606
| 29>     H       14.1464038   14.5592001   17.8195408
| 30>     H       14.6509003   15.7555550   15.6674167
| 31>     H       15.4010060   16.5720845   17.0531922
| 32>     H       17.1734735   17.8096153   14.8611521
| 33>     H       17.2320419   19.4925299   15.3572343
| 34>     H       15.7964561   18.5220302   15.7260486
| 35>     H       17.2923822   20.0796788   17.6100389
| 36>     H       19.4396458   17.9353285   20.2535128
| 37>     H       19.6622674   16.2032412   18.4646878
| 38>     H       19.2276024   14.0210733   19.2089157
| 39>     H       17.9535406   12.4382349   20.6376325
| 40>     H       15.8797516   13.2075048   21.7965943
| 41>     H       14.5525634   14.9081243   22.1861700
| 42>     H       16.3728182   17.1332392   20.1167613
| 43> *
| 44>
| 45>                          ****END OF INPUT****

CARTESIAN COORDINATES (ANGSTROEM)
---------------------------------
  C     15.111909   14.437423   17.313937
  C     15.425788   15.664856   16.439533
  O     16.704901   15.445640   15.807833
  C     17.893217   15.669403   16.454493
  O     18.749669   14.804574   16.478307
  C     17.962954   16.868872   17.350577
  C     17.504530   18.094166   16.993852
  C     16.890979   18.496888   15.668349
  N     17.666733   19.177899   17.860455
  C     18.390718   19.146190   19.023360
  S     18.604078   20.498372   19.950756
  N     18.928790   17.934618   19.379630
  C     18.683951   16.656408   18.683179
  C     17.903197   15.694226   19.571743
  C     18.335072   14.364420   19.727694
  C     17.611385   13.466169   20.529629
  C     16.443340   13.899670   21.179699
  C     16.006681   15.221931   21.022395
  O     14.871527   15.639991   21.636457
  C     16.728985   16.114249   20.223811
  H     15.881386   14.289144   18.079752
  H     15.066354   13.529452   16.699661
  H     14.146404   14.559200   17.819541
  H     14.650900   15.755555   15.667417
  H     15.401006   16.572084   17.053192
  H     17.173473   17.809615   14.861152
  H     17.232042   19.492530   15.357234
  H     15.796456   18.522030   15.726049
  H     17.292382   20.079679   17.610039
  H     19.439646   17.935329   20.253513
  H     19.662267   16.203241   18.464688
  H     19.227602   14.021073   19.208916
  H     17.953541   12.438235   20.637632
  H     15.879752   13.207505   21.796594
  H     14.552563   14.908124   22.186170
  H     16.372818   17.133239   20.116761

 Total Charge           Charge          ....    0
 Multiplicity           Mult            ....    1
 Number of Electrons    NEL             ....  154
 Basis Dimension        Dim             ....  828

ORBITAL ENERGIES
----------------

  NO   OCC          E(Eh)            E(eV)
   0   2.0000     -91.891166     -2500.4857
   1   2.0000     -20.599518      -560.5414
   2   2.0000     -20.595303      -560.4267
   3   2.0000     -20.550873      -559.2177
   4   2.0000     -15.630191      -425.3191
   5   2.0000     -15.611304      -424.8052
   6   2.0000     -11.397178      -310.1330
   7   2.0000     -11.387262      -309.8632
   8   2.0000     -11.335728      -308.4608
   9   2.0000     -11.316166      -307.9285
  10   2.0000     -11.312228      -307.8214
  11   2.0000     -11.305276      -307.6322
  12   2.0000     -11.266899      -306.5879
  13   2.0000     -11.264897      -306.5334
  14   2.0000     -11.262077      -306.4567
  15   2.0000     -11.256339      -306.3005
  16   2.0000     -11.245747      -306.0123
  17   2.0000     -11.241715      -305.9026
  18   2.0000     -11.238717      -305.8210
  19   2.0000     -11.224393      -305.4313
  20   2.0000      -8.896254      -242.0794
  21   2.0000      -6.577834      -178.9920
  22   2.0000      -6.575818      -178.9371
  23   2.0000      -6.575235      -178.9212
  24   2.0000      -1.447330       -39.3839
  25   2.0000      -1.419267       -38.6202
  26   2.0000      -1.358899       -36.9775
  27   2.0000      -1.342441       -36.5297
  28   2.0000      -1.241025       -33.7700
  29   2.0000      -1.160788       -31.5867
  30   2.0000      -1.125222       -30.6188
  31   2.0000      -1.048191       -28.5227
  32   2.0000      -1.034520       -28.1507
  33   2.0000      -1.018169       -27.7058
  34   2.0000      -1.005122       -27.3508
  35   2.0000      -0.989536       -26.9266
  36   2.0000      -0.927739       -25.2451
  37   2.0000      -0.887599       -24.1528
  38   2.0000      -0.855057       -23.2673
  39   2.0000      -0.842290       -22.9199
  40   2.0000      -0.836456       -22.7611
  41   2.0000      -0.833174       -22.6718
  42   2.0000      -0.748878       -20.3780
  43   2.0000      -0.739383       -20.1196
  44   2.0000      -0.730855       -19.8876
  45   2.0000      -0.697590       -18.9824
  46   2.0000      -0.688083       -18.7237
  47   2.0000      -0.680463       -18.5163
  48   2.0000      -0.677382       -18.4325
  49   2.0000      -0.660483       -17.9727
  50   2.0000      -0.656773       -17.8717
  51   2.0000      -0.648692       -17.6518
  52   2.0000      -0.640123       -17.4186
  53   2.0000      -0.615619       -16.7519
  54   2.0000      -0.608876       -16.5684
  55   2.0000      -0.606384       -16.5005
  56   2.0000      -0.601508       -16.3679
  57   2.0000      -0.583974       -15.8907
  58   2.0000      -0.577613       -15.7176
  59   2.0000      -0.568494       -15.4695
  60   2.0000      -0.560046       -15.2396
  61   2.0000      -0.552775       -15.0418
  62   2.0000      -0.545397       -14.8410
  63   2.0000      -0.529999       -14.4220
  64   2.0000      -0.520843       -14.1729
  65   2.0000      -0.513545       -13.9743
  66   2.0000      -0.502268       -13.6674
  67   2.0000      -0.497695       -13.5430
  68   2.0000      -0.486075       -13.2268
  69   2.0000      -0.470195       -12.7947
  70   2.0000      -0.457800       -12.4574
  71   2.0000      -0.447650       -12.1812
  72   2.0000      -0.358458        -9.7541
  73   2.0000      -0.352095        -9.5810
  74   2.0000      -0.330617        -8.9966
  75   2.0000      -0.324073        -8.8185
  76   2.0000      -0.319420        -8.6919
  77   0.0000       0.075587         2.0568
  78   0.0000       0.103438         2.8147
  79   0.0000       0.115872         3.1530
  80   0.0000       0.128377         3.4933
  81   0.0000       0.135843         3.6965

MULLIKEN ATOMIC CHARGES
-----------------------
   0 C :   -0.275733
   1 C :    0.013659
   2 O :   -0.340164
   3 C :    0.424178
   4 O :   -0.383696
   5 C :   -0.217304
   6 C :    0.147686
   7 C :   -0.315315
   8 N :   -0.131162
   9 C :    0.200146
  10 S :   -0.438143
  11 N :   -0.204775
  12 C :    0.062741
  13 C :    0.007662
  14 C :   -0.175060
  15 C :   -0.131346
  16 C :   -0.274771
  17 C :    0.310467
  18 O :   -0.360172
  19 C :   -0.256942
  20 H :    0.106407
  21 H :    0.111228
  22 H :    0.093511
  23 H :    0.119324
  24 H :    0.091729
  25 H :    0.139649
  26 H :    0.126009
  27 H :    0.120933
  28 H :    0.197663
  29 H :    0.196228
  30 H :    0.161456
  31 H :    0.164892
  32 H :    0.162751
  33 H :    0.132104
  34 H :    0.241666
  35 H :    0.172495
Sum of atomic charges:    0.0000000

LOEWDIN ATOMIC CHARGES
----------------------
   0 C :    0.109356
   1 C :   -0.023307
   2 O :    0.297685
   3 C :   -0.416926
   4 O :    0.125072
   5 C :   -0.088882
   6 C :   -0.087946
   7 C :    0.127368
   8 N :    0.403115
   9 C :   -0.458119
  10 S :   -0.035149
  11 N :    0.397575
  12 C :   -0.045528
  13 C :   -0.045512
  14 C :    0.021130
  15 C :    0.044051
  16 C :   -0.000247
  17 C :   -0.192745
  18 O :    0.394871
  19 C :    0.027583
  20 H :   -0.025040
  21 H :   -0.023979
  22 H :   -0.026481
  23 H :   -0.024252
  24 H :   -0.040645
  25 H :   -0.006515
  26 H :   -0.013010
  27 H :   -0.016251
  28 H :   -0.057375
  29 H :   -0.063246
  30 H :   -0.003091
  31 H :   -0.022304
  32 H :   -0.018828
  33 H :   -0.034691
  34 H :   -0.153007
  35 H :   -0.024729

  Mayer bond orders larger than 0.100000
B(  0-C ,  1-C ) :   0.9794 B(  0-C , 20-H ) :   0.9684 B(  0-C , 21-H ) :   0.9802
B(  0-C , 22-H ) :   0.9754 B(  1-C ,  2-O ) :   0.8946 B(  1-C , 23-H ) :   0.9807
B(  1-C , 24-H ) :   0.9646 B(  2-O ,  3-C ) :   1.1561 B(  3-C ,  4-O ) :   2.0841
B(  3-C ,  5-C ) :   0.9446 B(  5-C ,  6-C ) :   1.6762 B(  5-C , 12-C ) :   0.9591
B(  6-C ,  7-C ) :   0.9443 B(  6-C ,  8-N ) :   1.1279 B(  7-C , 25-H ) :   0.9730
B(  7-C , 26-H ) :   0.9799 B(  7-C , 27-H ) :   0.9639 B(  8-N ,  9-C ) :   1.1867
B(  8-N , 28-H ) :   0.9506 B(  9-C , 10-S ) :   1.6136 B(  9-C , 11-N ) :   1.2947
B( 11-N , 12-C ) :   0.9982 B( 11-N , 29-H ) :   0.9507 B( 12-C , 13-C ) :   0.9417
B( 12-C , 30-H ) :   0.9971 B( 13-C , 14-C ) :   1.3887 B( 13-C , 19-C ) :   1.3598
B( 14-C , 15-C ) :   1.3921 B( 14-C , 31-H ) :   0.9615 B( 15-C , 16-C ) :   1.3626
B( 15-C , 32-H ) :   0.9711 B( 16-C , 17-C ) :   1.3309 B( 16-C , 33-H ) :   0.9847
B( 17-C , 18-O ) :   1.1084 B( 17-C , 19-C ) :   1.3708 B( 18-O , 34-H ) :   0.9792
B( 19-C , 35-H ) :   0.9572

MP2 TOTAL ENERGY:    -1274.337075064 Eh
FINAL SINGLE POINT ENERGY     -1274.337075064204

DIPOLE MOMENT
-------------
                                X             Y             Z
Electronic contribution:      9.83620       8.09342       5.65769
Nuclear contribution   :    -11.34827      -8.96738      -6.01614
                        -----------------------------------------
Total Dipole Moment    :     -1.51207      -0.87396      -0.35845
                        -----------------------------------------
Magnitude (a.u.)       :      1.78288
Magnitude (Debye)      :      4.53171

Rotational constants in cm-1:     0.012150     0.009364     0.006825
Rotational constants in MHz :   364.237941   280.710832   204.611541

                             ****ORCA TERMINATED NORMALLY****
TOTAL RUN TIME: 0 days 1 hours 52 minutes 58 seconds 693 msec
