                         Program Version 4.2.0 -  RELEASE  -
|  1> ! ri-mp2 cc-pvtz cc-pvtz/c TightSCF  NoKeepInts
|  2>
|  3> %scf
|  4>   MaxCore 4096
|  5> end
|  6> *xyz  0  1
|  7>     C       15.1952189   14.8120107   17.3629396
|  8>     C       15.4707195   15.5382057   16.0331470
|  9>     O       16.8509987   15.3731170   15.6367341
| 10>     C       17.9375569   15.6230787   16.4372663
| 11>     O       18.8460647   14.8145074   16.4910905
| 12>     C       17.8916566   16.8106652   17.3549688
| 13>     C       17.4147059   18.0294053   16.9930924
| 14>     C       16.9010165   18.4713507   15.6370285
| 15>     N       17.5165985   19.1073755   17.8764336
| 16>     C       18.2514580   19.1040594   19.0320010
| 17>     S       18.4262778   20.4638804   19.9562643
| 18>     N       18.8415538   17.9150967   19.3777319
| 19>     C       18.6022704   16.6237332   18.7040633
| 20>     C       17.8566086   15.6552930   19.6204012
| 21>     C       18.1935419   14.2888127   19.6227336
| 22>     C       17.5109446   13.3815771   20.4497270
| 23>     C       16.4815232   13.8427263   21.2870488
| 24>     C       16.1427076   15.2021774   21.2915764
| 25>     O       15.1430175   15.6494152   22.0922464
| 26>     C       16.8230814   16.1035184   20.4664111
| 27>     H       15.5433397   15.4044509   18.2121798
| 28>     H       15.6894701   13.8320870   17.3889024
| 29>     H       14.1180807   14.6532766   17.4943752
| 30>     H       14.8333253   15.1035645   15.2521367
| 31>     H       15.1911557   16.5903713   16.1353226
| 32>     H       17.1036344   17.7370736   14.8489520
| 33>     H       17.3964371   19.3977040   15.3185888
| 34>     H       15.8224825   18.6670379   15.6595804
| 35>     H       17.1105791   19.9958210   17.6280131
| 36>     H       19.3692394   17.9353252   20.2413281
| 37>     H       19.5885452   16.1826679   18.4962616
| 38>     H       18.9842983   13.9250347   18.9698491
| 39>     H       17.7803545   12.3267819   20.4362309
| 40>     H       15.9507294   13.1447583   21.9260530
| 41>     H       14.8321588   14.8965425   22.6173690
| 42>     H       16.5356490   17.1494965   20.4859515
| 43> *
| 44>
| 45>                          ****END OF INPUT****

CARTESIAN COORDINATES (ANGSTROEM)
---------------------------------
  C     15.195219   14.812011   17.362940
  C     15.470719   15.538206   16.033147
  O     16.850999   15.373117   15.636734
  C     17.937557   15.623079   16.437266
  O     18.846065   14.814507   16.491090
  C     17.891657   16.810665   17.354969
  C     17.414706   18.029405   16.993092
  C     16.901017   18.471351   15.637028
  N     17.516598   19.107375   17.876434
  C     18.251458   19.104059   19.032001
  S     18.426278   20.463880   19.956264
  N     18.841554   17.915097   19.377732
  C     18.602270   16.623733   18.704063
  C     17.856609   15.655293   19.620401
  C     18.193542   14.288813   19.622734
  C     17.510945   13.381577   20.449727
  C     16.481523   13.842726   21.287049
  C     16.142708   15.202177   21.291576
  O     15.143017   15.649415   22.092246
  C     16.823081   16.103518   20.466411
  H     15.543340   15.404451   18.212180
  H     15.689470   13.832087   17.388902
  H     14.118081   14.653277   17.494375
  H     14.833325   15.103564   15.252137
  H     15.191156   16.590371   16.135323
  H     17.103634   17.737074   14.848952
  H     17.396437   19.397704   15.318589
  H     15.822482   18.667038   15.659580
  H     17.110579   19.995821   17.628013
  H     19.369239   17.935325   20.241328
  H     19.588545   16.182668   18.496262
  H     18.984298   13.925035   18.969849
  H     17.780355   12.326782   20.436231
  H     15.950729   13.144758   21.926053
  H     14.832159   14.896543   22.617369
  H     16.535649   17.149496   20.485951

 Total Charge           Charge          ....    0
 Multiplicity           Mult            ....    1
 Number of Electrons    NEL             ....  154
 Basis Dimension        Dim             ....  828

ORBITAL ENERGIES
----------------

  NO   OCC          E(Eh)            E(eV)
   0   2.0000     -91.891142     -2500.4851
   1   2.0000     -20.597424      -560.4844
   2   2.0000     -20.596088      -560.4480
   3   2.0000     -20.550911      -559.2187
   4   2.0000     -15.629761      -425.3074
   5   2.0000     -15.610700      -424.7887
   6   2.0000     -11.399607      -310.1991
   7   2.0000     -11.386869      -309.8525
   8   2.0000     -11.337879      -308.5194
   9   2.0000     -11.314279      -307.8772
  10   2.0000     -11.312217      -307.8211
  11   2.0000     -11.307987      -307.7060
  12   2.0000     -11.268686      -306.6365
  13   2.0000     -11.267475      -306.6036
  14   2.0000     -11.261218      -306.4333
  15   2.0000     -11.254397      -306.2477
  16   2.0000     -11.243599      -305.9539
  17   2.0000     -11.239324      -305.8376
  18   2.0000     -11.235376      -305.7301
  19   2.0000     -11.226886      -305.4991
  20   2.0000      -8.896229      -242.0787
  21   2.0000      -6.577812      -178.9914
  22   2.0000      -6.575792      -178.9364
  23   2.0000      -6.575210      -178.9206
  24   2.0000      -1.446741       -39.3678
  25   2.0000      -1.417238       -38.5650
  26   2.0000      -1.358879       -36.9770
  27   2.0000      -1.342886       -36.5418
  28   2.0000      -1.241111       -33.7723
  29   2.0000      -1.158369       -31.5208
  30   2.0000      -1.124205       -30.5912
  31   2.0000      -1.046597       -28.4793
  32   2.0000      -1.036692       -28.2098
  33   2.0000      -1.016945       -27.6725
  34   2.0000      -1.005266       -27.3547
  35   2.0000      -0.989398       -26.9229
  36   2.0000      -0.927431       -25.2367
  37   2.0000      -0.895463       -24.3668
  38   2.0000      -0.855164       -23.2702
  39   2.0000      -0.841479       -22.8978
  40   2.0000      -0.834113       -22.6974
  41   2.0000      -0.829240       -22.5648
  42   2.0000      -0.745820       -20.2948
  43   2.0000      -0.737904       -20.0794
  44   2.0000      -0.729950       -19.8629
  45   2.0000      -0.695264       -18.9191
  46   2.0000      -0.687023       -18.6948
  47   2.0000      -0.681800       -18.5527
  48   2.0000      -0.675383       -18.3781
  49   2.0000      -0.660665       -17.9776
  50   2.0000      -0.656848       -17.8737
  51   2.0000      -0.649806       -17.6821
  52   2.0000      -0.639252       -17.3949
  53   2.0000      -0.624558       -16.9951
  54   2.0000      -0.609465       -16.5844
  55   2.0000      -0.605289       -16.4708
  56   2.0000      -0.601256       -16.3610
  57   2.0000      -0.586509       -15.9597
  58   2.0000      -0.575435       -15.6584
  59   2.0000      -0.565466       -15.3871
  60   2.0000      -0.562971       -15.3192
  61   2.0000      -0.548101       -14.9146
  62   2.0000      -0.542683       -14.7672
  63   2.0000      -0.534911       -14.5557
  64   2.0000      -0.520368       -14.1599
  65   2.0000      -0.512958       -13.9583
  66   2.0000      -0.501282       -13.6406
  67   2.0000      -0.497408       -13.5352
  68   2.0000      -0.482615       -13.1326
  69   2.0000      -0.469750       -12.7825
  70   2.0000      -0.458671       -12.4811
  71   2.0000      -0.449547       -12.2328
  72   2.0000      -0.359829        -9.7914
  73   2.0000      -0.348821        -9.4919
  74   2.0000      -0.330599        -8.9961
  75   2.0000      -0.322738        -8.7821
  76   2.0000      -0.319569        -8.6959
  77   0.0000       0.076784         2.0894
  78   0.0000       0.106611         2.9010
  79   0.0000       0.116201         3.1620
  80   0.0000       0.130629         3.5546
  81   0.0000       0.131876         3.5885

MULLIKEN ATOMIC CHARGES
-----------------------
   0 C :   -0.318825
   1 C :    0.031859
   2 O :   -0.342443
   3 C :    0.452177
   4 O :   -0.386479
   5 C :   -0.240960
   6 C :    0.161561
   7 C :   -0.332243
   8 N :   -0.134027
   9 C :    0.194368
  10 S :   -0.437807
  11 N :   -0.217922
  12 C :    0.074898
  13 C :    0.013649
  14 C :   -0.202673
  15 C :   -0.140666
  16 C :   -0.270026
  17 C :    0.311209
  18 O :   -0.357265
  19 C :   -0.254132
  20 H :    0.111394
  21 H :    0.119073
  22 H :    0.108405
  23 H :    0.123557
  24 H :    0.083003
  25 H :    0.140089
  26 H :    0.134630
  27 H :    0.122147
  28 H :    0.197073
  29 H :    0.200216
  30 H :    0.165812
  31 H :    0.176710
  32 H :    0.164570
  33 H :    0.131992
  34 H :    0.240686
  35 H :    0.176389
Sum of atomic charges:   -0.0000000

LOEWDIN ATOMIC CHARGES
----------------------
   0 C :    0.108315
   1 C :   -0.020780
   2 O :    0.293990
   3 C :   -0.415276
   4 O :    0.124259
   5 C :   -0.084140
   6 C :   -0.086135
   7 C :    0.123356
   8 N :    0.403754
   9 C :   -0.460306
  10 S :   -0.035478
  11 N :    0.397764
  12 C :   -0.043607
  13 C :   -0.043236
  14 C :    0.020792
  15 C :    0.043819
  16 C :   -0.001197
  17 C :   -0.193047
  18 O :    0.395409
  19 C :    0.025533
  20 H :   -0.032874
  21 H :   -0.020318
  22 H :   -0.024860
  23 H :   -0.020324
  24 H :   -0.039676
  25 H :   -0.008404
  26 H :   -0.010541
  27 H :   -0.019261
  28 H :   -0.056630
  29 H :   -0.063088
  30 H :   -0.002265
  31 H :   -0.022755
  32 H :   -0.019040
  33 H :   -0.035103
  34 H :   -0.153562
  35 H :   -0.025088

  Mayer bond orders larger than 0.100000
B(  0-C ,  1-C ) :   0.9626 B(  0-C , 20-H ) :   0.9696 B(  0-C , 21-H ) :   0.9713
B(  0-C , 22-H ) :   0.9784 B(  1-C ,  2-O ) :   0.8996 B(  1-C , 23-H ) :   0.9819
B(  1-C , 24-H ) :   0.9714 B(  2-O ,  3-C ) :   1.1546 B(  3-C ,  4-O ) :   2.0691
B(  3-C ,  5-C ) :   0.9521 B(  5-C ,  6-C ) :   1.6739 B(  5-C , 12-C ) :   0.9499
B(  6-C ,  7-C ) :   0.9401 B(  6-C ,  8-N ) :   1.1216 B(  7-C , 25-H ) :   0.9744
B(  7-C , 26-H ) :   0.9736 B(  7-C , 27-H ) :   0.9657 B(  8-N ,  9-C ) :   1.1897
B(  8-N , 28-H ) :   0.9519 B(  9-C , 10-S ) :   1.6125 B(  9-C , 11-N ) :   1.2934
B( 11-N , 12-C ) :   0.9860 B( 11-N , 29-H ) :   0.9495 B( 12-C , 13-C ) :   0.9521
B( 12-C , 30-H ) :   0.9961 B( 13-C , 14-C ) :   1.3890 B( 13-C , 19-C ) :   1.3435
B( 14-C , 15-C ) :   1.3989 B( 14-C , 31-H ) :   0.9570 B( 15-C , 16-C ) :   1.3600
B( 15-C , 32-H ) :   0.9698 B( 16-C , 17-C ) :   1.3311 B( 16-C , 33-H ) :   0.9844
B( 17-C , 18-O ) :   1.1113 B( 17-C , 19-C ) :   1.3675 B( 18-O , 34-H ) :   0.9799
B( 19-C , 35-H ) :   0.9595

MP2 TOTAL ENERGY:    -1274.334580816 Eh
FINAL SINGLE POINT ENERGY     -1274.334580815717

DIPOLE MOMENT
-------------
                                X             Y             Z
Electronic contribution:      9.45833       7.25031       6.19017
Nuclear contribution   :    -11.05271      -8.18101      -6.72255
                        -----------------------------------------
Total Dipole Moment    :     -1.59438      -0.93070      -0.53238
                        -----------------------------------------
Magnitude (a.u.)       :      1.92137
Magnitude (Debye)      :      4.88374

Rotational constants in cm-1:     0.011466     0.009744     0.006642
Rotational constants in MHz :   343.755652   292.112196   199.108114

                             ****ORCA TERMINATED NORMALLY****
TOTAL RUN TIME: 0 days 1 hours 47 minutes 39 seconds 934 msec
