                         Program Version 5.0.0 -  RELEASE  -
|  1> ! ri-mp2 cc-pvtz cc-pvtz/c TightSCF NoKeepInts
|  2>
|  3> %scf
|  4>   MaxCore 4096
|  5> end
|  6> *xyz  0  1
|  7>     C       15.4207601   14.2460124   17.0754460
|  8>     C       15.3879553   15.3614440   16.0077727
|  9>     O       16.7048307   15.8102332   15.6066341
| 10>     C       17.7782974   15.7525422   16.4484289
| 11>     O       18.4133661   14.7225021   16.5941662
| 12>     C       17.9134053   16.9228884   17.3798843
| 13>     C       17.4412440   18.1706512   17.1242378
| 14>     C       16.7297431   18.6615398   15.8797724
| 15>     N       17.6813167   19.2039290   18.0356947
| 16>     C       18.5138792   19.1138887   19.1198343
| 17>     S       18.8456401   20.4230029   20.0742651
| 18>     N       19.0573974   17.8798633   19.3719881
| 19>     C       18.6827953   16.6352500   18.6743251
| 20>     C       17.8812080   15.7237159   19.5990915
| 21>     C       18.2549481   14.3779192   19.7694613
| 22>     C       17.5125493   13.5283376   20.6064907
| 23>     C       16.3853720   14.0276478   21.2807422
| 24>     C       16.0078742   15.3666040   21.1122642
| 25>     O       14.9138676   15.8492280   21.7533555
| 26>     C       16.7479417   16.2097428   20.2774059
| 27>     H       16.0312422   13.3985746   16.7379273
| 28>     H       14.4072627   13.8745373   17.2682932
| 29>     H       15.8249580   14.6107868   18.0257893
| 30>     H       14.8466270   15.0046460   15.1220020
| 31>     H       14.8253018   16.2090781   16.4187684
| 32>     H       17.1903148   18.2479551   14.9736327
| 33>     H       16.7702356   19.7532445   15.7797330
| 34>     H       15.6737430   18.3689633   15.8886298
| 35>     H       17.2966489   20.1193978   17.8646349
| 36>     H       19.6477438   17.8334156   20.1926983
| 37>     H       19.6128194   16.1149382   18.4022248
| 38>     H       19.1151153   13.9837950   19.2329960
| 39>     H       17.8090464   12.4874325   20.7236141
| 40>     H       15.8079330   13.3739145   21.9259660
| 41>     H       14.5758719   15.1416978   22.3228830
| 42>     H       16.4377448   17.2426803   20.1629460
| 43> *
| 44>
| 45>                          ****END OF INPUT****

CARTESIAN COORDINATES (ANGSTROEM)
---------------------------------
  C     15.420760   14.246012   17.075446
  C     15.387955   15.361444   16.007773
  O     16.704831   15.810233   15.606634
  C     17.778297   15.752542   16.448429
  O     18.413366   14.722502   16.594166
  C     17.913405   16.922888   17.379884
  C     17.441244   18.170651   17.124238
  C     16.729743   18.661540   15.879772
  N     17.681317   19.203929   18.035695
  C     18.513879   19.113889   19.119834
  S     18.845640   20.423003   20.074265
  N     19.057397   17.879863   19.371988
  C     18.682795   16.635250   18.674325
  C     17.881208   15.723716   19.599092
  C     18.254948   14.377919   19.769461
  C     17.512549   13.528338   20.606491
  C     16.385372   14.027648   21.280742
  C     16.007874   15.366604   21.112264
  O     14.913868   15.849228   21.753355
  C     16.747942   16.209743   20.277406
  H     16.031242   13.398575   16.737927
  H     14.407263   13.874537   17.268293
  H     15.824958   14.610787   18.025789
  H     14.846627   15.004646   15.122002
  H     14.825302   16.209078   16.418768
  H     17.190315   18.247955   14.973633
  H     16.770236   19.753245   15.779733
  H     15.673743   18.368963   15.888630
  H     17.296649   20.119398   17.864635
  H     19.647744   17.833416   20.192698
  H     19.612819   16.114938   18.402225
  H     19.115115   13.983795   19.232996
  H     17.809046   12.487433   20.723614
  H     15.807933   13.373914   21.925966
  H     14.575872   15.141698   22.322883
  H     16.437745   17.242680   20.162946

 Total Charge           Charge          ....    0
 Multiplicity           Mult            ....    1
 Number of Electrons    NEL             ....  154
 Basis Dimension        Dim             ....  828

ORBITAL ENERGIES
----------------

  NO   OCC          E(Eh)            E(eV)
   0   2.0000     -91.890410     -2500.4652
   1   2.0000     -20.596447      -560.4578
   2   2.0000     -20.583627      -560.1090
   3   2.0000     -20.552920      -559.2734
   4   2.0000     -15.630798      -425.3356
   5   2.0000     -15.609116      -424.7456
   6   2.0000     -11.395593      -310.0899
   7   2.0000     -11.385501      -309.8152
   8   2.0000     -11.338579      -308.5384
   9   2.0000     -11.312948      -307.8410
  10   2.0000     -11.308375      -307.7165
  11   2.0000     -11.307377      -307.6894
  12   2.0000     -11.262216      -306.4605
  13   2.0000     -11.262009      -306.4549
  14   2.0000     -11.258276      -306.3533
  15   2.0000     -11.252855      -306.2058
  16   2.0000     -11.242602      -305.9268
  17   2.0000     -11.238500      -305.8151
  18   2.0000     -11.234984      -305.7195
  19   2.0000     -11.224529      -305.4350
  20   2.0000      -8.895469      -242.0580
  21   2.0000      -6.577043      -178.9704
  22   2.0000      -6.575037      -178.9158
  23   2.0000      -6.574448      -178.8998
  24   2.0000      -1.445930       -39.3458
  25   2.0000      -1.416259       -38.5384
  26   2.0000      -1.355648       -36.8891
  27   2.0000      -1.341918       -36.5154
  28   2.0000      -1.239594       -33.7311
  29   2.0000      -1.157021       -31.4841
  30   2.0000      -1.121894       -30.5283
  31   2.0000      -1.044707       -28.4279
  32   2.0000      -1.032247       -28.0889
  33   2.0000      -1.014684       -27.6110
  34   2.0000      -1.001624       -27.2556
  35   2.0000      -0.986705       -26.8496
  36   2.0000      -0.925134       -25.1742
  37   2.0000      -0.893959       -24.3259
  38   2.0000      -0.851729       -23.1767
  39   2.0000      -0.840148       -22.8616
  40   2.0000      -0.832923       -22.6650
  41   2.0000      -0.823915       -22.4199
  42   2.0000      -0.744124       -20.2486
  43   2.0000      -0.729174       -19.8418
  44   2.0000      -0.727505       -19.7964
  45   2.0000      -0.694351       -18.8943
  46   2.0000      -0.686381       -18.6774
  47   2.0000      -0.679633       -18.4937
  48   2.0000      -0.675590       -18.3837
  49   2.0000      -0.664558       -18.0836
  50   2.0000      -0.650272       -17.6948
  51   2.0000      -0.648334       -17.6421
  52   2.0000      -0.637111       -17.3367
  53   2.0000      -0.623387       -16.9632
  54   2.0000      -0.605351       -16.4724
  55   2.0000      -0.603840       -16.4313
  56   2.0000      -0.600243       -16.3334
  57   2.0000      -0.579302       -15.7636
  58   2.0000      -0.575106       -15.6494
  59   2.0000      -0.565716       -15.3939
  60   2.0000      -0.552948       -15.0465
  61   2.0000      -0.546979       -14.8840
  62   2.0000      -0.538081       -14.6419
  63   2.0000      -0.529495       -14.4083
  64   2.0000      -0.519814       -14.1449
  65   2.0000      -0.512050       -13.9336
  66   2.0000      -0.500322       -13.6145
  67   2.0000      -0.491598       -13.3771
  68   2.0000      -0.483988       -13.1700
  69   2.0000      -0.466632       -12.6977
  70   2.0000      -0.456589       -12.4244
  71   2.0000      -0.449234       -12.2243
  72   2.0000      -0.357157        -9.7187
  73   2.0000      -0.348749        -9.4899
  74   2.0000      -0.329603        -8.9690
  75   2.0000      -0.320425        -8.7192
  76   2.0000      -0.317793        -8.6476
  77   0.0000       0.070343         1.9141
  78   0.0000       0.106038         2.8854
  79   0.0000       0.119778         3.2593
  80   0.0000       0.131909         3.5894
  81   0.0000       0.137867         3.7516

MULLIKEN ATOMIC CHARGES
-----------------------
   0 C :   -0.306842
   1 C :    0.045107
   2 O :   -0.383853
   3 C :    0.474540
   4 O :   -0.394117
   5 C :   -0.212809
   6 C :    0.143237
   7 C :   -0.297293
   8 N :   -0.123563
   9 C :    0.195605
  10 S :   -0.436669
  11 N :   -0.199765
  12 C :    0.050948
  13 C :    0.007320
  14 C :   -0.154005
  15 C :   -0.141826
  16 C :   -0.268620
  17 C :    0.300964
  18 O :   -0.359948
  19 C :   -0.243583
  20 H :    0.118968
  21 H :    0.104858
  22 H :    0.110782
  23 H :    0.112780
  24 H :    0.078440
  25 H :    0.136729
  26 H :    0.110170
  27 H :    0.120780
  28 H :    0.197427
  29 H :    0.194295
  30 H :    0.156944
  31 H :    0.161187
  32 H :    0.161242
  33 H :    0.131453
  34 H :    0.240839
  35 H :    0.168278
Sum of atomic charges:   -0.0000000

LOEWDIN ATOMIC CHARGES
----------------------
   0 C :    0.109491
   1 C :   -0.015468
   2 O :    0.282399
   3 C :   -0.420368
   4 O :    0.128050
   5 C :   -0.094661
   6 C :   -0.069284
   7 C :    0.127118
   8 N :    0.405007
   9 C :   -0.459598
  10 S :   -0.034106
  11 N :    0.397658
  12 C :   -0.046089
  13 C :   -0.043341
  14 C :    0.022041
  15 C :    0.042516
  16 C :   -0.001541
  17 C :   -0.194031
  18 O :    0.394255
  19 C :    0.026377
  20 H :   -0.021508
  21 H :   -0.024927
  22 H :   -0.026601
  23 H :   -0.022440
  24 H :   -0.038977
  25 H :   -0.005855
  26 H :   -0.018554
  27 H :   -0.014099
  28 H :   -0.058381
  29 H :   -0.063599
  30 H :   -0.003819
  31 H :   -0.023814
  32 H :   -0.019887
  33 H :   -0.035357
  34 H :   -0.153861
  35 H :   -0.024742

  Mayer bond orders larger than 0.100000
B(  0-C ,  1-C ) :   0.9739 B(  0-C , 20-H ) :   0.9710 B(  0-C , 21-H ) :   0.9756
B(  0-C , 22-H ) :   0.9656 B(  1-C ,  2-O ) :   0.8991 B(  1-C , 23-H ) :   0.9797
B(  1-C , 24-H ) :   0.9744 B(  2-O ,  3-C ) :   1.0902 B(  3-C ,  4-O ) :   2.0451
B(  3-C ,  5-C ) :   1.0186 B(  5-C ,  6-C ) :   1.6625 B(  5-C , 12-C ) :   0.9597
B(  6-C ,  7-C ) :   0.9499 B(  6-C ,  8-N ) :   1.1443 B(  7-C , 25-H ) :   0.9655
B(  7-C , 26-H ) :   0.9883 B(  7-C , 27-H ) :   0.9674 B(  8-N ,  9-C ) :   1.1802
B(  8-N , 28-H ) :   0.9492 B(  9-C , 10-S ) :   1.6144 B(  9-C , 11-N ) :   1.3013
B( 11-N , 12-C ) :   0.9911 B( 11-N , 29-H ) :   0.9521 B( 12-C , 13-C ) :   0.9456
B( 12-C , 30-H ) :   0.9989 B( 13-C , 14-C ) :   1.3873 B( 13-C , 19-C ) :   1.3663
B( 14-C , 15-C ) :   1.3937 B( 14-C , 31-H ) :   0.9611 B( 15-C , 16-C ) :   1.3624
B( 15-C , 32-H ) :   0.9712 B( 16-C , 17-C ) :   1.3318 B( 16-C , 33-H ) :   0.9846
B( 17-C , 18-O ) :   1.1116 B( 17-C , 19-C ) :   1.3733 B( 18-O , 34-H ) :   0.9798
B( 19-C , 35-H ) :   0.9581

MP2 TOTAL ENERGY:    -1274.330647341 Eh
FINAL SINGLE POINT ENERGY     -1274.330647341097

DIPOLE MOMENT
-------------
                                X             Y             Z
Electronic contribution:      9.82755       8.96333       6.36031
Nuclear contribution   :    -11.34570     -10.01760      -6.91477
                        -----------------------------------------
Total Dipole Moment    :     -1.51815      -1.05427      -0.55446
                        -----------------------------------------
Magnitude (a.u.)       :      1.92968
Magnitude (Debye)      :      4.90486

Rotational constants in cm-1:     0.011693     0.009564     0.006638
Rotational constants in MHz :   350.558494   286.712012   198.995976

                             ****ORCA TERMINATED NORMALLY****
TOTAL RUN TIME: 0 days 2 hours 6 minutes 56 seconds 314 msec
