                         Program Version 5.0.0 -  RELEASE  -
|  1> ! ri-mp2 cc-pvtz cc-pvtz/c TightSCF NoKeepInts
|  2>
|  3> %scf
|  4>   MaxCore 4096
|  5> end
|  6> *xyz  0  1
|  7>     C       15.0709875   15.7114985   17.2904583
|  8>     C       15.6034335   15.1156697   15.9707947
|  9>     O       17.0016598   15.3338965   15.6327008
| 10>     C       18.0584994   15.6855302   16.4391166
| 11>     O       19.0276137   14.9512565   16.4997106
| 12>     C       17.8905191   16.8190420   17.4028600
| 13>     C       17.3286230   17.9971480   17.0359139
| 14>     C       16.7943808   18.3676330   15.6655903
| 15>     N       17.3170465   19.0715484   17.9288797
| 16>     C       18.0126016   19.1101413   19.1085829
| 17>     S       18.0426168   20.4647115   20.0564643
| 18>     N       18.6891560   17.9686565   19.4603301
| 19>     C       18.5886736   16.6715788   18.7613378
| 20>     C       17.9179710   15.6186018   19.6418132
| 21>     C       18.3711615   14.2865659   19.6129837
| 22>     C       17.7614220   13.3024081   20.4084232
| 23>     C       16.6873524   13.6507975   21.2442367
| 24>     C       16.2315243   14.9751931   21.2782772
| 25>     O       15.1883879   15.3132346   22.0771263
| 26>     C       16.8401440   15.9532312   20.4851514
| 27>     H       15.6605311   15.3603171   18.1414146
| 28>     H       14.0436766   15.3646124   17.4562255
| 29>     H       15.0345310   16.8031928   17.2875652
| 30>     H       15.4509926   14.0297284   16.0277136
| 31>     H       14.9802342   15.4722957   15.1406481
| 32>     H       15.7246534   18.1503174   15.5737985
| 33>     H       17.3174507   17.8233780   14.8693644
| 34>     H       16.9360480   19.4345473   15.4520144
| 35>     H       16.8430664   19.9251150   17.6790873
| 36>     H       19.1845019   18.0208839   20.3414993
| 37>     H       19.6155685   16.3283192   18.5664714
| 38>     H       19.1973932   14.0100290   18.9612334
| 39>     H       18.1215431   12.2756072   20.3718916
| 40>     H       16.2126536   12.8931600   21.8589466
| 41>     H       14.9381614   14.5227471   22.5787830
| 42>     H       16.4622203   16.9694062   20.5265916
| 43> *
| 44>
| 45>                          ****END OF INPUT****

CARTESIAN COORDINATES (ANGSTROEM)
---------------------------------
  C     15.070987   15.711498   17.290458
  C     15.603433   15.115670   15.970795
  O     17.001660   15.333896   15.632701
  C     18.058499   15.685530   16.439117
  O     19.027614   14.951256   16.499711
  C     17.890519   16.819042   17.402860
  C     17.328623   17.997148   17.035914
  C     16.794381   18.367633   15.665590
  N     17.317047   19.071548   17.928880
  C     18.012602   19.110141   19.108583
  S     18.042617   20.464711   20.056464
  N     18.689156   17.968657   19.460330
  C     18.588674   16.671579   18.761338
  C     17.917971   15.618602   19.641813
  C     18.371161   14.286566   19.612984
  C     17.761422   13.302408   20.408423
  C     16.687352   13.650797   21.244237
  C     16.231524   14.975193   21.278277
  O     15.188388   15.313235   22.077126
  C     16.840144   15.953231   20.485151
  H     15.660531   15.360317   18.141415
  H     14.043677   15.364612   17.456225
  H     15.034531   16.803193   17.287565
  H     15.450993   14.029728   16.027714
  H     14.980234   15.472296   15.140648
  H     15.724653   18.150317   15.573799
  H     17.317451   17.823378   14.869364
  H     16.936048   19.434547   15.452014
  H     16.843066   19.925115   17.679087
  H     19.184502   18.020884   20.341499
  H     19.615568   16.328319   18.566471
  H     19.197393   14.010029   18.961233
  H     18.121543   12.275607   20.371892
  H     16.212654   12.893160   21.858947
  H     14.938161   14.522747   22.578783
  H     16.462220   16.969406   20.526592

 Total Charge           Charge          ....    0
 Multiplicity           Mult            ....    1
 Number of Electrons    NEL             ....  154
 Basis Dimension        Dim             ....  828

ORBITAL ENERGIES
----------------

  NO   OCC          E(Eh)            E(eV)
   0   2.0000     -91.891055     -2500.4827
   1   2.0000     -20.597530      -560.4873
   2   2.0000     -20.590181      -560.2873
   3   2.0000     -20.548769      -559.1604
   4   2.0000     -15.629967      -425.3130
   5   2.0000     -15.610596      -424.7859
   6   2.0000     -11.398101      -310.1581
   7   2.0000     -11.386853      -309.8520
   8   2.0000     -11.334404      -308.4248
   9   2.0000     -11.314306      -307.8779
  10   2.0000     -11.312284      -307.8229
  11   2.0000     -11.311922      -307.8130
  12   2.0000     -11.265970      -306.5626
  13   2.0000     -11.263325      -306.4907
  14   2.0000     -11.261426      -306.4390
  15   2.0000     -11.254610      -306.2535
  16   2.0000     -11.243747      -305.9579
  17   2.0000     -11.239462      -305.8413
  18   2.0000     -11.235880      -305.7438
  19   2.0000     -11.235637      -305.7372
  20   2.0000      -8.896134      -242.0761
  21   2.0000      -6.577715      -178.9887
  22   2.0000      -6.575699      -178.9339
  23   2.0000      -6.575115      -178.9180
  24   2.0000      -1.441119       -39.2149
  25   2.0000      -1.417354       -38.5682
  26   2.0000      -1.353050       -36.8184
  27   2.0000      -1.341858       -36.5138
  28   2.0000      -1.240243       -33.7487
  29   2.0000      -1.158396       -31.5215
  30   2.0000      -1.123938       -30.5839
  31   2.0000      -1.046482       -28.4762
  32   2.0000      -1.040460       -28.3124
  33   2.0000      -1.016697       -27.6657
  34   2.0000      -1.003897       -27.3174
  35   2.0000      -0.990114       -26.9424
  36   2.0000      -0.927233       -25.2313
  37   2.0000      -0.900417       -24.5016
  38   2.0000      -0.853076       -23.2134
  39   2.0000      -0.840859       -22.8809
  40   2.0000      -0.834179       -22.6992
  41   2.0000      -0.825411       -22.4606
  42   2.0000      -0.745904       -20.2971
  43   2.0000      -0.732405       -19.9297
  44   2.0000      -0.729375       -19.8473
  45   2.0000      -0.694879       -18.9086
  46   2.0000      -0.687041       -18.6953
  47   2.0000      -0.676505       -18.4086
  48   2.0000      -0.674251       -18.3473
  49   2.0000      -0.662921       -18.0390
  50   2.0000      -0.654601       -17.8126
  51   2.0000      -0.651959       -17.7407
  52   2.0000      -0.642697       -17.4887
  53   2.0000      -0.616520       -16.7764
  54   2.0000      -0.605036       -16.4639
  55   2.0000      -0.603616       -16.4252
  56   2.0000      -0.601862       -16.3775
  57   2.0000      -0.589438       -16.0394
  58   2.0000      -0.575535       -15.6611
  59   2.0000      -0.569425       -15.4948
  60   2.0000      -0.564497       -15.3607
  61   2.0000      -0.556212       -15.1353
  62   2.0000      -0.544679       -14.8215
  63   2.0000      -0.531872       -14.4730
  64   2.0000      -0.522070       -14.2062
  65   2.0000      -0.513792       -13.9810
  66   2.0000      -0.501039       -13.6340
  67   2.0000      -0.489154       -13.3106
  68   2.0000      -0.483677       -13.1615
  69   2.0000      -0.469555       -12.7773
  70   2.0000      -0.457883       -12.4596
  71   2.0000      -0.447302       -12.1717
  72   2.0000      -0.356569        -9.7027
  73   2.0000      -0.348488        -9.4829
  74   2.0000      -0.330444        -8.9918
  75   2.0000      -0.322754        -8.7826
  76   2.0000      -0.319038        -8.6815
  77   0.0000       0.076807         2.0900
  78   0.0000       0.107093         2.9141
  79   0.0000       0.116168         3.1611
  80   0.0000       0.128685         3.5017
  81   0.0000       0.131418         3.5761

MULLIKEN ATOMIC CHARGES
-----------------------
   0 C :   -0.351978
   1 C :    0.043191
   2 O :   -0.358876
   3 C :    0.439680
   4 O :   -0.383101
   5 C :   -0.222420
   6 C :    0.149275
   7 C :   -0.309639
   8 N :   -0.137095
   9 C :    0.198117
  10 S :   -0.437532
  11 N :   -0.221533
  12 C :    0.089750
  13 C :    0.015254
  14 C :   -0.207141
  15 C :   -0.137599
  16 C :   -0.275729
  17 C :    0.318739
  18 O :   -0.357462
  19 C :   -0.270642
  20 H :    0.134121
  21 H :    0.127344
  22 H :    0.102465
  23 H :    0.117902
  24 H :    0.104745
  25 H :    0.116641
  26 H :    0.139981
  27 H :    0.120664
  28 H :    0.198040
  29 H :    0.200636
  30 H :    0.164589
  31 H :    0.177086
  32 H :    0.163788
  33 H :    0.131959
  34 H :    0.240920
  35 H :    0.175860
Sum of atomic charges:    0.0000000

LOEWDIN ATOMIC CHARGES
----------------------
   0 C :    0.105336
   1 C :   -0.013176
   2 O :    0.281403
   3 C :   -0.417182
   4 O :    0.123686
   5 C :   -0.087315
   6 C :   -0.083352
   7 C :    0.128335
   8 N :    0.404179
   9 C :   -0.458374
  10 S :   -0.035353
  11 N :    0.397726
  12 C :   -0.043160
  13 C :   -0.043753
  14 C :    0.018927
  15 C :    0.042977
  16 C :   -0.001818
  17 C :   -0.194060
  18 O :    0.395197
  19 C :    0.026862
  20 H :   -0.025794
  21 H :   -0.019166
  22 H :   -0.036192
  23 H :   -0.022139
  24 H :   -0.026680
  25 H :   -0.017907
  26 H :   -0.005898
  27 H :   -0.014297
  28 H :   -0.058210
  29 H :   -0.063587
  30 H :   -0.002390
  31 H :   -0.022210
  32 H :   -0.018911
  33 H :   -0.035164
  34 H :   -0.153675
  35 H :   -0.024865

  Mayer bond orders larger than 0.100000
B(  0-C ,  1-C ) :   0.9639 B(  0-C , 20-H ) :   0.9620 B(  0-C , 21-H ) :   0.9774
B(  0-C , 22-H ) :   0.9718 B(  1-C ,  2-O ) :   0.8980 B(  1-C , 23-H ) :   0.9803
B(  1-C , 24-H ) :   0.9803 B(  2-O ,  3-C ) :   1.1393 B(  3-C ,  4-O ) :   2.0672
B(  3-C ,  5-C ) :   0.9597 B(  5-C ,  6-C ) :   1.6840 B(  5-C , 12-C ) :   0.9462
B(  6-C ,  7-C ) :   0.9459 B(  6-C ,  8-N ) :   1.1100 B(  7-C , 25-H ) :   0.9645
B(  7-C , 26-H ) :   0.9698 B(  7-C , 27-H ) :   0.9839 B(  8-N ,  9-C ) :   1.1896
B(  8-N , 28-H ) :   0.9502 B(  9-C , 10-S ) :   1.6117 B(  9-C , 11-N ) :   1.2916
B( 11-N , 12-C ) :   0.9837 B( 11-N , 29-H ) :   0.9492 B( 12-C , 13-C ) :   0.9513
B( 12-C , 30-H ) :   0.9951 B( 13-C , 14-C ) :   1.3914 B( 13-C , 19-C ) :   1.3432
B( 14-C , 15-C ) :   1.3999 B( 14-C , 31-H ) :   0.9567 B( 15-C , 16-C ) :   1.3604
B( 15-C , 32-H ) :   0.9703 B( 16-C , 17-C ) :   1.3309 B( 16-C , 33-H ) :   0.9846
B( 17-C , 18-O ) :   1.1104 B( 17-C , 19-C ) :   1.3684 B( 18-O , 34-H ) :   0.9797
B( 19-C , 35-H ) :   0.9590

MP2 TOTAL ENERGY:    -1274.323971212 Eh
FINAL SINGLE POINT ENERGY     -1274.323971211754

DIPOLE MOMENT
-------------
                                X             Y             Z
Electronic contribution:      9.32964       6.34635       6.69418
Nuclear contribution   :    -10.87353      -7.47388      -7.25781
                        -----------------------------------------
Total Dipole Moment    :     -1.54389      -1.12752      -0.56363
                        -----------------------------------------
Magnitude (a.u.)       :      1.99313
Magnitude (Debye)      :      5.06614

Rotational constants in cm-1:     0.011317     0.009759     0.006726
Rotational constants in MHz :   339.263097   292.562036   201.646112

                             ****ORCA TERMINATED NORMALLY****
TOTAL RUN TIME: 0 days 2 hours 5 minutes 12 seconds 233 msec
