                         Program Version 4.2.0 -  RELEASE  -
|  1> ! ri-mp2 cc-pvtz cc-pvtz/c TightSCF  NoKeepInts
|  2>
|  3> %scf
|  4>   MaxCore 4096
|  5> end
|  6> *xyz  0  1
|  7>     C       14.2469145   15.5902977   16.1642826
|  8>     C       15.3999606   15.4528332   17.1736492
|  9>     O       16.5844842   15.0869673   16.4344337
| 10>     C       17.8166684   15.6886964   16.5265504
| 11>     O       18.8106385   15.0564946   16.2210825
| 12>     C       17.9252910   16.8649231   17.4390570
| 13>     C       17.3496549   18.0573360   17.1644065
| 14>     C       16.5448334   18.4131727   15.9343670
| 15>     N       17.5248282   19.1318260   18.0387695
| 16>     C       18.3269809   19.1082890   19.1505408
| 17>     S       18.5139894   20.4394650   20.1132417
| 18>     N       18.9611135   17.9219633   19.4306185
| 19>     C       18.7829330   16.6597942   18.6847291
| 20>     C       18.1757266   15.5711613   19.5633704
| 21>     C       18.6935778   14.2637650   19.5271200
| 22>     C       18.1195845   13.2446456   20.3051170
| 23>     C       17.0142614   13.5330746   21.1234547
| 24>     C       16.4899278   14.8320732   21.1556114
| 25>     O       15.4122395   15.1107931   21.9309900
| 26>     C       17.0631896   15.8450217   20.3804467
| 27>     H       13.3151463   15.8557093   16.6785190
| 28>     H       14.0865652   14.6416866   15.6363140
| 29>     H       14.4614655   16.3638552   15.4182859
| 30>     H       15.5023193   16.3874191   17.7338304
| 31>     H       15.1660767   14.6608594   17.8975759
| 32>     H       16.6132050   17.6419197   15.1572548
| 33>     H       16.9087835   19.3456223   15.4842581
| 34>     H       15.4853091   18.5492979   16.1827831
| 35>     H       17.0792914   20.0150248   17.8444661
| 36>     H       19.5284891   17.9289050   20.2689700
| 37>     H       19.7762619   16.3216730   18.3540059
| 38>     H       19.5347228   14.0326738   18.8767665
| 39>     H       18.5270262   12.2358040   20.2639499
| 40>     H       16.5656907   12.7471425   21.7221696
| 41>     H       15.2009210   14.3090649   22.4333605
| 42>     H       16.6389284   16.8427493   20.4196513
| 43> *
| 44>
| 45>                          ****END OF INPUT****

CARTESIAN COORDINATES (ANGSTROEM)
---------------------------------
  C     14.246914   15.590298   16.164283
  C     15.399961   15.452833   17.173649
  O     16.584484   15.086967   16.434434
  C     17.816668   15.688696   16.526550
  O     18.810638   15.056495   16.221083
  C     17.925291   16.864923   17.439057
  C     17.349655   18.057336   17.164406
  C     16.544833   18.413173   15.934367
  N     17.524828   19.131826   18.038770
  C     18.326981   19.108289   19.150541
  S     18.513989   20.439465   20.113242
  N     18.961113   17.921963   19.430619
  C     18.782933   16.659794   18.684729
  C     18.175727   15.571161   19.563370
  C     18.693578   14.263765   19.527120
  C     18.119584   13.244646   20.305117
  C     17.014261   13.533075   21.123455
  C     16.489928   14.832073   21.155611
  O     15.412239   15.110793   21.930990
  C     17.063190   15.845022   20.380447
  H     13.315146   15.855709   16.678519
  H     14.086565   14.641687   15.636314
  H     14.461465   16.363855   15.418286
  H     15.502319   16.387419   17.733830
  H     15.166077   14.660859   17.897576
  H     16.613205   17.641920   15.157255
  H     16.908783   19.345622   15.484258
  H     15.485309   18.549298   16.182783
  H     17.079291   20.015025   17.844466
  H     19.528489   17.928905   20.268970
  H     19.776262   16.321673   18.354006
  H     19.534723   14.032674   18.876766
  H     18.527026   12.235804   20.263950
  H     16.565691   12.747143   21.722170
  H     15.200921   14.309065   22.433360
  H     16.638928   16.842749   20.419651

 Total Charge           Charge          ....    0
 Multiplicity           Mult            ....    1
 Number of Electrons    NEL             ....  154
 Basis Dimension        Dim             ....  828

ORBITAL ENERGIES
----------------

  NO   OCC          E(Eh)            E(eV)
   0   2.0000     -91.890186     -2500.4591
   1   2.0000     -20.600923      -560.5796
   2   2.0000     -20.600248      -560.5613
   3   2.0000     -20.549807      -559.1887
   4   2.0000     -15.627243      -425.2389
   5   2.0000     -15.611943      -424.8226
   6   2.0000     -11.398262      -310.1625
   7   2.0000     -11.387111      -309.8590
   8   2.0000     -11.328717      -308.2700
   9   2.0000     -11.316835      -307.9467
  10   2.0000     -11.315119      -307.9000
  11   2.0000     -11.303910      -307.5950
  12   2.0000     -11.269899      -306.6695
  13   2.0000     -11.264720      -306.5286
  14   2.0000     -11.263458      -306.4943
  15   2.0000     -11.256785      -306.3127
  16   2.0000     -11.246273      -306.0266
  17   2.0000     -11.242488      -305.9236
  18   2.0000     -11.239583      -305.8446
  19   2.0000     -11.235521      -305.7341
  20   2.0000      -8.895302      -242.0535
  21   2.0000      -6.576890      -178.9663
  22   2.0000      -6.574864      -178.9111
  23   2.0000      -6.574289      -178.8955
  24   2.0000      -1.447169       -39.3795
  25   2.0000      -1.420045       -38.6414
  26   2.0000      -1.358723       -36.9727
  27   2.0000      -1.340487       -36.4765
  28   2.0000      -1.240231       -33.7484
  29   2.0000      -1.161739       -31.6125
  30   2.0000      -1.126322       -30.6488
  31   2.0000      -1.049613       -28.5614
  32   2.0000      -1.041709       -28.3463
  33   2.0000      -1.018984       -27.7280
  34   2.0000      -1.005516       -27.3615
  35   2.0000      -0.990004       -26.9394
  36   2.0000      -0.928205       -25.2577
  37   2.0000      -0.887091       -24.1390
  38   2.0000      -0.854464       -23.2511
  39   2.0000      -0.842274       -22.9194
  40   2.0000      -0.837243       -22.7826
  41   2.0000      -0.836553       -22.7638
  42   2.0000      -0.757362       -20.6089
  43   2.0000      -0.739072       -20.1112
  44   2.0000      -0.732338       -19.9279
  45   2.0000      -0.697884       -18.9904
  46   2.0000      -0.688580       -18.7372
  47   2.0000      -0.680650       -18.5214
  48   2.0000      -0.676912       -18.4197
  49   2.0000      -0.666901       -18.1473
  50   2.0000      -0.653180       -17.7739
  51   2.0000      -0.642707       -17.4890
  52   2.0000      -0.640274       -17.4227
  53   2.0000      -0.614832       -16.7304
  54   2.0000      -0.608598       -16.5608
  55   2.0000      -0.605221       -16.4689
  56   2.0000      -0.603373       -16.4186
  57   2.0000      -0.589003       -16.0276
  58   2.0000      -0.578907       -15.7528
  59   2.0000      -0.569622       -15.5002
  60   2.0000      -0.565316       -15.3830
  61   2.0000      -0.560318       -15.2470
  62   2.0000      -0.542068       -14.7504
  63   2.0000      -0.534524       -14.5451
  64   2.0000      -0.523745       -14.2518
  65   2.0000      -0.516470       -14.0539
  66   2.0000      -0.502803       -13.6820
  67   2.0000      -0.502122       -13.6634
  68   2.0000      -0.489095       -13.3089
  69   2.0000      -0.470934       -12.8148
  70   2.0000      -0.453837       -12.3495
  71   2.0000      -0.448553       -12.2057
  72   2.0000      -0.356900        -9.7117
  73   2.0000      -0.352185        -9.5834
  74   2.0000      -0.329867        -8.9761
  75   2.0000      -0.324650        -8.8342
  76   2.0000      -0.318474        -8.6661
  77   0.0000       0.085167         2.3175
  78   0.0000       0.104555         2.8451
  79   0.0000       0.113751         3.0953
  80   0.0000       0.128013         3.4834
  81   0.0000       0.131017         3.5652

MULLIKEN ATOMIC CHARGES
-----------------------
   0 C :   -0.267144
   1 C :    0.013216
   2 O :   -0.316356
   3 C :    0.394833
   4 O :   -0.381615
   5 C :   -0.181518
   6 C :    0.131030
   7 C :   -0.334759
   8 N :   -0.136895
   9 C :    0.205030
  10 S :   -0.440927
  11 N :   -0.211831
  12 C :    0.066652
  13 C :    0.031724
  14 C :   -0.190297
  15 C :   -0.128760
  16 C :   -0.277119
  17 C :    0.312882
  18 O :   -0.358499
  19 C :   -0.281530
  20 H :    0.093677
  21 H :    0.112134
  22 H :    0.087766
  23 H :    0.096578
  24 H :    0.130099
  25 H :    0.127026
  26 H :    0.142911
  27 H :    0.124733
  28 H :    0.196495
  29 H :    0.198107
  30 H :    0.163764
  31 H :    0.165765
  32 H :    0.163410
  33 H :    0.132667
  34 H :    0.241994
  35 H :    0.174759
Sum of atomic charges:   -0.0000000

LOEWDIN ATOMIC CHARGES
----------------------
   0 C :    0.105018
   1 C :   -0.016888
   2 O :    0.308830
   3 C :   -0.417122
   4 O :    0.124584
   5 C :   -0.083064
   6 C :   -0.105166
   7 C :    0.125608
   8 N :    0.401069
   9 C :   -0.455662
  10 S :   -0.037706
  11 N :    0.397248
  12 C :   -0.044576
  13 C :   -0.043507
  14 C :    0.023551
  15 C :    0.046157
  16 C :   -0.000090
  17 C :   -0.194232
  18 O :    0.394158
  19 C :    0.028283
  20 H :   -0.025128
  21 H :   -0.022967
  22 H :   -0.033205
  23 H :   -0.040956
  24 H :   -0.023026
  25 H :   -0.008682
  26 H :   -0.009791
  27 H :   -0.015985
  28 H :   -0.058003
  29 H :   -0.063584
  30 H :   -0.002485
  31 H :   -0.021968
  32 H :   -0.018416
  33 H :   -0.034558
  34 H :   -0.152820
  35 H :   -0.024917

  Mayer bond orders larger than 0.100000
B(  0-C ,  1-C ) :   0.9719 B(  0-C , 20-H ) :   0.9755 B(  0-C , 21-H ) :   0.9793
B(  0-C , 22-H ) :   0.9782 B(  1-C ,  2-O ) :   0.9007 B(  1-C , 23-H ) :   0.9626
B(  1-C , 24-H ) :   0.9769 B(  2-O ,  3-C ) :   1.1865 B(  3-C ,  4-O ) :   2.0958
B(  3-C ,  5-C ) :   0.9271 B(  5-C ,  6-C ) :   1.6894 B(  5-C , 12-C ) :   0.9598
B(  6-C ,  7-C ) :   0.9432 B(  6-C ,  8-N ) :   1.1135 B(  7-C , 25-H ) :   0.9803
B(  7-C , 26-H ) :   0.9728 B(  7-C , 27-H ) :   0.9647 B(  8-N ,  9-C ) :   1.1945
B(  8-N , 28-H ) :   0.9520 B(  9-C , 10-S ) :   1.6117 B(  9-C , 11-N ) :   1.2877
B( 11-N , 12-C ) :   1.0001 B( 11-N , 29-H ) :   0.9490 B( 12-C , 13-C ) :   0.9447
B( 12-C , 30-H ) :   0.9969 B( 13-C , 14-C ) :   1.3862 B( 13-C , 19-C ) :   1.3464
B( 14-C , 15-C ) :   1.3958 B( 14-C , 31-H ) :   0.9618 B( 15-C , 16-C ) :   1.3649
B( 15-C , 32-H ) :   0.9701 B( 16-C , 17-C ) :   1.3280 B( 16-C , 33-H ) :   0.9842
B( 17-C , 18-O ) :   1.1098 B( 17-C , 19-C ) :   1.3718 B( 18-O , 34-H ) :   0.9789
B( 19-C , 35-H ) :   0.9580

MP2 TOTAL ENERGY:    -1274.331154158 Eh
FINAL SINGLE POINT ENERGY     -1274.331154158306

DIPOLE MOMENT
-------------
                                X             Y             Z
Electronic contribution:     11.78331       5.63733       7.82762
Nuclear contribution   :    -13.34681      -6.63727      -8.09107
                        -----------------------------------------
Total Dipole Moment    :     -1.56350      -0.99994      -0.26345
                        -----------------------------------------
Magnitude (a.u.)       :      1.87452
Magnitude (Debye)      :      4.76465

Rotational constants in cm-1:     0.011411     0.009242     0.006844
Rotational constants in MHz :   342.091255   277.082162   205.184613

                             ****ORCA TERMINATED NORMALLY****
TOTAL RUN TIME: 0 days 1 hours 53 minutes 47 seconds 1 msec
