                         Program Version 4.2.0 -  RELEASE  -
|  1> ! ri-mp2 cc-pvtz cc-pvtz/c TightSCF  NoKeepInts
|  2>
|  3> %scf
|  4>   MaxCore 4096
|  5> end
|  6> *xyz  0  1
|  7>     C       16.1406083   13.0846848   15.9787843
|  8>     C       15.5739445   14.4974396   16.1971565
|  9>     O       16.6644597   15.3389524   16.6046950
| 10>     C       16.5017806   16.6953605   16.5798508
| 11>     O       15.6032039   17.2306709   15.9527923
| 12>     C       17.4345524   17.4090247   17.5191315
| 13>     C       17.4656721   18.7617284   17.6254556
| 14>     C       16.6175730   19.7602201   16.8670605
| 15>     N       18.3810540   19.3766387   18.4849228
| 16>     C       19.3611054   18.7234100   19.1834289
| 17>     S       20.4682598   19.5361889   20.1051161
| 18>     N       19.3807867   17.3561405   19.0771610
| 19>     C       18.3639823   16.5428390   18.3854756
| 20>     C       17.5858586   15.7151721   19.4047085
| 21>     C       17.7140169   14.3136859   19.4319416
| 22>     C       16.9950773   13.5477410   20.3649391
| 23>     C       16.1436537   14.1883647   21.2812381
| 24>     C       16.0176524   15.5842178   21.2604135
| 25>     O       15.1972376   16.2056524   22.1445797
| 26>     C       16.7337183   16.3436832   20.3300491
| 27>     H       16.5691144   12.6929575   16.9095038
| 28>     H       16.9250478   13.0966662   15.2118786
| 29>     H       15.3491654   12.4001393   15.6503136
| 30>     H       15.1377750   14.8564578   15.2547062
| 31>     H       14.7900529   14.4871734   16.9660947
| 32>     H       15.5545006   19.6161486   17.0991080
| 33>     H       16.7369591   19.6256131   15.7844981
| 34>     H       16.8694492   20.8014929   17.0997051
| 35>     H       18.3823762   20.3801706   18.5742927
| 36>     H       20.0914880   16.8999345   19.6344860
| 37>     H       18.8977735   15.8547777   17.7148740
| 38>     H       18.3675316   13.8158917   18.7206105
| 39>     H       17.0990128   12.4642129   20.3762665
| 40>     H       15.5867430   13.6014648   22.0041894
| 41>     H       14.8185365   15.5239891   22.7196351
| 42>     H       16.6272767   17.4230942   20.3349372
| 43> *
| 44>
| 45>                          ****END OF INPUT****

CARTESIAN COORDINATES (ANGSTROEM)
---------------------------------
  C     16.140608   13.084685   15.978784
  C     15.573944   14.497440   16.197156
  O     16.664460   15.338952   16.604695
  C     16.501781   16.695360   16.579851
  O     15.603204   17.230671   15.952792
  C     17.434552   17.409025   17.519131
  C     17.465672   18.761728   17.625456
  C     16.617573   19.760220   16.867061
  N     18.381054   19.376639   18.484923
  C     19.361105   18.723410   19.183429
  S     20.468260   19.536189   20.105116
  N     19.380787   17.356140   19.077161
  C     18.363982   16.542839   18.385476
  C     17.585859   15.715172   19.404709
  C     17.714017   14.313686   19.431942
  C     16.995077   13.547741   20.364939
  C     16.143654   14.188365   21.281238
  C     16.017652   15.584218   21.260413
  O     15.197238   16.205652   22.144580
  C     16.733718   16.343683   20.330049
  H     16.569114   12.692957   16.909504
  H     16.925048   13.096666   15.211879
  H     15.349165   12.400139   15.650314
  H     15.137775   14.856458   15.254706
  H     14.790053   14.487173   16.966095
  H     15.554501   19.616149   17.099108
  H     16.736959   19.625613   15.784498
  H     16.869449   20.801493   17.099705
  H     18.382376   20.380171   18.574293
  H     20.091488   16.899935   19.634486
  H     18.897773   15.854778   17.714874
  H     18.367532   13.815892   18.720610
  H     17.099013   12.464213   20.376266
  H     15.586743   13.601465   22.004189
  H     14.818537   15.523989   22.719635
  H     16.627277   17.423094   20.334937

 Total Charge           Charge          ....    0
 Multiplicity           Mult            ....    1
 Number of Electrons    NEL             ....  154
 Basis Dimension        Dim             ....  828

ORBITAL ENERGIES
----------------

  NO   OCC          E(Eh)            E(eV)
   0   2.0000     -91.888935     -2500.4250
   1   2.0000     -20.600658      -560.5724
   2   2.0000     -20.596526      -560.4600
   3   2.0000     -20.541913      -558.9739
   4   2.0000     -15.629080      -425.2889
   5   2.0000     -15.608349      -424.7248
   6   2.0000     -11.394105      -310.0494
   7   2.0000     -11.384059      -309.7760
   8   2.0000     -11.335853      -308.4642
   9   2.0000     -11.313753      -307.8629
  10   2.0000     -11.309200      -307.7390
  11   2.0000     -11.295344      -307.3619
  12   2.0000     -11.259680      -306.3915
  13   2.0000     -11.258767      -306.3666
  14   2.0000     -11.255313      -306.2726
  15   2.0000     -11.251949      -306.1811
  16   2.0000     -11.243092      -305.9401
  17   2.0000     -11.238497      -305.8150
  18   2.0000     -11.238211      -305.8073
  19   2.0000     -11.230640      -305.6013
  20   2.0000      -8.893994      -242.0179
  21   2.0000      -6.575568      -178.9303
  22   2.0000      -6.573564      -178.8758
  23   2.0000      -6.572977      -178.8598
  24   2.0000      -1.452199       -39.5164
  25   2.0000      -1.416182       -38.5363
  26   2.0000      -1.354692       -36.8630
  27   2.0000      -1.340054       -36.4647
  28   2.0000      -1.238556       -33.7028
  29   2.0000      -1.157662       -31.5016
  30   2.0000      -1.120434       -30.4886
  31   2.0000      -1.043364       -28.3914
  32   2.0000      -1.039832       -28.2953
  33   2.0000      -1.015230       -27.6258
  34   2.0000      -0.995788       -27.0968
  35   2.0000      -0.984446       -26.7881
  36   2.0000      -0.922574       -25.1045
  37   2.0000      -0.887931       -24.1618
  38   2.0000      -0.846746       -23.0411
  39   2.0000      -0.837473       -22.7888
  40   2.0000      -0.834014       -22.6947
  41   2.0000      -0.818142       -22.2628
  42   2.0000      -0.765099       -20.8194
  43   2.0000      -0.732423       -19.9302
  44   2.0000      -0.721524       -19.6337
  45   2.0000      -0.695708       -18.9312
  46   2.0000      -0.686119       -18.6703
  47   2.0000      -0.678933       -18.4747
  48   2.0000      -0.678021       -18.4499
  49   2.0000      -0.662438       -18.0259
  50   2.0000      -0.646232       -17.5849
  51   2.0000      -0.645140       -17.5552
  52   2.0000      -0.635961       -17.3054
  53   2.0000      -0.606972       -16.5165
  54   2.0000      -0.600946       -16.3526
  55   2.0000      -0.599299       -16.3077
  56   2.0000      -0.595804       -16.2127
  57   2.0000      -0.577738       -15.7210
  58   2.0000      -0.570730       -15.5303
  59   2.0000      -0.567367       -15.4388
  60   2.0000      -0.561428       -15.2772
  61   2.0000      -0.548332       -14.9209
  62   2.0000      -0.539928       -14.6922
  63   2.0000      -0.525201       -14.2914
  64   2.0000      -0.521162       -14.1815
  65   2.0000      -0.513411       -13.9706
  66   2.0000      -0.504641       -13.7320
  67   2.0000      -0.499217       -13.5844
  68   2.0000      -0.485490       -13.2108
  69   2.0000      -0.465773       -12.6743
  70   2.0000      -0.458514       -12.4768
  71   2.0000      -0.446617       -12.1531
  72   2.0000      -0.354287        -9.6406
  73   2.0000      -0.349476        -9.5097
  74   2.0000      -0.328281        -8.9330
  75   2.0000      -0.321271        -8.7422
  76   2.0000      -0.316095        -8.6014
  77   0.0000       0.075810         2.0629
  78   0.0000       0.105518         2.8713
  79   0.0000       0.125157         3.4057
  80   0.0000       0.132174         3.5966
  81   0.0000       0.136863         3.7242

MULLIKEN ATOMIC CHARGES
-----------------------
   0 C :   -0.269920
   1 C :    0.032046
   2 O :   -0.348209
   3 C :    0.455718
   4 O :   -0.429692
   5 C :   -0.223088
   6 C :    0.152724
   7 C :   -0.273006
   8 N :   -0.121821
   9 C :    0.211296
  10 S :   -0.439699
  11 N :   -0.203986
  12 C :    0.054580
  13 C :    0.064981
  14 C :   -0.191221
  15 C :   -0.128455
  16 C :   -0.279045
  17 C :    0.315883
  18 O :   -0.356441
  19 C :   -0.269846
  20 H :    0.091500
  21 H :    0.096803
  22 H :    0.095847
  23 H :    0.117270
  24 H :    0.094996
  25 H :    0.132609
  26 H :    0.130419
  27 H :    0.095038
  28 H :    0.197471
  29 H :    0.194624
  30 H :    0.150222
  31 H :    0.153853
  32 H :    0.160620
  33 H :    0.130127
  34 H :    0.240695
  35 H :    0.165103
Sum of atomic charges:   -0.0000000

LOEWDIN ATOMIC CHARGES
----------------------
   0 C :    0.106855
   1 C :   -0.016001
   2 O :    0.308472
   3 C :   -0.414185
   4 O :    0.097509
   5 C :   -0.095143
   6 C :   -0.059043
   7 C :    0.131607
   8 N :    0.406562
   9 C :   -0.456412
  10 S :   -0.035299
  11 N :    0.396420
  12 C :   -0.052402
  13 C :   -0.038498
  14 C :    0.014251
  15 C :    0.038379
  16 C :   -0.001780
  17 C :   -0.189522
  18 O :    0.395274
  19 C :    0.031603
  20 H :   -0.030734
  21 H :   -0.026630
  22 H :   -0.024371
  23 H :   -0.027228
  24 H :   -0.029048
  25 H :   -0.004389
  26 H :   -0.004024
  27 H :   -0.023399
  28 H :   -0.057551
  29 H :   -0.064600
  30 H :   -0.010773
  31 H :   -0.031087
  32 H :   -0.021657
  33 H :   -0.035578
  34 H :   -0.153929
  35 H :   -0.023649

  Mayer bond orders larger than 0.100000
B(  0-C ,  1-C ) :   0.9718 B(  0-C , 20-H ) :   0.9780 B(  0-C , 21-H ) :   0.9768
B(  0-C , 22-H ) :   0.9782 B(  1-C ,  2-O ) :   0.8925 B(  1-C , 23-H ) :   0.9801
B(  1-C , 24-H ) :   0.9732 B(  2-O ,  3-C ) :   1.1707 B(  3-C ,  4-O ) :   1.9806
B(  3-C ,  5-C ) :   1.0557 B(  5-C ,  6-C ) :   1.6573 B(  5-C , 12-C ) :   0.9727
B(  6-C ,  7-C ) :   0.9673 B(  6-C ,  8-N ) :   1.1632 B(  7-C , 25-H ) :   0.9597
B(  7-C , 26-H ) :   0.9608 B(  7-C , 27-H ) :   0.9904 B(  8-N ,  9-C ) :   1.1830
B(  8-N , 28-H ) :   0.9479 B(  9-C , 10-S ) :   1.6076 B(  9-C , 11-N ) :   1.3049
B( 11-N , 12-C ) :   0.9873 B( 11-N , 29-H ) :   0.9517 B( 12-C , 13-C ) :   0.9352
B( 12-C , 30-H ) :   1.0032 B( 13-C , 14-C ) :   1.3603 B( 13-C , 19-C ) :   1.3821
B( 14-C , 15-C ) :   1.3872 B( 14-C , 31-H ) :   0.9696 B( 15-C , 16-C ) :   1.3653
B( 15-C , 32-H ) :   0.9702 B( 16-C , 17-C ) :   1.3317 B( 16-C , 33-H ) :   0.9849
B( 17-C , 18-O ) :   1.1103 B( 17-C , 19-C ) :   1.3724 B( 18-O , 34-H ) :   0.9799
B( 19-C , 35-H ) :   0.9582

MP2 TOTAL ENERGY:    -1274.350054095 Eh
FINAL SINGLE POINT ENERGY     -1274.350054094643

DIPOLE MOMENT
-------------
                                X             Y             Z
Electronic contribution:      8.61727      11.24476       8.20090
Nuclear contribution   :     -9.77350     -12.84532      -8.59036
                        -----------------------------------------
Total Dipole Moment    :     -1.15623      -1.60056      -0.38946
                        -----------------------------------------
Magnitude (a.u.)       :      2.01255
Magnitude (Debye)      :      5.11549

Rotational constants in cm-1:     0.011802     0.008464     0.006190
Rotational constants in MHz :   353.805418   253.734092   185.576707

                             ****ORCA TERMINATED NORMALLY****
TOTAL RUN TIME: 0 days 1 hours 50 minutes 45 seconds 512 msec
