                         Program Version 5.0.0 -  RELEASE  -
|  1> ! ri-mp2 cc-pvtz cc-pvtz/c TightSCF NoKeepInts
|  2>
|  3> %scf
|  4>   MaxCore 4096
|  5> end
|  6> *xyz  0  1
|  7>     C       14.8254810   14.5953681   14.5690038
|  8>     C       15.3545152   14.5400712   16.0119822
|  9>     O       16.2826421   15.6291979   16.1673984
| 10>     C       17.4060250   15.4676411   16.9265850
| 11>     O       17.8517588   14.3663414   17.2045338
| 12>     C       17.8379892   16.7096236   17.6529832
| 13>     C       17.5057877   17.9772846   17.2925111
| 14>     C       16.6699464   18.4232042   16.1099737
| 15>     N       18.0193438   19.0608895   18.0129453
| 16>     C       18.9766475   18.9706179   18.9886410
| 17>     S       19.6262232   20.3151512   19.6999190
| 18>     N       19.3688553   17.7052024   19.3440710
| 19>     C       18.7270583   16.4619959   18.8772389
| 20>     C       17.9342109   15.8136350   20.0093185
| 21>     C       18.1811220   14.4782923   20.3781403
| 22>     C       17.4529918   13.8754118   21.4175171
| 23>     C       16.4681022   14.6134934   22.0956215
| 24>     C       16.2162024   15.9425101   21.7291140
| 25>     O       15.2614741   16.6559867   22.3778314
| 26>     C       16.9421985   16.5396581   20.6938218
| 27>     H       14.3219455   15.5508914   14.3770282
| 28>     H       14.1067734   13.7859985   14.3918558
| 29>     H       15.6486870   14.4859215   13.8518822
| 30>     H       14.5325376   14.6334789   16.7335426
| 31>     H       15.8403827   13.5667212   16.1646046
| 32>     H       17.0034028   17.9301220   15.1882820
| 33>     H       16.7281333   19.5041429   15.9338998
| 34>     H       15.6137953   18.1697959   16.2652610
| 35>     H       17.7442247   19.9981551   17.7663704
| 36>     H       20.0530386   17.6645002   20.0884867
| 37>     H       19.5261196   15.7690578   18.5763096
| 38>     H       18.9304378   13.8997919   19.8432303
| 39>     H       17.6498885   12.8397863   21.6886623
| 40>     H       15.9022624   14.1512234   22.8975144
| 41>     H       14.9032748   16.0902702   23.0781292
| 42>     H       16.7335209   17.5705664   20.4297899
| 43> *
| 44>
| 45>                          ****END OF INPUT****

CARTESIAN COORDINATES (ANGSTROEM)
---------------------------------
  C     14.825481   14.595368   14.569004
  C     15.354515   14.540071   16.011982
  O     16.282642   15.629198   16.167398
  C     17.406025   15.467641   16.926585
  O     17.851759   14.366341   17.204534
  C     17.837989   16.709624   17.652983
  C     17.505788   17.977285   17.292511
  C     16.669946   18.423204   16.109974
  N     18.019344   19.060889   18.012945
  C     18.976647   18.970618   18.988641
  S     19.626223   20.315151   19.699919
  N     19.368855   17.705202   19.344071
  C     18.727058   16.461996   18.877239
  C     17.934211   15.813635   20.009318
  C     18.181122   14.478292   20.378140
  C     17.452992   13.875412   21.417517
  C     16.468102   14.613493   22.095622
  C     16.216202   15.942510   21.729114
  O     15.261474   16.655987   22.377831
  C     16.942198   16.539658   20.693822
  H     14.321945   15.550891   14.377028
  H     14.106773   13.785998   14.391856
  H     15.648687   14.485921   13.851882
  H     14.532538   14.633479   16.733543
  H     15.840383   13.566721   16.164605
  H     17.003403   17.930122   15.188282
  H     16.728133   19.504143   15.933900
  H     15.613795   18.169796   16.265261
  H     17.744225   19.998155   17.766370
  H     20.053039   17.664500   20.088487
  H     19.526120   15.769058   18.576310
  H     18.930438   13.899792   19.843230
  H     17.649888   12.839786   21.688662
  H     15.902262   14.151223   22.897514
  H     14.903275   16.090270   23.078129
  H     16.733521   17.570566   20.429790

 Total Charge           Charge          ....    0
 Multiplicity           Mult            ....    1
 Number of Electrons    NEL             ....  154
 Basis Dimension        Dim             ....  828

ORBITAL ENERGIES
----------------

  NO   OCC          E(Eh)            E(eV)
   0   2.0000     -91.887957     -2500.3984
   1   2.0000     -20.600815      -560.5767
   2   2.0000     -20.591696      -560.3285
   3   2.0000     -20.546927      -559.1103
   4   2.0000     -15.628242      -425.2661
   5   2.0000     -15.606626      -424.6779
   6   2.0000     -11.396081      -310.1031
   7   2.0000     -11.382900      -309.7445
   8   2.0000     -11.335798      -308.4627
   9   2.0000     -11.307496      -307.6926
  10   2.0000     -11.305642      -307.6422
  11   2.0000     -11.298449      -307.4464
  12   2.0000     -11.260336      -306.4093
  13   2.0000     -11.259044      -306.3742
  14   2.0000     -11.253409      -306.2208
  15   2.0000     -11.247613      -306.0631
  16   2.0000     -11.237264      -305.7815
  17   2.0000     -11.233381      -305.6758
  18   2.0000     -11.232635      -305.6555
  19   2.0000     -11.230375      -305.5940
  20   2.0000      -8.893023      -241.9915
  21   2.0000      -6.574601      -178.9040
  22   2.0000      -6.572594      -178.8494
  23   2.0000      -6.572009      -178.8334
  24   2.0000      -1.453507       -39.5519
  25   2.0000      -1.411430       -38.4070
  26   2.0000      -1.357446       -36.9380
  27   2.0000      -1.339183       -36.4410
  28   2.0000      -1.236832       -33.6559
  29   2.0000      -1.152063       -31.3492
  30   2.0000      -1.119475       -30.4625
  31   2.0000      -1.044217       -28.4146
  32   2.0000      -1.036613       -28.2077
  33   2.0000      -1.009447       -27.4684
  34   2.0000      -0.997480       -27.1428
  35   2.0000      -0.983045       -26.7500
  36   2.0000      -0.921014       -25.0621
  37   2.0000      -0.887890       -24.1607
  38   2.0000      -0.847089       -23.0505
  39   2.0000      -0.835079       -22.7237
  40   2.0000      -0.827817       -22.5260
  41   2.0000      -0.818897       -22.2833
  42   2.0000      -0.760991       -20.7076
  43   2.0000      -0.735881       -20.0243
  44   2.0000      -0.724895       -19.7254
  45   2.0000      -0.690298       -18.7840
  46   2.0000      -0.684458       -18.6250
  47   2.0000      -0.680051       -18.5051
  48   2.0000      -0.674290       -18.3484
  49   2.0000      -0.653347       -17.7785
  50   2.0000      -0.650865       -17.7109
  51   2.0000      -0.642373       -17.4799
  52   2.0000      -0.632576       -17.2133
  53   2.0000      -0.610988       -16.6258
  54   2.0000      -0.600634       -16.3441
  55   2.0000      -0.599852       -16.3228
  56   2.0000      -0.595023       -16.1914
  57   2.0000      -0.579685       -15.7740
  58   2.0000      -0.573228       -15.5983
  59   2.0000      -0.562504       -15.3065
  60   2.0000      -0.561818       -15.2879
  61   2.0000      -0.544815       -14.8252
  62   2.0000      -0.539836       -14.6897
  63   2.0000      -0.529160       -14.3992
  64   2.0000      -0.517183       -14.0733
  65   2.0000      -0.509394       -13.8613
  66   2.0000      -0.499413       -13.5897
  67   2.0000      -0.495085       -13.4719
  68   2.0000      -0.481234       -13.0950
  69   2.0000      -0.462991       -12.5986
  70   2.0000      -0.461563       -12.5598
  71   2.0000      -0.452450       -12.3118
  72   2.0000      -0.354029        -9.6336
  73   2.0000      -0.343933        -9.3589
  74   2.0000      -0.327098        -8.9008
  75   2.0000      -0.315518        -8.5857
  76   2.0000      -0.313814        -8.5393
  77   0.0000       0.075377         2.0511
  78   0.0000       0.112458         3.0601
  79   0.0000       0.120550         3.2803
  80   0.0000       0.135677         3.6920
  81   0.0000       0.138768         3.7761

MULLIKEN ATOMIC CHARGES
-----------------------
   0 C :   -0.264735
   1 C :    0.023212
   2 O :   -0.350958
   3 C :    0.455552
   4 O :   -0.423690
   5 C :   -0.182897
   6 C :    0.142256
   7 C :   -0.286572
   8 N :   -0.122785
   9 C :    0.201565
  10 S :   -0.439563
  11 N :   -0.197477
  12 C :    0.037351
  13 C :    0.055392
  14 C :   -0.160829
  15 C :   -0.133840
  16 C :   -0.279132
  17 C :    0.311113
  18 O :   -0.359162
  19 C :   -0.272045
  20 H :    0.090003
  21 H :    0.093980
  22 H :    0.098395
  23 H :    0.098181
  24 H :    0.120725
  25 H :    0.126204
  26 H :    0.103399
  27 H :    0.126746
  28 H :    0.196858
  29 H :    0.193681
  30 H :    0.153865
  31 H :    0.153406
  32 H :    0.159036
  33 H :    0.128017
  34 H :    0.240060
  35 H :    0.164686
Sum of atomic charges:    0.0000000

LOEWDIN ATOMIC CHARGES
----------------------
   0 C :    0.104979
   1 C :   -0.011709
   2 O :    0.304235
   3 C :   -0.413632
   4 O :    0.106952
   5 C :   -0.091432
   6 C :   -0.067033
   7 C :    0.124912
   8 N :    0.404699
   9 C :   -0.458762
  10 S :   -0.036203
  11 N :    0.397739
  12 C :   -0.046301
  13 C :   -0.038884
  14 C :    0.022058
  15 C :    0.040937
  16 C :   -0.002385
  17 C :   -0.192739
  18 O :    0.392937
  19 C :    0.028360
  20 H :   -0.030450
  21 H :   -0.024861
  22 H :   -0.025382
  23 H :   -0.030766
  24 H :   -0.027025
  25 H :   -0.008557
  26 H :   -0.020792
  27 H :   -0.010141
  28 H :   -0.059124
  29 H :   -0.063733
  30 H :   -0.004951
  31 H :   -0.025301
  32 H :   -0.021232
  33 H :   -0.036424
  34 H :   -0.154913
  35 H :   -0.025078

  Mayer bond orders larger than 0.100000
B(  0-C ,  1-C ) :   0.9737 B(  0-C , 20-H ) :   0.9797 B(  0-C , 21-H ) :   0.9768
B(  0-C , 22-H ) :   0.9778 B(  1-C ,  2-O ) :   0.8871 B(  1-C , 23-H ) :   0.9770
B(  1-C , 24-H ) :   0.9745 B(  2-O ,  3-C ) :   1.1442 B(  3-C ,  4-O ) :   1.9965
B(  3-C ,  5-C ) :   1.0462 B(  5-C ,  6-C ) :   1.6506 B(  5-C , 12-C ) :   0.9652
B(  6-C ,  7-C ) :   0.9538 B(  6-C ,  8-N ) :   1.1451 B(  7-C , 25-H ) :   0.9668
B(  7-C , 26-H ) :   0.9914 B(  7-C , 27-H ) :   0.9634 B(  8-N ,  9-C ) :   1.1795
B(  8-N , 28-H ) :   0.9490 B(  9-C , 10-S ) :   1.6106 B(  9-C , 11-N ) :   1.3038
B( 11-N , 12-C ) :   0.9916 B( 11-N , 29-H ) :   0.9520 B( 12-C , 13-C ) :   0.9477
B( 12-C , 30-H ) :   0.9994 B( 13-C , 14-C ) :   1.3765 B( 13-C , 19-C ) :   1.3690
B( 14-C , 15-C ) :   1.3947 B( 14-C , 31-H ) :   0.9648 B( 15-C , 16-C ) :   1.3627
B( 15-C , 32-H ) :   0.9714 B( 16-C , 17-C ) :   1.3314 B( 16-C , 33-H ) :   0.9860
B( 17-C , 18-O ) :   1.1080 B( 17-C , 19-C ) :   1.3790 B( 18-O , 34-H ) :   0.9806
B( 19-C , 35-H ) :   0.9585

MP2 TOTAL ENERGY:    -1274.343032148 Eh
FINAL SINGLE POINT ENERGY     -1274.343032148124

DIPOLE MOMENT
-------------
                                X             Y             Z
Electronic contribution:     11.44775       8.92937      11.66686
Nuclear contribution   :    -13.06915     -10.15629     -12.52209
                        -----------------------------------------
Total Dipole Moment    :     -1.62140      -1.22691      -0.85523
                        -----------------------------------------
Magnitude (a.u.)       :      2.20583
Magnitude (Debye)      :      5.60676

Rotational constants in cm-1:     0.010420     0.008848     0.005814
Rotational constants in MHz :   312.374259   265.252013   174.290644

                             ****ORCA TERMINATED NORMALLY****
TOTAL RUN TIME: 0 days 1 hours 55 minutes 1 seconds 102 msec
