                         Program Version 5.0.0 -  RELEASE  -
|  1> ! ri-mp2 cc-pvtz cc-pvtz/c TightSCF NoKeepInts
|  2>
|  3> %scf
|  4>   MaxCore 4096
|  5> end
|  6> *xyz  0  1
|  7>     C       14.9649778   15.5423333   17.5536513
|  8>     C       15.6774626   15.1912886   16.2334366
|  9>     O       17.0414073   14.8072749   16.4857835
| 10>     C       18.1138309   15.6616574   16.4695696
| 11>     O       19.2206596   15.1702822   16.3495842
| 12>     C       17.9587144   16.8438881   17.3659799
| 13>     C       17.4154834   18.0065519   16.9394948
| 14>     C       16.8863094   18.3107265   15.5551663
| 15>     N       17.3773187   19.1115112   17.7927189
| 16>     C       17.9827402   19.1678730   19.0210440
| 17>     S       17.9551516   20.5426609   19.9394511
| 18>     N       18.6140797   18.0263849   19.4505896
| 19>     C       18.5845199   16.7218497   18.7580425
| 20>     C       17.8955380   15.6492670   19.5996197
| 21>     C       18.3574010   14.3208563   19.5517041
| 22>     C       17.7340164   13.3155054   20.3090462
| 23>     C       16.6376055   13.6391319   21.1256154
| 24>     C       16.1723711   14.9597307   21.1767446
| 25>     O       15.1061919   15.2733754   21.9549275
| 26>     C       16.7942183   15.9589405   20.4211926
| 27>     H       15.1192396   14.7473753   18.2943745
| 28>     H       13.8855667   15.6437857   17.3887850
| 29>     H       15.3261094   16.4849303   17.9772342
| 30>     H       15.1599013   14.3271861   15.7966832
| 31>     H       15.6080910   16.0075028   15.5075918
| 32>     H       17.2200734   17.5750232   14.8132945
| 33>     H       17.2448670   19.2873964   15.2051018
| 34>     H       15.7897523   18.3358391   15.5488335
| 35>     H       16.9339184   19.9645427   17.4901164
| 36>     H       19.0404296   18.0924561   20.3662245
| 37>     H       19.6286532   16.4053172   18.6168378
| 38>     H       19.1969479   14.0638453   18.9088791
| 39>     H       18.0989768   12.2912929   20.2553819
| 40>     H       16.1515842   12.8648746   21.7098460
| 41>     H       14.8450275   14.4683549   22.4269952
| 42>     H       16.4078640   16.9711876   20.4744583
| 43> *
| 44>
| 45>                          ****END OF INPUT****

CARTESIAN COORDINATES (ANGSTROEM)
---------------------------------
  C     14.964978   15.542333   17.553651
  C     15.677463   15.191289   16.233437
  O     17.041407   14.807275   16.485784
  C     18.113831   15.661657   16.469570
  O     19.220660   15.170282   16.349584
  C     17.958714   16.843888   17.365980
  C     17.415483   18.006552   16.939495
  C     16.886309   18.310727   15.555166
  N     17.377319   19.111511   17.792719
  C     17.982740   19.167873   19.021044
  S     17.955152   20.542661   19.939451
  N     18.614080   18.026385   19.450590
  C     18.584520   16.721850   18.758042
  C     17.895538   15.649267   19.599620
  C     18.357401   14.320856   19.551704
  C     17.734016   13.315505   20.309046
  C     16.637605   13.639132   21.125615
  C     16.172371   14.959731   21.176745
  O     15.106192   15.273375   21.954928
  C     16.794218   15.958941   20.421193
  H     15.119240   14.747375   18.294374
  H     13.885567   15.643786   17.388785
  H     15.326109   16.484930   17.977234
  H     15.159901   14.327186   15.796683
  H     15.608091   16.007503   15.507592
  H     17.220073   17.575023   14.813294
  H     17.244867   19.287396   15.205102
  H     15.789752   18.335839   15.548834
  H     16.933918   19.964543   17.490116
  H     19.040430   18.092456   20.366225
  H     19.628653   16.405317   18.616838
  H     19.196948   14.063845   18.908879
  H     18.098977   12.291293   20.255382
  H     16.151584   12.864875   21.709846
  H     14.845028   14.468355   22.426995
  H     16.407864   16.971188   20.474458

 Total Charge           Charge          ....    0
 Multiplicity           Mult            ....    1
 Number of Electrons    NEL             ....  154
 Basis Dimension        Dim             ....  828

ORBITAL ENERGIES
----------------

  NO   OCC          E(Eh)            E(eV)
   0   2.0000     -91.888354     -2500.4092
   1   2.0000     -20.599508      -560.5411
   2   2.0000     -20.596391      -560.4563
   3   2.0000     -20.558236      -559.4181
   4   2.0000     -15.624269      -425.1580
   5   2.0000     -15.610507      -424.7835
   6   2.0000     -11.398394      -310.1661
   7   2.0000     -11.385103      -309.8044
   8   2.0000     -11.324176      -308.1465
   9   2.0000     -11.315582      -307.9126
  10   2.0000     -11.312541      -307.8299
  11   2.0000     -11.307450      -307.6914
  12   2.0000     -11.271669      -306.7177
  13   2.0000     -11.266057      -306.5650
  14   2.0000     -11.260638      -306.4175
  15   2.0000     -11.253151      -306.2138
  16   2.0000     -11.242524      -305.9246
  17   2.0000     -11.238156      -305.8058
  18   2.0000     -11.235462      -305.7325
  19   2.0000     -11.228678      -305.5479
  20   2.0000      -8.893484      -242.0040
  21   2.0000      -6.575082      -178.9171
  22   2.0000      -6.573046      -178.8617
  23   2.0000      -6.572479      -178.8462
  24   2.0000      -1.453572       -39.5537
  25   2.0000      -1.416225       -38.5375
  26   2.0000      -1.362290       -37.0698
  27   2.0000      -1.338474       -36.4217
  28   2.0000      -1.238494       -33.7011
  29   2.0000      -1.157669       -31.5018
  30   2.0000      -1.124076       -30.5877
  31   2.0000      -1.047176       -28.4951
  32   2.0000      -1.038913       -28.2703
  33   2.0000      -1.015756       -27.6401
  34   2.0000      -1.004340       -27.3295
  35   2.0000      -0.988543       -26.8996
  36   2.0000      -0.926681       -25.2163
  37   2.0000      -0.893100       -24.3025
  38   2.0000      -0.853084       -23.2136
  39   2.0000      -0.839141       -22.8342
  40   2.0000      -0.833227       -22.6733
  41   2.0000      -0.830754       -22.6060
  42   2.0000      -0.755086       -20.5469
  43   2.0000      -0.738162       -20.0864
  44   2.0000      -0.729680       -19.8556
  45   2.0000      -0.694419       -18.8961
  46   2.0000      -0.687876       -18.7181
  47   2.0000      -0.681896       -18.5553
  48   2.0000      -0.675793       -18.3893
  49   2.0000      -0.664755       -18.0889
  50   2.0000      -0.651397       -17.7254
  51   2.0000      -0.641287       -17.4503
  52   2.0000      -0.639392       -17.3987
  53   2.0000      -0.614645       -16.7253
  54   2.0000      -0.610007       -16.5991
  55   2.0000      -0.605142       -16.4667
  56   2.0000      -0.601042       -16.3552
  57   2.0000      -0.590088       -16.0571
  58   2.0000      -0.582615       -15.8538
  59   2.0000      -0.573573       -15.6077
  60   2.0000      -0.564518       -15.3613
  61   2.0000      -0.557512       -15.1707
  62   2.0000      -0.541331       -14.7304
  63   2.0000      -0.526922       -14.3383
  64   2.0000      -0.516838       -14.0639
  65   2.0000      -0.511819       -13.9273
  66   2.0000      -0.503041       -13.6884
  67   2.0000      -0.500177       -13.6105
  68   2.0000      -0.486388       -13.2353
  69   2.0000      -0.463697       -12.6178
  70   2.0000      -0.456773       -12.4294
  71   2.0000      -0.452881       -12.3235
  72   2.0000      -0.355418        -9.6714
  73   2.0000      -0.346941        -9.4407
  74   2.0000      -0.328151        -8.9295
  75   2.0000      -0.320872        -8.7314
  76   2.0000      -0.316647        -8.6164
  77   0.0000       0.089482         2.4349
  78   0.0000       0.100603         2.7375
  79   0.0000       0.111951         3.0463
  80   0.0000       0.127908         3.4806
  81   0.0000       0.131117         3.5679

MULLIKEN ATOMIC CHARGES
-----------------------
   0 C :   -0.304186
   1 C :   -0.001648
   2 O :   -0.313894
   3 C :    0.388886
   4 O :   -0.365318
   5 C :   -0.158717
   6 C :    0.124311
   7 C :   -0.333325
   8 N :   -0.134793
   9 C :    0.208409
  10 S :   -0.444102
  11 N :   -0.227932
  12 C :    0.077550
  13 C :    0.049796
  14 C :   -0.202998
  15 C :   -0.133879
  16 C :   -0.278131
  17 C :    0.315837
  18 O :   -0.359841
  19 C :   -0.285569
  20 H :    0.122046
  21 H :    0.110560
  22 H :    0.102371
  23 H :    0.130337
  24 H :    0.089730
  25 H :    0.119678
  26 H :    0.135105
  27 H :    0.123783
  28 H :    0.195081
  29 H :    0.202384
  30 H :    0.169221
  31 H :    0.166081
  32 H :    0.162430
  33 H :    0.131587
  34 H :    0.240942
  35 H :    0.178207
Sum of atomic charges:    0.0000000

LOEWDIN ATOMIC CHARGES
----------------------
   0 C :    0.104347
   1 C :   -0.025344
   2 O :    0.314980
   3 C :   -0.420544
   4 O :    0.139292
   5 C :   -0.075848
   6 C :   -0.111327
   7 C :    0.120901
   8 N :    0.400212
   9 C :   -0.456603
  10 S :   -0.040579
  11 N :    0.398630
  12 C :   -0.041107
  13 C :   -0.040554
  14 C :    0.024267
  15 C :    0.043917
  16 C :   -0.002450
  17 C :   -0.194403
  18 O :    0.394982
  19 C :    0.029432
  20 H :   -0.018945
  21 H :   -0.026848
  22 H :   -0.035976
  23 H :   -0.020329
  24 H :   -0.039807
  25 H :   -0.011856
  26 H :   -0.009931
  27 H :   -0.017436
  28 H :   -0.059369
  29 H :   -0.063567
  30 H :   -0.001705
  31 H :   -0.022411
  32 H :   -0.019079
  33 H :   -0.035358
  34 H :   -0.153843
  35 H :   -0.025742

  Mayer bond orders larger than 0.100000
B(  0-C ,  1-C ) :   0.9609 B(  0-C , 20-H ) :   0.9712 B(  0-C , 21-H ) :   0.9768
B(  0-C , 22-H ) :   0.9722 B(  1-C ,  2-O ) :   0.9135 B(  1-C , 23-H ) :   0.9849
B(  1-C , 24-H ) :   0.9776 B(  2-O ,  3-C ) :   1.1149 B(  3-C ,  4-O ) :   2.0922
B(  3-C ,  5-C ) :   0.9198 B(  5-C ,  6-C ) :   1.7167 B(  5-C , 12-C ) :   0.9548
B(  6-C ,  7-C ) :   0.9379 B(  6-C ,  8-N ) :   1.0986 B(  7-C , 25-H ) :   0.9828
B(  7-C , 26-H ) :   0.9740 B(  7-C , 27-H ) :   0.9660 B(  8-N ,  9-C ) :   1.2004
B(  8-N , 28-H ) :   0.9538 B(  9-C , 10-S ) :   1.6052 B(  9-C , 11-N ) :   1.2850
B( 11-N , 12-C ) :   0.9860 B( 11-N , 29-H ) :   0.9470 B( 12-C , 13-C ) :   0.9506
B( 12-C , 30-H ) :   0.9966 B( 13-C , 14-C ) :   1.3842 B( 13-C , 19-C ) :   1.3355
B( 14-C , 15-C ) :   1.4033 B( 14-C , 31-H ) :   0.9627 B( 15-C , 16-C ) :   1.3567
B( 15-C , 32-H ) :   0.9705 B( 16-C , 17-C ) :   1.3324 B( 16-C , 33-H ) :   0.9851
B( 17-C , 18-O ) :   1.1073 B( 17-C , 19-C ) :   1.3681 B( 18-O , 34-H ) :   0.9798
B( 19-C , 35-H ) :   0.9571

MP2 TOTAL ENERGY:    -1274.316655811 Eh
FINAL SINGLE POINT ENERGY     -1274.316655810515

DIPOLE MOMENT
-------------
                                X             Y             Z
Electronic contribution:      9.40820       6.08890       6.39612
Nuclear contribution   :    -10.90764      -7.27839      -7.30925
                        -----------------------------------------
Total Dipole Moment    :     -1.49943      -1.18949      -0.91313
                        -----------------------------------------
Magnitude (a.u.)       :      2.12062
Magnitude (Debye)      :      5.39018

Rotational constants in cm-1:     0.012198     0.009489     0.006909
Rotational constants in MHz :   365.693841   284.487228   207.136626

                             ****ORCA TERMINATED NORMALLY****
TOTAL RUN TIME: 0 days 1 hours 46 minutes 4 seconds 610 msec
