                         Program Version 5.0.0 -  RELEASE  -
|  1> ! ri-mp2 cc-pvtz cc-pvtz/c TightSCF NoKeepInts
|  2>
|  3> %scf
|  4>   MaxCore 4096
|  5> end
|  6> *xyz  0  1
|  7>     C       15.2859875   15.0031979   17.2884811
|  8>     C       15.6181897   15.0989363   15.7832478
|  9>     O       16.8712505   15.7673652   15.5053599
| 10>     C       17.9089268   15.7687625   16.3923495
| 11>     O       18.5435526   14.7473583   16.5890389
| 12>     C       17.9110093   16.9083833   17.3737349
| 13>     C       17.3311582   18.1162709   17.1494849
| 14>     C       16.5836702   18.5750861   15.9143253
| 15>     N       17.4688631   19.1384759   18.0942481
| 16>     C       18.3121317   19.0964069   19.1732163
| 17>     S       18.5325948   20.4060285   20.1586492
| 18>     N       18.9630931   17.9088906   19.3928534
| 19>     C       18.6789636   16.6507837   18.6766816
| 20>     C       17.9287531   15.6773438   19.5828355
| 21>     C       18.3742647   14.3498875   19.7226464
| 22>     C       17.6823837   13.4434369   20.5431333
| 23>     C       16.5334523   13.8665665   21.2324001
| 24>     C       16.0853209   15.1871930   21.0962626
| 25>     O       14.9703780   15.5966263   21.7520766
| 26>     C       16.7764196   16.0873760   20.2793941
| 27>     H       16.0239368   14.3899293   17.8208503
| 28>     H       14.3070765   14.5291245   17.4283854
| 29>     H       15.2434841   15.9958617   17.7518350
| 30>     H       15.6726204   14.0775644   15.3836488
| 31>     H       14.8059035   15.6146536   15.2553791
| 32>     H       15.5866130   18.1211339   15.8710997
| 33>     H       17.1245602   18.2938229   15.0019055
| 34>     H       16.4536289   19.6637664   15.8817784
| 35>     H       17.0030030   20.0197140   17.9472480
| 36>     H       19.5593230   17.8940413   20.2104482
| 37>     H       19.6443421   16.1952409   18.4120330
| 38>     H       19.2517747   14.0140238   19.1748246
| 39>     H       18.0345385   12.4175366   20.6356361
| 40>     H       15.9943329   13.1686886   21.8643482
| 41>     H       14.6708176   14.8581032   22.3033722
| 42>     H       16.4106817   17.1044189   20.1907880
| 43> *
| 44>
| 45>                          ****END OF INPUT****

CARTESIAN COORDINATES (ANGSTROEM)
---------------------------------
  C     15.285987   15.003198   17.288481
  C     15.618190   15.098936   15.783248
  O     16.871250   15.767365   15.505360
  C     17.908927   15.768762   16.392350
  O     18.543553   14.747358   16.589039
  C     17.911009   16.908383   17.373735
  C     17.331158   18.116271   17.149485
  C     16.583670   18.575086   15.914325
  N     17.468863   19.138476   18.094248
  C     18.312132   19.096407   19.173216
  S     18.532595   20.406028   20.158649
  N     18.963093   17.908891   19.392853
  C     18.678964   16.650784   18.676682
  C     17.928753   15.677344   19.582836
  C     18.374265   14.349887   19.722646
  C     17.682384   13.443437   20.543133
  C     16.533452   13.866566   21.232400
  C     16.085321   15.187193   21.096263
  O     14.970378   15.596626   21.752077
  C     16.776420   16.087376   20.279394
  H     16.023937   14.389929   17.820850
  H     14.307077   14.529124   17.428385
  H     15.243484   15.995862   17.751835
  H     15.672620   14.077564   15.383649
  H     14.805903   15.614654   15.255379
  H     15.586613   18.121134   15.871100
  H     17.124560   18.293823   15.001905
  H     16.453629   19.663766   15.881778
  H     17.003003   20.019714   17.947248
  H     19.559323   17.894041   20.210448
  H     19.644342   16.195241   18.412033
  H     19.251775   14.014024   19.174825
  H     18.034539   12.417537   20.635636
  H     15.994333   13.168689   21.864348
  H     14.670818   14.858103   22.303372
  H     16.410682   17.104419   20.190788

 Total Charge           Charge          ....    0
 Multiplicity           Mult            ....    1
 Number of Electrons    NEL             ....  154
 Basis Dimension        Dim             ....  828

ORBITAL ENERGIES
----------------

  NO   OCC          E(Eh)            E(eV)
   0   2.0000     -91.890704     -2500.4732
   1   2.0000     -20.595375      -560.4286
   2   2.0000     -20.581326      -560.0464
   3   2.0000     -20.552190      -559.2535
   4   2.0000     -15.631463      -425.3537
   5   2.0000     -15.609019      -424.7430
   6   2.0000     -11.395380      -310.0841
   7   2.0000     -11.385572      -309.8172
   8   2.0000     -11.338585      -308.5386
   9   2.0000     -11.311320      -307.7967
  10   2.0000     -11.308373      -307.7165
  11   2.0000     -11.306081      -307.6541
  12   2.0000     -11.262653      -306.4724
  13   2.0000     -11.262280      -306.4622
  14   2.0000     -11.256929      -306.3166
  15   2.0000     -11.251531      -306.1697
  16   2.0000     -11.241321      -305.8919
  17   2.0000     -11.236755      -305.7676
  18   2.0000     -11.233629      -305.6826
  19   2.0000     -11.228726      -305.5492
  20   2.0000      -8.895751      -242.0657
  21   2.0000      -6.577323      -178.9780
  22   2.0000      -6.575319      -178.9235
  23   2.0000      -6.574728      -178.9074
  24   2.0000      -1.446596       -39.3639
  25   2.0000      -1.415179       -38.5090
  26   2.0000      -1.353574       -36.8326
  27   2.0000      -1.342251       -36.5245
  28   2.0000      -1.239597       -33.7311
  29   2.0000      -1.155643       -31.4466
  30   2.0000      -1.121551       -30.5189
  31   2.0000      -1.044000       -28.4087
  32   2.0000      -1.032954       -28.1081
  33   2.0000      -1.013443       -27.5772
  34   2.0000      -1.001751       -27.2590
  35   2.0000      -0.987447       -26.8698
  36   2.0000      -0.924937       -25.1688
  37   2.0000      -0.896633       -24.3986
  38   2.0000      -0.850874       -23.1535
  39   2.0000      -0.839339       -22.8396
  40   2.0000      -0.831738       -22.6327
  41   2.0000      -0.818968       -22.2853
  42   2.0000      -0.745747       -20.2928
  43   2.0000      -0.731539       -19.9062
  44   2.0000      -0.727760       -19.8034
  45   2.0000      -0.693554       -18.8726
  46   2.0000      -0.687583       -18.7101
  47   2.0000      -0.676578       -18.4106
  48   2.0000      -0.672952       -18.3120
  49   2.0000      -0.661783       -18.0080
  50   2.0000      -0.652564       -17.7572
  51   2.0000      -0.647666       -17.6239
  52   2.0000      -0.638272       -17.3683
  53   2.0000      -0.622368       -16.9355
  54   2.0000      -0.603670       -16.4267
  55   2.0000      -0.603372       -16.4186
  56   2.0000      -0.599402       -16.3105
  57   2.0000      -0.581332       -15.8188
  58   2.0000      -0.575647       -15.6642
  59   2.0000      -0.563503       -15.3337
  60   2.0000      -0.553806       -15.0698
  61   2.0000      -0.546499       -14.8710
  62   2.0000      -0.539330       -14.6759
  63   2.0000      -0.533955       -14.5297
  64   2.0000      -0.520753       -14.1704
  65   2.0000      -0.512360       -13.9420
  66   2.0000      -0.499757       -13.5991
  67   2.0000      -0.493091       -13.4177
  68   2.0000      -0.481082       -13.0909
  69   2.0000      -0.466349       -12.6900
  70   2.0000      -0.453665       -12.3448
  71   2.0000      -0.449753       -12.2384
  72   2.0000      -0.356618        -9.7041
  73   2.0000      -0.346748        -9.4355
  74   2.0000      -0.329747        -8.9729
  75   2.0000      -0.319671        -8.6987
  76   2.0000      -0.317344        -8.6354
  77   0.0000       0.068177         1.8552
  78   0.0000       0.107585         2.9275
  79   0.0000       0.118045         3.2122
  80   0.0000       0.132426         3.6035
  81   0.0000       0.136988         3.7276

MULLIKEN ATOMIC CHARGES
-----------------------
   0 C :   -0.350073
   1 C :    0.040776
   2 O :   -0.389856
   3 C :    0.490553
   4 O :   -0.400657
   5 C :   -0.224337
   6 C :    0.152788
   7 C :   -0.293507
   8 N :   -0.123144
   9 C :    0.191658
  10 S :   -0.435036
  11 N :   -0.198183
  12 C :    0.043437
  13 C :    0.044336
  14 C :   -0.171333
  15 C :   -0.134511
  16 C :   -0.279569
  17 C :    0.317261
  18 O :   -0.360415
  19 C :   -0.279987
  20 H :    0.133565
  21 H :    0.120497
  22 H :    0.104708
  23 H :    0.116018
  24 H :    0.107086
  25 H :    0.116482
  26 H :    0.137484
  27 H :    0.109635
  28 H :    0.197511
  29 H :    0.193694
  30 H :    0.156683
  31 H :    0.161111
  32 H :    0.161601
  33 H :    0.130684
  34 H :    0.240794
  35 H :    0.172243
Sum of atomic charges:    0.0000000

LOEWDIN ATOMIC CHARGES
----------------------
   0 C :    0.104954
   1 C :   -0.015338
   2 O :    0.280195
   3 C :   -0.421040
   4 O :    0.124972
   5 C :   -0.093945
   6 C :   -0.068779
   7 C :    0.126893
   8 N :    0.405686
   9 C :   -0.460029
  10 S :   -0.033294
  11 N :    0.397779
  12 C :   -0.045713
  13 C :   -0.040963
  14 C :    0.020684
  15 C :    0.040767
  16 C :   -0.002341
  17 C :   -0.193646
  18 O :    0.393978
  19 C :    0.030599
  20 H :   -0.019614
  21 H :   -0.022306
  22 H :   -0.033423
  23 H :   -0.025434
  24 H :   -0.027899
  25 H :   -0.012509
  26 H :   -0.005394
  27 H :   -0.019177
  28 H :   -0.058726
  29 H :   -0.063593
  30 H :   -0.003337
  31 H :   -0.024084
  32 H :   -0.020178
  33 H :   -0.035646
  34 H :   -0.154134
  35 H :   -0.025962

  Mayer bond orders larger than 0.100000
B(  0-C ,  1-C ) :   0.9607 B(  0-C , 20-H ) :   0.9646 B(  0-C , 21-H ) :   0.9751
B(  0-C , 22-H ) :   0.9699 B(  1-C ,  2-O ) :   0.8909 B(  1-C , 23-H ) :   0.9860
B(  1-C , 24-H ) :   0.9809 B(  2-O ,  3-C ) :   1.0927 B(  3-C ,  4-O ) :   2.0331
B(  3-C ,  5-C ) :   1.0189 B(  5-C ,  6-C ) :   1.6543 B(  5-C , 12-C ) :   0.9655
B(  6-C ,  7-C ) :   0.9551 B(  6-C ,  8-N ) :   1.1402 B(  7-C , 25-H ) :   0.9662
B(  7-C , 26-H ) :   0.9643 B(  7-C , 27-H ) :   0.9899 B(  8-N ,  9-C ) :   1.1778
B(  8-N , 28-H ) :   0.9487 B(  9-C , 10-S ) :   1.6163 B(  9-C , 11-N ) :   1.3014
B( 11-N , 12-C ) :   0.9878 B( 11-N , 29-H ) :   0.9524 B( 12-C , 13-C ) :   0.9469
B( 12-C , 30-H ) :   0.9994 B( 13-C , 14-C ) :   1.3841 B( 13-C , 19-C ) :   1.3505
B( 14-C , 15-C ) :   1.3951 B( 14-C , 31-H ) :   0.9616 B( 15-C , 16-C ) :   1.3620
B( 15-C , 32-H ) :   0.9710 B( 16-C , 17-C ) :   1.3311 B( 16-C , 33-H ) :   0.9850
B( 17-C , 18-O ) :   1.1098 B( 17-C , 19-C ) :   1.3730 B( 18-O , 34-H ) :   0.9802
B( 19-C , 35-H ) :   0.9583

MP2 TOTAL ENERGY:    -1274.327129004 Eh
FINAL SINGLE POINT ENERGY     -1274.327129004135

DIPOLE MOMENT
-------------
                                X             Y             Z
Electronic contribution:      9.73889       7.95052       6.20577
Nuclear contribution   :    -11.18053      -9.05327      -6.85481
                        -----------------------------------------
Total Dipole Moment    :     -1.44165      -1.10275      -0.64904
                        -----------------------------------------
Magnitude (a.u.)       :      1.92760
Magnitude (Debye)      :      4.89958

Rotational constants in cm-1:     0.011454     0.009880     0.006787
Rotational constants in MHz :   343.377250   296.208137   203.456868

                             ****ORCA TERMINATED NORMALLY****
TOTAL RUN TIME: 0 days 2 hours 14 minutes 4 seconds 336 msec
