                         Program Version 4.2.0 -  RELEASE  -
|  1> ! ri-mp2 cc-pvtz cc-pvtz/c TightSCF  NoKeepInts
|  2>
|  3> %scf
|  4>   MaxCore 4096
|  5> end
|  6> *xyz  0  1
|  7>     C       14.8473019   14.1662266   16.1739679
|  8>     C       15.7000455   14.9365019   15.1444901
|  9>     O       16.3601069   16.0370817   15.7988662
| 10>     C       17.3814201   15.8038867   16.6755450
| 11>     O       17.9222070   14.7139129   16.7727865
| 12>     C       17.7491650   16.9682052   17.5525186
| 13>     C       17.3181269   18.2474905   17.3888753
| 14>     C       16.3983927   18.7990209   16.3184697
| 15>     N       17.7839739   19.2512015   18.2452327
| 16>     C       18.7745677   19.0910591   19.1775463
| 17>     S       19.3566567   20.3637840   20.0590407
| 18>     N       19.2577481   17.8182360   19.3417410
| 19>     C       18.6850831   16.6130058   18.7140012
| 20>     C       17.9656603   15.7585433   19.7547633
| 21>     C       18.3035831   14.4025850   19.9201241
| 22>     C       17.6410240   13.6096568   20.8720437
| 23>     C       16.6305424   14.1764956   21.6671315
| 24>     C       16.2881598   15.5255655   21.5033434
| 25>     O       15.3083741   16.0742768   22.2651332
| 26>     C       16.9490925   16.3121203   20.5546790
| 27>     H       15.4770590   13.6875288   16.9345330
| 28>     H       14.2665793   13.3801139   15.6765775
| 29>     H       14.1463974   14.8413714   16.6801827
| 30>     H       16.4339248   14.2646460   14.6784482
| 31>     H       15.0445164   15.3251814   14.3547685
| 32>     H       16.7754114   18.5539897   15.3177292
| 33>     H       16.2971077   19.8899870   16.3661540
| 34>     H       15.3920654   18.3727977   16.4158188
| 35>     H       17.4417155   20.1928895   18.1407015
| 36>     H       19.9650761   17.7197785   20.0585929
| 37>     H       19.5195348   16.0256507   18.3041637
| 38>     H       19.0723814   13.9570926   19.2934061
| 39>     H       17.9078402   12.5604649   20.9851183
| 40>     H       16.1149172   13.5672506   22.4018623
| 41>     H       15.0010816   15.3898314   22.8781897
| 42>     H       16.6701599   17.3545698   20.4474541
| 43> *
| 44>
| 45>                          ****END OF INPUT****

CARTESIAN COORDINATES (ANGSTROEM)
---------------------------------
  C     14.847302   14.166227   16.173968
  C     15.700045   14.936502   15.144490
  O     16.360107   16.037082   15.798866
  C     17.381420   15.803887   16.675545
  O     17.922207   14.713913   16.772786
  C     17.749165   16.968205   17.552519
  C     17.318127   18.247491   17.388875
  C     16.398393   18.799021   16.318470
  N     17.783974   19.251202   18.245233
  C     18.774568   19.091059   19.177546
  S     19.356657   20.363784   20.059041
  N     19.257748   17.818236   19.341741
  C     18.685083   16.613006   18.714001
  C     17.965660   15.758543   19.754763
  C     18.303583   14.402585   19.920124
  C     17.641024   13.609657   20.872044
  C     16.630542   14.176496   21.667131
  C     16.288160   15.525565   21.503343
  O     15.308374   16.074277   22.265133
  C     16.949092   16.312120   20.554679
  H     15.477059   13.687529   16.934533
  H     14.266579   13.380114   15.676578
  H     14.146397   14.841371   16.680183
  H     16.433925   14.264646   14.678448
  H     15.044516   15.325181   14.354769
  H     16.775411   18.553990   15.317729
  H     16.297108   19.889987   16.366154
  H     15.392065   18.372798   16.415819
  H     17.441716   20.192889   18.140701
  H     19.965076   17.719779   20.058593
  H     19.519535   16.025651   18.304164
  H     19.072381   13.957093   19.293406
  H     17.907840   12.560465   20.985118
  H     16.114917   13.567251   22.401862
  H     15.001082   15.389831   22.878190
  H     16.670160   17.354570   20.447454

 Total Charge           Charge          ....    0
 Multiplicity           Mult            ....    1
 Number of Electrons    NEL             ....  154
 Basis Dimension        Dim             ....  828

ORBITAL ENERGIES
----------------

  NO   OCC          E(Eh)            E(eV)
   0   2.0000     -91.888219     -2500.4055
   1   2.0000     -20.603429      -560.6478
   2   2.0000     -20.591546      -560.3244
   3   2.0000     -20.544930      -559.0560
   4   2.0000     -15.628727      -425.2793
   5   2.0000     -15.606772      -424.6819
   6   2.0000     -11.396600      -310.1173
   7   2.0000     -11.383003      -309.7472
   8   2.0000     -11.337269      -308.5028
   9   2.0000     -11.307388      -307.6897
  10   2.0000     -11.305281      -307.6323
  11   2.0000     -11.300966      -307.5149
  12   2.0000     -11.260899      -306.4247
  13   2.0000     -11.258737      -306.3658
  14   2.0000     -11.253299      -306.2178
  15   2.0000     -11.247547      -306.0613
  16   2.0000     -11.237196      -305.7796
  17   2.0000     -11.233350      -305.6750
  18   2.0000     -11.230248      -305.5906
  19   2.0000     -11.226302      -305.4832
  20   2.0000      -8.893277      -241.9984
  21   2.0000      -6.574854      -178.9109
  22   2.0000      -6.572848      -178.8563
  23   2.0000      -6.572261      -178.8403
  24   2.0000      -1.453545       -39.5530
  25   2.0000      -1.411287       -38.4031
  26   2.0000      -1.356835       -36.9214
  27   2.0000      -1.339599       -36.4523
  28   2.0000      -1.237117       -33.6637
  29   2.0000      -1.152087       -31.3499
  30   2.0000      -1.119442       -30.4616
  31   2.0000      -1.041899       -28.3515
  32   2.0000      -1.034009       -28.1368
  33   2.0000      -1.009397       -27.4671
  34   2.0000      -0.997440       -27.1417
  35   2.0000      -0.982909       -26.7463
  36   2.0000      -0.921364       -25.0716
  37   2.0000      -0.894821       -24.3493
  38   2.0000      -0.847783       -23.0693
  39   2.0000      -0.835221       -22.7275
  40   2.0000      -0.827749       -22.5242
  41   2.0000      -0.815441       -22.1893
  42   2.0000      -0.752912       -20.4878
  43   2.0000      -0.735674       -20.0187
  44   2.0000      -0.724714       -19.7205
  45   2.0000      -0.690743       -18.7961
  46   2.0000      -0.685647       -18.6574
  47   2.0000      -0.679053       -18.4780
  48   2.0000      -0.671052       -18.2602
  49   2.0000      -0.653650       -17.7867
  50   2.0000      -0.652625       -17.7588
  51   2.0000      -0.644364       -17.5340
  52   2.0000      -0.631125       -17.1738
  53   2.0000      -0.613096       -16.6832
  54   2.0000      -0.600199       -16.3322
  55   2.0000      -0.599409       -16.3108
  56   2.0000      -0.594930       -16.1889
  57   2.0000      -0.581491       -15.8232
  58   2.0000      -0.573700       -15.6112
  59   2.0000      -0.564071       -15.3492
  60   2.0000      -0.558052       -15.1854
  61   2.0000      -0.545838       -14.8530
  62   2.0000      -0.536925       -14.6105
  63   2.0000      -0.528559       -14.3828
  64   2.0000      -0.516706       -14.0603
  65   2.0000      -0.509208       -13.8563
  66   2.0000      -0.498551       -13.5663
  67   2.0000      -0.495041       -13.4707
  68   2.0000      -0.481290       -13.0966
  69   2.0000      -0.463357       -12.6086
  70   2.0000      -0.459085       -12.4923
  71   2.0000      -0.452016       -12.3000
  72   2.0000      -0.354417        -9.6442
  73   2.0000      -0.343985        -9.3603
  74   2.0000      -0.327312        -8.9066
  75   2.0000      -0.315749        -8.5920
  76   2.0000      -0.313636        -8.5345
  77   0.0000       0.075571         2.0564
  78   0.0000       0.113283         3.0826
  79   0.0000       0.121112         3.2956
  80   0.0000       0.136124         3.7041
  81   0.0000       0.141439         3.8487

MULLIKEN ATOMIC CHARGES
-----------------------
   0 C :   -0.297847
   1 C :    0.030337
   2 O :   -0.349851
   3 C :    0.453957
   4 O :   -0.435439
   5 C :   -0.176164
   6 C :    0.143650
   7 C :   -0.282524
   8 N :   -0.120711
   9 C :    0.201400
  10 S :   -0.438769
  11 N :   -0.197681
  12 C :    0.035891
  13 C :    0.058431
  14 C :   -0.163424
  15 C :   -0.134309
  16 C :   -0.278928
  17 C :    0.311856
  18 O :   -0.359141
  19 C :   -0.273331
  20 H :    0.122723
  21 H :    0.095472
  22 H :    0.093436
  23 H :    0.107733
  24 H :    0.107969
  25 H :    0.127529
  26 H :    0.101217
  27 H :    0.126393
  28 H :    0.196755
  29 H :    0.193702
  30 H :    0.153675
  31 H :    0.154038
  32 H :    0.159293
  33 H :    0.128116
  34 H :    0.240060
  35 H :    0.164488
Sum of atomic charges:   -0.0000000

LOEWDIN ATOMIC CHARGES
----------------------
   0 C :    0.105987
   1 C :   -0.017207
   2 O :    0.304506
   3 C :   -0.414056
   4 O :    0.102225
   5 C :   -0.090876
   6 C :   -0.064072
   7 C :    0.125146
   8 N :    0.405043
   9 C :   -0.459043
  10 S :   -0.035599
  11 N :    0.398063
  12 C :   -0.046642
  13 C :   -0.039000
  14 C :    0.022009
  15 C :    0.040379
  16 C :   -0.002285
  17 C :   -0.192592
  18 O :    0.393002
  19 C :    0.028372
  20 H :   -0.023281
  21 H :   -0.026541
  22 H :   -0.029698
  23 H :   -0.027793
  24 H :   -0.025799
  25 H :   -0.008133
  26 H :   -0.021352
  27 H :   -0.009919
  28 H :   -0.059191
  29 H :   -0.063565
  30 H :   -0.005185
  31 H :   -0.025240
  32 H :   -0.021243
  33 H :   -0.036387
  34 H :   -0.154903
  35 H :   -0.025132

  Mayer bond orders larger than 0.100000
B(  0-C ,  1-C ) :   0.9620 B(  0-C , 20-H ) :   0.9731 B(  0-C , 21-H ) :   0.9760
B(  0-C , 22-H ) :   0.9768 B(  1-C ,  2-O ) :   0.8949 B(  1-C , 23-H ) :   0.9788
B(  1-C , 24-H ) :   0.9845 B(  2-O ,  3-C ) :   1.1562 B(  3-C ,  4-O ) :   1.9670
B(  3-C ,  5-C ) :   1.0640 B(  5-C ,  6-C ) :   1.6420 B(  5-C , 12-C ) :   0.9672
B(  6-C ,  7-C ) :   0.9564 B(  6-C ,  8-N ) :   1.1523 B(  7-C , 25-H ) :   0.9646
B(  7-C , 26-H ) :   0.9913 B(  7-C , 27-H ) :   0.9640 B(  8-N ,  9-C ) :   1.1772
B(  8-N , 28-H ) :   0.9486 B(  9-C , 10-S ) :   1.6112 B(  9-C , 11-N ) :   1.3050
B( 11-N , 12-C ) :   0.9922 B( 11-N , 29-H ) :   0.9519 B( 12-C , 13-C ) :   0.9462
B( 12-C , 30-H ) :   1.0006 B( 13-C , 14-C ) :   1.3748 B( 13-C , 19-C ) :   1.3693
B( 14-C , 15-C ) :   1.3944 B( 14-C , 31-H ) :   0.9647 B( 15-C , 16-C ) :   1.3622
B( 15-C , 32-H ) :   0.9713 B( 16-C , 17-C ) :   1.3317 B( 16-C , 33-H ) :   0.9860
B( 17-C , 18-O ) :   1.1080 B( 17-C , 19-C ) :   1.3789 B( 18-O , 34-H ) :   0.9806
B( 19-C , 35-H ) :   0.9585

MP2 TOTAL ENERGY:    -1274.349303386 Eh
FINAL SINGLE POINT ENERGY     -1274.349303385666

DIPOLE MOMENT
-------------
                                X             Y             Z
Electronic contribution:     10.83289       9.85277       9.19564
Nuclear contribution   :    -12.35458     -11.06348     -10.25629
                        -----------------------------------------
Total Dipole Moment    :     -1.52170      -1.21071      -1.06065
                        -----------------------------------------
Magnitude (a.u.)       :      2.21503
Magnitude (Debye)      :      5.63016

Rotational constants in cm-1:     0.010727     0.009183     0.006035
Rotational constants in MHz :   321.601850   275.298667   180.922704

                             ****ORCA TERMINATED NORMALLY****
TOTAL RUN TIME: 0 days 1 hours 44 minutes 44 seconds 690 msec
