                         Program Version 5.0.0 -  RELEASE  -
|  1> ! ri-mp2 cc-pvtz cc-pvtz/c TightSCF NoKeepInts
|  2>
|  3> %scf
|  4>   MaxCore 4096
|  5> end
|  6> *xyz  0  1
|  7>     C       15.1104584   13.8736727   16.4434335
|  8>     C       16.5568953   14.0060186   15.9196842
|  9>     O       17.2474364   15.0560754   16.6247491
| 10>     C       16.8331718   16.3588778   16.5495945
| 11>     O       16.0268513   16.7430186   15.7193268
| 12>     C       17.5916250   17.2570720   17.4870833
| 13>     C       17.4736536   18.6088667   17.4593515
| 14>     C       16.6137520   19.4352245   16.5270929
| 15>     N       18.2184990   19.3961120   18.3425639
| 16>     C       19.1540219   18.9192146   19.2213256
| 17>     S       20.0472171   19.9280524   20.1806958
| 18>     N       19.3135990   17.5578534   19.2671806
| 19>     C       18.4928763   16.5786041   18.5313815
| 20>     C       17.6806248   15.7387501   19.5132183
| 21>     C       17.9287184   14.3599652   19.6497606
| 22>     C       17.1748482   13.5830241   20.5454028
| 23>     C       16.1662857   14.1897566   21.3132439
| 24>     C       15.9193831   15.5633003   21.1828781
| 25>     O       14.9463850   16.1520265   21.9229068
| 26>     C       16.6709776   16.3337849   20.2903910
| 27>     H       15.1031022   13.7803111   17.5368937
| 28>     H       14.6337548   12.9808404   16.0215175
| 29>     H       14.4979612   14.7397164   16.1651116
| 30>     H       17.0862586   13.0578261   16.0779017
| 31>     H       16.5451636   14.2147047   14.8413302
| 32>     H       16.8809582   19.2397697   15.4807769
| 33>     H       16.7101707   20.5139146   16.6970313
| 34>     H       15.5545709   19.1741968   16.6481335
| 35>     H       18.1146138   20.3980431   18.3236833
| 36>     H       19.9819468   17.2340324   19.9544196
| 37>     H       19.1849484   15.9148669   17.9943667
| 38>     H       18.7031125   13.8871769   19.0517530
| 39>     H       17.3724074   12.5168780   20.6416801
| 40>     H       15.5813726   13.5940543   22.0062544
| 41>     H       14.5614931   15.4702288   22.4936742
| 42>     H       16.4678852   17.3961693   20.2082074
| 43> *
| 44>
| 45>                          ****END OF INPUT****

CARTESIAN COORDINATES (ANGSTROEM)
---------------------------------
  C     15.110458   13.873673   16.443434
  C     16.556895   14.006019   15.919684
  O     17.247436   15.056075   16.624749
  C     16.833172   16.358878   16.549595
  O     16.026851   16.743019   15.719327
  C     17.591625   17.257072   17.487083
  C     17.473654   18.608867   17.459352
  C     16.613752   19.435225   16.527093
  N     18.218499   19.396112   18.342564
  C     19.154022   18.919215   19.221326
  S     20.047217   19.928052   20.180696
  N     19.313599   17.557853   19.267181
  C     18.492876   16.578604   18.531381
  C     17.680625   15.738750   19.513218
  C     17.928718   14.359965   19.649761
  C     17.174848   13.583024   20.545403
  C     16.166286   14.189757   21.313244
  C     15.919383   15.563300   21.182878
  O     14.946385   16.152027   21.922907
  C     16.670978   16.333785   20.290391
  H     15.103102   13.780311   17.536894
  H     14.633755   12.980840   16.021518
  H     14.497961   14.739716   16.165112
  H     17.086259   13.057826   16.077902
  H     16.545164   14.214705   14.841330
  H     16.880958   19.239770   15.480777
  H     16.710171   20.513915   16.697031
  H     15.554571   19.174197   16.648134
  H     18.114614   20.398043   18.323683
  H     19.981947   17.234032   19.954420
  H     19.184948   15.914867   17.994367
  H     18.703112   13.887177   19.051753
  H     17.372407   12.516878   20.641680
  H     15.581373   13.594054   22.006254
  H     14.561493   15.470229   22.493674
  H     16.467885   17.396169   20.208207

 Total Charge           Charge          ....    0
 Multiplicity           Mult            ....    1
 Number of Electrons    NEL             ....  154
 Basis Dimension        Dim             ....  828

ORBITAL ENERGIES
----------------

  NO   OCC          E(Eh)            E(eV)
   0   2.0000     -91.888471     -2500.4124
   1   2.0000     -20.600656      -560.5723
   2   2.0000     -20.596325      -560.4545
   3   2.0000     -20.541715      -558.9685
   4   2.0000     -15.628557      -425.2747
   5   2.0000     -15.607884      -424.7121
   6   2.0000     -11.395746      -310.0940
   7   2.0000     -11.383639      -309.7646
   8   2.0000     -11.335516      -308.4551
   9   2.0000     -11.313513      -307.8563
  10   2.0000     -11.308175      -307.7111
  11   2.0000     -11.299113      -307.4645
  12   2.0000     -11.259276      -306.3805
  13   2.0000     -11.258708      -306.3650
  14   2.0000     -11.254858      -306.2602
  15   2.0000     -11.251752      -306.1757
  16   2.0000     -11.243071      -305.9395
  17   2.0000     -11.238451      -305.8138
  18   2.0000     -11.237976      -305.8009
  19   2.0000     -11.221973      -305.3654
  20   2.0000      -8.893538      -242.0055
  21   2.0000      -6.575115      -178.9180
  22   2.0000      -6.573108      -178.8634
  23   2.0000      -6.572523      -178.8474
  24   2.0000      -1.449886       -39.4534
  25   2.0000      -1.416007       -38.5315
  26   2.0000      -1.354456       -36.8566
  27   2.0000      -1.339536       -36.4506
  28   2.0000      -1.238035       -33.6886
  29   2.0000      -1.157514       -31.4976
  30   2.0000      -1.120141       -30.4806
  31   2.0000      -1.042504       -28.3680
  32   2.0000      -1.035290       -28.1717
  33   2.0000      -1.014808       -27.6143
  34   2.0000      -0.994920       -27.0731
  35   2.0000      -0.983732       -26.7687
  36   2.0000      -0.922144       -25.0928
  37   2.0000      -0.895866       -24.3778
  38   2.0000      -0.846707       -23.0401
  39   2.0000      -0.837457       -22.7884
  40   2.0000      -0.833864       -22.6906
  41   2.0000      -0.816550       -22.2195
  42   2.0000      -0.752627       -20.4800
  43   2.0000      -0.732138       -19.9225
  44   2.0000      -0.722682       -19.6652
  45   2.0000      -0.695502       -18.9256
  46   2.0000      -0.688373       -18.7316
  47   2.0000      -0.678702       -18.4684
  48   2.0000      -0.670679       -18.2501
  49   2.0000      -0.658357       -17.9148
  50   2.0000      -0.649036       -17.6612
  51   2.0000      -0.640966       -17.4416
  52   2.0000      -0.632270       -17.2050
  53   2.0000      -0.613167       -16.6851
  54   2.0000      -0.606267       -16.4974
  55   2.0000      -0.599671       -16.3179
  56   2.0000      -0.598515       -16.2864
  57   2.0000      -0.577211       -15.7067
  58   2.0000      -0.570407       -15.5216
  59   2.0000      -0.570116       -15.5137
  60   2.0000      -0.560443       -15.2504
  61   2.0000      -0.542936       -14.7740
  62   2.0000      -0.535024       -14.5587
  63   2.0000      -0.525493       -14.2994
  64   2.0000      -0.522968       -14.2307
  65   2.0000      -0.512959       -13.9583
  66   2.0000      -0.501520       -13.6470
  67   2.0000      -0.499490       -13.5918
  68   2.0000      -0.483221       -13.1491
  69   2.0000      -0.463765       -12.6197
  70   2.0000      -0.455374       -12.3914
  71   2.0000      -0.445777       -12.1302
  72   2.0000      -0.353756        -9.6262
  73   2.0000      -0.349307        -9.5051
  74   2.0000      -0.327884        -8.9222
  75   2.0000      -0.321026        -8.7356
  76   2.0000      -0.315708        -8.5908
  77   0.0000       0.076571         2.0836
  78   0.0000       0.106904         2.9090
  79   0.0000       0.125225         3.4075
  80   0.0000       0.132850         3.6150
  81   0.0000       0.138007         3.7554

MULLIKEN ATOMIC CHARGES
-----------------------
   0 C :   -0.309246
   1 C :    0.025061
   2 O :   -0.355659
   3 C :    0.472803
   4 O :   -0.438549
   5 C :   -0.218373
   6 C :    0.149112
   7 C :   -0.274134
   8 N :   -0.119318
   9 C :    0.210878
  10 S :   -0.440668
  11 N :   -0.204940
  12 C :    0.058326
  13 C :    0.058654
  14 C :   -0.183149
  15 C :   -0.132973
  16 C :   -0.278943
  17 C :    0.315815
  18 O :   -0.356476
  19 C :   -0.267928
  20 H :    0.105859
  21 H :    0.095186
  22 H :    0.121679
  23 H :    0.111432
  24 H :    0.109112
  25 H :    0.131307
  26 H :    0.095137
  27 H :    0.131281
  28 H :    0.196898
  29 H :    0.194806
  30 H :    0.150770
  31 H :    0.149954
  32 H :    0.160166
  33 H :    0.130143
  34 H :    0.240581
  35 H :    0.165395
Sum of atomic charges:   -0.0000000

LOEWDIN ATOMIC CHARGES
----------------------
   0 C :    0.105140
   1 C :   -0.016352
   2 O :    0.305125
   3 C :   -0.411664
   4 O :    0.097295
   5 C :   -0.093512
   6 C :   -0.059377
   7 C :    0.131395
   8 N :    0.406429
   9 C :   -0.456552
  10 S :   -0.036110
  11 N :    0.396578
  12 C :   -0.052297
  13 C :   -0.039792
  14 C :    0.014418
  15 C :    0.038797
  16 C :   -0.001818
  17 C :   -0.189966
  18 O :    0.395249
  19 C :    0.031520
  20 H :   -0.026855
  21 H :   -0.027921
  22 H :   -0.026043
  23 H :   -0.025132
  24 H :   -0.028029
  25 H :   -0.003988
  26 H :   -0.023474
  27 H :   -0.004778
  28 H :   -0.057661
  29 H :   -0.064498
  30 H :   -0.011708
  31 H :   -0.030016
  32 H :   -0.021509
  33 H :   -0.035497
  34 H :   -0.153958
  35 H :   -0.023439

  Mayer bond orders larger than 0.100000
B(  0-C ,  1-C ) :   0.9603 B(  0-C , 20-H ) :   0.9730 B(  0-C , 21-H ) :   0.9773
B(  0-C , 22-H ) :   0.9736 B(  1-C ,  2-O ) :   0.9003 B(  1-C , 23-H ) :   0.9847
B(  1-C , 24-H ) :   0.9819 B(  2-O ,  3-C ) :   1.1619 B(  3-C ,  4-O ) :   1.9564
B(  3-C ,  5-C ) :   1.0616 B(  5-C ,  6-C ) :   1.6547 B(  5-C , 12-C ) :   0.9718
B(  6-C ,  7-C ) :   0.9668 B(  6-C ,  8-N ) :   1.1651 B(  7-C , 25-H ) :   0.9603
B(  7-C , 26-H ) :   0.9904 B(  7-C , 27-H ) :   0.9608 B(  8-N ,  9-C ) :   1.1836
B(  8-N , 28-H ) :   0.9479 B(  9-C , 10-S ) :   1.6068 B(  9-C , 11-N ) :   1.3051
B( 11-N , 12-C ) :   0.9899 B( 11-N , 29-H ) :   0.9512 B( 12-C , 13-C ) :   0.9345
B( 12-C , 30-H ) :   1.0024 B( 13-C , 14-C ) :   1.3558 B( 13-C , 19-C ) :   1.3824
B( 14-C , 15-C ) :   1.3926 B( 14-C , 31-H ) :   0.9714 B( 15-C , 16-C ) :   1.3619
B( 15-C , 32-H ) :   0.9708 B( 16-C , 17-C ) :   1.3315 B( 16-C , 33-H ) :   0.9852
B( 17-C , 18-O ) :   1.1102 B( 17-C , 19-C ) :   1.3717 B( 18-O , 34-H ) :   0.9799
B( 19-C , 35-H ) :   0.9581

MP2 TOTAL ENERGY:    -1274.349625431 Eh
FINAL SINGLE POINT ENERGY     -1274.349625430907

DIPOLE MOMENT
-------------
                                X             Y             Z
Electronic contribution:      9.73072      10.49143       8.01145
Nuclear contribution   :    -10.68666     -12.26422      -8.46049
                        -----------------------------------------
Total Dipole Moment    :     -0.95594      -1.77279      -0.44904
                        -----------------------------------------
Magnitude (a.u.)       :      2.06355
Magnitude (Debye)      :      5.24512

Rotational constants in cm-1:     0.011948     0.008686     0.006194
Rotational constants in MHz :   358.195918   260.390452   185.705114

                             ****ORCA TERMINATED NORMALLY****
TOTAL RUN TIME: 0 days 2 hours 0 minutes 51 seconds 573 msec
