                         Program Version 5.0.0 -  RELEASE  -
|  1> ! ri-mp2 cc-pvtz cc-pvtz/c TightSCF NoKeepInts
|  2>
|  3> %scf
|  4>   MaxCore 4096
|  5> end
|  6> *xyz  0  1
|  7>     C       15.1716248   13.8103712   16.3539783
|  8>     C       15.3408426   15.2985865   16.7110666
|  9>     O       16.4286677   15.8415243   15.9403202
| 10>     C       17.6759694   15.7956541   16.4890598
| 11>     O       18.2519006   14.7322175   16.6390803
| 12>     C       17.9448591   16.9639477   17.3884866
| 13>     C       17.5209737   18.2259132   17.1294228
| 14>     C       16.7585378   18.7058952   15.9122424
| 15>     N       17.8534222   19.2639072   18.0050312
| 16>     C       18.7103669   19.1447162   19.0679743
| 17>     S       19.1405411   20.4487255   19.9895381
| 18>     N       19.1911648   17.8859593   19.3303868
| 19>     C       18.7425710   16.6517694   18.6572586
| 20>     C       17.9156342   15.7882882   19.6065888
| 21>     C       18.2312774   14.4297561   19.7916344
| 22>     C       17.4591890   13.6241553   20.6451228
| 23>     C       16.3596696   14.1805126   21.3203314
| 24>     C       16.0390440   15.5320646   21.1360738
| 25>     O       14.9707822   16.0699257   21.7765171
| 26>     C       16.8086540   16.3311804   20.2848865
| 27>     H       16.0504153   13.2312908   16.6645728
| 28>     H       15.0394330   13.6835174   15.2723877
| 29>     H       14.2939940   13.3910180   16.8602321
| 30>     H       14.4156956   15.8294093   16.4527802
| 31>     H       15.5146942   15.4183470   17.7894106
| 32>     H       17.1309769   18.2242060   14.9992653
| 33>     H       16.8512636   19.7884065   15.7611822
| 34>     H       15.6913145   18.4697831   16.0039740
| 35>     H       17.5130451   20.1956827   17.8277683
| 36>     H       19.7995640   17.8217046   20.1365957
| 37>     H       19.6379767   16.0850784   18.3628342
| 38>     H       19.0686745   13.9914963   19.2535334
| 39>     H       17.7111696   12.5729350   20.7739415
| 40>     H       15.7592852   13.5608635   21.9781862
| 41>     H       14.6110617   15.3881046   22.3639782
| 42>     H       16.5427438   17.3750864   20.1583567
| 43> *
| 44>
| 45>                          ****END OF INPUT****

CARTESIAN COORDINATES (ANGSTROEM)
---------------------------------
  C     15.171625   13.810371   16.353978
  C     15.340843   15.298587   16.711067
  O     16.428668   15.841524   15.940320
  C     17.675969   15.795654   16.489060
  O     18.251901   14.732217   16.639080
  C     17.944859   16.963948   17.388487
  C     17.520974   18.225913   17.129423
  C     16.758538   18.705895   15.912242
  N     17.853422   19.263907   18.005031
  C     18.710367   19.144716   19.067974
  S     19.140541   20.448725   19.989538
  N     19.191165   17.885959   19.330387
  C     18.742571   16.651769   18.657259
  C     17.915634   15.788288   19.606589
  C     18.231277   14.429756   19.791634
  C     17.459189   13.624155   20.645123
  C     16.359670   14.180513   21.320331
  C     16.039044   15.532065   21.136074
  O     14.970782   16.069926   21.776517
  C     16.808654   16.331180   20.284886
  H     16.050415   13.231291   16.664573
  H     15.039433   13.683517   15.272388
  H     14.293994   13.391018   16.860232
  H     14.415696   15.829409   16.452780
  H     15.514694   15.418347   17.789411
  H     17.130977   18.224206   14.999265
  H     16.851264   19.788407   15.761182
  H     15.691314   18.469783   16.003974
  H     17.513045   20.195683   17.827768
  H     19.799564   17.821705   20.136596
  H     19.637977   16.085078   18.362834
  H     19.068674   13.991496   19.253533
  H     17.711170   12.572935   20.773941
  H     15.759285   13.560863   21.978186
  H     14.611062   15.388105   22.363978
  H     16.542744   17.375086   20.158357

 Total Charge           Charge          ....    0
 Multiplicity           Mult            ....    1
 Number of Electrons    NEL             ....  154
 Basis Dimension        Dim             ....  828

ORBITAL ENERGIES
----------------

  NO   OCC          E(Eh)            E(eV)
   0   2.0000     -91.890108     -2500.4570
   1   2.0000     -20.597303      -560.4811
   2   2.0000     -20.581289      -560.0453
   3   2.0000     -20.557605      -559.4009
   4   2.0000     -15.629894      -425.3110
   5   2.0000     -15.609483      -424.7556
   6   2.0000     -11.395326      -310.0826
   7   2.0000     -11.385587      -309.8176
   8   2.0000     -11.335140      -308.4448
   9   2.0000     -11.313774      -307.8634
  10   2.0000     -11.309621      -307.7504
  11   2.0000     -11.300639      -307.5060
  12   2.0000     -11.261587      -306.4434
  13   2.0000     -11.260073      -306.4022
  14   2.0000     -11.259317      -306.3816
  15   2.0000     -11.253797      -306.2314
  16   2.0000     -11.243402      -305.9485
  17   2.0000     -11.239329      -305.8377
  18   2.0000     -11.236341      -305.7564
  19   2.0000     -11.219569      -305.3000
  20   2.0000      -8.895176      -242.0500
  21   2.0000      -6.576751      -178.9625
  22   2.0000      -6.574743      -178.9079
  23   2.0000      -6.574156      -178.8919
  24   2.0000      -1.451686       -39.5024
  25   2.0000      -1.417132       -38.5621
  26   2.0000      -1.358008       -36.9533
  27   2.0000      -1.340917       -36.4882
  28   2.0000      -1.239078       -33.7170
  29   2.0000      -1.157873       -31.5073
  30   2.0000      -1.122374       -30.5414
  31   2.0000      -1.045488       -28.4492
  32   2.0000      -1.029956       -28.0265
  33   2.0000      -1.015401       -27.6305
  34   2.0000      -1.000404       -27.2224
  35   2.0000      -0.985833       -26.8259
  36   2.0000      -0.924720       -25.1629
  37   2.0000      -0.881727       -23.9930
  38   2.0000      -0.850974       -23.1562
  39   2.0000      -0.840774       -22.8786
  40   2.0000      -0.833881       -22.6911
  41   2.0000      -0.829290       -22.5661
  42   2.0000      -0.750623       -20.4255
  43   2.0000      -0.732546       -19.9336
  44   2.0000      -0.729684       -19.8557
  45   2.0000      -0.695695       -18.9308
  46   2.0000      -0.687334       -18.7033
  47   2.0000      -0.680725       -18.5235
  48   2.0000      -0.673683       -18.3318
  49   2.0000      -0.665759       -18.1162
  50   2.0000      -0.648000       -17.6330
  51   2.0000      -0.646914       -17.6034
  52   2.0000      -0.637894       -17.3580
  53   2.0000      -0.606529       -16.5045
  54   2.0000      -0.605042       -16.4640
  55   2.0000      -0.601238       -16.3605
  56   2.0000      -0.590337       -16.0639
  57   2.0000      -0.582669       -15.8552
  58   2.0000      -0.577543       -15.7158
  59   2.0000      -0.572242       -15.5715
  60   2.0000      -0.562670       -15.3110
  61   2.0000      -0.551827       -15.0160
  62   2.0000      -0.535971       -14.5845
  63   2.0000      -0.523021       -14.2321
  64   2.0000      -0.515612       -14.0305
  65   2.0000      -0.512503       -13.9459
  66   2.0000      -0.502221       -13.6661
  67   2.0000      -0.497702       -13.5432
  68   2.0000      -0.481238       -13.0951
  69   2.0000      -0.467170       -12.7123
  70   2.0000      -0.453468       -12.3395
  71   2.0000      -0.450961       -12.2713
  72   2.0000      -0.356039        -9.6883
  73   2.0000      -0.349343        -9.5061
  74   2.0000      -0.329374        -8.9627
  75   2.0000      -0.321041        -8.7360
  76   2.0000      -0.317287        -8.6338
  77   0.0000       0.069573         1.8932
  78   0.0000       0.104018         2.8305
  79   0.0000       0.119259         3.2452
  80   0.0000       0.131001         3.5647
  81   0.0000       0.134834         3.6690

MULLIKEN ATOMIC CHARGES
-----------------------
   0 C :   -0.263636
   1 C :    0.030019
   2 O :   -0.378790
   3 C :    0.466602
   4 O :   -0.394952
   5 C :   -0.209329
   6 C :    0.137806
   7 C :   -0.281180
   8 N :   -0.123413
   9 C :    0.199388
  10 S :   -0.437388
  11 N :   -0.201733
  12 C :    0.058341
  13 C :    0.036495
  14 C :   -0.164436
  15 C :   -0.134610
  16 C :   -0.277520
  17 C :    0.319722
  18 O :   -0.359777
  19 C :   -0.290347
  20 H :    0.114035
  21 H :    0.095065
  22 H :    0.086283
  23 H :    0.101548
  24 H :    0.100338
  25 H :    0.126903
  26 H :    0.106368
  27 H :    0.123287
  28 H :    0.197412
  29 H :    0.194418
  30 H :    0.156602
  31 H :    0.160726
  32 H :    0.162063
  33 H :    0.131771
  34 H :    0.241092
  35 H :    0.170824
Sum of atomic charges:    0.0000000

LOEWDIN ATOMIC CHARGES
----------------------
   0 C :    0.107305
   1 C :   -0.017008
   2 O :    0.285390
   3 C :   -0.418020
   4 O :    0.135322
   5 C :   -0.095656
   6 C :   -0.073615
   7 C :    0.126871
   8 N :    0.404493
   9 C :   -0.457985
  10 S :   -0.034745
  11 N :    0.397022
  12 C :   -0.045670
  13 C :   -0.042299
  14 C :    0.021325
  15 C :    0.042657
  16 C :   -0.001689
  17 C :   -0.195102
  18 O :    0.393921
  19 C :    0.027028
  20 H :   -0.025019
  21 H :   -0.027023
  22 H :   -0.029978
  23 H :   -0.027506
  24 H :   -0.029949
  25 H :   -0.006849
  26 H :   -0.018993
  27 H :   -0.010318
  28 H :   -0.058414
  29 H :   -0.064005
  30 H :   -0.004261
  31 H :   -0.023975
  32 H :   -0.019805
  33 H :   -0.035233
  34 H :   -0.153612
  35 H :   -0.024604

  Mayer bond orders larger than 0.100000
B(  0-C ,  1-C ) :   0.9866 B(  0-C , 20-H ) :   0.9719 B(  0-C , 21-H ) :   0.9774
B(  0-C , 22-H ) :   0.9754 B(  1-C ,  2-O ) :   0.8874 B(  1-C , 23-H ) :   0.9816
B(  1-C , 24-H ) :   0.9646 B(  2-O ,  3-C ) :   1.0854 B(  3-C ,  4-O ) :   2.0297
B(  3-C ,  5-C ) :   1.0162 B(  5-C ,  6-C ) :   1.6693 B(  5-C , 12-C ) :   0.9587
B(  6-C ,  7-C ) :   0.9522 B(  6-C ,  8-N ) :   1.1397 B(  7-C , 25-H ) :   0.9695
B(  7-C , 26-H ) :   0.9877 B(  7-C , 27-H ) :   0.9641 B(  8-N ,  9-C ) :   1.1827
B(  8-N , 28-H ) :   0.9495 B(  9-C , 10-S ) :   1.6139 B(  9-C , 11-N ) :   1.2987
B( 11-N , 12-C ) :   0.9935 B( 11-N , 29-H ) :   0.9518 B( 12-C , 13-C ) :   0.9434
B( 12-C , 30-H ) :   0.9989 B( 13-C , 14-C ) :   1.3812 B( 13-C , 19-C ) :   1.3582
B( 14-C , 15-C ) :   1.3950 B( 14-C , 31-H ) :   0.9617 B( 15-C , 16-C ) :   1.3640
B( 15-C , 32-H ) :   0.9705 B( 16-C , 17-C ) :   1.3306 B( 16-C , 33-H ) :   0.9844
B( 17-C , 18-O ) :   1.1102 B( 17-C , 19-C ) :   1.3691 B( 18-O , 34-H ) :   0.9796
B( 19-C , 35-H ) :   0.9593

MP2 TOTAL ENERGY:    -1274.324344762 Eh
FINAL SINGLE POINT ENERGY     -1274.324344762163

DIPOLE MOMENT
-------------
                                X             Y             Z
Electronic contribution:     10.55879      10.16863       7.03414
Nuclear contribution   :    -11.97854     -11.21134      -7.47158
                        -----------------------------------------
Total Dipole Moment    :     -1.41975      -1.04270      -0.43744
                        -----------------------------------------
Magnitude (a.u.)       :      1.81502
Magnitude (Debye)      :      4.61340

Rotational constants in cm-1:     0.012091     0.009149     0.006528
Rotational constants in MHz :   362.484741   274.273032   195.691215

                             ****ORCA TERMINATED NORMALLY****
TOTAL RUN TIME: 0 days 2 hours 12 minutes 17 seconds 746 msec
