                         Program Version 5.0.0 -  RELEASE  -
|  1> ! ri-mp2 cc-pvtz cc-pvtz/c TightSCF NoKeepInts
|  2>
|  3> %scf
|  4>   MaxCore 4096
|  5> end
|  6> *xyz  0  1
|  7>     C       15.0716657   14.6163616   16.9370545
|  8>     C       16.4471981   13.9816512   16.6253279
|  9>     O       17.5135497   14.9442185   16.4301982
| 10>     C       17.2796973   16.2697200   16.1939001
| 11>     O       16.5990818   16.6330343   15.2506921
| 12>     C       17.7404792   17.1653870   17.3124573
| 13>     C       17.4899620   18.4998692   17.3235959
| 14>     C       16.7003224   19.2952359   16.3060770
| 15>     N       18.0222810   19.3039641   18.3362355
| 16>     C       18.9388031   18.8857879   19.2639426
| 17>     S       19.6346816   19.9304497   20.3410092
| 18>     N       19.2584069   17.5520471   19.2475139
| 19>     C       18.5633618   16.5284834   18.4458881
| 20>     C       17.7190408   15.6559877   19.3693175
| 21>     C       18.0916071   14.3228046   19.6244374
| 22>     C       17.3190460   13.5147229   20.4754868
| 23>     C       16.1685990   14.0459973   21.0828869
| 24>     C       15.8029637   15.3775559   20.8429959
| 25>     O       14.6941830   15.8944665   21.4293075
| 26>     C       16.5737172   16.1792017   19.9955537
| 27>     H       15.1343766   15.3169604   17.7771107
| 28>     H       14.3508376   13.8354887   17.2072883
| 29>     H       14.6691376   15.1463684   16.0649275
| 30>     H       16.7239305   13.2988245   17.4382440
| 31>     H       16.3464669   13.3779372   15.7140530
| 32>     H       17.1654471   19.2223400   15.3146247
| 33>     H       16.6233775   20.3592687   16.5584064
| 34>     H       15.6794494   18.9021698   16.2174702
| 35>     H       17.8055361   20.2877346   18.3555493
| 36>     H       19.9150978   17.2676362   19.9628445
| 37>     H       19.3332716   15.8963608   17.9812797
| 38>     H       18.9802906   13.9091717   19.1548601
| 39>     H       17.6137756   12.4837500   20.6643334
| 40>     H       15.5688766   13.4262215   21.7414919
| 41>     H       14.3303288   15.2151858   22.0169597
| 42>     H       16.2781522   17.2096354   19.8306785
| 43> *
| 44>
| 45>                          ****END OF INPUT****

CARTESIAN COORDINATES (ANGSTROEM)
---------------------------------
  C     15.071666   14.616362   16.937054
  C     16.447198   13.981651   16.625328
  O     17.513550   14.944218   16.430198
  C     17.279697   16.269720   16.193900
  O     16.599082   16.633034   15.250692
  C     17.740479   17.165387   17.312457
  C     17.489962   18.499869   17.323596
  C     16.700322   19.295236   16.306077
  N     18.022281   19.303964   18.336236
  C     18.938803   18.885788   19.263943
  S     19.634682   19.930450   20.341009
  N     19.258407   17.552047   19.247514
  C     18.563362   16.528483   18.445888
  C     17.719041   15.655988   19.369317
  C     18.091607   14.322805   19.624437
  C     17.319046   13.514723   20.475487
  C     16.168599   14.045997   21.082887
  C     15.802964   15.377556   20.842996
  O     14.694183   15.894467   21.429308
  C     16.573717   16.179202   19.995554
  H     15.134377   15.316960   17.777111
  H     14.350838   13.835489   17.207288
  H     14.669138   15.146368   16.064927
  H     16.723931   13.298825   17.438244
  H     16.346467   13.377937   15.714053
  H     17.165447   19.222340   15.314625
  H     16.623378   20.359269   16.558406
  H     15.679449   18.902170   16.217470
  H     17.805536   20.287735   18.355549
  H     19.915098   17.267636   19.962844
  H     19.333272   15.896361   17.981280
  H     18.980291   13.909172   19.154860
  H     17.613776   12.483750   20.664333
  H     15.568877   13.426221   21.741492
  H     14.330329   15.215186   22.016960
  H     16.278152   17.209635   19.830678

 Total Charge           Charge          ....    0
 Multiplicity           Mult            ....    1
 Number of Electrons    NEL             ....  154
 Basis Dimension        Dim             ....  828

ORBITAL ENERGIES
----------------

  NO   OCC          E(Eh)            E(eV)
   0   2.0000     -91.890286     -2500.4618
   1   2.0000     -20.600833      -560.5772
   2   2.0000     -20.584044      -560.1203
   3   2.0000     -20.544190      -559.0358
   4   2.0000     -15.630668      -425.3321
   5   2.0000     -15.609326      -424.7513
   6   2.0000     -11.393740      -310.0394
   7   2.0000     -11.385080      -309.8038
   8   2.0000     -11.337129      -308.4990
   9   2.0000     -11.318220      -307.9844
  10   2.0000     -11.310832      -307.7834
  11   2.0000     -11.298768      -307.4551
  12   2.0000     -11.263465      -306.4945
  13   2.0000     -11.259934      -306.3984
  14   2.0000     -11.259053      -306.3744
  15   2.0000     -11.252989      -306.2094
  16   2.0000     -11.247662      -306.0644
  17   2.0000     -11.242409      -305.9215
  18   2.0000     -11.242241      -305.9169
  19   2.0000     -11.223447      -305.4055
  20   2.0000      -8.895327      -242.0541
  21   2.0000      -6.576895      -178.9664
  22   2.0000      -6.574897      -178.9121
  23   2.0000      -6.574305      -178.8959
  24   2.0000      -1.442884       -39.2629
  25   2.0000      -1.420518       -38.6543
  26   2.0000      -1.350123       -36.7387
  27   2.0000      -1.341672       -36.5087
  28   2.0000      -1.240104       -33.7450
  29   2.0000      -1.161463       -31.6050
  30   2.0000      -1.121205       -30.5095
  31   2.0000      -1.045468       -28.4486
  32   2.0000      -1.031285       -28.0627
  33   2.0000      -1.019801       -27.7502
  34   2.0000      -0.997866       -27.1533
  35   2.0000      -0.986022       -26.8310
  36   2.0000      -0.924776       -25.1644
  37   2.0000      -0.896524       -24.3957
  38   2.0000      -0.848683       -23.0938
  39   2.0000      -0.842360       -22.9218
  40   2.0000      -0.838283       -22.8108
  41   2.0000      -0.818462       -22.2715
  42   2.0000      -0.744594       -20.2614
  43   2.0000      -0.734297       -19.9812
  44   2.0000      -0.720729       -19.6120
  45   2.0000      -0.699852       -19.0439
  46   2.0000      -0.690975       -18.8024
  47   2.0000      -0.672912       -18.3109
  48   2.0000      -0.670980       -18.2583
  49   2.0000      -0.660186       -17.9646
  50   2.0000      -0.653236       -17.7755
  51   2.0000      -0.643654       -17.5147
  52   2.0000      -0.636327       -17.3153
  53   2.0000      -0.624870       -17.0036
  54   2.0000      -0.611282       -16.6338
  55   2.0000      -0.603508       -16.4223
  56   2.0000      -0.600834       -16.3495
  57   2.0000      -0.581024       -15.8105
  58   2.0000      -0.571745       -15.5580
  59   2.0000      -0.566373       -15.4118
  60   2.0000      -0.547168       -14.8892
  61   2.0000      -0.543521       -14.7900
  62   2.0000      -0.534666       -14.5490
  63   2.0000      -0.528690       -14.3864
  64   2.0000      -0.525638       -14.3033
  65   2.0000      -0.515394       -14.0246
  66   2.0000      -0.503883       -13.7114
  67   2.0000      -0.495808       -13.4916
  68   2.0000      -0.485729       -13.2174
  69   2.0000      -0.463136       -12.6026
  70   2.0000      -0.455262       -12.3883
  71   2.0000      -0.442122       -12.0308
  72   2.0000      -0.355895        -9.6844
  73   2.0000      -0.353240        -9.6122
  74   2.0000      -0.329998        -8.9797
  75   2.0000      -0.325828        -8.8662
  76   2.0000      -0.317469        -8.6388
  77   0.0000       0.070990         1.9317
  78   0.0000       0.101390         2.7590
  79   0.0000       0.122211         3.3255
  80   0.0000       0.129547         3.5252
  81   0.0000       0.134123         3.6497

MULLIKEN ATOMIC CHARGES
-----------------------
   0 C :   -0.330163
   1 C :    0.037483
   2 O :   -0.395950
   3 C :    0.509891
   4 O :   -0.420364
   5 C :   -0.265028
   6 C :    0.156919
   7 C :   -0.271722
   8 N :   -0.123334
   9 C :    0.210410
  10 S :   -0.437367
  11 N :   -0.201741
  12 C :    0.055542
  13 C :    0.077378
  14 C :   -0.209115
  15 C :   -0.122253
  16 C :   -0.277473
  17 C :    0.326170
  18 O :   -0.358857
  19 C :   -0.298871
  20 H :    0.105792
  21 H :    0.105073
  22 H :    0.126920
  23 H :    0.109778
  24 H :    0.118906
  25 H :    0.134367
  26 H :    0.095079
  27 H :    0.129997
  28 H :    0.198219
  29 H :    0.193566
  30 H :    0.152197
  31 H :    0.156262
  32 H :    0.165987
  33 H :    0.133209
  34 H :    0.241419
  35 H :    0.171675
Sum of atomic charges:   -0.0000000

LOEWDIN ATOMIC CHARGES
----------------------
   0 C :    0.106021
   1 C :   -0.009922
   2 O :    0.283722
   3 C :   -0.419481
   4 O :    0.111721
   5 C :   -0.098466
   6 C :   -0.058229
   7 C :    0.131494
   8 N :    0.406895
   9 C :   -0.456848
  10 S :   -0.033489
  11 N :    0.396547
  12 C :   -0.052610
  13 C :   -0.038263
  14 C :    0.016672
  15 C :    0.040093
  16 C :   -0.001491
  17 C :   -0.189996
  18 O :    0.396444
  19 C :    0.032406
  20 H :   -0.031370
  21 H :   -0.023997
  22 H :   -0.025987
  23 H :   -0.029711
  24 H :   -0.028464
  25 H :   -0.003031
  26 H :   -0.023344
  27 H :   -0.005337
  28 H :   -0.057432
  29 H :   -0.064945
  30 H :   -0.008165
  31 H :   -0.028874
  32 H :   -0.020503
  33 H :   -0.034694
  34 H :   -0.152910
  35 H :   -0.024452

  Mayer bond orders larger than 0.100000
B(  0-C ,  1-C ) :   0.9575 B(  0-C , 20-H ) :   0.9710 B(  0-C , 21-H ) :   0.9766
B(  0-C , 22-H ) :   0.9724 B(  1-C ,  2-O ) :   0.8828 B(  1-C , 23-H ) :   0.9750
B(  1-C , 24-H ) :   0.9861 B(  2-O ,  3-C ) :   1.1075 B(  3-C ,  4-O ) :   1.9974
B(  3-C ,  5-C ) :   1.0637 B(  5-C ,  6-C ) :   1.6501 B(  5-C , 12-C ) :   0.9707
B(  6-C ,  7-C ) :   0.9676 B(  6-C ,  8-N ) :   1.1594 B(  7-C , 25-H ) :   0.9583
B(  7-C , 26-H ) :   0.9897 B(  7-C , 27-H ) :   0.9622 B(  8-N ,  9-C ) :   1.1801
B(  8-N , 28-H ) :   0.9479 B(  9-C , 10-S ) :   1.6112 B(  9-C , 11-N ) :   1.3043
B( 11-N , 12-C ) :   0.9797 B( 11-N , 29-H ) :   0.9530 B( 12-C , 13-C ) :   0.9392
B( 12-C , 30-H ) :   1.0019 B( 13-C , 14-C ) :   1.3447 B( 13-C , 19-C ) :   1.3683
B( 14-C , 15-C ) :   1.3810 B( 14-C , 31-H ) :   0.9731 B( 15-C , 16-C ) :   1.3655
B( 15-C , 32-H ) :   0.9690 B( 16-C , 17-C ) :   1.3292 B( 16-C , 33-H ) :   0.9836
B( 17-C , 18-O ) :   1.1102 B( 17-C , 19-C ) :   1.3655 B( 18-O , 34-H ) :   0.9794
B( 19-C , 35-H ) :   0.9594

MP2 TOTAL ENERGY:    -1274.335186433 Eh
FINAL SINGLE POINT ENERGY     -1274.335186433393

DIPOLE MOMENT
-------------
                                X             Y             Z
Electronic contribution:      9.98182       8.94972       5.69957
Nuclear contribution   :    -11.03039     -10.59822      -5.61402
                        -----------------------------------------
Total Dipole Moment    :     -1.04858      -1.64850       0.08555
                        -----------------------------------------
Magnitude (a.u.)       :      1.95560
Magnitude (Debye)      :      4.97075

Rotational constants in cm-1:     0.012379     0.009226     0.006612
Rotational constants in MHz :   371.107234   276.576669   198.234196

                             ****ORCA TERMINATED NORMALLY****
TOTAL RUN TIME: 0 days 2 hours 10 minutes 38 seconds 829 msec
