                         Program Version 5.0.0 -  RELEASE  -
|  1> ! ri-mp2 cc-pvtz cc-pvtz/c TightSCF NoKeepInts
|  2>
|  3> %scf
|  4>   MaxCore 4096
|  5> end
|  6> *xyz  0  1
|  7>     C       15.5170611   13.6574210   15.7651072
|  8>     C       15.2404919   15.1505227   15.4869936
|  9>     O       16.2840466   16.0809411   15.8830215
| 10>     C       17.3586608   15.8316213   16.6970250
| 11>     O       17.8961416   14.7431643   16.8083708
| 12>     C       17.7470767   16.9918526   17.5718041
| 13>     C       17.3609455   18.2827000   17.3869445
| 14>     C       16.4919214   18.8545246   16.2850068
| 15>     N       17.8382009   19.2797653   18.2446984
| 16>     C       18.8035974   19.0989934   19.1992422
| 17>     S       19.4026086   20.3618300   20.0836262
| 18>     N       19.2465292   17.8143789   19.3830783
| 19>     C       18.6533933   16.6206783   18.7522287
| 20>     C       17.8939663   15.7919289   19.7854234
| 21>     C       18.1887809   14.4271013   19.9599656
| 22>     C       17.4898690   13.6578688   20.9052896
| 23>     C       16.4860687   14.2576333   21.6845336
| 24>     C       16.1863891   15.6156764   21.5114032
| 25>     O       15.2130191   16.1962054   22.2576836
| 26>     C       16.8832988   16.3785477   20.5691392
| 27>     H       16.4170395   13.3184146   15.2366072
| 28>     H       14.6761855   13.0451480   15.4181021
| 29>     H       15.6438086   13.4703779   16.8391074
| 30>     H       15.0424841   15.2805321   14.4152741
| 31>     H       14.3189125   15.4236791   16.0169869
| 32>     H       15.4552153   18.5124101   16.3923274
| 33>     H       16.8543948   18.5371795   15.2992224
| 34>     H       16.4775778   19.9511880   16.2823948
| 35>     H       17.5261042   20.2301259   18.1253555
| 36>     H       19.9363484   17.7015249   20.1147036
| 37>     H       19.4796106   16.0093684   18.3610672
| 38>     H       18.9525474   13.9566524   19.3453323
| 39>     H       17.7238818   12.6016643   21.0255932
| 40>     H       15.9426340   13.6668396   22.4142785
| 41>     H       14.8808448   15.5250339   22.8724687
| 42>     H       16.6373440   17.4285058   20.4545931
| 43> *
| 44>
| 45>                          ****END OF INPUT****

CARTESIAN COORDINATES (ANGSTROEM)
---------------------------------
  C     15.517061   13.657421   15.765107
  C     15.240492   15.150523   15.486994
  O     16.284047   16.080941   15.883021
  C     17.358661   15.831621   16.697025
  O     17.896142   14.743164   16.808371
  C     17.747077   16.991853   17.571804
  C     17.360945   18.282700   17.386944
  C     16.491921   18.854525   16.285007
  N     17.838201   19.279765   18.244698
  C     18.803597   19.098993   19.199242
  S     19.402609   20.361830   20.083626
  N     19.246529   17.814379   19.383078
  C     18.653393   16.620678   18.752229
  C     17.893966   15.791929   19.785423
  C     18.188781   14.427101   19.959966
  C     17.489869   13.657869   20.905290
  C     16.486069   14.257633   21.684534
  C     16.186389   15.615676   21.511403
  O     15.213019   16.196205   22.257684
  C     16.883299   16.378548   20.569139
  H     16.417040   13.318415   15.236607
  H     14.676186   13.045148   15.418102
  H     15.643809   13.470378   16.839107
  H     15.042484   15.280532   14.415274
  H     14.318912   15.423679   16.016987
  H     15.455215   18.512410   16.392327
  H     16.854395   18.537179   15.299222
  H     16.477578   19.951188   16.282395
  H     17.526104   20.230126   18.125356
  H     19.936348   17.701525   20.114704
  H     19.479611   16.009368   18.361067
  H     18.952547   13.956652   19.345332
  H     17.723882   12.601664   21.025593
  H     15.942634   13.666840   22.414279
  H     14.880845   15.525034   22.872469
  H     16.637344   17.428506   20.454593

 Total Charge           Charge          ....    0
 Multiplicity           Mult            ....    1
 Number of Electrons    NEL             ....  154
 Basis Dimension        Dim             ....  828

ORBITAL ENERGIES
----------------

  NO   OCC          E(Eh)            E(eV)
   0   2.0000     -91.887447     -2500.3846
   1   2.0000     -20.597362      -560.4827
   2   2.0000     -20.592014      -560.3372
   3   2.0000     -20.545000      -559.0579
   4   2.0000     -15.627467      -425.2450
   5   2.0000     -15.606087      -424.6632
   6   2.0000     -11.398609      -310.1719
   7   2.0000     -11.382196      -309.7253
   8   2.0000     -11.335174      -308.4458
   9   2.0000     -11.307850      -307.7022
  10   2.0000     -11.307526      -307.6934
  11   2.0000     -11.304679      -307.6160
  12   2.0000     -11.259414      -306.3842
  13   2.0000     -11.258023      -306.3464
  14   2.0000     -11.253585      -306.2256
  15   2.0000     -11.248066      -306.0754
  16   2.0000     -11.237669      -305.7925
  17   2.0000     -11.233651      -305.6832
  18   2.0000     -11.230620      -305.6007
  19   2.0000     -11.224854      -305.4438
  20   2.0000      -8.892517      -241.9777
  21   2.0000      -6.574097      -178.8903
  22   2.0000      -6.572088      -178.8356
  23   2.0000      -6.571504      -178.8197
  24   2.0000      -1.444565       -39.3086
  25   2.0000      -1.411755       -38.4158
  26   2.0000      -1.356448       -36.9108
  27   2.0000      -1.338596       -36.4250
  28   2.0000      -1.236292       -33.6412
  29   2.0000      -1.152097       -31.3501
  30   2.0000      -1.118222       -30.4284
  31   2.0000      -1.041834       -28.3498
  32   2.0000      -1.034404       -28.1476
  33   2.0000      -1.009668       -27.4745
  34   2.0000      -0.996833       -27.1252
  35   2.0000      -0.982030       -26.7224
  36   2.0000      -0.921163       -25.0661
  37   2.0000      -0.896464       -24.3940
  38   2.0000      -0.847649       -23.0657
  39   2.0000      -0.835799       -22.7432
  40   2.0000      -0.828158       -22.5353
  41   2.0000      -0.818071       -22.2608
  42   2.0000      -0.742633       -20.2081
  43   2.0000      -0.725731       -19.7481
  44   2.0000      -0.724095       -19.7036
  45   2.0000      -0.690186       -18.7809
  46   2.0000      -0.683653       -18.6031
  47   2.0000      -0.677178       -18.4269
  48   2.0000      -0.674060       -18.3421
  49   2.0000      -0.665037       -18.0966
  50   2.0000      -0.646641       -17.5960
  51   2.0000      -0.643546       -17.5118
  52   2.0000      -0.634248       -17.2588
  53   2.0000      -0.607291       -16.5252
  54   2.0000      -0.600667       -16.3450
  55   2.0000      -0.599499       -16.3132
  56   2.0000      -0.595516       -16.2048
  57   2.0000      -0.576867       -15.6973
  58   2.0000      -0.573482       -15.6053
  59   2.0000      -0.569800       -15.5051
  60   2.0000      -0.558058       -15.1855
  61   2.0000      -0.543002       -14.7758
  62   2.0000      -0.537476       -14.6255
  63   2.0000      -0.526131       -14.3167
  64   2.0000      -0.516958       -14.0671
  65   2.0000      -0.510486       -13.8910
  66   2.0000      -0.498988       -13.5781
  67   2.0000      -0.494606       -13.4589
  68   2.0000      -0.479010       -13.0345
  69   2.0000      -0.462080       -12.5738
  70   2.0000      -0.453249       -12.3335
  71   2.0000      -0.447258       -12.1705
  72   2.0000      -0.353194        -9.6109
  73   2.0000      -0.344144        -9.3646
  74   2.0000      -0.326651        -8.8886
  75   2.0000      -0.315460        -8.5841
  76   2.0000      -0.313741        -8.5373
  77   0.0000       0.076084         2.0703
  78   0.0000       0.111992         3.0474
  79   0.0000       0.121556         3.3077
  80   0.0000       0.135589         3.6896
  81   0.0000       0.138990         3.7821

MULLIKEN ATOMIC CHARGES
-----------------------
   0 C :   -0.289226
   1 C :    0.049975
   2 O :   -0.365930
   3 C :    0.440648
   4 O :   -0.420203
   5 C :   -0.162713
   6 C :    0.145381
   7 C :   -0.285079
   8 N :   -0.122413
   9 C :    0.200934
  10 S :   -0.440476
  11 N :   -0.198414
  12 C :    0.038524
  13 C :    0.055432
  14 C :   -0.166126
  15 C :   -0.134559
  16 C :   -0.279607
  17 C :    0.311727
  18 O :   -0.358986
  19 C :   -0.273860
  20 H :    0.114678
  21 H :    0.096942
  22 H :    0.110609
  23 H :    0.095448
  24 H :    0.087439
  25 H :    0.124472
  26 H :    0.128189
  27 H :    0.103006
  28 H :    0.196536
  29 H :    0.193830
  30 H :    0.154918
  31 H :    0.155535
  32 H :    0.159697
  33 H :    0.128374
  34 H :    0.240067
  35 H :    0.165234
Sum of atomic charges:    0.0000000

LOEWDIN ATOMIC CHARGES
----------------------
   0 C :    0.103615
   1 C :   -0.009167
   2 O :    0.290589
   3 C :   -0.412798
   4 O :    0.116469
   5 C :   -0.091322
   6 C :   -0.066005
   7 C :    0.124397
   8 N :    0.404577
   9 C :   -0.459265
  10 S :   -0.036956
  11 N :    0.397894
  12 C :   -0.046640
  13 C :   -0.039139
  14 C :    0.021412
  15 C :    0.040011
  16 C :   -0.002716
  17 C :   -0.192862
  18 O :    0.392984
  19 C :    0.028255
  20 H :   -0.023818
  21 H :   -0.027389
  22 H :   -0.024508
  23 H :   -0.026704
  24 H :   -0.030265
  25 H :   -0.010310
  26 H :   -0.007937
  27 H :   -0.021296
  28 H :   -0.059400
  29 H :   -0.063744
  30 H :   -0.005432
  31 H :   -0.025091
  32 H :   -0.021223
  33 H :   -0.036421
  34 H :   -0.154891
  35 H :   -0.024904

  Mayer bond orders larger than 0.100000
B(  0-C ,  1-C ) :   0.9828 B(  0-C , 20-H ) :   0.9727 B(  0-C , 21-H ) :   0.9720
B(  0-C , 22-H ) :   0.9728 B(  1-C ,  2-O ) :   0.9016 B(  1-C , 23-H ) :   0.9786
B(  1-C , 24-H ) :   0.9763 B(  2-O ,  3-C ) :   1.1269 B(  3-C ,  4-O ) :   1.9953
B(  3-C ,  5-C ) :   1.0433 B(  5-C ,  6-C ) :   1.6565 B(  5-C , 12-C ) :   0.9640
B(  6-C ,  7-C ) :   0.9530 B(  6-C ,  8-N ) :   1.1440 B(  7-C , 25-H ) :   0.9649
B(  7-C , 26-H ) :   0.9655 B(  7-C , 27-H ) :   0.9920 B(  8-N ,  9-C ) :   1.1804
B(  8-N , 28-H ) :   0.9488 B(  9-C , 10-S ) :   1.6094 B(  9-C , 11-N ) :   1.3044
B( 11-N , 12-C ) :   0.9901 B( 11-N , 29-H ) :   0.9520 B( 12-C , 13-C ) :   0.9460
B( 12-C , 30-H ) :   1.0000 B( 13-C , 14-C ) :   1.3749 B( 13-C , 19-C ) :   1.3695
B( 14-C , 15-C ) :   1.3941 B( 14-C , 31-H ) :   0.9642 B( 15-C , 16-C ) :   1.3622
B( 15-C , 32-H ) :   0.9712 B( 16-C , 17-C ) :   1.3316 B( 16-C , 33-H ) :   0.9859
B( 17-C , 18-O ) :   1.1081 B( 17-C , 19-C ) :   1.3781 B( 18-O , 34-H ) :   0.9806
B( 19-C , 35-H ) :   0.9584

MP2 TOTAL ENERGY:    -1274.334577655 Eh
FINAL SINGLE POINT ENERGY     -1274.334577655313

DIPOLE MOMENT
-------------
                                X             Y             Z
Electronic contribution:     10.04875      10.51666       9.80082
Nuclear contribution   :    -11.70934     -11.73943     -10.78944
                        -----------------------------------------
Total Dipole Moment    :     -1.66059      -1.22277      -0.98861
                        -----------------------------------------
Magnitude (a.u.)       :      2.28693
Magnitude (Debye)      :      5.81292

Rotational constants in cm-1:     0.010870     0.009032     0.005989
Rotational constants in MHz :   325.887827   270.766416   179.543498

                             ****ORCA TERMINATED NORMALLY****
TOTAL RUN TIME: 0 days 1 hours 56 minutes 47 seconds 206 msec
