                         Program Version 5.0.0 -  RELEASE  -
|  1> ! ri-mp2 cc-pvtz cc-pvtz/c TightSCF NoKeepInts
|  2>
|  3> %scf
|  4>   MaxCore 4096
|  5> end
|  6> *xyz  0  1
|  7>     C       14.9539703   14.6492877   16.2749611
|  8>     C       16.3150329   14.1873041   16.8379344
|  9>     O       17.4188908   14.9785920   16.3307567
| 10>     C       17.3123221   16.3301193   16.1508909
| 11>     O       16.7831942   16.7800722   15.1502858
| 12>     C       17.7012791   17.1574854   17.3474896
| 13>     C       17.3995957   18.4788168   17.4400239
| 14>     C       16.5633764   19.3019426   16.4836415
| 15>     N       17.9223387   19.2435698   18.4878774
| 16>     C       18.9172695   18.8245188   19.3311143
| 17>     S       19.6316433   19.8431489   20.4209019
| 18>     N       19.3041295   17.5139094   19.2099470
| 19>     C       18.5744217   16.4982357   18.4298901
| 20>     C       17.7903738   15.6178118   19.3951977
| 21>     C       18.2670969   14.3347713   19.7250946
| 22>     C       17.5529933   13.5136611   20.6138751
| 23>     C       16.3563852   13.9811644   21.1834430
| 24>     C       15.8856996   15.2629771   20.8679647
| 25>     O       14.7320432   15.7184243   21.4173421
| 26>     C       16.5969048   16.0774347   19.9815130
| 27>     H       14.6892436   15.6491240   16.6410070
| 28>     H       14.1601034   13.9590732   16.5847210
| 29>     H       14.9745722   14.6723431   15.1777395
| 30>     H       16.2636779   14.2376860   17.9289064
| 31>     H       16.4806504   13.1360031   16.5698839
| 32>     H       15.5954173   18.8186222   16.3000363
| 33>     H       17.0697970   19.3968191   15.5143708
| 34>     H       16.3595634   20.3133821   16.8540999
| 35>     H       17.6618701   20.2130732   18.5743959
| 36>     H       20.0256170   17.2267949   19.8586514
| 37>     H       19.3186689   15.8714076   17.9182364
| 38>     H       19.1926948   13.9703479   19.2868256
| 39>     H       17.9287904   12.5221043   20.8615683
| 40>     H       15.8024768   13.3510974   21.8719177
| 41>     H       14.4257198   15.0511827   22.0501737
| 42>     H       16.2191757   17.0696924   19.7613212
| 43> *
| 44>
| 45>                          ****END OF INPUT****

CARTESIAN COORDINATES (ANGSTROEM)
---------------------------------
  C     14.953970   14.649288   16.274961
  C     16.315033   14.187304   16.837934
  O     17.418891   14.978592   16.330757
  C     17.312322   16.330119   16.150891
  O     16.783194   16.780072   15.150286
  C     17.701279   17.157485   17.347490
  C     17.399596   18.478817   17.440024
  C     16.563376   19.301943   16.483642
  N     17.922339   19.243570   18.487877
  C     18.917269   18.824519   19.331114
  S     19.631643   19.843149   20.420902
  N     19.304129   17.513909   19.209947
  C     18.574422   16.498236   18.429890
  C     17.790374   15.617812   19.395198
  C     18.267097   14.334771   19.725095
  C     17.552993   13.513661   20.613875
  C     16.356385   13.981164   21.183443
  C     15.885700   15.262977   20.867965
  O     14.732043   15.718424   21.417342
  C     16.596905   16.077435   19.981513
  H     14.689244   15.649124   16.641007
  H     14.160103   13.959073   16.584721
  H     14.974572   14.672343   15.177739
  H     16.263678   14.237686   17.928906
  H     16.480650   13.136003   16.569884
  H     15.595417   18.818622   16.300036
  H     17.069797   19.396819   15.514371
  H     16.359563   20.313382   16.854100
  H     17.661870   20.213073   18.574396
  H     20.025617   17.226795   19.858651
  H     19.318669   15.871408   17.918236
  H     19.192695   13.970348   19.286826
  H     17.928790   12.522104   20.861568
  H     15.802477   13.351097   21.871918
  H     14.425720   15.051183   22.050174
  H     16.219176   17.069692   19.761321

 Total Charge           Charge          ....    0
 Multiplicity           Mult            ....    1
 Number of Electrons    NEL             ....  154
 Basis Dimension        Dim             ....  828

ORBITAL ENERGIES
----------------

  NO   OCC          E(Eh)            E(eV)
   0   2.0000     -91.891017     -2500.4817
   1   2.0000     -20.603005      -560.6363
   2   2.0000     -20.581017      -560.0380
   3   2.0000     -20.546431      -559.0968
   4   2.0000     -15.631509      -425.3550
   5   2.0000     -15.609946      -424.7682
   6   2.0000     -11.393027      -310.0200
   7   2.0000     -11.385558      -309.8168
   8   2.0000     -11.337715      -308.5149
   9   2.0000     -11.321018      -308.0606
  10   2.0000     -11.312436      -307.8270
  11   2.0000     -11.296582      -307.3956
  12   2.0000     -11.265183      -306.5412
  13   2.0000     -11.262226      -306.4608
  14   2.0000     -11.259233      -306.3793
  15   2.0000     -11.253896      -306.2341
  16   2.0000     -11.249773      -306.1219
  17   2.0000     -11.244178      -305.9697
  18   2.0000     -11.244037      -305.9658
  19   2.0000     -11.223101      -305.3961
  20   2.0000      -8.896036      -242.0735
  21   2.0000      -6.577601      -178.9856
  22   2.0000      -6.575608      -178.9314
  23   2.0000      -6.575012      -178.9152
  24   2.0000      -1.441793       -39.2332
  25   2.0000      -1.422656       -38.7124
  26   2.0000      -1.350308       -36.7438
  27   2.0000      -1.342691       -36.5365
  28   2.0000      -1.241124       -33.7727
  29   2.0000      -1.163444       -31.6589
  30   2.0000      -1.121735       -30.5240
  31   2.0000      -1.047128       -28.4938
  32   2.0000      -1.030208       -28.0334
  33   2.0000      -1.021784       -27.8042
  34   2.0000      -0.999147       -27.1882
  35   2.0000      -0.986418       -26.8418
  36   2.0000      -0.926151       -25.2019
  37   2.0000      -0.890698       -24.2371
  38   2.0000      -0.849984       -23.1292
  39   2.0000      -0.844632       -22.9836
  40   2.0000      -0.839642       -22.8478
  41   2.0000      -0.825160       -22.4537
  42   2.0000      -0.748081       -20.3563
  43   2.0000      -0.735946       -20.0261
  44   2.0000      -0.715561       -19.4714
  45   2.0000      -0.701700       -19.0942
  46   2.0000      -0.691691       -18.8219
  47   2.0000      -0.676324       -18.4037
  48   2.0000      -0.668181       -18.1821
  49   2.0000      -0.664854       -18.0916
  50   2.0000      -0.652964       -17.7681
  51   2.0000      -0.648409       -17.6441
  52   2.0000      -0.638769       -17.3818
  53   2.0000      -0.617101       -16.7922
  54   2.0000      -0.613463       -16.6932
  55   2.0000      -0.604577       -16.4514
  56   2.0000      -0.601977       -16.3806
  57   2.0000      -0.582797       -15.8587
  58   2.0000      -0.573128       -15.5956
  59   2.0000      -0.567510       -15.4427
  60   2.0000      -0.550596       -14.9825
  61   2.0000      -0.540998       -14.7213
  62   2.0000      -0.536561       -14.6006
  63   2.0000      -0.531093       -14.4518
  64   2.0000      -0.524784       -14.2801
  65   2.0000      -0.517104       -14.0711
  66   2.0000      -0.506248       -13.7757
  67   2.0000      -0.495271       -13.4770
  68   2.0000      -0.481560       -13.1039
  69   2.0000      -0.464264       -12.6333
  70   2.0000      -0.452819       -12.3218
  71   2.0000      -0.441886       -12.0243
  72   2.0000      -0.358732        -9.7616
  73   2.0000      -0.355477        -9.6730
  74   2.0000      -0.331724        -9.0267
  75   2.0000      -0.327583        -8.9140
  76   2.0000      -0.317899        -8.6505
  77   0.0000       0.069487         1.8908
  78   0.0000       0.100814         2.7433
  79   0.0000       0.121205         3.2982
  80   0.0000       0.127273         3.4633
  81   0.0000       0.131645         3.5822

MULLIKEN ATOMIC CHARGES
-----------------------
   0 C :   -0.290262
   1 C :    0.034242
   2 O :   -0.387500
   3 C :    0.477580
   4 O :   -0.398249
   5 C :   -0.258811
   6 C :    0.152497
   7 C :   -0.270482
   8 N :   -0.124318
   9 C :    0.214516
  10 S :   -0.436651
  11 N :   -0.200829
  12 C :    0.051307
  13 C :    0.039200
  14 C :   -0.188085
  15 C :   -0.129064
  16 C :   -0.275434
  17 C :    0.304337
  18 O :   -0.356339
  19 C :   -0.241488
  20 H :    0.090178
  21 H :    0.102426
  22 H :    0.118840
  23 H :    0.101056
  24 H :    0.111297
  25 H :    0.126576
  26 H :    0.137918
  27 H :    0.094665
  28 H :    0.198738
  29 H :    0.192201
  30 H :    0.151364
  31 H :    0.152108
  32 H :    0.163026
  33 H :    0.133583
  34 H :    0.242297
  35 H :    0.167557
Sum of atomic charges:    0.0000000

LOEWDIN ATOMIC CHARGES
----------------------
   0 C :    0.105117
   1 C :   -0.012557
   2 O :    0.277985
   3 C :   -0.420079
   4 O :    0.122663
   5 C :   -0.099053
   6 C :   -0.058560
   7 C :    0.130732
   8 N :    0.407281
   9 C :   -0.455739
  10 S :   -0.032378
  11 N :    0.396378
  12 C :   -0.053040
  13 C :   -0.038970
  14 C :    0.012617
  15 C :    0.042758
  16 C :   -0.000967
  17 C :   -0.190405
  18 O :    0.396767
  19 C :    0.029684
  20 H :   -0.030933
  21 H :   -0.025901
  22 H :   -0.022205
  23 H :   -0.036260
  24 H :   -0.023332
  25 H :   -0.006547
  26 H :   -0.002453
  27 H :   -0.023138
  28 H :   -0.057327
  29 H :   -0.065713
  30 H :   -0.006210
  31 H :   -0.029183
  32 H :   -0.019312
  33 H :   -0.034076
  34 H :   -0.152280
  35 H :   -0.025364

  Mayer bond orders larger than 0.100000
B(  0-C ,  1-C ) :   0.9770 B(  0-C , 20-H ) :   0.9738 B(  0-C , 21-H ) :   0.9748
B(  0-C , 22-H ) :   0.9736 B(  1-C ,  2-O ) :   0.8947 B(  1-C , 23-H ) :   0.9657
B(  1-C , 24-H ) :   0.9815 B(  2-O ,  3-C ) :   1.0956 B(  3-C ,  4-O ) :   2.0322
B(  3-C ,  5-C ) :   1.0484 B(  5-C ,  6-C ) :   1.6515 B(  5-C , 12-C ) :   0.9694
B(  6-C ,  7-C ) :   0.9715 B(  6-C ,  8-N ) :   1.1568 B(  7-C , 25-H ) :   0.9651
B(  7-C , 26-H ) :   0.9557 B(  7-C , 27-H ) :   0.9881 B(  8-N ,  9-C ) :   1.1793
B(  8-N , 28-H ) :   0.9481 B(  9-C , 10-S ) :   1.6117 B(  9-C , 11-N ) :   1.3030
B( 11-N , 12-C ) :   0.9658 B( 11-N , 29-H ) :   0.9542 B( 12-C , 13-C ) :   0.9483
B( 12-C , 30-H ) :   1.0013 B( 13-C , 14-C ) :   1.3513 B( 13-C , 19-C ) :   1.3722
B( 14-C , 15-C ) :   1.3920 B( 14-C , 31-H ) :   0.9727 B( 15-C , 16-C ) :   1.3650
B( 15-C , 32-H ) :   0.9702 B( 16-C , 17-C ) :   1.3278 B( 16-C , 33-H ) :   0.9839
B( 17-C , 18-O ) :   1.1157 B( 17-C , 19-C ) :   1.3765 B( 18-O , 34-H ) :   0.9786
B( 19-C , 35-H ) :   0.9568

MP2 TOTAL ENERGY:    -1274.330519833 Eh
FINAL SINGLE POINT ENERGY     -1274.330519833180

DIPOLE MOMENT
-------------
                                X             Y             Z
Electronic contribution:     10.45346       8.44918       6.38833
Nuclear contribution   :    -11.57305     -10.04031      -6.03990
                        -----------------------------------------
Total Dipole Moment    :     -1.11959      -1.59113       0.34843
                        -----------------------------------------
Magnitude (a.u.)       :      1.97651
Magnitude (Debye)      :      5.02389

Rotational constants in cm-1:     0.011735     0.009441     0.006558
Rotational constants in MHz :   351.805940   283.030581   196.600439

                             ****ORCA TERMINATED NORMALLY****
TOTAL RUN TIME: 0 days 1 hours 53 minutes 44 seconds 789 msec
