                         Program Version 4.2.0 -  RELEASE  -
|  1> ! ri-mp2 cc-pvtz cc-pvtz/c TightSCF  NoKeepInts
|  2>
|  3> %scf
|  4>   MaxCore 4096
|  5> end
|  6> *xyz  0  1
|  7>     C       15.4973747   14.0142812   14.9792695
|  8>     C       15.6064561   14.1784307   16.5083999
|  9>     O       16.6542342   15.1173137   16.8123635
| 10>     C       16.4164390   16.4635314   16.7485065
| 11>     O       15.4362130   16.9306294   16.1935924
| 12>     C       17.3743014   17.2588853   17.5926247
| 13>     C       17.3380476   18.6144558   17.6533277
| 14>     C       16.3828278   19.5395933   16.9299381
| 15>     N       18.2802701   19.3075150   18.4193205
| 16>     C       19.3487159   18.7333456   19.0548009
| 17>     S       20.4784337   19.6366538   19.8571097
| 18>     N       19.4375153   17.3663155   18.9886767
| 19>     C       18.4134114   16.4758720   18.4123669
| 20>     C       17.7622215   15.6549187   19.5220971
| 21>     C       17.9632051   14.2634189   19.5916831
| 22>     C       17.3632484   13.5042806   20.6104955
| 23>     C       16.5579299   14.1416530   21.5697536
| 24>     C       16.3592669   15.5277079   21.5061314
| 25>     O       15.5833310   16.1461294   22.4316098
| 26>     C       16.9573026   16.2804218   20.4908263
| 27>     H       15.1769665   14.9483456   14.5015230
| 28>     H       14.7621717   13.2397926   14.7298516
| 29>     H       16.4635691   13.7202728   14.5512729
| 30>     H       14.6484723   14.5107686   16.9314770
| 31>     H       15.8552948   13.2063632   16.9530046
| 32>     H       15.3500260   19.3529136   17.2512179
| 33>     H       16.4241296   19.3681590   15.8468047
| 34>     H       16.5977749   20.6003407   17.1043007
| 35>     H       18.2314774   20.3121347   18.4776773
| 36>     H       20.2155870   16.9690680   19.4991788
| 37>     H       18.9282294   15.7875673   17.7273924
| 38>     H       18.5816431   13.7676594   18.8482545
| 39>     H       17.5234934   12.4284675   20.6549284
| 40>     H       16.0929757   13.5599895   22.3589048
| 41>     H       15.2876538   15.4720170   23.0616064
| 42>     H       16.7967898   17.3527874   20.4637114
| 43> *
| 44>
| 45>                          ****END OF INPUT****

CARTESIAN COORDINATES (ANGSTROEM)
---------------------------------
  C     15.497375   14.014281   14.979269
  C     15.606456   14.178431   16.508400
  O     16.654234   15.117314   16.812364
  C     16.416439   16.463531   16.748507
  O     15.436213   16.930629   16.193592
  C     17.374301   17.258885   17.592625
  C     17.338048   18.614456   17.653328
  C     16.382828   19.539593   16.929938
  N     18.280270   19.307515   18.419321
  C     19.348716   18.733346   19.054801
  S     20.478434   19.636654   19.857110
  N     19.437515   17.366315   18.988677
  C     18.413411   16.475872   18.412367
  C     17.762221   15.654919   19.522097
  C     17.963205   14.263419   19.591683
  C     17.363248   13.504281   20.610495
  C     16.557930   14.141653   21.569754
  C     16.359267   15.527708   21.506131
  O     15.583331   16.146129   22.431610
  C     16.957303   16.280422   20.490826
  H     15.176967   14.948346   14.501523
  H     14.762172   13.239793   14.729852
  H     16.463569   13.720273   14.551273
  H     14.648472   14.510769   16.931477
  H     15.855295   13.206363   16.953005
  H     15.350026   19.352914   17.251218
  H     16.424130   19.368159   15.846805
  H     16.597775   20.600341   17.104301
  H     18.231477   20.312135   18.477677
  H     20.215587   16.969068   19.499179
  H     18.928229   15.787567   17.727392
  H     18.581643   13.767659   18.848254
  H     17.523493   12.428467   20.654928
  H     16.092976   13.559989   22.358905
  H     15.287654   15.472017   23.061606
  H     16.796790   17.352787   20.463711

 Total Charge           Charge          ....    0
 Multiplicity           Mult            ....    1
 Number of Electrons    NEL             ....  154
 Basis Dimension        Dim             ....  828

ORBITAL ENERGIES
----------------

  NO   OCC          E(Eh)            E(eV)
   0   2.0000     -91.888741     -2500.4198
   1   2.0000     -20.600187      -560.5596
   2   2.0000     -20.595876      -560.4423
   3   2.0000     -20.542970      -559.0026
   4   2.0000     -15.628992      -425.2865
   5   2.0000     -15.608008      -424.7155
   6   2.0000     -11.396012      -310.1012
   7   2.0000     -11.383817      -309.7694
   8   2.0000     -11.335819      -308.4633
   9   2.0000     -11.312968      -307.8415
  10   2.0000     -11.308759      -307.7270
  11   2.0000     -11.298046      -307.4354
  12   2.0000     -11.258976      -306.3723
  13   2.0000     -11.258952      -306.3717
  14   2.0000     -11.254483      -306.2501
  15   2.0000     -11.252151      -306.1866
  16   2.0000     -11.242208      -305.9160
  17   2.0000     -11.237648      -305.7919
  18   2.0000     -11.237427      -305.7859
  19   2.0000     -11.221968      -305.3653
  20   2.0000      -8.893801      -242.0126
  21   2.0000      -6.575376      -178.9251
  22   2.0000      -6.573372      -178.8705
  23   2.0000      -6.572785      -178.8546
  24   2.0000      -1.451017       -39.4842
  25   2.0000      -1.415519       -38.5182
  26   2.0000      -1.355332       -36.8805
  27   2.0000      -1.339929       -36.4613
  28   2.0000      -1.238310       -33.6961
  29   2.0000      -1.156880       -31.4803
  30   2.0000      -1.120105       -30.4796
  31   2.0000      -1.042249       -28.3610
  32   2.0000      -1.035759       -28.1844
  33   2.0000      -1.014287       -27.6002
  34   2.0000      -0.994962       -27.0743
  35   2.0000      -0.983623       -26.7657
  36   2.0000      -0.922208       -25.0945
  37   2.0000      -0.892531       -24.2870
  38   2.0000      -0.846967       -23.0471
  39   2.0000      -0.837323       -22.7847
  40   2.0000      -0.833306       -22.6754
  41   2.0000      -0.818784       -22.2802
  42   2.0000      -0.756745       -20.5921
  43   2.0000      -0.731469       -19.9043
  44   2.0000      -0.722667       -19.6648
  45   2.0000      -0.695070       -18.9138
  46   2.0000      -0.688170       -18.7261
  47   2.0000      -0.680590       -18.5198
  48   2.0000      -0.670649       -18.2493
  49   2.0000      -0.652912       -17.7666
  50   2.0000      -0.647383       -17.6162
  51   2.0000      -0.645413       -17.5626
  52   2.0000      -0.630699       -17.1622
  53   2.0000      -0.610639       -16.6163
  54   2.0000      -0.606020       -16.4906
  55   2.0000      -0.598974       -16.2989
  56   2.0000      -0.598270       -16.2798
  57   2.0000      -0.579642       -15.7729
  58   2.0000      -0.572275       -15.5724
  59   2.0000      -0.570523       -15.5247
  60   2.0000      -0.563109       -15.3230
  61   2.0000      -0.538805       -14.6616
  62   2.0000      -0.536369       -14.5954
  63   2.0000      -0.524519       -14.2729
  64   2.0000      -0.523106       -14.2344
  65   2.0000      -0.513198       -13.9648
  66   2.0000      -0.500645       -13.6232
  67   2.0000      -0.498055       -13.5528
  68   2.0000      -0.485640       -13.2149
  69   2.0000      -0.463902       -12.6234
  70   2.0000      -0.455442       -12.3932
  71   2.0000      -0.446229       -12.1425
  72   2.0000      -0.354153        -9.6370
  73   2.0000      -0.348686        -9.4882
  74   2.0000      -0.328054        -8.9268
  75   2.0000      -0.320612        -8.7243
  76   2.0000      -0.315795        -8.5932
  77   0.0000       0.075870         2.0645
  78   0.0000       0.107358         2.9214
  79   0.0000       0.125353         3.4110
  80   0.0000       0.132847         3.6150
  81   0.0000       0.137572         3.7435

MULLIKEN ATOMIC CHARGES
-----------------------
   0 C :   -0.287511
   1 C :    0.042804
   2 O :   -0.355933
   3 C :    0.459834
   4 O :   -0.435433
   5 C :   -0.207222
   6 C :    0.149738
   7 C :   -0.274721
   8 N :   -0.120397
   9 C :    0.211134
  10 S :   -0.439927
  11 N :   -0.203649
  12 C :    0.051533
  13 C :    0.067990
  14 C :   -0.183606
  15 C :   -0.131454
  16 C :   -0.278807
  17 C :    0.315601
  18 O :   -0.356736
  19 C :   -0.269472
  20 H :    0.118582
  21 H :    0.092923
  22 H :    0.090487
  23 H :    0.095298
  24 H :    0.106009
  25 H :    0.132762
  26 H :    0.129627
  27 H :    0.095435
  28 H :    0.197257
  29 H :    0.194405
  30 H :    0.150135
  31 H :    0.148544
  32 H :    0.160086
  33 H :    0.129537
  34 H :    0.240612
  35 H :    0.164536
Sum of atomic charges:   -0.0000000

LOEWDIN ATOMIC CHARGES
----------------------
   0 C :    0.104792
   1 C :   -0.015048
   2 O :    0.305833
   3 C :   -0.412620
   4 O :    0.099009
   5 C :   -0.094022
   6 C :   -0.059017
   7 C :    0.131320
   8 N :    0.406536
   9 C :   -0.456576
  10 S :   -0.035448
  11 N :    0.396462
  12 C :   -0.052466
  13 C :   -0.038240
  14 C :    0.014209
  15 C :    0.038601
  16 C :   -0.001938
  17 C :   -0.189471
  18 O :    0.395103
  19 C :    0.031318
  20 H :   -0.025252
  21 H :   -0.028254
  22 H :   -0.030267
  23 H :   -0.027824
  24 H :   -0.025974
  25 H :   -0.004545
  26 H :   -0.004301
  27 H :   -0.023347
  28 H :   -0.057600
  29 H :   -0.064616
  30 H :   -0.010760
  31 H :   -0.030348
  32 H :   -0.021590
  33 H :   -0.035754
  34 H :   -0.154022
  35 H :   -0.023886

  Mayer bond orders larger than 0.100000
B(  0-C ,  1-C ) :   0.9719 B(  0-C , 20-H ) :   0.9740 B(  0-C , 21-H ) :   0.9774
B(  0-C , 22-H ) :   0.9765 B(  1-C ,  2-O ) :   0.8935 B(  1-C , 23-H ) :   0.9747
B(  1-C , 24-H ) :   0.9825 B(  2-O ,  3-C ) :   1.1551 B(  3-C ,  4-O ) :   1.9527
B(  3-C ,  5-C ) :   1.0655 B(  5-C ,  6-C ) :   1.6561 B(  5-C , 12-C ) :   0.9738
B(  6-C ,  7-C ) :   0.9675 B(  6-C ,  8-N ) :   1.1635 B(  7-C , 25-H ) :   0.9599
B(  7-C , 26-H ) :   0.9607 B(  7-C , 27-H ) :   0.9908 B(  8-N ,  9-C ) :   1.1825
B(  8-N , 28-H ) :   0.9479 B(  9-C , 10-S ) :   1.6075 B(  9-C , 11-N ) :   1.3051
B( 11-N , 12-C ) :   0.9865 B( 11-N , 29-H ) :   0.9517 B( 12-C , 13-C ) :   0.9364
B( 12-C , 30-H ) :   1.0026 B( 13-C , 14-C ) :   1.3554 B( 13-C , 19-C ) :   1.3827
B( 14-C , 15-C ) :   1.3916 B( 14-C , 31-H ) :   0.9719 B( 15-C , 16-C ) :   1.3642
B( 15-C , 32-H ) :   0.9707 B( 16-C , 17-C ) :   1.3316 B( 16-C , 33-H ) :   0.9851
B( 17-C , 18-O ) :   1.1099 B( 17-C , 19-C ) :   1.3731 B( 18-O , 34-H ) :   0.9800
B( 19-C , 35-H ) :   0.9583

MP2 TOTAL ENERGY:    -1274.347957461 Eh
FINAL SINGLE POINT ENERGY     -1274.347957460856

DIPOLE MOMENT
-------------
                                X             Y             Z
Electronic contribution:     10.00054       9.61280       9.80343
Nuclear contribution   :    -11.12316     -11.24644     -10.09794
                        -----------------------------------------
Total Dipole Moment    :     -1.12261      -1.63364      -0.29452
                        -----------------------------------------
Magnitude (a.u.)       :      2.00394
Magnitude (Debye)      :      5.09362

Rotational constants in cm-1:     0.011108     0.008782     0.006035
Rotational constants in MHz :   333.000097   263.272154   180.923618

                             ****ORCA TERMINATED NORMALLY****
TOTAL RUN TIME: 0 days 1 hours 40 minutes 12 seconds 324 msec
