                         Program Version 4.2.0 -  RELEASE  -
|  1> ! ri-mp2 cc-pvtz cc-pvtz/c TightSCF  NoKeepInts
|  2>
|  3> %scf
|  4>   MaxCore 4096
|  5> end
|  6> *xyz  0  1
|  7>     C       16.0269674   13.0968006   16.4910887
|  8>     C       15.6253385   14.5772491   16.6012563
|  9>     O       16.8152612   15.3659298   16.4379994
| 10>     C       16.6745178   16.7226876   16.3909718
| 11>     O       15.7460473   17.2416239   15.7954223
| 12>     C       17.5214085   17.4351155   17.4098475
| 13>     C       17.5082553   18.7856926   17.5467407
| 14>     C       16.6893802   19.7799988   16.7513875
| 15>     N       18.3462620   19.4044182   18.4791302
| 16>     C       19.3019845   18.7625835   19.2203266
| 17>     S       20.3267128   19.5830260   20.2266756
| 18>     N       19.3724563   17.4002442   19.0796632
| 19>     C       18.4201461   16.5752640   18.3147621
| 20>     C       17.6149382   15.7075989   19.2778987
| 21>     C       17.9241768   14.3430121   19.4285378
| 22>     C       17.1845251   13.5345917   20.3079844
| 23>     C       16.1300057   14.0962927   21.0475799
| 24>     C       15.8260038   15.4573284   20.9082696
| 25>     O       14.8105184   16.0035335   21.6231265
| 26>     C       16.5631398   16.2590867   20.0314560
| 27>     H       16.7484861   12.8298891   17.2720008
| 28>     H       16.4814074   12.8922992   15.5137245
| 29>     H       15.1471554   12.4516980   16.6026044
| 30>     H       14.8934983   14.8166508   15.8174992
| 31>     H       15.1683273   14.7740749   17.5805190
| 32>     H       15.6176792   19.6285268   16.9337504
| 33>     H       16.8592051   19.6485909   15.6751700
| 34>     H       16.9241857   20.8225160   16.9961385
| 35>     H       18.3103863   20.4048312   18.5931901
| 36>     H       20.0638269   16.9518281   19.6667595
| 37>     H       19.0076358   15.9132017   17.6629310
| 38>     H       18.7373702   13.9056154   18.8553836
| 39>     H       17.4300503   12.4793744   20.4153551
| 40>     H       15.5564461   13.4763939   21.7289318
| 41>     H       14.4569552   15.3126534   22.2034408
| 42>     H       16.3163388   17.3117785   19.9464765
| 43> *
| 44>
| 45>                          ****END OF INPUT****

CARTESIAN COORDINATES (ANGSTROEM)
---------------------------------
  C     16.026967   13.096801   16.491089
  C     15.625338   14.577249   16.601256
  O     16.815261   15.365930   16.437999
  C     16.674518   16.722688   16.390972
  O     15.746047   17.241624   15.795422
  C     17.521408   17.435115   17.409848
  C     17.508255   18.785693   17.546741
  C     16.689380   19.779999   16.751387
  N     18.346262   19.404418   18.479130
  C     19.301984   18.762583   19.220327
  S     20.326713   19.583026   20.226676
  N     19.372456   17.400244   19.079663
  C     18.420146   16.575264   18.314762
  C     17.614938   15.707599   19.277899
  C     17.924177   14.343012   19.428538
  C     17.184525   13.534592   20.307984
  C     16.130006   14.096293   21.047580
  C     15.826004   15.457328   20.908270
  O     14.810518   16.003533   21.623126
  C     16.563140   16.259087   20.031456
  H     16.748486   12.829889   17.272001
  H     16.481407   12.892299   15.513724
  H     15.147155   12.451698   16.602604
  H     14.893498   14.816651   15.817499
  H     15.168327   14.774075   17.580519
  H     15.617679   19.628527   16.933750
  H     16.859205   19.648591   15.675170
  H     16.924186   20.822516   16.996139
  H     18.310386   20.404831   18.593190
  H     20.063827   16.951828   19.666759
  H     19.007636   15.913202   17.662931
  H     18.737370   13.905615   18.855384
  H     17.430050   12.479374   20.415355
  H     15.556446   13.476394   21.728932
  H     14.456955   15.312653   22.203441
  H     16.316339   17.311778   19.946476

 Total Charge           Charge          ....    0
 Multiplicity           Mult            ....    1
 Number of Electrons    NEL             ....  154
 Basis Dimension        Dim             ....  828

ORBITAL ENERGIES
----------------

  NO   OCC          E(Eh)            E(eV)
   0   2.0000     -91.889685     -2500.4455
   1   2.0000     -20.599946      -560.5530
   2   2.0000     -20.591610      -560.3262
   3   2.0000     -20.544109      -559.0336
   4   2.0000     -15.629980      -425.3134
   5   2.0000     -15.609250      -424.7493
   6   2.0000     -11.393021      -310.0199
   7   2.0000     -11.384824      -309.7968
   8   2.0000     -11.336525      -308.4825
   9   2.0000     -11.317568      -307.9667
  10   2.0000     -11.310691      -307.7796
  11   2.0000     -11.293320      -307.3069
  12   2.0000     -11.263099      -306.4845
  13   2.0000     -11.259145      -306.3769
  14   2.0000     -11.259113      -306.3760
  15   2.0000     -11.252839      -306.2053
  16   2.0000     -11.246524      -306.0335
  17   2.0000     -11.241430      -305.8949
  18   2.0000     -11.241347      -305.8926
  19   2.0000     -11.226538      -305.4896
  20   2.0000      -8.894742      -242.0382
  21   2.0000      -6.576315      -178.9506
  22   2.0000      -6.574311      -178.8961
  23   2.0000      -6.573723      -178.8801
  24   2.0000      -1.450484       -39.4697
  25   2.0000      -1.419618       -38.6298
  26   2.0000      -1.353323       -36.8258
  27   2.0000      -1.341033       -36.4914
  28   2.0000      -1.239730       -33.7348
  29   2.0000      -1.160844       -31.5882
  30   2.0000      -1.121309       -30.5124
  31   2.0000      -1.044960       -28.4348
  32   2.0000      -1.036499       -28.2046
  33   2.0000      -1.018861       -27.7246
  34   2.0000      -0.996855       -27.1258
  35   2.0000      -0.985300       -26.8114
  36   2.0000      -0.924335       -25.1524
  37   2.0000      -0.883206       -24.0333
  38   2.0000      -0.848212       -23.0810
  39   2.0000      -0.840152       -22.8617
  40   2.0000      -0.836870       -22.7724
  41   2.0000      -0.821837       -22.3633
  42   2.0000      -0.763005       -20.7624
  43   2.0000      -0.735120       -20.0036
  44   2.0000      -0.723574       -19.6895
  45   2.0000      -0.698968       -19.0199
  46   2.0000      -0.688526       -18.7358
  47   2.0000      -0.678124       -18.4527
  48   2.0000      -0.675138       -18.3714
  49   2.0000      -0.659278       -17.9399
  50   2.0000      -0.647416       -17.6171
  51   2.0000      -0.644501       -17.5378
  52   2.0000      -0.636990       -17.3334
  53   2.0000      -0.611031       -16.6270
  54   2.0000      -0.608389       -16.5551
  55   2.0000      -0.602673       -16.3996
  56   2.0000      -0.600022       -16.3274
  57   2.0000      -0.580350       -15.7921
  58   2.0000      -0.571898       -15.5621
  59   2.0000      -0.566174       -15.4064
  60   2.0000      -0.555976       -15.1289
  61   2.0000      -0.539662       -14.6850
  62   2.0000      -0.539180       -14.6718
  63   2.0000      -0.528150       -14.3717
  64   2.0000      -0.518744       -14.1157
  65   2.0000      -0.514206       -13.9923
  66   2.0000      -0.506418       -13.7803
  67   2.0000      -0.500679       -13.6242
  68   2.0000      -0.486878       -13.2486
  69   2.0000      -0.465630       -12.6704
  70   2.0000      -0.457295       -12.4436
  71   2.0000      -0.445099       -12.1117
  72   2.0000      -0.355214        -9.6659
  73   2.0000      -0.352880        -9.6024
  74   2.0000      -0.329450        -8.9648
  75   2.0000      -0.324753        -8.8370
  76   2.0000      -0.317205        -8.6316
  77   0.0000       0.072755         1.9798
  78   0.0000       0.102544         2.7904
  79   0.0000       0.123400         3.3579
  80   0.0000       0.130105         3.5403
  81   0.0000       0.134672         3.6646

MULLIKEN ATOMIC CHARGES
-----------------------
   0 C :   -0.269041
   1 C :    0.020738
   2 O :   -0.367957
   3 C :    0.475065
   4 O :   -0.418748
   5 C :   -0.261834
   6 C :    0.161396
   7 C :   -0.269571
   8 N :   -0.123847
   9 C :    0.215843
  10 S :   -0.440259
  11 N :   -0.209151
  12 C :    0.071584
  13 C :    0.051789
  14 C :   -0.200781
  15 C :   -0.127539
  16 C :   -0.277089
  17 C :    0.314448
  18 O :   -0.356128
  19 C :   -0.260919
  20 H :    0.091138
  21 H :    0.100633
  22 H :    0.091183
  23 H :    0.126494
  24 H :    0.099211
  25 H :    0.132511
  26 H :    0.130369
  27 H :    0.095455
  28 H :    0.197557
  29 H :    0.195167
  30 H :    0.148953
  31 H :    0.156487
  32 H :    0.165036
  33 H :    0.132568
  34 H :    0.241420
  35 H :    0.167819
Sum of atomic charges:   -0.0000000

LOEWDIN ATOMIC CHARGES
----------------------
   0 C :    0.108727
   1 C :   -0.018524
   2 O :    0.299012
   3 C :   -0.415937
   4 O :    0.107098
   5 C :   -0.097192
   6 C :   -0.058866
   7 C :    0.131616
   8 N :    0.407013
   9 C :   -0.455240
  10 S :   -0.035126
  11 N :    0.395984
  12 C :   -0.052401
  13 C :   -0.036918
  14 C :    0.014206
  15 C :    0.041887
  16 C :   -0.002229
  17 C :   -0.190137
  18 O :    0.396299
  19 C :    0.030698
  20 H :   -0.032208
  21 H :   -0.026801
  22 H :   -0.024982
  23 H :   -0.028036
  24 H :   -0.031048
  25 H :   -0.004599
  26 H :   -0.003840
  27 H :   -0.023182
  28 H :   -0.057359
  29 H :   -0.065097
  30 H :   -0.009617
  31 H :   -0.030504
  32 H :   -0.020485
  33 H :   -0.034882
  34 H :   -0.153142
  35 H :   -0.024186

  Mayer bond orders larger than 0.100000
B(  0-C ,  1-C ) :   0.9750 B(  0-C , 20-H ) :   0.9761 B(  0-C , 21-H ) :   0.9779
B(  0-C , 22-H ) :   0.9775 B(  1-C ,  2-O ) :   0.8793 B(  1-C , 23-H ) :   0.9815
B(  1-C , 24-H ) :   0.9670 B(  2-O ,  3-C ) :   1.1375 B(  3-C ,  4-O ) :   2.0008
B(  3-C ,  5-C ) :   1.0587 B(  5-C ,  6-C ) :   1.6494 B(  5-C , 12-C ) :   0.9730
B(  6-C ,  7-C ) :   0.9660 B(  6-C ,  8-N ) :   1.1618 B(  7-C , 25-H ) :   0.9591
B(  7-C , 26-H ) :   0.9612 B(  7-C , 27-H ) :   0.9905 B(  8-N ,  9-C ) :   1.1836
B(  8-N , 28-H ) :   0.9478 B(  9-C , 10-S ) :   1.6045 B(  9-C , 11-N ) :   1.3077
B( 11-N , 12-C ) :   0.9736 B( 11-N , 29-H ) :   0.9518 B( 12-C , 13-C ) :   0.9407
B( 12-C , 30-H ) :   1.0011 B( 13-C , 14-C ) :   1.3498 B( 13-C , 19-C ) :   1.3768
B( 14-C , 15-C ) :   1.3854 B( 14-C , 31-H ) :   0.9713 B( 15-C , 16-C ) :   1.3657
B( 15-C , 32-H ) :   0.9689 B( 16-C , 17-C ) :   1.3290 B( 16-C , 33-H ) :   0.9841
B( 17-C , 18-O ) :   1.1129 B( 17-C , 19-C ) :   1.3709 B( 18-O , 34-H ) :   0.9792
B( 19-C , 35-H ) :   0.9584

MP2 TOTAL ENERGY:    -1274.341905702 Eh
FINAL SINGLE POINT ENERGY     -1274.341905702232

DIPOLE MOMENT
-------------
                                X             Y             Z
Electronic contribution:      8.67738      11.21521       6.32770
Nuclear contribution   :     -9.72765     -12.75078      -6.43901
                        -----------------------------------------
Total Dipole Moment    :     -1.05027      -1.53556      -0.11132
                        -----------------------------------------
Magnitude (a.u.)       :      1.86371
Magnitude (Debye)      :      4.73718

Rotational constants in cm-1:     0.012663     0.008455     0.006395
Rotational constants in MHz :   379.623528   253.479801   191.719367

                             ****ORCA TERMINATED NORMALLY****
TOTAL RUN TIME: 0 days 1 hours 52 minutes 42 seconds 193 msec
