                         Program Version 5.0.0 -  RELEASE  -
|  1> ! ri-mp2 cc-pvtz cc-pvtz/c TightSCF NoKeepInts
|  2>
|  3> %scf
|  4>   MaxCore 4096
|  5> end
|  6> *xyz  0  1
|  7>     C       15.3889421   14.3120611   17.2821377
|  8>     C       16.4367413   14.1177168   16.1709824
|  9>     O       17.5867828   14.9594678   16.4021053
| 10>     C       17.4916541   16.2877978   16.0950783
| 11>     O       16.9115398   16.6483672   15.0853857
| 12>     C       17.7142687   17.1807675   17.2859385
| 13>     C       17.3286928   18.4832256   17.3063323
| 14>     C       16.5409370   19.2292995   16.2505932
| 15>     N       17.7144920   19.3083767   18.3678436
| 16>     C       18.6582356   18.9763046   19.3038534
| 17>     S       19.2161388   20.0690218   20.4130980
| 18>     N       19.1285508   17.6880681   19.2619211
| 19>     C       18.5275936   16.6071127   18.4591691
| 20>     C       17.7172718   15.7024581   19.3814225
| 21>     C       18.1689966   14.4013064   19.6731611
| 22>     C       17.4533639   13.5771061   20.5582979
| 23>     C       16.2776155   14.0582580   21.1594989
| 24>     C       15.8279745   15.3552733   20.8760162
| 25>     O       14.6935175   15.8229715   21.4546554
| 26>     C       16.5429793   16.1737709   19.9962059
| 27>     H       15.7646509   13.9355944   18.2385427
| 28>     H       14.4747195   13.7561302   17.0422808
| 29>     H       15.1209961   15.3694738   17.3975065
| 30>     H       16.7536658   13.0670214   16.1677977
| 31>     H       15.9909487   14.3310639   15.1896897
| 32>     H       15.5996121   18.7092572   16.0319648
| 33>     H       17.1093356   19.2848572   15.3133549
| 34>     H       16.2885435   20.2538109   16.5479725
| 35>     H       17.3892285   20.2613943   18.4008029
| 36>     H       19.8039606   17.4624773   19.9807519
| 37>     H       19.3495324   16.0143078   18.0336582
| 38>     H       19.0791607   14.0271908   19.2120050
| 39>     H       17.8111185   12.5723980   20.7769593
| 40>     H       15.7217730   13.4257744   21.8438918
| 41>     H       14.3774986   15.1431090   22.0686209
| 42>     H       16.1859671   17.1794081   19.8045038
| 43> *
| 44>
| 45>                          ****END OF INPUT****

CARTESIAN COORDINATES (ANGSTROEM)
---------------------------------
  C     15.388942   14.312061   17.282138
  C     16.436741   14.117717   16.170982
  O     17.586783   14.959468   16.402105
  C     17.491654   16.287798   16.095078
  O     16.911540   16.648367   15.085386
  C     17.714269   17.180768   17.285938
  C     17.328693   18.483226   17.306332
  C     16.540937   19.229299   16.250593
  N     17.714492   19.308377   18.367844
  C     18.658236   18.976305   19.303853
  S     19.216139   20.069022   20.413098
  N     19.128551   17.688068   19.261921
  C     18.527594   16.607113   18.459169
  C     17.717272   15.702458   19.381422
  C     18.168997   14.401306   19.673161
  C     17.453364   13.577106   20.558298
  C     16.277615   14.058258   21.159499
  C     15.827974   15.355273   20.876016
  O     14.693518   15.822971   21.454655
  C     16.542979   16.173771   19.996206
  H     15.764651   13.935594   18.238543
  H     14.474719   13.756130   17.042281
  H     15.120996   15.369474   17.397506
  H     16.753666   13.067021   16.167798
  H     15.990949   14.331064   15.189690
  H     15.599612   18.709257   16.031965
  H     17.109336   19.284857   15.313355
  H     16.288543   20.253811   16.547973
  H     17.389229   20.261394   18.400803
  H     19.803961   17.462477   19.980752
  H     19.349532   16.014308   18.033658
  H     19.079161   14.027191   19.212005
  H     17.811118   12.572398   20.776959
  H     15.721773   13.425774   21.843892
  H     14.377499   15.143109   22.068621
  H     16.185967   17.179408   19.804504

 Total Charge           Charge          ....    0
 Multiplicity           Mult            ....    1
 Number of Electrons    NEL             ....  154
 Basis Dimension        Dim             ....  828

ORBITAL ENERGIES
----------------

  NO   OCC          E(Eh)            E(eV)
   0   2.0000     -91.890193     -2500.4593
   1   2.0000     -20.598703      -560.5192
   2   2.0000     -20.589054      -560.2566
   3   2.0000     -20.546498      -559.0986
   4   2.0000     -15.630688      -425.3326
   5   2.0000     -15.608685      -424.7339
   6   2.0000     -11.394507      -310.0603
   7   2.0000     -11.384678      -309.7929
   8   2.0000     -11.337157      -308.4997
   9   2.0000     -11.315871      -307.9205
  10   2.0000     -11.310745      -307.7810
  11   2.0000     -11.295071      -307.3545
  12   2.0000     -11.261127      -306.4308
  13   2.0000     -11.260377      -306.4104
  14   2.0000     -11.257488      -306.3318
  15   2.0000     -11.253231      -306.2160
  16   2.0000     -11.245325      -306.0008
  17   2.0000     -11.239891      -305.8530
  18   2.0000     -11.239553      -305.8438
  19   2.0000     -11.220796      -305.3334
  20   2.0000      -8.895211      -242.0510
  21   2.0000      -6.576776      -178.9632
  22   2.0000      -6.574784      -178.9090
  23   2.0000      -6.574188      -178.8928
  24   2.0000      -1.449140       -39.4331
  25   2.0000      -1.418378       -38.5960
  26   2.0000      -1.352079       -36.7919
  27   2.0000      -1.341670       -36.5087
  28   2.0000      -1.239757       -33.7355
  29   2.0000      -1.159025       -31.5387
  30   2.0000      -1.120774       -30.4978
  31   2.0000      -1.043789       -28.4029
  32   2.0000      -1.032258       -28.0892
  33   2.0000      -1.017090       -27.6764
  34   2.0000      -0.997694       -27.1486
  35   2.0000      -0.985374       -26.8134
  36   2.0000      -0.924042       -25.1445
  37   2.0000      -0.892085       -24.2749
  38   2.0000      -0.847807       -23.0700
  39   2.0000      -0.840672       -22.8758
  40   2.0000      -0.835662       -22.7395
  41   2.0000      -0.815127       -22.1807
  42   2.0000      -0.754533       -20.5319
  43   2.0000      -0.733760       -19.9666
  44   2.0000      -0.722484       -19.6598
  45   2.0000      -0.698179       -18.9984
  46   2.0000      -0.690309       -18.7843
  47   2.0000      -0.677926       -18.4473
  48   2.0000      -0.668252       -18.1841
  49   2.0000      -0.667002       -18.1500
  50   2.0000      -0.648951       -17.6589
  51   2.0000      -0.644777       -17.5453
  52   2.0000      -0.637043       -17.3348
  53   2.0000      -0.609341       -16.5810
  54   2.0000      -0.605207       -16.4685
  55   2.0000      -0.599993       -16.3266
  56   2.0000      -0.598941       -16.2980
  57   2.0000      -0.579484       -15.7686
  58   2.0000      -0.571615       -15.5544
  59   2.0000      -0.565342       -15.3837
  60   2.0000      -0.556494       -15.1430
  61   2.0000      -0.546746       -14.8777
  62   2.0000      -0.538450       -14.6520
  63   2.0000      -0.527027       -14.3411
  64   2.0000      -0.525313       -14.2945
  65   2.0000      -0.514693       -14.0055
  66   2.0000      -0.503640       -13.7047
  67   2.0000      -0.500800       -13.6275
  68   2.0000      -0.475872       -12.9491
  69   2.0000      -0.464161       -12.6305
  70   2.0000      -0.452080       -12.3017
  71   2.0000      -0.444847       -12.1049
  72   2.0000      -0.357238        -9.7209
  73   2.0000      -0.351007        -9.5514
  74   2.0000      -0.329498        -8.9661
  75   2.0000      -0.324230        -8.8228
  76   2.0000      -0.316961        -8.6250
  77   0.0000       0.069619         1.8944
  78   0.0000       0.105253         2.8641
  79   0.0000       0.121328         3.3015
  80   0.0000       0.130646         3.5551
  81   0.0000       0.135363         3.6834

MULLIKEN ATOMIC CHARGES
-----------------------
   0 C :   -0.319061
   1 C :    0.036023
   2 O :   -0.380453
   3 C :    0.469825
   4 O :   -0.418310
   5 C :   -0.226444
   6 C :    0.151391
   7 C :   -0.270385
   8 N :   -0.124515
   9 C :    0.208817
  10 S :   -0.435885
  11 N :   -0.196502
  12 C :    0.032997
  13 C :    0.079091
  14 C :   -0.187108
  15 C :   -0.130332
  16 C :   -0.280719
  17 C :    0.313106
  18 O :   -0.358850
  19 C :   -0.265366
  20 H :    0.108648
  21 H :    0.115323
  22 H :    0.103157
  23 H :    0.108409
  24 H :    0.117912
  25 H :    0.127987
  26 H :    0.135167
  27 H :    0.094407
  28 H :    0.198552
  29 H :    0.191960
  30 H :    0.149675
  31 H :    0.149896
  32 H :    0.161544
  33 H :    0.131571
  34 H :    0.241376
  35 H :    0.167098
Sum of atomic charges:   -0.0000000

LOEWDIN ATOMIC CHARGES
----------------------
   0 C :    0.105292
   1 C :   -0.015147
   2 O :    0.287663
   3 C :   -0.416213
   4 O :    0.111289
   5 C :   -0.097283
   6 C :   -0.058988
   7 C :    0.130512
   8 N :    0.406936
   9 C :   -0.457026
  10 S :   -0.032554
  11 N :    0.396689
  12 C :   -0.052893
  13 C :   -0.036901
  14 C :    0.012690
  15 C :    0.039513
  16 C :   -0.002546
  17 C :   -0.190050
  18 O :    0.396336
  19 C :    0.034410
  20 H :   -0.026549
  21 H :   -0.025809
  22 H :   -0.029031
  23 H :   -0.024375
  24 H :   -0.028907
  25 H :   -0.006146
  26 H :   -0.003261
  27 H :   -0.023275
  28 H :   -0.057708
  29 H :   -0.065328
  30 H :   -0.006914
  31 H :   -0.029513
  32 H :   -0.020703
  33 H :   -0.035230
  34 H :   -0.153334
  35 H :   -0.025644

  Mayer bond orders larger than 0.100000
B(  0-C ,  1-C ) :   0.9586 B(  0-C , 20-H ) :   0.9736 B(  0-C , 21-H ) :   0.9779
B(  0-C , 22-H ) :   0.9729 B(  1-C ,  2-O ) :   0.8847 B(  1-C , 23-H ) :   0.9853
B(  1-C , 24-H ) :   0.9806 B(  2-O ,  3-C ) :   1.1118 B(  3-C ,  4-O ) :   1.9928
B(  3-C ,  5-C ) :   1.0681 B(  5-C ,  6-C ) :   1.6533 B(  5-C , 12-C ) :   0.9728
B(  6-C ,  7-C ) :   0.9714 B(  6-C ,  8-N ) :   1.1517 B(  7-C , 25-H ) :   0.9638
B(  7-C , 26-H ) :   0.9574 B(  7-C , 27-H ) :   0.9890 B(  8-N ,  9-C ) :   1.1780
B(  8-N , 28-H ) :   0.9483 B(  9-C , 10-S ) :   1.6145 B(  9-C , 11-N ) :   1.3021
B( 11-N , 12-C ) :   0.9780 B( 11-N , 29-H ) :   0.9540 B( 12-C , 13-C ) :   0.9426
B( 12-C , 30-H ) :   1.0045 B( 13-C , 14-C ) :   1.3560 B( 13-C , 19-C ) :   1.3655
B( 14-C , 15-C ) :   1.3868 B( 14-C , 31-H ) :   0.9724 B( 15-C , 16-C ) :   1.3618
B( 15-C , 32-H ) :   0.9715 B( 16-C , 17-C ) :   1.3310 B( 16-C , 33-H ) :   0.9850
B( 17-C , 18-O ) :   1.1127 B( 17-C , 19-C ) :   1.3726 B( 18-O , 34-H ) :   0.9794
B( 19-C , 35-H ) :   0.9579

MP2 TOTAL ENERGY:    -1274.336126108 Eh
FINAL SINGLE POINT ENERGY     -1274.336126108293

DIPOLE MOMENT
-------------
                                X             Y             Z
Electronic contribution:      9.20620       9.61959       5.50474
Nuclear contribution   :    -10.16264     -11.29515      -5.58745
                        -----------------------------------------
Total Dipole Moment    :     -0.95645      -1.67556      -0.08271
                        -----------------------------------------
Magnitude (a.u.)       :      1.93110
Magnitude (Debye)      :      4.90846

Rotational constants in cm-1:     0.011940     0.009564     0.006580
Rotational constants in MHz :   357.954247   286.706988   197.253295

                             ****ORCA TERMINATED NORMALLY****
TOTAL RUN TIME: 0 days 1 hours 43 minutes 13 seconds 949 msec
