                         Program Version 4.2.0 -  RELEASE  -
|  1> ! ri-mp2 cc-pvtz cc-pvtz/c TightSCF  NoKeepInts
|  2>
|  3> %scf
|  4>   MaxCore 4096
|  5> end
|  6> *xyz  0  1
|  7>     C       15.5444620   13.9436717   14.9983050
|  8>     C       15.5326734   14.2440141   16.5086410
|  9>     O       16.6099448   15.1514161   16.8002400
| 10>     C       16.3911141   16.5009485   16.7584609
| 11>     O       15.4229735   16.9881964   16.1992960
| 12>     C       17.3726897   17.2735086   17.5960028
| 13>     C       17.3623468   18.6290419   17.6645333
| 14>     C       16.4164980   19.5754511   16.9566071
| 15>     N       18.3246647   19.2999849   18.4251751
| 16>     C       19.3864145   18.7019544   19.0498117
| 17>     S       20.5391037   19.5791393   19.8484084
| 18>     N       19.4481374   17.3337690   18.9765583
| 19>     C       18.4042032   16.4660077   18.4011693
| 20>     C       17.7468667   15.6472813   19.5088660
| 21>     C       17.9190743   14.2512183   19.5621550
| 22>     C       17.3129023   13.4942032   20.5788571
| 23>     C       16.5303386   14.1382565   21.5523832
| 24>     C       16.3603466   15.5287664   21.5049390
| 25>     O       15.6063419   16.1536072   22.4441211
| 26>     C       16.9644408   16.2793575   20.4916413
| 27>     H       15.3496804   14.8552720   14.4192244
| 28>     H       14.7695066   13.2095840   14.7469417
| 29>     H       16.5160287   13.5380507   14.6904711
| 30>     H       14.5637497   14.6591812   16.8189919
| 31>     H       15.6923187   13.3071849   17.0577141
| 32>     H       15.3831054   19.4014495   17.2830244
| 33>     H       16.4480520   19.4137941   15.8716250
| 34>     H       16.6486886   20.6310789   17.1397194
| 35>     H       18.2959790   20.3050743   18.4886570
| 36>     H       20.2221033   16.9189659   19.4792978
| 37>     H       18.9016804   15.7745976   17.7065465
| 38>     H       18.5197089   13.7503857   18.8075805
| 39>     H       17.4508306   12.4148477   20.6106398
| 40>     H       16.0607195   13.5582322   22.3399843
| 41>     H       15.3029916   15.4794101   23.0703823
| 42>     H       16.8263201   17.3550966   20.4770283
| 43> *
| 44>
| 45>                          ****END OF INPUT****

CARTESIAN COORDINATES (ANGSTROEM)
---------------------------------
  C     15.544462   13.943672   14.998305
  C     15.532673   14.244014   16.508641
  O     16.609945   15.151416   16.800240
  C     16.391114   16.500948   16.758461
  O     15.422973   16.988196   16.199296
  C     17.372690   17.273509   17.596003
  C     17.362347   18.629042   17.664533
  C     16.416498   19.575451   16.956607
  N     18.324665   19.299985   18.425175
  C     19.386414   18.701954   19.049812
  S     20.539104   19.579139   19.848408
  N     19.448137   17.333769   18.976558
  C     18.404203   16.466008   18.401169
  C     17.746867   15.647281   19.508866
  C     17.919074   14.251218   19.562155
  C     17.312902   13.494203   20.578857
  C     16.530339   14.138257   21.552383
  C     16.360347   15.528766   21.504939
  O     15.606342   16.153607   22.444121
  C     16.964441   16.279357   20.491641
  H     15.349680   14.855272   14.419224
  H     14.769507   13.209584   14.746942
  H     16.516029   13.538051   14.690471
  H     14.563750   14.659181   16.818992
  H     15.692319   13.307185   17.057714
  H     15.383105   19.401449   17.283024
  H     16.448052   19.413794   15.871625
  H     16.648689   20.631079   17.139719
  H     18.295979   20.305074   18.488657
  H     20.222103   16.918966   19.479298
  H     18.901680   15.774598   17.706547
  H     18.519709   13.750386   18.807580
  H     17.450831   12.414848   20.610640
  H     16.060720   13.558232   22.339984
  H     15.302992   15.479410   23.070382
  H     16.826320   17.355097   20.477028

 Total Charge           Charge          ....    0
 Multiplicity           Mult            ....    1
 Number of Electrons    NEL             ....  154
 Basis Dimension        Dim             ....  828

ORBITAL ENERGIES
----------------

  NO   OCC          E(Eh)            E(eV)
   0   2.0000     -91.888879     -2500.4235
   1   2.0000     -20.600207      -560.5601
   2   2.0000     -20.596049      -560.4470
   3   2.0000     -20.542846      -558.9993
   4   2.0000     -15.629138      -425.2905
   5   2.0000     -15.608173      -424.7200
   6   2.0000     -11.395685      -310.0923
   7   2.0000     -11.383975      -309.7737
   8   2.0000     -11.336010      -308.4685
   9   2.0000     -11.313173      -307.8471
  10   2.0000     -11.308911      -307.7311
  11   2.0000     -11.296935      -307.4052
  12   2.0000     -11.259163      -306.3774
  13   2.0000     -11.258986      -306.3726
  14   2.0000     -11.254691      -306.2557
  15   2.0000     -11.252215      -306.1883
  16   2.0000     -11.242442      -305.9224
  17   2.0000     -11.237895      -305.7987
  18   2.0000     -11.237661      -305.7923
  19   2.0000     -11.223176      -305.3981
  20   2.0000      -8.893938      -242.0164
  21   2.0000      -6.575512      -178.9288
  22   2.0000      -6.573508      -178.8743
  23   2.0000      -6.572921      -178.8583
  24   2.0000      -1.451608       -39.5003
  25   2.0000      -1.415695       -38.5230
  26   2.0000      -1.355153       -36.8756
  27   2.0000      -1.340057       -36.4648
  28   2.0000      -1.238454       -33.7000
  29   2.0000      -1.157117       -31.4868
  30   2.0000      -1.120321       -30.4855
  31   2.0000      -1.042498       -28.3678
  32   2.0000      -1.036384       -28.2014
  33   2.0000      -1.014509       -27.6062
  34   2.0000      -0.995187       -27.0804
  35   2.0000      -0.983867       -26.7724
  36   2.0000      -0.922368       -25.0989
  37   2.0000      -0.891559       -24.2606
  38   2.0000      -0.847039       -23.0491
  39   2.0000      -0.837437       -22.7878
  40   2.0000      -0.833523       -22.6813
  41   2.0000      -0.818795       -22.2805
  42   2.0000      -0.758816       -20.6484
  43   2.0000      -0.731852       -19.9147
  44   2.0000      -0.723059       -19.6754
  45   2.0000      -0.695209       -18.9176
  46   2.0000      -0.688192       -18.7266
  47   2.0000      -0.680488       -18.5170
  48   2.0000      -0.671181       -18.2638
  49   2.0000      -0.653341       -17.7783
  50   2.0000      -0.646402       -17.5895
  51   2.0000      -0.645381       -17.5617
  52   2.0000      -0.629748       -17.1363
  53   2.0000      -0.612448       -16.6656
  54   2.0000      -0.606242       -16.4967
  55   2.0000      -0.599151       -16.3037
  56   2.0000      -0.598444       -16.2845
  57   2.0000      -0.579261       -15.7625
  58   2.0000      -0.571841       -15.5606
  59   2.0000      -0.570259       -15.5175
  60   2.0000      -0.563461       -15.3326
  61   2.0000      -0.539161       -14.6713
  62   2.0000      -0.535453       -14.5704
  63   2.0000      -0.525533       -14.3005
  64   2.0000      -0.524483       -14.2719
  65   2.0000      -0.513368       -13.9694
  66   2.0000      -0.500792       -13.6272
  67   2.0000      -0.497332       -13.5331
  68   2.0000      -0.486166       -13.2292
  69   2.0000      -0.464037       -12.6271
  70   2.0000      -0.454802       -12.3758
  71   2.0000      -0.447825       -12.1860
  72   2.0000      -0.354304        -9.6411
  73   2.0000      -0.348903        -9.4941
  74   2.0000      -0.328190        -8.9305
  75   2.0000      -0.320840        -8.7305
  76   2.0000      -0.315957        -8.5976
  77   0.0000       0.075806         2.0628
  78   0.0000       0.106972         2.9109
  79   0.0000       0.125271         3.4088
  80   0.0000       0.132715         3.6114
  81   0.0000       0.137362         3.7378

MULLIKEN ATOMIC CHARGES
-----------------------
   0 C :   -0.281024
   1 C :    0.039665
   2 O :   -0.355531
   3 C :    0.459942
   4 O :   -0.435274
   5 C :   -0.211225
   6 C :    0.151013
   7 C :   -0.274399
   8 N :   -0.120637
   9 C :    0.210917
  10 S :   -0.439684
  11 N :   -0.203756
  12 C :    0.052327
  13 C :    0.066633
  14 C :   -0.183807
  15 C :   -0.131663
  16 C :   -0.278829
  17 C :    0.315729
  18 O :   -0.356689
  19 C :   -0.269329
  20 H :    0.112668
  21 H :    0.092230
  22 H :    0.090978
  23 H :    0.098551
  24 H :    0.106445
  25 H :    0.132540
  26 H :    0.130063
  27 H :    0.095368
  28 H :    0.197329
  29 H :    0.194495
  30 H :    0.150540
  31 H :    0.149113
  32 H :    0.160405
  33 H :    0.129635
  34 H :    0.240635
  35 H :    0.164626
Sum of atomic charges:   -0.0000000

LOEWDIN ATOMIC CHARGES
----------------------
   0 C :    0.104616
   1 C :   -0.015712
   2 O :    0.307977
   3 C :   -0.413562
   4 O :    0.097036
   5 C :   -0.094315
   6 C :   -0.058847
   7 C :    0.131492
   8 N :    0.406572
   9 C :   -0.456545
  10 S :   -0.035277
  11 N :    0.396488
  12 C :   -0.052441
  13 C :   -0.038443
  14 C :    0.014408
  15 C :    0.038520
  16 C :   -0.001866
  17 C :   -0.189479
  18 O :    0.395127
  19 C :    0.031332
  20 H :   -0.024450
  21 H :   -0.027938
  22 H :   -0.029881
  23 H :   -0.027606
  24 H :   -0.026983
  25 H :   -0.004514
  26 H :   -0.004157
  27 H :   -0.023338
  28 H :   -0.057566
  29 H :   -0.064573
  30 H :   -0.010768
  31 H :   -0.030230
  32 H :   -0.021560
  33 H :   -0.035707
  34 H :   -0.153984
  35 H :   -0.023826

  Mayer bond orders larger than 0.100000
B(  0-C ,  1-C ) :   0.9716 B(  0-C , 20-H ) :   0.9757 B(  0-C , 21-H ) :   0.9768
B(  0-C , 22-H ) :   0.9773 B(  1-C ,  2-O ) :   0.8898 B(  1-C , 23-H ) :   0.9743
B(  1-C , 24-H ) :   0.9815 B(  2-O ,  3-C ) :   1.1572 B(  3-C ,  4-O ) :   1.9536
B(  3-C ,  5-C ) :   1.0678 B(  5-C ,  6-C ) :   1.6556 B(  5-C , 12-C ) :   0.9734
B(  6-C ,  7-C ) :   0.9674 B(  6-C ,  8-N ) :   1.1637 B(  7-C , 25-H ) :   0.9600
B(  7-C , 26-H ) :   0.9606 B(  7-C , 27-H ) :   0.9907 B(  8-N ,  9-C ) :   1.1825
B(  8-N , 28-H ) :   0.9478 B(  9-C , 10-S ) :   1.6078 B(  9-C , 11-N ) :   1.3049
B( 11-N , 12-C ) :   0.9869 B( 11-N , 29-H ) :   0.9516 B( 12-C , 13-C ) :   0.9364
B( 12-C , 30-H ) :   1.0026 B( 13-C , 14-C ) :   1.3551 B( 13-C , 19-C ) :   1.3824
B( 14-C , 15-C ) :   1.3910 B( 14-C , 31-H ) :   0.9718 B( 15-C , 16-C ) :   1.3640
B( 15-C , 32-H ) :   0.9707 B( 16-C , 17-C ) :   1.3316 B( 16-C , 33-H ) :   0.9851
B( 17-C , 18-O ) :   1.1099 B( 17-C , 19-C ) :   1.3730 B( 18-O , 34-H ) :   0.9799
B( 19-C , 35-H ) :   0.9583

MP2 TOTAL ENERGY:    -1274.348710382 Eh
FINAL SINGLE POINT ENERGY     -1274.348710382026

DIPOLE MOMENT
-------------
                                X             Y             Z
Electronic contribution:     10.00827       9.62797       9.74688
Nuclear contribution   :    -11.16338     -11.23720     -10.01899
                        -----------------------------------------
Total Dipole Moment    :     -1.15511      -1.60924      -0.27212
                        -----------------------------------------
Magnitude (a.u.)       :      1.99949
Magnitude (Debye)      :      5.08230

Rotational constants in cm-1:     0.011125     0.008750     0.006039
Rotational constants in MHz :   333.533277   262.304150   181.040814

                             ****ORCA TERMINATED NORMALLY****
TOTAL RUN TIME: 0 days 1 hours 37 minutes 38 seconds 574 msec
