                         Program Version 4.2.0 -  RELEASE  -
|  1> ! ri-mp2 cc-pvtz cc-pvtz/c TightSCF  NoKeepInts
|  2>
|  3> %scf
|  4>   MaxCore 4096
|  5> end
|  6> *xyz  0  1
|  7>     C       14.9775874   15.6244921   17.5274295
|  8>     C       15.6602461   15.1587501   16.2251310
|  9>     O       17.0372244   14.7988594   16.4515097
| 10>     C       18.1051979   15.6606895   16.4660243
| 11>     O       19.2142513   15.1762085   16.3384967
| 12>     C       17.9517529   16.8354882   17.3708386
| 13>     C       17.4038834   17.9971205   16.9480135
| 14>     C       16.8507429   18.2916762   15.5708805
| 15>     N       17.3720727   19.1028008   17.8005295
| 16>     C       17.9901481   19.1606115   19.0226107
| 17>     S       17.9699609   20.5358345   19.9405654
| 18>     N       18.6270695   18.0199571   19.4467505
| 19>     C       18.5915148   16.7145848   18.7557804
| 20>     C       17.9062668   15.6436114   19.6017901
| 21>     C       18.3659265   14.3145900   19.5514939
| 22>     C       17.7452470   13.3104594   20.3126738
| 23>     C       16.6535980   13.6359934   21.1349008
| 24>     C       16.1899697   14.9571318   21.1874868
| 25>     O       15.1279468   15.2723877   21.9706787
| 26>     C       16.8088368   15.9550957   20.4278080
| 27>     H       15.1480729   14.8926653   18.3269105
| 28>     H       13.8943113   15.7054474   17.3770100
| 29>     H       15.3340311   16.5998446   17.8693959
| 30>     H       15.1316978   14.2625681   15.8747099
| 31>     H       15.5693248   15.9146649   15.4372090
| 32>     H       17.1974569   17.5685510   14.8226011
| 33>     H       17.1752169   19.2800091   15.2204555
| 34>     H       15.7539984   18.2824106   15.5770597
| 35>     H       16.9240646   19.9548266   17.5019191
| 36>     H       19.0626120   18.0873258   20.3579452
| 37>     H       19.6339687   16.3965317   18.6057989
| 38>     H       19.2018190   14.0563625   18.9043668
| 39>     H       18.1086499   12.2857456   20.2577929
| 40>     H       16.1697770   12.8626942   21.7222355
| 41>     H       14.8689775   14.4682729   22.4455050
| 42>     H       16.4235773   16.9677372   20.4816926
| 43> *
| 44>
| 45>                          ****END OF INPUT****

CARTESIAN COORDINATES (ANGSTROEM)
---------------------------------
  C     14.977587   15.624492   17.527430
  C     15.660246   15.158750   16.225131
  O     17.037224   14.798859   16.451510
  C     18.105198   15.660690   16.466024
  O     19.214251   15.176208   16.338497
  C     17.951753   16.835488   17.370839
  C     17.403883   17.997121   16.948013
  C     16.850743   18.291676   15.570880
  N     17.372073   19.102801   17.800529
  C     17.990148   19.160611   19.022611
  S     17.969961   20.535834   19.940565
  N     18.627070   18.019957   19.446751
  C     18.591515   16.714585   18.755780
  C     17.906267   15.643611   19.601790
  C     18.365926   14.314590   19.551494
  C     17.745247   13.310459   20.312674
  C     16.653598   13.635993   21.134901
  C     16.189970   14.957132   21.187487
  O     15.127947   15.272388   21.970679
  C     16.808837   15.955096   20.427808
  H     15.148073   14.892665   18.326911
  H     13.894311   15.705447   17.377010
  H     15.334031   16.599845   17.869396
  H     15.131698   14.262568   15.874710
  H     15.569325   15.914665   15.437209
  H     17.197457   17.568551   14.822601
  H     17.175217   19.280009   15.220455
  H     15.753998   18.282411   15.577060
  H     16.924065   19.954827   17.501919
  H     19.062612   18.087326   20.357945
  H     19.633969   16.396532   18.605799
  H     19.201819   14.056362   18.904367
  H     18.108650   12.285746   20.257793
  H     16.169777   12.862694   21.722235
  H     14.868977   14.468273   22.445505
  H     16.423577   16.967737   20.481693

 Total Charge           Charge          ....    0
 Multiplicity           Mult            ....    1
 Number of Electrons    NEL             ....  154
 Basis Dimension        Dim             ....  828

ORBITAL ENERGIES
----------------

  NO   OCC          E(Eh)            E(eV)
   0   2.0000     -91.888533     -2500.4141
   1   2.0000     -20.599295      -560.5353
   2   2.0000     -20.596610      -560.4623
   3   2.0000     -20.556951      -559.3831
   4   2.0000     -15.624672      -425.1689
   5   2.0000     -15.610571      -424.7852
   6   2.0000     -11.398295      -310.1634
   7   2.0000     -11.385289      -309.8095
   8   2.0000     -11.324156      -308.1459
   9   2.0000     -11.315351      -307.9064
  10   2.0000     -11.312823      -307.8376
  11   2.0000     -11.308615      -307.7231
  12   2.0000     -11.271563      -306.7148
  13   2.0000     -11.265309      -306.5446
  14   2.0000     -11.260790      -306.4217
  15   2.0000     -11.253448      -306.2219
  16   2.0000     -11.242759      -305.9310
  17   2.0000     -11.238348      -305.8110
  18   2.0000     -11.235700      -305.7389
  19   2.0000     -11.229234      -305.5630
  20   2.0000      -8.893657      -242.0087
  21   2.0000      -6.575253      -178.9217
  22   2.0000      -6.573220      -178.8664
  23   2.0000      -6.572651      -178.8509
  24   2.0000      -1.452161       -39.5153
  25   2.0000      -1.416448       -38.5435
  26   2.0000      -1.360989       -37.0344
  27   2.0000      -1.338581       -36.4247
  28   2.0000      -1.238537       -33.7023
  29   2.0000      -1.157938       -31.5091
  30   2.0000      -1.124289       -30.5935
  31   2.0000      -1.047336       -28.4995
  32   2.0000      -1.038854       -28.2686
  33   2.0000      -1.015975       -27.6461
  34   2.0000      -1.004382       -27.3306
  35   2.0000      -0.988834       -26.9076
  36   2.0000      -0.926832       -25.2204
  37   2.0000      -0.894696       -24.3459
  38   2.0000      -0.853008       -23.2115
  39   2.0000      -0.839280       -22.8380
  40   2.0000      -0.833436       -22.6790
  41   2.0000      -0.830245       -22.5921
  42   2.0000      -0.753365       -20.5001
  43   2.0000      -0.738073       -20.0840
  44   2.0000      -0.729852       -19.8603
  45   2.0000      -0.694370       -18.8948
  46   2.0000      -0.687524       -18.7085
  47   2.0000      -0.681189       -18.5361
  48   2.0000      -0.675481       -18.3808
  49   2.0000      -0.664789       -18.0898
  50   2.0000      -0.651427       -17.7262
  51   2.0000      -0.644058       -17.5257
  52   2.0000      -0.639817       -17.4103
  53   2.0000      -0.613691       -16.6994
  54   2.0000      -0.608805       -16.5664
  55   2.0000      -0.604820       -16.4580
  56   2.0000      -0.601306       -16.3624
  57   2.0000      -0.590185       -16.0597
  58   2.0000      -0.583767       -15.8851
  59   2.0000      -0.573879       -15.6160
  60   2.0000      -0.564730       -15.3671
  61   2.0000      -0.557537       -15.1714
  62   2.0000      -0.542288       -14.7564
  63   2.0000      -0.526925       -14.3384
  64   2.0000      -0.516462       -14.0537
  65   2.0000      -0.512045       -13.9334
  66   2.0000      -0.502987       -13.6870
  67   2.0000      -0.500307       -13.6140
  68   2.0000      -0.486219       -13.2307
  69   2.0000      -0.463014       -12.5993
  70   2.0000      -0.456617       -12.4252
  71   2.0000      -0.453164       -12.3312
  72   2.0000      -0.355071        -9.6620
  73   2.0000      -0.347300        -9.4505
  74   2.0000      -0.328296        -8.9334
  75   2.0000      -0.321170        -8.7395
  76   2.0000      -0.316642        -8.6163
  77   0.0000       0.089072         2.4238
  78   0.0000       0.101127         2.7518
  79   0.0000       0.112105         3.0505
  80   0.0000       0.128453         3.4954
  81   0.0000       0.131106         3.5676

MULLIKEN ATOMIC CHARGES
-----------------------
   0 C :   -0.312635
   1 C :    0.004470
   2 O :   -0.316724
   3 C :    0.388607
   4 O :   -0.365985
   5 C :   -0.154695
   6 C :    0.122845
   7 C :   -0.333514
   8 N :   -0.135198
   9 C :    0.208060
  10 S :   -0.443644
  11 N :   -0.227267
  12 C :    0.074651
  13 C :    0.047509
  14 C :   -0.203295
  15 C :   -0.134526
  16 C :   -0.276577
  17 C :    0.314167
  18 O :   -0.359894
  19 C :   -0.282667
  20 H :    0.124670
  21 H :    0.111927
  22 H :    0.103296
  23 H :    0.131297
  24 H :    0.089481
  25 H :    0.121069
  26 H :    0.134551
  27 H :    0.124512
  28 H :    0.195306
  29 H :    0.202148
  30 H :    0.169340
  31 H :    0.166346
  32 H :    0.162551
  33 H :    0.131701
  34 H :    0.240966
  35 H :    0.177151
Sum of atomic charges:    0.0000000

LOEWDIN ATOMIC CHARGES
----------------------
   0 C :    0.104465
   1 C :   -0.023917
   2 O :    0.311603
   3 C :   -0.419947
   4 O :    0.138166
   5 C :   -0.076519
   6 C :   -0.110534
   7 C :    0.122099
   8 N :    0.400415
   9 C :   -0.456342
  10 S :   -0.040187
  11 N :    0.398630
  12 C :   -0.041367
  13 C :   -0.040717
  14 C :    0.024043
  15 C :    0.044139
  16 C :   -0.002407
  17 C :   -0.194668
  18 O :    0.395011
  19 C :    0.029376
  20 H :   -0.019451
  21 H :   -0.026287
  22 H :   -0.037481
  23 H :   -0.018892
  24 H :   -0.039867
  25 H :   -0.011448
  26 H :   -0.010118
  27 H :   -0.017221
  28 H :   -0.059374
  29 H :   -0.063652
  30 H :   -0.001623
  31 H :   -0.022250
  32 H :   -0.019003
  33 H :   -0.035310
  34 H :   -0.153800
  35 H :   -0.025565

  Mayer bond orders larger than 0.100000
B(  0-C ,  1-C ) :   0.9585 B(  0-C , 20-H ) :   0.9711 B(  0-C , 21-H ) :   0.9768
B(  0-C , 22-H ) :   0.9731 B(  1-C ,  2-O ) :   0.9143 B(  1-C , 23-H ) :   0.9840
B(  1-C , 24-H ) :   0.9783 B(  2-O ,  3-C ) :   1.1174 B(  3-C ,  4-O ) :   2.0918
B(  3-C ,  5-C ) :   0.9181 B(  5-C ,  6-C ) :   1.7156 B(  5-C , 12-C ) :   0.9564
B(  6-C ,  7-C ) :   0.9384 B(  6-C ,  8-N ) :   1.0978 B(  7-C , 25-H ) :   0.9821
B(  7-C , 26-H ) :   0.9751 B(  7-C , 27-H ) :   0.9651 B(  8-N ,  9-C ) :   1.1996
B(  8-N , 28-H ) :   0.9536 B(  9-C , 10-S ) :   1.6058 B(  9-C , 11-N ) :   1.2851
B( 11-N , 12-C ) :   0.9860 B( 11-N , 29-H ) :   0.9472 B( 12-C , 13-C ) :   0.9504
B( 12-C , 30-H ) :   0.9964 B( 13-C , 14-C ) :   1.3843 B( 13-C , 19-C ) :   1.3374
B( 14-C , 15-C ) :   1.4027 B( 14-C , 31-H ) :   0.9627 B( 15-C , 16-C ) :   1.3574
B( 15-C , 32-H ) :   0.9704 B( 16-C , 17-C ) :   1.3317 B( 16-C , 33-H ) :   0.9851
B( 17-C , 18-O ) :   1.1078 B( 17-C , 19-C ) :   1.3687 B( 18-O , 34-H ) :   0.9797
B( 19-C , 35-H ) :   0.9577

MP2 TOTAL ENERGY:    -1274.317037934 Eh
FINAL SINGLE POINT ENERGY     -1274.317037934210

DIPOLE MOMENT
-------------
                                X             Y             Z
Electronic contribution:      9.48488       5.99095       6.42412
Nuclear contribution   :    -11.01563      -7.18667      -7.30222
                        -----------------------------------------
Total Dipole Moment    :     -1.53075      -1.19573      -0.87809
                        -----------------------------------------
Magnitude (a.u.)       :      2.13167
Magnitude (Debye)      :      5.41827

Rotational constants in cm-1:     0.012132     0.009514     0.006911
Rotational constants in MHz :   363.710903   285.212555   207.173401

                             ****ORCA TERMINATED NORMALLY****
TOTAL RUN TIME: 0 days 1 hours 52 minutes 1 seconds 551 msec
