                         Program Version 5.0.0 -  RELEASE  -
|  1> ! ri-mp2 cc-pvtz cc-pvtz/c TightSCF NoKeepInts
|  2>
|  3> %scf
|  4>   MaxCore 4096
|  5> end
|  6> *xyz  0  1
|  7>     C       15.8025795   13.2679688   15.7801042
|  8>     C       15.5016872   14.5010798   16.6478603
|  9>     O       16.6587547   15.3540339   16.5943644
| 10>     C       16.4938890   16.7098293   16.5705282
| 11>     O       15.5366229   17.2351282   16.0284104
| 12>     C       17.4381652   17.4221924   17.4999957
| 13>     C       17.4444535   18.7728534   17.6343538
| 14>     C       16.5573440   19.7691728   16.9188324
| 15>     N       18.3694119   19.3890856   18.4824830
| 16>     C       19.3817002   18.7428308   19.1401862
| 17>     S       20.4952378   19.5595982   20.0505440
| 18>     N       19.4286261   17.3791108   19.0023344
| 19>     C       18.4118127   16.5583882   18.3197930
| 20>     C       17.6846964   15.6880289   19.3413201
| 21>     C       17.8743755   14.2932128   19.3522205
| 22>     C       17.1988564   13.4869285   20.2836398
| 23>     C       16.3296241   14.0801776   21.2149655
| 24>     C       16.1433921   15.4694163   21.2112467
| 25>     O       15.3057397   16.0452170   22.1098945
| 26>     C       16.8156832   16.2689954   20.2818562
| 27>     H       14.9508340   12.5771036   15.7852492
| 28>     H       16.6821298   12.7334676   16.1595780
| 29>     H       15.9972823   13.5654764   14.7420619
| 30>     H       14.6105309   15.0021408   16.2459800
| 31>     H       15.2951970   14.2065043   17.6853283
| 32>     H       15.5058911   19.6133253   17.1924941
| 33>     H       16.6337278   19.6440874   15.8312362
| 34>     H       16.8095025   20.8109801   17.1487975
| 35>     H       18.3512417   20.3902181   18.5943375
| 36>     H       20.1646196   16.9272280   19.5295675
| 37>     H       18.9414910   15.8993022   17.6174876
| 38>     H       18.5415690   13.8316140   18.6290848
| 39>     H       17.3507539   12.4088941   20.2827000
| 40>     H       15.8066603   13.4620447   21.9373624
| 41>     H       14.9705875   15.3436948   22.6882012
| 42>     H       16.6623295   17.3426700   20.2996004
| 43> *
| 44>
| 45>                          ****END OF INPUT****

CARTESIAN COORDINATES (ANGSTROEM)
---------------------------------
  C     15.802579   13.267969   15.780104
  C     15.501687   14.501080   16.647860
  O     16.658755   15.354034   16.594364
  C     16.493889   16.709829   16.570528
  O     15.536623   17.235128   16.028410
  C     17.438165   17.422192   17.499996
  C     17.444454   18.772853   17.634354
  C     16.557344   19.769173   16.918832
  N     18.369412   19.389086   18.482483
  C     19.381700   18.742831   19.140186
  S     20.495238   19.559598   20.050544
  N     19.428626   17.379111   19.002334
  C     18.411813   16.558388   18.319793
  C     17.684696   15.688029   19.341320
  C     17.874375   14.293213   19.352220
  C     17.198856   13.486928   20.283640
  C     16.329624   14.080178   21.214966
  C     16.143392   15.469416   21.211247
  O     15.305740   16.045217   22.109894
  C     16.815683   16.268995   20.281856
  H     14.950834   12.577104   15.785249
  H     16.682130   12.733468   16.159578
  H     15.997282   13.565476   14.742062
  H     14.610531   15.002141   16.245980
  H     15.295197   14.206504   17.685328
  H     15.505891   19.613325   17.192494
  H     16.633728   19.644087   15.831236
  H     16.809503   20.810980   17.148798
  H     18.351242   20.390218   18.594337
  H     20.164620   16.927228   19.529567
  H     18.941491   15.899302   17.617488
  H     18.541569   13.831614   18.629085
  H     17.350754   12.408894   20.282700
  H     15.806660   13.462045   21.937362
  H     14.970588   15.343695   22.688201
  H     16.662329   17.342670   20.299600

 Total Charge           Charge          ....    0
 Multiplicity           Mult            ....    1
 Number of Electrons    NEL             ....  154
 Basis Dimension        Dim             ....  828

ORBITAL ENERGIES
----------------

  NO   OCC          E(Eh)            E(eV)
   0   2.0000     -91.889363     -2500.4367
   1   2.0000     -20.598255      -560.5070
   2   2.0000     -20.594986      -560.4181
   3   2.0000     -20.543252      -559.0103
   4   2.0000     -15.629526      -425.3010
   5   2.0000     -15.608824      -424.7377
   6   2.0000     -11.394334      -310.0556
   7   2.0000     -11.384487      -309.7876
   8   2.0000     -11.336092      -308.4708
   9   2.0000     -11.315825      -307.9193
  10   2.0000     -11.309928      -307.7588
  11   2.0000     -11.293410      -307.3093
  12   2.0000     -11.261376      -306.4376
  13   2.0000     -11.258812      -306.3678
  14   2.0000     -11.257218      -306.3245
  15   2.0000     -11.252403      -306.1935
  16   2.0000     -11.244926      -305.9900
  17   2.0000     -11.240179      -305.8608
  18   2.0000     -11.239828      -305.8513
  19   2.0000     -11.227570      -305.5177
  20   2.0000      -8.894422      -242.0295
  21   2.0000      -6.575995      -178.9419
  22   2.0000      -6.573991      -178.8874
  23   2.0000      -6.573403      -178.8714
  24   2.0000      -1.450071       -39.4584
  25   2.0000      -1.417911       -38.5833
  26   2.0000      -1.354157       -36.8485
  27   2.0000      -1.340522       -36.4775
  28   2.0000      -1.239109       -33.7179
  29   2.0000      -1.159230       -31.5443
  30   2.0000      -1.120796       -30.4984
  31   2.0000      -1.043925       -28.4066
  32   2.0000      -1.037981       -28.2449
  33   2.0000      -1.017002       -27.6740
  34   2.0000      -0.996149       -27.1066
  35   2.0000      -0.984713       -26.7954
  36   2.0000      -0.923411       -25.1273
  37   2.0000      -0.885648       -24.0997
  38   2.0000      -0.847480       -23.0611
  39   2.0000      -0.839029       -22.8311
  40   2.0000      -0.835691       -22.7403
  41   2.0000      -0.820605       -22.3298
  42   2.0000      -0.763227       -20.7685
  43   2.0000      -0.733949       -19.9718
  44   2.0000      -0.723548       -19.6887
  45   2.0000      -0.697150       -18.9704
  46   2.0000      -0.688277       -18.7290
  47   2.0000      -0.679170       -18.4811
  48   2.0000      -0.673557       -18.3284
  49   2.0000      -0.655715       -17.8429
  50   2.0000      -0.647142       -17.6096
  51   2.0000      -0.643011       -17.4972
  52   2.0000      -0.632373       -17.2077
  53   2.0000      -0.614372       -16.7179
  54   2.0000      -0.608590       -16.5606
  55   2.0000      -0.601201       -16.3595
  56   2.0000      -0.599374       -16.3098
  57   2.0000      -0.579142       -15.7593
  58   2.0000      -0.571373       -15.5479
  59   2.0000      -0.565560       -15.3897
  60   2.0000      -0.561916       -15.2905
  61   2.0000      -0.540178       -14.6990
  62   2.0000      -0.534917       -14.5558
  63   2.0000      -0.526881       -14.3372
  64   2.0000      -0.525879       -14.3099
  65   2.0000      -0.514299       -13.9948
  66   2.0000      -0.502493       -13.6735
  67   2.0000      -0.496117       -13.5000
  68   2.0000      -0.487666       -13.2701
  69   2.0000      -0.465036       -12.6543
  70   2.0000      -0.457008       -12.4358
  71   2.0000      -0.446615       -12.1530
  72   2.0000      -0.354598        -9.6491
  73   2.0000      -0.351137        -9.5549
  74   2.0000      -0.328866        -8.9489
  75   2.0000      -0.323367        -8.7993
  76   2.0000      -0.316684        -8.6174
  77   0.0000       0.073827         2.0089
  78   0.0000       0.104447         2.8422
  79   0.0000       0.124018         3.3747
  80   0.0000       0.130788         3.5589
  81   0.0000       0.135122         3.6769

MULLIKEN ATOMIC CHARGES
-----------------------
   0 C :   -0.261299
   1 C :    0.009785
   2 O :   -0.369196
   3 C :    0.479075
   4 O :   -0.424503
   5 C :   -0.248519
   6 C :    0.157487
   7 C :   -0.270953
   8 N :   -0.122796
   9 C :    0.211843
  10 S :   -0.439446
  11 N :   -0.205491
  12 C :    0.065875
  13 C :    0.054752
  14 C :   -0.191491
  15 C :   -0.130931
  16 C :   -0.279792
  17 C :    0.314297
  18 O :   -0.355613
  19 C :   -0.262815
  20 H :    0.088479
  21 H :    0.089244
  22 H :    0.100059
  23 H :    0.126380
  24 H :    0.113284
  25 H :    0.132641
  26 H :    0.130273
  27 H :    0.095182
  28 H :    0.197693
  29 H :    0.194968
  30 H :    0.149607
  31 H :    0.151327
  32 H :    0.161890
  33 H :    0.131636
  34 H :    0.240936
  35 H :    0.166129
Sum of atomic charges:    0.0000000

LOEWDIN ATOMIC CHARGES
----------------------
   0 C :    0.106303
   1 C :   -0.014818
   2 O :    0.304908
   3 C :   -0.415115
   4 O :    0.102014
   5 C :   -0.096447
   6 C :   -0.058976
   7 C :    0.131620
   8 N :    0.406655
   9 C :   -0.456287
  10 S :   -0.035038
  11 N :    0.396284
  12 C :   -0.052318
  13 C :   -0.038188
  14 C :    0.014233
  15 C :    0.038451
  16 C :   -0.002721
  17 C :   -0.189549
  18 O :    0.395850
  19 C :    0.031326
  20 H :   -0.026045
  21 H :   -0.030965
  22 H :   -0.024891
  23 H :   -0.028199
  24 H :   -0.030518
  25 H :   -0.004490
  26 H :   -0.003967
  27 H :   -0.023303
  28 H :   -0.057479
  29 H :   -0.064634
  30 H :   -0.010271
  31 H :   -0.030232
  32 H :   -0.021007
  33 H :   -0.035286
  34 H :   -0.153552
  35 H :   -0.023348

  Mayer bond orders larger than 0.100000
B(  0-C ,  1-C ) :   0.9775 B(  0-C , 20-H ) :   0.9764 B(  0-C , 21-H ) :   0.9796
B(  0-C , 22-H ) :   0.9785 B(  1-C ,  2-O ) :   0.8721 B(  1-C , 23-H ) :   0.9749
B(  1-C , 24-H ) :   0.9696 B(  2-O ,  3-C ) :   1.1428 B(  3-C ,  4-O ) :   1.9948
B(  3-C ,  5-C ) :   1.0612 B(  5-C ,  6-C ) :   1.6524 B(  5-C , 12-C ) :   0.9714
B(  6-C ,  7-C ) :   0.9664 B(  6-C ,  8-N ) :   1.1618 B(  7-C , 25-H ) :   0.9593
B(  7-C , 26-H ) :   0.9612 B(  7-C , 27-H ) :   0.9905 B(  8-N ,  9-C ) :   1.1832
B(  8-N , 28-H ) :   0.9478 B(  9-C , 10-S ) :   1.6076 B(  9-C , 11-N ) :   1.3054
B( 11-N , 12-C ) :   0.9849 B( 11-N , 29-H ) :   0.9517 B( 12-C , 13-C ) :   0.9346
B( 12-C , 30-H ) :   1.0021 B( 13-C , 14-C ) :   1.3548 B( 13-C , 19-C ) :   1.3832
B( 14-C , 15-C ) :   1.3905 B( 14-C , 31-H ) :   0.9731 B( 15-C , 16-C ) :   1.3609
B( 15-C , 32-H ) :   0.9706 B( 16-C , 17-C ) :   1.3311 B( 16-C , 33-H ) :   0.9847
B( 17-C , 18-O ) :   1.1121 B( 17-C , 19-C ) :   1.3716 B( 18-O , 34-H ) :   0.9796
B( 19-C , 35-H ) :   0.9577

MP2 TOTAL ENERGY:    -1274.344012299 Eh
FINAL SINGLE POINT ENERGY     -1274.344012299028

DIPOLE MOMENT
-------------
                                X             Y             Z
Electronic contribution:      9.46694      10.95310       7.85958
Nuclear contribution   :    -10.60737     -12.51801      -8.05857
                        -----------------------------------------
Total Dipole Moment    :     -1.14043      -1.56492      -0.19899
                        -----------------------------------------
Magnitude (a.u.)       :      1.94657
Magnitude (Debye)      :      4.94780

Rotational constants in cm-1:     0.012080     0.008459     0.006211
Rotational constants in MHz :   362.160036   253.604735   186.214671

                             ****ORCA TERMINATED NORMALLY****
TOTAL RUN TIME: 0 days 2 hours 4 minutes 38 seconds 383 msec
