                         Program Version 4.2.0 -  RELEASE  -
|  1> ! ri-mp2 cc-pvtz cc-pvtz/c TightSCF  NoKeepInts
|  2>
|  3> %scf
|  4>   MaxCore 4096
|  5> end
|  6> *xyz  0  1
|  7>     C       15.8665196   13.4408648   15.3881552
|  8>     C       15.5189868   14.4264878   16.5161448
|  9>     O       16.6346115   15.3237706   16.6605373
| 10>     C       16.4315512   16.6754445   16.6636925
| 11>     O       15.4744499   17.1921429   16.1128088
| 12>     C       17.3886671   17.4011504   17.5689939
| 13>     C       17.3830562   18.7520339   17.7005726
| 14>     C       16.4681834   19.7368409   17.0043984
| 15>     N       18.3204810   19.3801372   18.5260567
| 16>     C       19.3536982   18.7460610   19.1628115
| 17>     S       20.4788056   19.5767909   20.0459206
| 18>     N       19.4109467   17.3823645   19.0283062
| 19>     C       18.3876752   16.5495700   18.3702340
| 20>     C       17.6881595   15.6768251   19.4088422
| 21>     C       17.8631883   14.2800848   19.4010490
| 22>     C       17.2150568   13.4728243   20.3509503
| 23>     C       16.3877357   14.0668889   21.3192236
| 24>     C       16.2153377   15.4578579   21.3332248
| 25>     O       15.4180900   16.0344364   22.2674949
| 26>     C       16.8607210   16.2584568   20.3857972
| 27>     H       15.0550307   12.7168331   15.2464621
| 28>     H       16.7841453   12.8884082   15.6249863
| 29>     H       16.0172777   13.9765057   14.4424228
| 30>     H       14.5915144   14.9565831   16.2605644
| 31>     H       15.3546606   13.8838192   17.4562980
| 32>     H       15.4238463   19.5613729   17.2929955
| 33>     H       16.5302964   19.6189647   15.9150893
| 34>     H       16.7056163   20.7815395   17.2368598
| 35>     H       18.2947915   20.3813785   18.6353116
| 36>     H       20.1626439   16.9392584   19.5406131
| 37>     H       18.9093114   15.8929949   17.6596504
| 38>     H       18.4980198   13.8179772   18.6496850
| 39>     H       17.3555570   12.3933956   20.3356080
| 40>     H       15.8858939   13.4480031   22.0557667
| 41>     H       15.0933084   15.3305182   22.8487304
| 42>     H       16.7191650   17.3334141   20.4177423
| 43> *
| 44>
| 45>                          ****END OF INPUT****

CARTESIAN COORDINATES (ANGSTROEM)
---------------------------------
  C     15.866520   13.440865   15.388155
  C     15.518987   14.426488   16.516145
  O     16.634611   15.323771   16.660537
  C     16.431551   16.675445   16.663692
  O     15.474450   17.192143   16.112809
  C     17.388667   17.401150   17.568994
  C     17.383056   18.752034   17.700573
  C     16.468183   19.736841   17.004398
  N     18.320481   19.380137   18.526057
  C     19.353698   18.746061   19.162812
  S     20.478806   19.576791   20.045921
  N     19.410947   17.382365   19.028306
  C     18.387675   16.549570   18.370234
  C     17.688160   15.676825   19.408842
  C     17.863188   14.280085   19.401049
  C     17.215057   13.472824   20.350950
  C     16.387736   14.066889   21.319224
  C     16.215338   15.457858   21.333225
  O     15.418090   16.034436   22.267495
  C     16.860721   16.258457   20.385797
  H     15.055031   12.716833   15.246462
  H     16.784145   12.888408   15.624986
  H     16.017278   13.976506   14.442423
  H     14.591514   14.956583   16.260564
  H     15.354661   13.883819   17.456298
  H     15.423846   19.561373   17.292995
  H     16.530296   19.618965   15.915089
  H     16.705616   20.781539   17.236860
  H     18.294791   20.381379   18.635312
  H     20.162644   16.939258   19.540613
  H     18.909311   15.892995   17.659650
  H     18.498020   13.817977   18.649685
  H     17.355557   12.393396   20.335608
  H     15.885894   13.448003   22.055767
  H     15.093308   15.330518   22.848730
  H     16.719165   17.333414   20.417742

 Total Charge           Charge          ....    0
 Multiplicity           Mult            ....    1
 Number of Electrons    NEL             ....  154
 Basis Dimension        Dim             ....  828

ORBITAL ENERGIES
----------------

  NO   OCC          E(Eh)            E(eV)
   0   2.0000     -91.889100     -2500.4295
   1   2.0000     -20.597918      -560.4978
   2   2.0000     -20.597132      -560.4764
   3   2.0000     -20.542492      -558.9896
   4   2.0000     -15.629272      -425.2941
   5   2.0000     -15.608491      -424.7286
   6   2.0000     -11.394974      -310.0730
   7   2.0000     -11.384215      -309.7802
   8   2.0000     -11.335982      -308.4677
   9   2.0000     -11.314497      -307.8831
  10   2.0000     -11.309380      -307.7439
  11   2.0000     -11.294275      -307.3329
  12   2.0000     -11.260330      -306.4092
  13   2.0000     -11.258750      -306.3662
  14   2.0000     -11.256030      -306.2921
  15   2.0000     -11.252168      -306.1871
  16   2.0000     -11.243757      -305.9582
  17   2.0000     -11.239074      -305.8308
  18   2.0000     -11.238852      -305.8247
  19   2.0000     -11.227411      -305.5134
  20   2.0000      -8.894159      -242.0224
  21   2.0000      -6.575733      -178.9348
  22   2.0000      -6.573729      -178.8803
  23   2.0000      -6.573141      -178.8643
  24   2.0000      -1.450377       -39.4668
  25   2.0000      -1.416783       -38.5526
  26   2.0000      -1.354554       -36.8593
  27   2.0000      -1.340231       -36.4695
  28   2.0000      -1.238739       -33.7078
  29   2.0000      -1.158202       -31.5163
  30   2.0000      -1.120530       -30.4912
  31   2.0000      -1.043330       -28.3904
  32   2.0000      -1.038389       -28.2560
  33   2.0000      -1.015809       -27.6416
  34   2.0000      -0.995787       -27.0967
  35   2.0000      -0.984382       -26.7864
  36   2.0000      -0.922856       -25.1122
  37   2.0000      -0.887849       -24.1596
  38   2.0000      -0.847131       -23.0516
  39   2.0000      -0.838208       -22.8088
  40   2.0000      -0.834677       -22.7127
  41   2.0000      -0.819468       -22.2989
  42   2.0000      -0.763205       -20.7679
  43   2.0000      -0.733070       -19.9478
  44   2.0000      -0.723223       -19.6799
  45   2.0000      -0.696120       -18.9424
  46   2.0000      -0.687974       -18.7207
  47   2.0000      -0.679677       -18.4949
  48   2.0000      -0.672844       -18.3090
  49   2.0000      -0.654975       -17.8228
  50   2.0000      -0.646705       -17.5977
  51   2.0000      -0.643153       -17.5011
  52   2.0000      -0.630969       -17.1695
  53   2.0000      -0.614225       -16.7139
  54   2.0000      -0.607435       -16.5292
  55   2.0000      -0.600137       -16.3305
  56   2.0000      -0.598868       -16.2960
  57   2.0000      -0.578564       -15.7435
  58   2.0000      -0.571140       -15.5415
  59   2.0000      -0.566436       -15.4135
  60   2.0000      -0.563518       -15.3341
  61   2.0000      -0.540008       -14.6944
  62   2.0000      -0.534874       -14.5547
  63   2.0000      -0.528649       -14.3853
  64   2.0000      -0.525540       -14.3007
  65   2.0000      -0.513816       -13.9816
  66   2.0000      -0.501825       -13.6553
  67   2.0000      -0.496223       -13.5029
  68   2.0000      -0.487090       -13.2544
  69   2.0000      -0.464692       -12.6449
  70   2.0000      -0.455541       -12.3959
  71   2.0000      -0.447917       -12.1884
  72   2.0000      -0.354395        -9.6436
  73   2.0000      -0.350011        -9.5243
  74   2.0000      -0.328494        -8.9388
  75   2.0000      -0.322180        -8.7670
  76   2.0000      -0.316318        -8.6074
  77   0.0000       0.075062         2.0425
  78   0.0000       0.105593         2.8733
  79   0.0000       0.124159         3.3785
  80   0.0000       0.131657         3.5826
  81   0.0000       0.135601         3.6899

MULLIKEN ATOMIC CHARGES
-----------------------
   0 C :   -0.262860
   1 C :    0.016770
   2 O :   -0.363289
   3 C :    0.471696
   4 O :   -0.428655
   5 C :   -0.235845
   6 C :    0.154383
   7 C :   -0.272153
   8 N :   -0.121900
   9 C :    0.210995
  10 S :   -0.439522
  11 N :   -0.204603
  12 C :    0.059769
  13 C :    0.067980
  14 C :   -0.198143
  15 C :   -0.129694
  16 C :   -0.280574
  17 C :    0.316287
  18 O :   -0.356093
  19 C :   -0.267909
  20 H :    0.088978
  21 H :    0.089887
  22 H :    0.100081
  23 H :    0.121409
  24 H :    0.111182
  25 H :    0.132569
  26 H :    0.130365
  27 H :    0.095080
  28 H :    0.197625
  29 H :    0.194764
  30 H :    0.150205
  31 H :    0.152495
  32 H :    0.161924
  33 H :    0.130725
  34 H :    0.240733
  35 H :    0.165338
Sum of atomic charges:    0.0000000

LOEWDIN ATOMIC CHARGES
----------------------
   0 C :    0.105156
   1 C :   -0.013232
   2 O :    0.307955
   3 C :   -0.414819
   4 O :    0.098380
   5 C :   -0.095658
   6 C :   -0.058877
   7 C :    0.131602
   8 N :    0.406604
   9 C :   -0.456457
  10 S :   -0.035166
  11 N :    0.396398
  12 C :   -0.052424
  13 C :   -0.038378
  14 C :    0.014270
  15 C :    0.038170
  16 C :   -0.002424
  17 C :   -0.189360
  18 O :    0.395478
  19 C :    0.031559
  20 H :   -0.026516
  21 H :   -0.030221
  22 H :   -0.024853
  23 H :   -0.028242
  24 H :   -0.030161
  25 H :   -0.004475
  26 H :   -0.003995
  27 H :   -0.023364
  28 H :   -0.057525
  29 H :   -0.064589
  30 H :   -0.010603
  31 H :   -0.030135
  32 H :   -0.021324
  33 H :   -0.035506
  34 H :   -0.153787
  35 H :   -0.023481

  Mayer bond orders larger than 0.100000
B(  0-C ,  1-C ) :   0.9767 B(  0-C , 20-H ) :   0.9758 B(  0-C , 21-H ) :   0.9795
B(  0-C , 22-H ) :   0.9788 B(  1-C ,  2-O ) :   0.8741 B(  1-C , 23-H ) :   0.9738
B(  1-C , 24-H ) :   0.9732 B(  2-O ,  3-C ) :   1.1548 B(  3-C ,  4-O ) :   1.9846
B(  3-C ,  5-C ) :   1.0595 B(  5-C ,  6-C ) :   1.6540 B(  5-C , 12-C ) :   0.9716
B(  6-C ,  7-C ) :   0.9668 B(  6-C ,  8-N ) :   1.1628 B(  7-C , 25-H ) :   0.9596
B(  7-C , 26-H ) :   0.9610 B(  7-C , 27-H ) :   0.9905 B(  8-N ,  9-C ) :   1.1831
B(  8-N , 28-H ) :   0.9478 B(  9-C , 10-S ) :   1.6078 B(  9-C , 11-N ) :   1.3050
B( 11-N , 12-C ) :   0.9874 B( 11-N , 29-H ) :   0.9517 B( 12-C , 13-C ) :   0.9351
B( 12-C , 30-H ) :   1.0024 B( 13-C , 14-C ) :   1.3509 B( 13-C , 19-C ) :   1.3839
B( 14-C , 15-C ) :   1.3890 B( 14-C , 31-H ) :   0.9721 B( 15-C , 16-C ) :   1.3620
B( 15-C , 32-H ) :   0.9704 B( 16-C , 17-C ) :   1.3313 B( 16-C , 33-H ) :   0.9849
B( 17-C , 18-O ) :   1.1110 B( 17-C , 19-C ) :   1.3715 B( 18-O , 34-H ) :   0.9798
B( 19-C , 35-H ) :   0.9580

MP2 TOTAL ENERGY:    -1274.346453054 Eh
FINAL SINGLE POINT ENERGY     -1274.346453053576

DIPOLE MOMENT
-------------
                                X             Y             Z
Electronic contribution:      9.28100      10.67491       8.96745
Nuclear contribution   :    -10.42790     -12.27570      -9.24760
                        -----------------------------------------
Total Dipole Moment    :     -1.14690      -1.60079      -0.28015
                        -----------------------------------------
Magnitude (a.u.)       :      1.98907
Magnitude (Debye)      :      5.05582

Rotational constants in cm-1:     0.011642     0.008519     0.006131
Rotational constants in MHz :   349.011774   255.404684   183.792307

                             ****ORCA TERMINATED NORMALLY****
TOTAL RUN TIME: 0 days 1 hours 47 minutes 39 seconds 830 msec
