                         Program Version 4.2.0 -  RELEASE  -
|  1> ! ri-mp2 cc-pvtz cc-pvtz/c TightSCF  NoKeepInts
|  2>
|  3> %scf
|  4>   MaxCore 4096
|  5> end
|  6> *xyz  0  1
|  7>     C       15.1416968   13.9370028   15.9894608
|  8>     C       15.6443488   15.0612361   15.0546596
|  9>     O       16.3852232   16.0839655   15.7598439
| 10>     C       17.3275158   15.8135248   16.7127865
| 11>     O       17.8778190   14.7289494   16.8063803
| 12>     C       17.7054589   16.9790249   17.5857685
| 13>     C       17.2777522   18.2607987   17.4286148
| 14>     C       16.3415005   18.8193274   16.3760804
| 15>     N       17.7576920   19.2616359   18.2807905
| 16>     C       18.7570571   19.0966524   19.2026665
| 17>     S       19.3551743   20.3665852   20.0774551
| 18>     N       19.2340475   17.8212113   19.3627912
| 19>     C       18.6469410   16.6194705   18.7420016
| 20>     C       17.9291568   15.7725493   19.7901375
| 21>     C       18.2545669   14.4131060   19.9519301
| 22>     C       17.5942635   13.6271273   20.9111454
| 23>     C       16.5986752   14.2045185   21.7173430
| 24>     C       16.2687073   15.5571095   21.5572184
| 25>     O       15.3032518   16.1160775   22.3297701
| 26>     C       16.9272519   16.3367006   20.6011507
| 27>     H       15.9502377   13.2544089   16.2773161
| 28>     H       14.3772018   13.3376225   15.4807290
| 29>     H       14.6943837   14.3549210   16.8999340
| 30>     H       16.2826476   14.6149787   14.2805885
| 31>     H       14.7873388   15.5272506   14.5518073
| 32>     H       15.3494055   18.3578249   16.4559604
| 33>     H       16.7283799   18.6224341   15.3684515
| 34>     H       16.2030176   19.9038017   16.4625540
| 35>     H       17.4206329   20.2054485   18.1788672
| 36>     H       19.9486072   17.7187102   20.0718380
| 37>     H       19.4743169   16.0252015   18.3277251
| 38>     H       19.0118524   13.9596669   19.3168822
| 39>     H       17.8513394   12.5751980   21.0213175
| 40>     H       16.0848751   13.6006861   22.4577990
| 41>     H       14.9963874   15.4351830   22.9469958
| 42>     H       16.6582755   17.3820896   20.4972395
| 43> *
| 44>
| 45>                          ****END OF INPUT****

CARTESIAN COORDINATES (ANGSTROEM)
---------------------------------
  C     15.141697   13.937003   15.989461
  C     15.644349   15.061236   15.054660
  O     16.385223   16.083966   15.759844
  C     17.327516   15.813525   16.712786
  O     17.877819   14.728949   16.806380
  C     17.705459   16.979025   17.585768
  C     17.277752   18.260799   17.428615
  C     16.341500   18.819327   16.376080
  N     17.757692   19.261636   18.280790
  C     18.757057   19.096652   19.202666
  S     19.355174   20.366585   20.077455
  N     19.234047   17.821211   19.362791
  C     18.646941   16.619470   18.742002
  C     17.929157   15.772549   19.790138
  C     18.254567   14.413106   19.951930
  C     17.594264   13.627127   20.911145
  C     16.598675   14.204518   21.717343
  C     16.268707   15.557109   21.557218
  O     15.303252   16.116077   22.329770
  C     16.927252   16.336701   20.601151
  H     15.950238   13.254409   16.277316
  H     14.377202   13.337622   15.480729
  H     14.694384   14.354921   16.899934
  H     16.282648   14.614979   14.280589
  H     14.787339   15.527251   14.551807
  H     15.349405   18.357825   16.455960
  H     16.728380   18.622434   15.368452
  H     16.203018   19.903802   16.462554
  H     17.420633   20.205448   18.178867
  H     19.948607   17.718710   20.071838
  H     19.474317   16.025202   18.327725
  H     19.011852   13.959667   19.316882
  H     17.851339   12.575198   21.021317
  H     16.084875   13.600686   22.457799
  H     14.996387   15.435183   22.946996
  H     16.658275   17.382090   20.497239

 Total Charge           Charge          ....    0
 Multiplicity           Mult            ....    1
 Number of Electrons    NEL             ....  154
 Basis Dimension        Dim             ....  828

ORBITAL ENERGIES
----------------

  NO   OCC          E(Eh)            E(eV)
   0   2.0000     -91.887876     -2500.3962
   1   2.0000     -20.601324      -560.5905
   2   2.0000     -20.591352      -560.3192
   3   2.0000     -20.544055      -559.0322
   4   2.0000     -15.628343      -425.2688
   5   2.0000     -15.606365      -424.6708
   6   2.0000     -11.397075      -310.1302
   7   2.0000     -11.382537      -309.7346
   8   2.0000     -11.336963      -308.4944
   9   2.0000     -11.307115      -307.6822
  10   2.0000     -11.304876      -307.6213
  11   2.0000     -11.304616      -307.6142
  12   2.0000     -11.260609      -306.4167
  13   2.0000     -11.258360      -306.3556
  14   2.0000     -11.252948      -306.2083
  15   2.0000     -11.247186      -306.0515
  16   2.0000     -11.236880      -305.7711
  17   2.0000     -11.233058      -305.6671
  18   2.0000     -11.229822      -305.5790
  19   2.0000     -11.225938      -305.4733
  20   2.0000      -8.892937      -241.9891
  21   2.0000      -6.574515      -178.9016
  22   2.0000      -6.572509      -178.8471
  23   2.0000      -6.571923      -178.8311
  24   2.0000      -1.449834       -39.4520
  25   2.0000      -1.411095       -38.3978
  26   2.0000      -1.356124       -36.9020
  27   2.0000      -1.339255       -36.4430
  28   2.0000      -1.236737       -33.6533
  29   2.0000      -1.151638       -31.3377
  30   2.0000      -1.118658       -30.4402
  31   2.0000      -1.041478       -28.3401
  32   2.0000      -1.033934       -28.1348
  33   2.0000      -1.009062       -27.4580
  34   2.0000      -0.997034       -27.1307
  35   2.0000      -0.982416       -26.7329
  36   2.0000      -0.921138       -25.0654
  37   2.0000      -0.897209       -24.4143
  38   2.0000      -0.847760       -23.0687
  39   2.0000      -0.835278       -22.7291
  40   2.0000      -0.827431       -22.5156
  41   2.0000      -0.816186       -22.2096
  42   2.0000      -0.746409       -20.3108
  43   2.0000      -0.732566       -19.9341
  44   2.0000      -0.724304       -19.7093
  45   2.0000      -0.690004       -18.7760
  46   2.0000      -0.684958       -18.6387
  47   2.0000      -0.678208       -18.4550
  48   2.0000      -0.671163       -18.2633
  49   2.0000      -0.658439       -17.9170
  50   2.0000      -0.650052       -17.6888
  51   2.0000      -0.643829       -17.5195
  52   2.0000      -0.631799       -17.1921
  53   2.0000      -0.615107       -16.7379
  54   2.0000      -0.600105       -16.3297
  55   2.0000      -0.599140       -16.3034
  56   2.0000      -0.594821       -16.1859
  57   2.0000      -0.580271       -15.7900
  58   2.0000      -0.573075       -15.5942
  59   2.0000      -0.565086       -15.3768
  60   2.0000      -0.557478       -15.1698
  61   2.0000      -0.542292       -14.7565
  62   2.0000      -0.538411       -14.6509
  63   2.0000      -0.524441       -14.2708
  64   2.0000      -0.516120       -14.0443
  65   2.0000      -0.510312       -13.8863
  66   2.0000      -0.501646       -13.6505
  67   2.0000      -0.495061       -13.4713
  68   2.0000      -0.479008       -13.0345
  69   2.0000      -0.463365       -12.6088
  70   2.0000      -0.456490       -12.4217
  71   2.0000      -0.449720       -12.2375
  72   2.0000      -0.353914        -9.6305
  73   2.0000      -0.343661        -9.3515
  74   2.0000      -0.326986        -8.8978
  75   2.0000      -0.315421        -8.5830
  76   2.0000      -0.313192        -8.5224
  77   0.0000       0.075612         2.0575
  78   0.0000       0.113551         3.0899
  79   0.0000       0.121788         3.3140
  80   0.0000       0.136314         3.7093
  81   0.0000       0.140786         3.8310

MULLIKEN ATOMIC CHARGES
-----------------------
   0 C :   -0.310467
   1 C :    0.044246
   2 O :   -0.350598
   3 C :    0.457971
   4 O :   -0.435382
   5 C :   -0.180297
   6 C :    0.143550
   7 C :   -0.281391
   8 N :   -0.120413
   9 C :    0.201170
  10 S :   -0.439197
  11 N :   -0.197262
  12 C :    0.036699
  13 C :    0.058814
  14 C :   -0.162938
  15 C :   -0.133824
  16 C :   -0.279074
  17 C :    0.311687
  18 O :   -0.359235
  19 C :   -0.275097
  20 H :    0.130429
  21 H :    0.096926
  22 H :    0.097522
  23 H :    0.097723
  24 H :    0.103832
  25 H :    0.124464
  26 H :    0.128791
  27 H :    0.101407
  28 H :    0.196626
  29 H :    0.193648
  30 H :    0.154156
  31 H :    0.153887
  32 H :    0.158932
  33 H :    0.127925
  34 H :    0.240042
  35 H :    0.164732
Sum of atomic charges:   -0.0000000

LOEWDIN ATOMIC CHARGES
----------------------
   0 C :    0.105173
   1 C :   -0.011906
   2 O :    0.298532
   3 C :   -0.414670
   4 O :    0.106508
   5 C :   -0.090918
   6 C :   -0.063596
   7 C :    0.124767
   8 N :    0.405006
   9 C :   -0.459336
  10 S :   -0.035982
  11 N :    0.398201
  12 C :   -0.046806
  13 C :   -0.038857
  14 C :    0.022272
  15 C :    0.040582
  16 C :   -0.002476
  17 C :   -0.192901
  18 O :    0.392877
  19 C :    0.027929
  20 H :   -0.024336
  21 H :   -0.027217
  22 H :   -0.027679
  23 H :   -0.028476
  24 H :   -0.025420
  25 H :   -0.010154
  26 H :   -0.007961
  27 H :   -0.021607
  28 H :   -0.059355
  29 H :   -0.063555
  30 H :   -0.005434
  31 H :   -0.025263
  32 H :   -0.021330
  33 H :   -0.036469
  34 H :   -0.154936
  35 H :   -0.025209

  Mayer bond orders larger than 0.100000
B(  0-C ,  1-C ) :   0.9610 B(  0-C , 20-H ) :   0.9714 B(  0-C , 21-H ) :   0.9764
B(  0-C , 22-H ) :   0.9750 B(  1-C ,  2-O ) :   0.9015 B(  1-C , 23-H ) :   0.9820
B(  1-C , 24-H ) :   0.9839 B(  2-O ,  3-C ) :   1.1602 B(  3-C ,  4-O ) :   1.9659
B(  3-C ,  5-C ) :   1.0590 B(  5-C ,  6-C ) :   1.6412 B(  5-C , 12-C ) :   0.9664
B(  6-C ,  7-C ) :   0.9571 B(  6-C ,  8-N ) :   1.1531 B(  7-C , 25-H ) :   0.9650
B(  7-C , 26-H ) :   0.9633 B(  7-C , 27-H ) :   0.9919 B(  8-N ,  9-C ) :   1.1769
B(  8-N , 28-H ) :   0.9486 B(  9-C , 10-S ) :   1.6108 B(  9-C , 11-N ) :   1.3055
B( 11-N , 12-C ) :   0.9922 B( 11-N , 29-H ) :   0.9520 B( 12-C , 13-C ) :   0.9460
B( 12-C , 30-H ) :   1.0010 B( 13-C , 14-C ) :   1.3755 B( 13-C , 19-C ) :   1.3684
B( 14-C , 15-C ) :   1.3945 B( 14-C , 31-H ) :   0.9646 B( 15-C , 16-C ) :   1.3621
B( 15-C , 32-H ) :   0.9715 B( 16-C , 17-C ) :   1.3319 B( 16-C , 33-H ) :   0.9860
B( 17-C , 18-O ) :   1.1079 B( 17-C , 19-C ) :   1.3788 B( 18-O , 34-H ) :   0.9806
B( 19-C , 35-H ) :   0.9584

MP2 TOTAL ENERGY:    -1274.343893616 Eh
FINAL SINGLE POINT ENERGY     -1274.343893615707

DIPOLE MOMENT
-------------
                                X             Y             Z
Electronic contribution:     10.31699      10.17636       9.72258
Nuclear contribution   :    -11.90261     -11.39993     -10.80051
                        -----------------------------------------
Total Dipole Moment    :     -1.58562      -1.22356      -1.07793
                        -----------------------------------------
Magnitude (a.u.)       :      2.27447
Magnitude (Debye)      :      5.78125

Rotational constants in cm-1:     0.010665     0.009147     0.005955
Rotational constants in MHz :   319.742023   274.207398   178.524363

                             ****ORCA TERMINATED NORMALLY****
TOTAL RUN TIME: 0 days 1 hours 37 minutes 32 seconds 161 msec
