                         Program Version 5.0.0 -  RELEASE  -
|  1> ! ri-mp2 cc-pvtz cc-pvtz/c TightSCF NoKeepInts
|  2>
|  3> %scf
|  4>   MaxCore 4096
|  5> end
|  6> *xyz  0  1
|  7>     C       15.0664779   15.1826321   16.8479278
|  8>     C       16.3162296   14.2735734   16.8150081
|  9>     O       17.4119803   14.8745534   16.0853812
| 10>     C       17.6280946   16.2220614   15.9731943
| 11>     O       17.5877683   16.7368398   14.8710998
| 12>     C       17.7319365   17.0215036   17.2445245
| 13>     C       17.3239719   18.3148203   17.2940701
| 14>     C       16.5380939   19.0649211   16.2408640
| 15>     N       17.6800205   19.1179615   18.3817983
| 16>     C       18.6640722   18.7953597   19.2799423
| 17>     S       19.2222062   19.8783103   20.3983969
| 18>     N       19.1792395   17.5260544   19.1848980
| 19>     C       18.5572100   16.4387008   18.4067641
| 20>     C       17.7787227   15.5585430   19.3767417
| 21>     C       18.2995868   14.3091906   19.7656333
| 22>     C       17.5974236   13.4908199   20.6664024
| 23>     C       16.3700385   13.9287009   21.1921396
| 24>     C       15.8589886   15.1805760   20.8244139
| 25>     O       14.6765909   15.6093189   21.3324448
| 26>     C       16.5596180   15.9929325   19.9279616
| 27>     H       15.2170405   16.0717920   17.4684066
| 28>     H       14.2143098   14.6328907   17.2658181
| 29>     H       14.7944262   15.5042411   15.8343360
| 30>     H       16.6084635   14.0083934   17.8325415
| 31>     H       16.0516041   13.3319530   16.3168216
| 32>     H       15.7497323   18.4319739   15.8145791
| 33>     H       17.1960895   19.3647913   15.4147334
| 34>     H       16.0558365   19.9669900   16.6352582
| 35>     H       17.3336529   20.0625916   18.4387536
| 36>     H       19.8947586   17.3107814   19.8672922
| 37>     H       19.3634736   15.8348289   17.9663865
| 38>     H       19.2500193   13.9674947   19.3635193
| 39>     H       18.0060985   12.5242369   20.9572422
| 40>     H       15.8246207   13.3001426   21.8887666
| 41>     H       14.3861182   14.9570233   21.9881008
| 42>     H       16.1524853   16.9645014   19.6718374
| 43> *
| 44>
| 45>                          ****END OF INPUT****

CARTESIAN COORDINATES (ANGSTROEM)
---------------------------------
  C     15.066478   15.182632   16.847928
  C     16.316230   14.273573   16.815008
  O     17.411980   14.874553   16.085381
  C     17.628095   16.222061   15.973194
  O     17.587768   16.736840   14.871100
  C     17.731936   17.021504   17.244525
  C     17.323972   18.314820   17.294070
  C     16.538094   19.064921   16.240864
  N     17.680021   19.117961   18.381798
  C     18.664072   18.795360   19.279942
  S     19.222206   19.878310   20.398397
  N     19.179239   17.526054   19.184898
  C     18.557210   16.438701   18.406764
  C     17.778723   15.558543   19.376742
  C     18.299587   14.309191   19.765633
  C     17.597424   13.490820   20.666402
  C     16.370038   13.928701   21.192140
  C     15.858989   15.180576   20.824414
  O     14.676591   15.609319   21.332445
  C     16.559618   15.992932   19.927962
  H     15.217040   16.071792   17.468407
  H     14.214310   14.632891   17.265818
  H     14.794426   15.504241   15.834336
  H     16.608463   14.008393   17.832542
  H     16.051604   13.331953   16.316822
  H     15.749732   18.431974   15.814579
  H     17.196089   19.364791   15.414733
  H     16.055837   19.966990   16.635258
  H     17.333653   20.062592   18.438754
  H     19.894759   17.310781   19.867292
  H     19.363474   15.834829   17.966386
  H     19.250019   13.967495   19.363519
  H     18.006099   12.524237   20.957242
  H     15.824621   13.300143   21.888767
  H     14.386118   14.957023   21.988101
  H     16.152485   16.964501   19.671837

 Total Charge           Charge          ....    0
 Multiplicity           Mult            ....    1
 Number of Electrons    NEL             ....  154
 Basis Dimension        Dim             ....  828

ORBITAL ENERGIES
----------------

  NO   OCC          E(Eh)            E(eV)
   0   2.0000     -91.891585     -2500.4972
   1   2.0000     -20.605211      -560.6963
   2   2.0000     -20.584309      -560.1275
   3   2.0000     -20.547488      -559.1256
   4   2.0000     -15.630772      -425.3349
   5   2.0000     -15.611032      -424.7978
   6   2.0000     -11.393460      -310.0318
   7   2.0000     -11.386165      -309.8333
   8   2.0000     -11.334592      -308.4299
   9   2.0000     -11.323224      -308.1206
  10   2.0000     -11.317093      -307.9538
  11   2.0000     -11.298362      -307.4441
  12   2.0000     -11.268182      -306.6228
  13   2.0000     -11.264478      -306.5220
  14   2.0000     -11.259454      -306.3853
  15   2.0000     -11.254556      -306.2520
  16   2.0000     -11.252140      -306.1863
  17   2.0000     -11.246929      -306.0445
  18   2.0000     -11.246434      -306.0310
  19   2.0000     -11.230097      -305.5865
  20   2.0000      -8.896586      -242.0884
  21   2.0000      -6.578146      -179.0004
  22   2.0000      -6.576158      -178.9464
  23   2.0000      -6.575559      -178.9300
  24   2.0000      -1.441276       -39.2191
  25   2.0000      -1.424830       -38.7716
  26   2.0000      -1.351384       -36.7730
  27   2.0000      -1.342852       -36.5409
  28   2.0000      -1.241914       -33.7942
  29   2.0000      -1.165721       -31.7209
  30   2.0000      -1.122643       -30.5487
  31   2.0000      -1.049472       -28.5576
  32   2.0000      -1.031757       -28.0755
  33   2.0000      -1.024297       -27.8725
  34   2.0000      -1.002261       -27.2729
  35   2.0000      -0.987988       -26.8845
  36   2.0000      -0.927987       -25.2518
  37   2.0000      -0.896781       -24.4027
  38   2.0000      -0.850614       -23.1464
  39   2.0000      -0.848094       -23.0778
  40   2.0000      -0.842048       -22.9133
  41   2.0000      -0.826433       -22.4884
  42   2.0000      -0.748867       -20.3777
  43   2.0000      -0.738542       -20.0967
  44   2.0000      -0.716019       -19.4839
  45   2.0000      -0.704149       -19.1609
  46   2.0000      -0.693644       -18.8750
  47   2.0000      -0.677638       -18.4395
  48   2.0000      -0.672855       -18.3093
  49   2.0000      -0.661755       -18.0073
  50   2.0000      -0.655200       -17.8289
  51   2.0000      -0.650944       -17.7131
  52   2.0000      -0.638175       -17.3656
  53   2.0000      -0.626007       -17.0345
  54   2.0000      -0.615496       -16.7485
  55   2.0000      -0.607123       -16.5206
  56   2.0000      -0.602786       -16.4026
  57   2.0000      -0.584810       -15.9135
  58   2.0000      -0.575767       -15.6674
  59   2.0000      -0.566743       -15.4219
  60   2.0000      -0.548307       -14.9202
  61   2.0000      -0.544566       -14.8184
  62   2.0000      -0.540607       -14.7107
  63   2.0000      -0.535761       -14.5788
  64   2.0000      -0.533037       -14.5047
  65   2.0000      -0.517938       -14.0938
  66   2.0000      -0.508790       -13.8449
  67   2.0000      -0.497046       -13.5253
  68   2.0000      -0.479540       -13.0489
  69   2.0000      -0.470134       -12.7930
  70   2.0000      -0.448274       -12.1981
  71   2.0000      -0.445443       -12.1211
  72   2.0000      -0.359627        -9.7859
  73   2.0000      -0.357202        -9.7200
  74   2.0000      -0.333562        -9.0767
  75   2.0000      -0.328786        -8.9467
  76   2.0000      -0.318229        -8.6595
  77   0.0000       0.070828         1.9273
  78   0.0000       0.102243         2.7822
  79   0.0000       0.119671         3.2564
  80   0.0000       0.125255         3.4084
  81   0.0000       0.130137         3.5412

MULLIKEN ATOMIC CHARGES
-----------------------
   0 C :   -0.339160
   1 C :    0.033836
   2 O :   -0.356511
   3 C :    0.454153
   4 O :   -0.379001
   5 C :   -0.275092
   6 C :    0.156857
   7 C :   -0.277518
   8 N :   -0.127786
   9 C :    0.211339
  10 S :   -0.434335
  11 N :   -0.194410
  12 C :    0.048434
  13 C :    0.066077
  14 C :   -0.195441
  15 C :   -0.128716
  16 C :   -0.275166
  17 C :    0.321569
  18 O :   -0.356905
  19 C :   -0.294551
  20 H :    0.102358
  21 H :    0.115033
  22 H :    0.121932
  23 H :    0.106537
  24 H :    0.124212
  25 H :    0.123044
  26 H :    0.145316
  27 H :    0.094299
  28 H :    0.198521
  29 H :    0.190357
  30 H :    0.149776
  31 H :    0.150372
  32 H :    0.163982
  33 H :    0.134490
  34 H :    0.242901
  35 H :    0.179197
Sum of atomic charges:    0.0000000

LOEWDIN ATOMIC CHARGES
----------------------
   0 C :    0.104298
   1 C :   -0.011908
   2 O :    0.284258
   3 C :   -0.424364
   4 O :    0.127844
   5 C :   -0.095309
   6 C :   -0.069033
   7 C :    0.129486
   8 N :    0.406738
   9 C :   -0.455120
  10 S :   -0.031017
  11 N :    0.396388
  12 C :   -0.052463
  13 C :   -0.040538
  14 C :    0.010382
  15 C :    0.043144
  16 C :    0.000441
  17 C :   -0.189319
  18 O :    0.397136
  19 C :    0.034342
  20 H :   -0.037674
  21 H :   -0.021692
  22 H :   -0.025061
  23 H :   -0.038479
  24 H :   -0.022306
  25 H :   -0.008199
  26 H :   -0.002103
  27 H :   -0.022388
  28 H :   -0.057422
  29 H :   -0.066128
  30 H :   -0.004436
  31 H :   -0.029498
  32 H :   -0.018831
  33 H :   -0.033502
  34 H :   -0.151701
  35 H :   -0.025964

  Mayer bond orders larger than 0.100000
B(  0-C ,  1-C ) :   0.9610 B(  0-C , 20-H ) :   0.9683 B(  0-C , 21-H ) :   0.9764
B(  0-C , 22-H ) :   0.9737 B(  1-C ,  2-O ) :   0.9026 B(  1-C , 23-H ) :   0.9659
B(  1-C , 24-H ) :   0.9829 B(  2-O ,  3-C ) :   1.1507 B(  3-C ,  4-O ) :   2.0797
B(  3-C ,  5-C ) :   0.9784 B(  5-C ,  6-C ) :   1.6724 B(  5-C , 12-C ) :   0.9763
B(  6-C ,  7-C ) :   0.9646 B(  6-C ,  8-N ) :   1.1428 B(  7-C , 25-H ) :   0.9701
B(  7-C , 26-H ) :   0.9556 B(  7-C , 27-H ) :   0.9845 B(  8-N ,  9-C ) :   1.1811
B(  8-N , 28-H ) :   0.9498 B(  9-C , 10-S ) :   1.6174 B(  9-C , 11-N ) :   1.2953
B( 11-N , 12-C ) :   0.9663 B( 11-N , 29-H ) :   0.9550 B( 12-C , 13-C ) :   0.9522
B( 12-C , 30-H ) :   1.0023 B( 13-C , 14-C ) :   1.3434 B( 13-C , 19-C ) :   1.3609
B( 14-C , 15-C ) :   1.3931 B( 14-C , 31-H ) :   0.9753 B( 15-C , 16-C ) :   1.3684
B( 15-C , 32-H ) :   0.9697 B( 16-C , 17-C ) :   1.3266 B( 16-C , 33-H ) :   0.9830
B( 17-C , 18-O ) :   1.1153 B( 17-C , 19-C ) :   1.3720 B( 18-O , 34-H ) :   0.9786
B( 19-C , 35-H ) :   0.9511

MP2 TOTAL ENERGY:    -1274.327603935 Eh
FINAL SINGLE POINT ENERGY     -1274.327603935297

DIPOLE MOMENT
-------------
                                X             Y             Z
Electronic contribution:     10.02364       7.21010       5.05445
Nuclear contribution   :    -11.34882      -8.85076      -4.42749
                        -----------------------------------------
Total Dipole Moment    :     -1.32517      -1.64066       0.62695
                        -----------------------------------------
Magnitude (a.u.)       :      2.20021
Magnitude (Debye)      :      5.59249

Rotational constants in cm-1:     0.011546     0.009956     0.006790
Rotational constants in MHz :   346.136993   298.468500   203.568967

                             ****ORCA TERMINATED NORMALLY****
TOTAL RUN TIME: 0 days 2 hours 21 minutes 14 seconds 367 msec
