                         Program Version 4.2.0 -  RELEASE  -
|  1> ! ri-mp2 cc-pvtz cc-pvtz/c TightSCF  NoKeepInts
|  2>
|  3> %scf
|  4>   MaxCore 4096
|  5> end
|  6> *xyz  0  1
|  7>     C       15.0025379   14.6639482   16.7255925
|  8>     C       16.4317051   14.0770354   16.7737579
|  9>     O       17.4660725   15.0012027   16.3462808
| 10>     C       17.2409989   16.3391001   16.1749591
| 11>     O       16.5931218   16.7473557   15.2274957
| 12>     C       17.7068328   17.1954165   17.3225143
| 13>     C       17.4408423   18.5259649   17.3865864
| 14>     C       16.6194008   19.3483568   16.4166852
| 15>     N       17.9830750   19.2999985   18.4171302
| 16>     C       18.9328507   18.8639349   19.3018587
| 17>     S       19.6473261   19.8802783   20.3938411
| 18>     N       19.2742650   17.5380196   19.2242072
| 19>     C       18.5612426   16.5319658   18.4170474
| 20>     C       17.7577774   15.6340765   19.3515323
| 21>     C       18.2917025   14.4010179   19.7717355
| 22>     C       17.5639468   13.5628330   20.6331242
| 23>     C       16.2947457   13.9633263   21.0841162
| 24>     C       15.7670314   15.1974676   20.6811474
| 25>     O       14.5435102   15.5891221   21.1167637
| 26>     C       16.4936420   16.0301726   19.8248358
| 27>     H       14.9064188   15.5420643   17.3757964
| 28>     H       14.2766553   13.9165028   17.0675311
| 29>     H       14.7288420   14.9499300   15.7019950
| 30>     H       16.6347147   13.7433900   17.7972478
| 31>     H       16.4711310   13.1851563   16.1352933
| 32>     H       15.6106949   18.9289071   16.3116921
| 33>     H       17.0804710   19.3427458   15.4206010
| 34>     H       16.5103033   20.3945313   16.7255633
| 35>     H       17.7526673   20.2789553   18.4779377
| 36>     H       19.9588135   17.2401697   19.9070736
| 37>     H       19.3180000   15.9133525   17.9138379
| 38>     H       19.2731583   14.0886037   19.4244184
| 39>     H       17.9843874   12.6098107   20.9504420
| 40>     H       15.7290216   13.3195879   21.7499178
| 41>     H       14.2292041   14.9214807   21.7452344
| 42>     H       16.0698893   16.9862185   19.5382065
| 43> *
| 44>
| 45>                          ****END OF INPUT****

CARTESIAN COORDINATES (ANGSTROEM)
---------------------------------
  C     15.002538   14.663948   16.725593
  C     16.431705   14.077035   16.773758
  O     17.466072   15.001203   16.346281
  C     17.240999   16.339100   16.174959
  O     16.593122   16.747356   15.227496
  C     17.706833   17.195417   17.322514
  C     17.440842   18.525965   17.386586
  C     16.619401   19.348357   16.416685
  N     17.983075   19.299999   18.417130
  C     18.932851   18.863935   19.301859
  S     19.647326   19.880278   20.393841
  N     19.274265   17.538020   19.224207
  C     18.561243   16.531966   18.417047
  C     17.757777   15.634077   19.351532
  C     18.291702   14.401018   19.771735
  C     17.563947   13.562833   20.633124
  C     16.294746   13.963326   21.084116
  C     15.767031   15.197468   20.681147
  O     14.543510   15.589122   21.116764
  C     16.493642   16.030173   19.824836
  H     14.906419   15.542064   17.375796
  H     14.276655   13.916503   17.067531
  H     14.728842   14.949930   15.701995
  H     16.634715   13.743390   17.797248
  H     16.471131   13.185156   16.135293
  H     15.610695   18.928907   16.311692
  H     17.080471   19.342746   15.420601
  H     16.510303   20.394531   16.725563
  H     17.752667   20.278955   18.477938
  H     19.958813   17.240170   19.907074
  H     19.318000   15.913353   17.913838
  H     19.273158   14.088604   19.424418
  H     17.984387   12.609811   20.950442
  H     15.729022   13.319588   21.749918
  H     14.229204   14.921481   21.745234
  H     16.069889   16.986218   19.538207

 Total Charge           Charge          ....    0
 Multiplicity           Mult            ....    1
 Number of Electrons    NEL             ....  154
 Basis Dimension        Dim             ....  828

ORBITAL ENERGIES
----------------

  NO   OCC          E(Eh)            E(eV)
   0   2.0000     -91.890445     -2500.4661
   1   2.0000     -20.603355      -560.6458
   2   2.0000     -20.581011      -560.0378
   3   2.0000     -20.544550      -559.0456
   4   2.0000     -15.630983      -425.3407
   5   2.0000     -15.609699      -424.7615
   6   2.0000     -11.392999      -310.0193
   7   2.0000     -11.385224      -309.8077
   8   2.0000     -11.337597      -308.5117
   9   2.0000     -11.320889      -308.0571
  10   2.0000     -11.311652      -307.8057
  11   2.0000     -11.297191      -307.4122
  12   2.0000     -11.265560      -306.5515
  13   2.0000     -11.262241      -306.4612
  14   2.0000     -11.258874      -306.3695
  15   2.0000     -11.253368      -306.2197
  16   2.0000     -11.249589      -306.1169
  17   2.0000     -11.244160      -305.9691
  18   2.0000     -11.244116      -305.9680
  19   2.0000     -11.224454      -305.4329
  20   2.0000      -8.895484      -242.0584
  21   2.0000      -6.577053      -178.9707
  22   2.0000      -6.575054      -178.9163
  23   2.0000      -6.574463      -178.9002
  24   2.0000      -1.440707       -39.2036
  25   2.0000      -1.422956       -38.7206
  26   2.0000      -1.349174       -36.7129
  27   2.0000      -1.342150       -36.5218
  28   2.0000      -1.240773       -33.7632
  29   2.0000      -1.163468       -31.6596
  30   2.0000      -1.121579       -30.5197
  31   2.0000      -1.046916       -28.4880
  32   2.0000      -1.030339       -28.0369
  33   2.0000      -1.021920       -27.8079
  34   2.0000      -0.998789       -27.1784
  35   2.0000      -0.986253       -26.8373
  36   2.0000      -0.925807       -25.1925
  37   2.0000      -0.894296       -24.3350
  38   2.0000      -0.849800       -23.1242
  39   2.0000      -0.843941       -22.9648
  40   2.0000      -0.839451       -22.8426
  41   2.0000      -0.821834       -22.3632
  42   2.0000      -0.745323       -20.2813
  43   2.0000      -0.735716       -20.0199
  44   2.0000      -0.717137       -19.5143
  45   2.0000      -0.701758       -19.0958
  46   2.0000      -0.691427       -18.8147
  47   2.0000      -0.673515       -18.3273
  48   2.0000      -0.669731       -18.2243
  49   2.0000      -0.660746       -17.9798
  50   2.0000      -0.654538       -17.8109
  51   2.0000      -0.646326       -17.5874
  52   2.0000      -0.638585       -17.3768
  53   2.0000      -0.623318       -16.9613
  54   2.0000      -0.613927       -16.7058
  55   2.0000      -0.604884       -16.4597
  56   2.0000      -0.601904       -16.3786
  57   2.0000      -0.582972       -15.8635
  58   2.0000      -0.572400       -15.5758
  59   2.0000      -0.567526       -15.4432
  60   2.0000      -0.546387       -14.8680
  61   2.0000      -0.540697       -14.7131
  62   2.0000      -0.535769       -14.5790
  63   2.0000      -0.531519       -14.4634
  64   2.0000      -0.524928       -14.2840
  65   2.0000      -0.515665       -14.0320
  66   2.0000      -0.505813       -13.7639
  67   2.0000      -0.492921       -13.4131
  68   2.0000      -0.486588       -13.2407
  69   2.0000      -0.463367       -12.6088
  70   2.0000      -0.453535       -12.3413
  71   2.0000      -0.440914       -11.9979
  72   2.0000      -0.357152        -9.7186
  73   2.0000      -0.355853        -9.6833
  74   2.0000      -0.331408        -9.0181
  75   2.0000      -0.327166        -8.9026
  76   2.0000      -0.317901        -8.6505
  77   0.0000       0.071045         1.9332
  78   0.0000       0.100930         2.7465
  79   0.0000       0.120787         3.2868
  80   0.0000       0.127323         3.4646
  81   0.0000       0.130805         3.5594

MULLIKEN ATOMIC CHARGES
-----------------------
   0 C :   -0.319548
   1 C :    0.033066
   2 O :   -0.396328
   3 C :    0.501961
   4 O :   -0.409498
   5 C :   -0.285526
   6 C :    0.165281
   7 C :   -0.270450
   8 N :   -0.124128
   9 C :    0.217048
  10 S :   -0.439651
  11 N :   -0.208403
  12 C :    0.065791
  13 C :    0.052208
  14 C :   -0.191383
  15 C :   -0.131326
  16 C :   -0.273687
  17 C :    0.318240
  18 O :   -0.358076
  19 C :   -0.274885
  20 H :    0.098231
  21 H :    0.107384
  22 H :    0.127934
  23 H :    0.107967
  24 H :    0.117261
  25 H :    0.128566
  26 H :    0.136080
  27 H :    0.095129
  28 H :    0.197969
  29 H :    0.193681
  30 H :    0.151415
  31 H :    0.150260
  32 H :    0.163428
  33 H :    0.133662
  34 H :    0.242652
  35 H :    0.177676
Sum of atomic charges:   -0.0000000

LOEWDIN ATOMIC CHARGES
----------------------
   0 C :    0.104836
   1 C :   -0.009547
   2 O :    0.279647
   3 C :   -0.420730
   4 O :    0.117268
   5 C :   -0.099484
   6 C :   -0.058009
   7 C :    0.131210
   8 N :    0.407620
   9 C :   -0.454936
  10 S :   -0.034118
  11 N :    0.396199
  12 C :   -0.052825
  13 C :   -0.036303
  14 C :    0.011730
  15 C :    0.041990
  16 C :   -0.001620
  17 C :   -0.189235
  18 O :    0.396682
  19 C :    0.031965
  20 H :   -0.031537
  21 H :   -0.023698
  22 H :   -0.024134
  23 H :   -0.032862
  24 H :   -0.026288
  25 H :   -0.005841
  26 H :   -0.002633
  27 H :   -0.023295
  28 H :   -0.057291
  29 H :   -0.065868
  30 H :   -0.007437
  31 H :   -0.029529
  32 H :   -0.019440
  33 H :   -0.034227
  34 H :   -0.152079
  35 H :   -0.026183

  Mayer bond orders larger than 0.100000
B(  0-C ,  1-C ) :   0.9691 B(  0-C , 20-H ) :   0.9720 B(  0-C , 21-H ) :   0.9744
B(  0-C , 22-H ) :   0.9713 B(  1-C ,  2-O ) :   0.8901 B(  1-C , 23-H ) :   0.9697
B(  1-C , 24-H ) :   0.9839 B(  2-O ,  3-C ) :   1.0968 B(  3-C ,  4-O ) :   2.0131
B(  3-C ,  5-C ) :   1.0611 B(  5-C ,  6-C ) :   1.6446 B(  5-C , 12-C ) :   0.9723
B(  6-C ,  7-C ) :   0.9683 B(  6-C ,  8-N ) :   1.1618 B(  7-C , 25-H ) :   0.9628
B(  7-C , 26-H ) :   0.9572 B(  7-C , 27-H ) :   0.9893 B(  8-N ,  9-C ) :   1.1824
B(  8-N , 28-H ) :   0.9478 B(  9-C , 10-S ) :   1.6049 B(  9-C , 11-N ) :   1.3070
B( 11-N , 12-C ) :   0.9617 B( 11-N , 29-H ) :   0.9528 B( 12-C , 13-C ) :   0.9502
B( 12-C , 30-H ) :   1.0007 B( 13-C , 14-C ) :   1.3455 B( 13-C , 19-C ) :   1.3606
B( 14-C , 15-C ) :   1.3983 B( 14-C , 31-H ) :   0.9745 B( 15-C , 16-C ) :   1.3613
B( 15-C , 32-H ) :   0.9699 B( 16-C , 17-C ) :   1.3317 B( 16-C , 33-H ) :   0.9838
B( 17-C , 18-O ) :   1.1122 B( 17-C , 19-C ) :   1.3653 B( 18-O , 34-H ) :   0.9789
B( 19-C , 35-H ) :   0.9541

MP2 TOTAL ENERGY:    -1274.332618672 Eh
FINAL SINGLE POINT ENERGY     -1274.332618671680

DIPOLE MOMENT
-------------
                                X             Y             Z
Electronic contribution:      9.93863       8.59838       5.51877
Nuclear contribution   :    -10.97858     -10.20738      -5.23075
                        -----------------------------------------
Total Dipole Moment    :     -1.03996      -1.60900       0.28802
                        -----------------------------------------
Magnitude (a.u.)       :      1.93736
Magnitude (Debye)      :      4.92437

Rotational constants in cm-1:     0.012345     0.009197     0.006639
Rotational constants in MHz :   370.085504   275.731835   199.026192

                             ****ORCA TERMINATED NORMALLY****
TOTAL RUN TIME: 0 days 1 hours 48 minutes 54 seconds 529 msec
