                         Program Version 4.2.0 -  RELEASE  -
|  1> ! ri-mp2 cc-pvtz cc-pvtz/c TightSCF  NoKeepInts
|  2>
|  3> %scf
|  4>   MaxCore 4096
|  5> end
|  6> *xyz  0  1
|  7>     C       14.6372411   15.5955585   17.1512155
|  8>     C       15.8213679   14.7860531   16.5939617
|  9>     O       16.6792151   15.6814722   15.8618617
| 10>     C       17.9358122   15.8779033   16.3528116
| 11>     O       18.7062817   14.9372913   16.4405821
| 12>     C       17.9624540   16.9888958   17.3555895
| 13>     C       17.3348165   18.1738197   17.1604118
| 14>     C       16.5628716   18.6045836   15.9311080
| 15>     N       17.4335427   19.1799940   18.1254422
| 16>     C       18.2417013   19.1233950   19.2311452
| 17>     S       18.3825348   20.4006770   20.2720731
| 18>     N       18.9269771   17.9505784   19.4324662
| 19>     C       18.7478950   16.7177429   18.6409304
| 20>     C       18.0551233   15.6387040   19.4688787
| 21>     C       18.6054100   14.3470854   19.5601833
| 22>     C       17.9549834   13.3412923   20.2943544
| 23>     C       16.7412597   13.6274802   20.9420691
| 24>     C       16.1880064   14.9116720   20.8513399
| 25>     O       15.0092138   15.1884109   21.4632393
| 26>     C       16.8386425   15.9109317   20.1213336
| 27>     H       14.9845609   16.3724619   17.8425073
| 28>     H       13.9509005   14.9386212   17.6993601
| 29>     H       14.0775870   16.0740691   16.3382845
| 30>     H       16.3592403   14.2943862   17.4173839
| 31>     H       15.4468826   14.0047644   15.9200915
| 32>     H       15.5325779   18.2311061   15.9676199
| 33>     H       17.0260370   18.2148269   15.0160040
| 34>     H       16.5224217   19.6958164   15.8274206
| 35>     H       16.9407312   20.0491102   17.9939830
| 36>     H       19.4942129   17.9273080   20.2702654
| 37>     H       19.7453139   16.3518208   18.3568450
| 38>     H       19.5325972   14.1168451   19.0403406
| 39>     H       18.3890118   12.3445071   20.3517341
| 40>     H       16.2338084   12.8522486   21.5066596
| 41>     H       14.7533646   14.4026753   21.9697318
| 42>     H       16.3924021   16.8978917   20.0647717
| 43> *
| 44>
| 45>                          ****END OF INPUT****

CARTESIAN COORDINATES (ANGSTROEM)
---------------------------------
  C     14.637241   15.595558   17.151215
  C     15.821368   14.786053   16.593962
  O     16.679215   15.681472   15.861862
  C     17.935812   15.877903   16.352812
  O     18.706282   14.937291   16.440582
  C     17.962454   16.988896   17.355590
  C     17.334816   18.173820   17.160412
  C     16.562872   18.604584   15.931108
  N     17.433543   19.179994   18.125442
  C     18.241701   19.123395   19.231145
  S     18.382535   20.400677   20.272073
  N     18.926977   17.950578   19.432466
  C     18.747895   16.717743   18.640930
  C     18.055123   15.638704   19.468879
  C     18.605410   14.347085   19.560183
  C     17.954983   13.341292   20.294354
  C     16.741260   13.627480   20.942069
  C     16.188006   14.911672   20.851340
  O     15.009214   15.188411   21.463239
  C     16.838642   15.910932   20.121334
  H     14.984561   16.372462   17.842507
  H     13.950900   14.938621   17.699360
  H     14.077587   16.074069   16.338285
  H     16.359240   14.294386   17.417384
  H     15.446883   14.004764   15.920091
  H     15.532578   18.231106   15.967620
  H     17.026037   18.214827   15.016004
  H     16.522422   19.695816   15.827421
  H     16.940731   20.049110   17.993983
  H     19.494213   17.927308   20.270265
  H     19.745314   16.351821   18.356845
  H     19.532597   14.116845   19.040341
  H     18.389012   12.344507   20.351734
  H     16.233808   12.852249   21.506660
  H     14.753365   14.402675   21.969732
  H     16.392402   16.897892   20.064772

 Total Charge           Charge          ....    0
 Multiplicity           Mult            ....    1
 Number of Electrons    NEL             ....  154
 Basis Dimension        Dim             ....  828

ORBITAL ENERGIES
----------------

  NO   OCC          E(Eh)            E(eV)
   0   2.0000     -91.889978     -2500.4534
   1   2.0000     -20.598663      -560.5181
   2   2.0000     -20.579922      -560.0081
   3   2.0000     -20.557211      -559.3902
   4   2.0000     -15.629161      -425.2911
   5   2.0000     -15.609872      -424.7662
   6   2.0000     -11.394087      -310.0489
   7   2.0000     -11.385695      -309.8205
   8   2.0000     -11.332571      -308.3749
   9   2.0000     -11.314945      -307.8953
  10   2.0000     -11.311002      -307.7880
  11   2.0000     -11.298427      -307.4458
  12   2.0000     -11.260946      -306.4259
  13   2.0000     -11.260449      -306.4124
  14   2.0000     -11.260145      -306.4041
  15   2.0000     -11.255045      -306.2654
  16   2.0000     -11.244863      -305.9883
  17   2.0000     -11.240538      -305.8706
  18   2.0000     -11.237579      -305.7901
  19   2.0000     -11.228950      -305.5553
  20   2.0000      -8.895052      -242.0467
  21   2.0000      -6.576629      -178.9592
  22   2.0000      -6.574619      -178.9045
  23   2.0000      -6.574034      -178.8886
  24   2.0000      -1.451897       -39.5081
  25   2.0000      -1.418417       -38.5971
  26   2.0000      -1.355695       -36.8903
  27   2.0000      -1.340523       -36.4775
  28   2.0000      -1.239079       -33.7171
  29   2.0000      -1.159113       -31.5411
  30   2.0000      -1.122838       -30.5540
  31   2.0000      -1.046495       -28.4766
  32   2.0000      -1.033343       -28.1187
  33   2.0000      -1.016601       -27.6631
  34   2.0000      -1.000882       -27.2354
  35   2.0000      -0.987361       -26.8674
  36   2.0000      -0.925355       -25.1802
  37   2.0000      -0.884575       -24.0705
  38   2.0000      -0.849061       -23.1041
  39   2.0000      -0.840474       -22.8705
  40   2.0000      -0.835271       -22.7289
  41   2.0000      -0.825435       -22.4612
  42   2.0000      -0.756377       -20.5821
  43   2.0000      -0.736070       -20.0295
  44   2.0000      -0.729915       -19.8620
  45   2.0000      -0.696958       -18.9652
  46   2.0000      -0.687027       -18.6950
  47   2.0000      -0.680016       -18.5042
  48   2.0000      -0.675849       -18.3908
  49   2.0000      -0.658534       -17.9196
  50   2.0000      -0.655449       -17.8357
  51   2.0000      -0.645274       -17.5588
  52   2.0000      -0.637622       -17.3506
  53   2.0000      -0.608138       -16.5483
  54   2.0000      -0.605418       -16.4743
  55   2.0000      -0.602572       -16.3968
  56   2.0000      -0.595941       -16.2164
  57   2.0000      -0.578902       -15.7527
  58   2.0000      -0.577756       -15.7215
  59   2.0000      -0.573737       -15.6122
  60   2.0000      -0.563027       -15.3207
  61   2.0000      -0.550966       -14.9925
  62   2.0000      -0.544593       -14.8191
  63   2.0000      -0.523909       -14.2563
  64   2.0000      -0.515517       -14.0279
  65   2.0000      -0.508926       -13.8486
  66   2.0000      -0.504998       -13.7417
  67   2.0000      -0.499731       -13.5984
  68   2.0000      -0.483568       -13.1586
  69   2.0000      -0.466163       -12.6849
  70   2.0000      -0.455761       -12.4019
  71   2.0000      -0.452101       -12.3023
  72   2.0000      -0.354991        -9.6598
  73   2.0000      -0.350593        -9.5401
  74   2.0000      -0.329333        -8.9616
  75   2.0000      -0.322498        -8.7756
  76   2.0000      -0.317019        -8.6265
  77   0.0000       0.069421         1.8890
  78   0.0000       0.102009         2.7758
  79   0.0000       0.119404         3.2492
  80   0.0000       0.128864         3.5066
  81   0.0000       0.134406         3.6574

MULLIKEN ATOMIC CHARGES
-----------------------
   0 C :   -0.315023
   1 C :    0.038160
   2 O :   -0.381087
   3 C :    0.459563
   4 O :   -0.391006
   5 C :   -0.196208
   6 C :    0.126631
   7 C :   -0.281816
   8 N :   -0.123694
   9 C :    0.196312
  10 S :   -0.438155
  11 N :   -0.202298
  12 C :    0.055058
  13 C :    0.027958
  14 C :   -0.162186
  15 C :   -0.134662
  16 C :   -0.279162
  17 C :    0.320104
  18 O :   -0.360993
  19 C :   -0.291531
  20 H :    0.100721
  21 H :    0.117657
  22 H :    0.105517
  23 H :    0.105736
  24 H :    0.117199
  25 H :    0.126571
  26 H :    0.124197
  27 H :    0.108903
  28 H :    0.197742
  29 H :    0.194480
  30 H :    0.157978
  31 H :    0.160890
  32 H :    0.162504
  33 H :    0.132489
  34 H :    0.241480
  35 H :    0.179970
Sum of atomic charges:   -0.0000000

LOEWDIN ATOMIC CHARGES
----------------------
   0 C :    0.102987
   1 C :   -0.009983
   2 O :    0.283791
   3 C :   -0.420157
   4 O :    0.134108
   5 C :   -0.094024
   6 C :   -0.078584
   7 C :    0.127639
   8 N :    0.404314
   9 C :   -0.457563
  10 S :   -0.035458
  11 N :    0.396958
  12 C :   -0.045013
  13 C :   -0.043269
  14 C :    0.020885
  15 C :    0.041674
  16 C :   -0.001976
  17 C :   -0.194264
  18 O :    0.394478
  19 C :    0.029926
  20 H :   -0.032265
  21 H :   -0.022390
  22 H :   -0.030929
  23 H :   -0.024720
  24 H :   -0.025972
  25 H :   -0.011138
  26 H :   -0.007627
  27 H :   -0.018388
  28 H :   -0.058407
  29 H :   -0.064074
  30 H :   -0.004009
  31 H :   -0.023673
  32 H :   -0.019592
  33 H :   -0.034993
  34 H :   -0.153374
  35 H :   -0.024917

  Mayer bond orders larger than 0.100000
B(  0-C ,  1-C ) :   0.9670 B(  0-C , 20-H ) :   0.9733 B(  0-C , 21-H ) :   0.9777
B(  0-C , 22-H ) :   0.9768 B(  1-C ,  2-O ) :   0.8827 B(  1-C , 23-H ) :   0.9672
B(  1-C , 24-H ) :   0.9859 B(  2-O ,  3-C ) :   1.0908 B(  3-C ,  4-O ) :   2.0452
B(  3-C ,  5-C ) :   1.0034 B(  5-C ,  6-C ) :   1.6761 B(  5-C , 12-C ) :   0.9608
B(  6-C ,  7-C ) :   0.9545 B(  6-C ,  8-N ) :   1.1314 B(  7-C , 25-H ) :   0.9616
B(  7-C , 26-H ) :   0.9713 B(  7-C , 27-H ) :   0.9868 B(  8-N ,  9-C ) :   1.1856
B(  8-N , 28-H ) :   0.9499 B(  9-C , 10-S ) :   1.6143 B(  9-C , 11-N ) :   1.2955
B( 11-N , 12-C ) :   0.9927 B( 11-N , 29-H ) :   0.9516 B( 12-C , 13-C ) :   0.9454
B( 12-C , 30-H ) :   0.9980 B( 13-C , 14-C ) :   1.3826 B( 13-C , 19-C ) :   1.3525
B( 14-C , 15-C ) :   1.3953 B( 14-C , 31-H ) :   0.9622 B( 15-C , 16-C ) :   1.3629
B( 15-C , 32-H ) :   0.9708 B( 16-C , 17-C ) :   1.3309 B( 16-C , 33-H ) :   0.9842
B( 17-C , 18-O ) :   1.1064 B( 17-C , 19-C ) :   1.3714 B( 18-O , 34-H ) :   0.9798
B( 19-C , 35-H ) :   0.9538

MP2 TOTAL ENERGY:    -1274.321159751 Eh
FINAL SINGLE POINT ENERGY     -1274.321159750975

DIPOLE MOMENT
-------------
                                X             Y             Z
Electronic contribution:     10.44054       7.10955       5.77909
Nuclear contribution   :    -11.62546      -8.37984      -6.29058
                        -----------------------------------------
Total Dipole Moment    :     -1.18492      -1.27029      -0.51149
                        -----------------------------------------
Magnitude (a.u.)       :      1.81089
Magnitude (Debye)      :      4.60291

Rotational constants in cm-1:     0.012221     0.009408     0.007116
Rotational constants in MHz :   366.382249   282.042397   213.331470

                             ****ORCA TERMINATED NORMALLY****
TOTAL RUN TIME: 0 days 1 hours 50 minutes 8 seconds 869 msec
