                         Program Version 4.2.0 -  RELEASE  -
|  1> ! ri-mp2 cc-pvtz cc-pvtz/c TightSCF  NoKeepInts
|  2>
|  3> %scf
|  4>   MaxCore 4096
|  5> end
|  6> *xyz  0  1
|  7>     C       15.4261646   13.4720840   15.9216057
|  8>     C       15.7406006   14.5951464   16.9233274
|  9>     O       16.8990767   15.2953543   16.4320244
| 10>     C       16.8193517   16.6523837   16.3209011
| 11>     O       15.9552751   17.1581065   15.6267609
| 12>     C       17.5410315   17.3843930   17.4214889
| 13>     C       17.4204866   18.7252564   17.6032920
| 14>     C       16.5513544   19.6864930   16.8204440
| 15>     N       18.1882502   19.3719552   18.5767613
| 16>     C       19.2122742   18.7907778   19.2757811
| 17>     S       20.1774197   19.6585841   20.3010024
| 18>     N       19.4063072   17.4489559   19.0695721
| 19>     C       18.4900907   16.5712072   18.3197780
| 20>     C       17.7545704   15.6675359   19.3037572
| 21>     C       18.1635059   14.3315634   19.4762696
| 22>     C       17.4935562   13.4898101   20.3800071
| 23>     C       16.4097324   13.9890739   21.1221964
| 24>     C       16.0073626   15.3219598   20.9618485
| 25>     O       14.9630018   15.8079018   21.6783807
| 26>     C       16.6745108   16.1570391   20.0603960
| 27>     H       14.5498514   12.8990616   16.2476904
| 28>     H       16.2754888   12.7835857   15.8324887
| 29>     H       15.2133518   13.8911048   14.9298663
| 30>     H       14.8725147   15.2642572   17.0045036
| 31>     H       15.9367560   14.1653700   17.9126399
| 32>     H       15.4932635   19.4083363   16.9078299
| 33>     H       16.8091490   19.6593543   15.7539643
| 34>     H       16.6487949   20.7253809   17.1567155
| 35>     H       18.0653257   20.3599214   18.7317171
| 36>     H       20.1512820   17.0424631   19.6205666
| 37>     H       19.1022313   15.9369003   17.6629157
| 38>     H       19.0005047   13.9421276   18.9025146
| 39>     H       17.8159212   12.4572416   20.5045821
| 40>     H       15.8902040   13.3430859   21.8225567
| 41>     H       14.6754462   15.1102034   22.2866067
| 42>     H       16.3529913   17.1880242   19.9612473
| 43> *
| 44>
| 45>                          ****END OF INPUT****

CARTESIAN COORDINATES (ANGSTROEM)
---------------------------------
  C     15.426165   13.472084   15.921606
  C     15.740601   14.595146   16.923327
  O     16.899077   15.295354   16.432024
  C     16.819352   16.652384   16.320901
  O     15.955275   17.158106   15.626761
  C     17.541031   17.384393   17.421489
  C     17.420487   18.725256   17.603292
  C     16.551354   19.686493   16.820444
  N     18.188250   19.371955   18.576761
  C     19.212274   18.790778   19.275781
  S     20.177420   19.658584   20.301002
  N     19.406307   17.448956   19.069572
  C     18.490091   16.571207   18.319778
  C     17.754570   15.667536   19.303757
  C     18.163506   14.331563   19.476270
  C     17.493556   13.489810   20.380007
  C     16.409732   13.989074   21.122196
  C     16.007363   15.321960   20.961848
  O     14.963002   15.807902   21.678381
  C     16.674511   16.157039   20.060396
  H     14.549851   12.899062   16.247690
  H     16.275489   12.783586   15.832489
  H     15.213352   13.891105   14.929866
  H     14.872515   15.264257   17.004504
  H     15.936756   14.165370   17.912640
  H     15.493263   19.408336   16.907830
  H     16.809149   19.659354   15.753964
  H     16.648795   20.725381   17.156716
  H     18.065326   20.359921   18.731717
  H     20.151282   17.042463   19.620567
  H     19.102231   15.936900   17.662916
  H     19.000505   13.942128   18.902515
  H     17.815921   12.457242   20.504582
  H     15.890204   13.343086   21.822557
  H     14.675446   15.110203   22.286607
  H     16.352991   17.188024   19.961247

 Total Charge           Charge          ....    0
 Multiplicity           Mult            ....    1
 Number of Electrons    NEL             ....  154
 Basis Dimension        Dim             ....  828

ORBITAL ENERGIES
----------------

  NO   OCC          E(Eh)            E(eV)
   0   2.0000     -91.890526     -2500.4683
   1   2.0000     -20.601693      -560.6006
   2   2.0000     -20.583745      -560.1122
   3   2.0000     -20.546677      -559.1035
   4   2.0000     -15.631113      -425.3442
   5   2.0000     -15.609745      -424.7628
   6   2.0000     -11.393299      -310.0274
   7   2.0000     -11.385344      -309.8110
   8   2.0000     -11.337731      -308.5153
   9   2.0000     -11.319536      -308.0202
  10   2.0000     -11.311647      -307.8056
  11   2.0000     -11.292439      -307.2829
  12   2.0000     -11.264133      -306.5126
  13   2.0000     -11.260905      -306.4248
  14   2.0000     -11.259882      -306.3970
  15   2.0000     -11.253553      -306.2247
  16   2.0000     -11.248276      -306.0811
  17   2.0000     -11.242858      -305.9337
  18   2.0000     -11.242777      -305.9315
  19   2.0000     -11.221405      -305.3500
  20   2.0000      -8.895568      -242.0607
  21   2.0000      -6.577137      -178.9730
  22   2.0000      -6.575138      -178.9186
  23   2.0000      -6.574546      -178.9025
  24   2.0000      -1.448697       -39.4210
  25   2.0000      -1.421339       -38.6766
  26   2.0000      -1.352135       -36.7935
  27   2.0000      -1.342186       -36.5227
  28   2.0000      -1.240704       -33.7613
  29   2.0000      -1.162201       -31.6251
  30   2.0000      -1.121607       -30.5205
  31   2.0000      -1.046061       -28.4648
  32   2.0000      -1.032843       -28.1051
  33   2.0000      -1.020392       -27.7663
  34   2.0000      -0.997600       -27.1461
  35   2.0000      -0.985557       -26.8184
  36   2.0000      -0.925430       -25.1822
  37   2.0000      -0.879456       -23.9312
  38   2.0000      -0.849483       -23.1156
  39   2.0000      -0.842294       -22.9200
  40   2.0000      -0.838312       -22.8116
  41   2.0000      -0.826978       -22.5032
  42   2.0000      -0.760256       -20.6876
  43   2.0000      -0.736021       -20.0282
  44   2.0000      -0.724198       -19.7064
  45   2.0000      -0.700720       -19.0676
  46   2.0000      -0.691170       -18.8077
  47   2.0000      -0.678296       -18.4574
  48   2.0000      -0.671647       -18.2764
  49   2.0000      -0.656268       -17.8580
  50   2.0000      -0.648609       -17.6495
  51   2.0000      -0.644833       -17.5468
  52   2.0000      -0.632036       -17.1986
  53   2.0000      -0.613841       -16.7035
  54   2.0000      -0.611984       -16.6529
  55   2.0000      -0.603242       -16.4151
  56   2.0000      -0.601053       -16.3555
  57   2.0000      -0.582038       -15.8380
  58   2.0000      -0.572730       -15.5848
  59   2.0000      -0.566458       -15.4141
  60   2.0000      -0.563606       -15.3365
  61   2.0000      -0.539560       -14.6822
  62   2.0000      -0.534627       -14.5480
  63   2.0000      -0.529758       -14.4155
  64   2.0000      -0.516601       -14.0574
  65   2.0000      -0.511450       -13.9173
  66   2.0000      -0.504733       -13.7345
  67   2.0000      -0.496185       -13.5019
  68   2.0000      -0.489567       -13.3218
  69   2.0000      -0.464540       -12.6408
  70   2.0000      -0.452675       -12.3179
  71   2.0000      -0.445712       -12.1284
  72   2.0000      -0.356950        -9.7131
  73   2.0000      -0.354613        -9.6495
  74   2.0000      -0.330749        -9.0001
  75   2.0000      -0.326577        -8.8866
  76   2.0000      -0.317866        -8.6496
  77   0.0000       0.069472         1.8904
  78   0.0000       0.101916         2.7733
  79   0.0000       0.122289         3.3277
  80   0.0000       0.128161         3.4874
  81   0.0000       0.132387         3.6024

MULLIKEN ATOMIC CHARGES
-----------------------
   0 C :   -0.260462
   1 C :    0.029106
   2 O :   -0.386459
   3 C :    0.495344
   4 O :   -0.411678
   5 C :   -0.278435
   6 C :    0.160076
   7 C :   -0.268378
   8 N :   -0.124106
   9 C :    0.215689
  10 S :   -0.438597
  11 N :   -0.206291
  12 C :    0.063645
  13 C :    0.022415
  14 C :   -0.176777
  15 C :   -0.135178
  16 C :   -0.274960
  17 C :    0.303193
  18 O :   -0.355828
  19 C :   -0.229161
  20 H :    0.085189
  21 H :    0.091000
  22 H :    0.105731
  23 H :    0.099342
  24 H :    0.118316
  25 H :    0.130352
  26 H :    0.133030
  27 H :    0.095186
  28 H :    0.198142
  29 H :    0.193968
  30 H :    0.149447
  31 H :    0.150502
  32 H :    0.162662
  33 H :    0.133307
  34 H :    0.241982
  35 H :    0.168686
Sum of atomic charges:   -0.0000000

LOEWDIN ATOMIC CHARGES
----------------------
   0 C :    0.106626
   1 C :   -0.015328
   2 O :    0.291808
   3 C :   -0.420592
   4 O :    0.114003
   5 C :   -0.098536
   6 C :   -0.057809
   7 C :    0.131219
   8 N :    0.407305
   9 C :   -0.455741
  10 S :   -0.033775
  11 N :    0.396108
  12 C :   -0.053043
  13 C :   -0.037030
  14 C :    0.011819
  15 C :    0.041016
  16 C :   -0.002196
  17 C :   -0.189803
  18 O :    0.396570
  19 C :    0.031288
  20 H :   -0.028459
  21 H :   -0.028993
  22 H :   -0.023406
  23 H :   -0.029289
  24 H :   -0.030538
  25 H :   -0.005188
  26 H :   -0.003308
  27 H :   -0.023201
  28 H :   -0.057310
  29 H :   -0.065365
  30 H :   -0.007906
  31 H :   -0.029488
  32 H :   -0.019696
  33 H :   -0.034470
  34 H :   -0.152561
  35 H :   -0.024731

  Mayer bond orders larger than 0.100000
B(  0-C ,  1-C ) :   0.9865 B(  0-C , 20-H ) :   0.9770 B(  0-C , 21-H ) :   0.9796
B(  0-C , 22-H ) :   0.9793 B(  1-C ,  2-O ) :   0.8685 B(  1-C , 23-H ) :   0.9718
B(  1-C , 24-H ) :   0.9676 B(  2-O ,  3-C ) :   1.1021 B(  3-C ,  4-O ) :   2.0048
B(  3-C ,  5-C ) :   1.0734 B(  5-C ,  6-C ) :   1.6467 B(  5-C , 12-C ) :   0.9698
B(  6-C ,  7-C ) :   0.9681 B(  6-C ,  8-N ) :   1.1596 B(  7-C , 25-H ) :   0.9611
B(  7-C , 26-H ) :   0.9589 B(  7-C , 27-H ) :   0.9899 B(  8-N ,  9-C ) :   1.1814
B(  8-N , 28-H ) :   0.9476 B(  9-C , 10-S ) :   1.6070 B(  9-C , 11-N ) :   1.3065
B( 11-N , 12-C ) :   0.9675 B( 11-N , 29-H ) :   0.9528 B( 12-C , 13-C ) :   0.9454
B( 12-C , 30-H ) :   1.0022 B( 13-C , 14-C ) :   1.3496 B( 13-C , 19-C ) :   1.3773
B( 14-C , 15-C ) :   1.3963 B( 14-C , 31-H ) :   0.9735 B( 15-C , 16-C ) :   1.3617
B( 15-C , 32-H ) :   0.9706 B( 16-C , 17-C ) :   1.3286 B( 16-C , 33-H ) :   0.9841
B( 17-C , 18-O ) :   1.1147 B( 17-C , 19-C ) :   1.3756 B( 18-O , 34-H ) :   0.9788
B( 19-C , 35-H ) :   0.9567

MP2 TOTAL ENERGY:    -1274.331836481 Eh
FINAL SINGLE POINT ENERGY     -1274.331836481100

DIPOLE MOMENT
-------------
                                X             Y             Z
Electronic contribution:      9.93002      10.45998       6.98860
Nuclear contribution   :    -10.94449     -11.92886      -6.84273
                        -----------------------------------------
Total Dipole Moment    :     -1.01447      -1.46888       0.14587
                        -----------------------------------------
Magnitude (a.u.)       :      1.79110
Magnitude (Debye)      :      4.55262

Rotational constants in cm-1:     0.012245     0.008730     0.006308
Rotational constants in MHz :   367.106618   261.707587   189.106379

                             ****ORCA TERMINATED NORMALLY****
TOTAL RUN TIME: 0 days 1 hours 43 minutes 26 seconds 132 msec
