                         Program Version 5.0.0 -  RELEASE  -
|  1> ! ri-mp2 cc-pvtz cc-pvtz/c TightSCF NoKeepInts
|  2>
|  3> %scf
|  4>   MaxCore 4096
|  5> end
|  6> *xyz  0  1
|  7>     C       15.0192804   15.8314348   17.3740155
|  8>     C       15.5490526   15.2008584   16.0687069
|  9>     O       16.9749331   14.9327816   16.0232124
| 10>     C       18.0855959   15.6081397   16.4821976
| 11>     O       19.1556596   15.0290063   16.4463399
| 12>     C       17.9190642   16.7673083   17.4064966
| 13>     C       17.4158465   17.9465696   16.9726260
| 14>     C       16.9063092   18.2629325   15.5814644
| 15>     N       17.4129554   19.0578882   17.8181829
| 16>     C       18.0412635   19.1106796   19.0348163
| 17>     S       18.0633135   20.4934401   19.9412805
| 18>     N       18.6567853   17.9594727   19.4609340
| 19>     C       18.5814849   16.6490475   18.7829249
| 20>     C       17.8938040   15.5999872   19.6542054
| 21>     C       18.3136200   14.2581404   19.5938683
| 22>     C       17.6894550   13.2738738   20.3777911
| 23>     C       16.6341597   13.6320678   21.2331512
| 24>     C       16.2105941   14.9660531   21.2971441
| 25>     O       15.1846575   15.3134154   22.1140868
| 26>     C       16.8333227   15.9444342   20.5153654
| 27>     H       15.4808225   15.3559263   18.2454274
| 28>     H       13.9393438   15.6550568   17.4495131
| 29>     H       15.1568938   16.9127242   17.4271456
| 30>     H       15.0266334   14.2487796   15.9074321
| 31>     H       15.2760602   15.8547495   15.2309528
| 32>     H       17.1789862   17.4911314   14.8516664
| 33>     H       17.3355745   19.2035426   15.2130470
| 34>     H       15.8147645   18.3668772   15.5720399
| 35>     H       16.9871257   19.9191525   17.5136241
| 36>     H       19.1042152   18.0244977   20.3665686
| 37>     H       19.6148402   16.3083114   18.6198173
| 38>     H       19.1243571   13.9745471   18.9256255
| 39>     H       18.0233071   12.2394092   20.3165889
| 40>     H       16.1481379   12.8743005   21.8387459
| 41>     H       14.9168093   14.5178852   22.5983921
| 42>     H       16.4779716   16.9675774   20.5786032
| 43> *
| 44>
| 45>                          ****END OF INPUT****

CARTESIAN COORDINATES (ANGSTROEM)
---------------------------------
  C     15.019280   15.831435   17.374015
  C     15.549053   15.200858   16.068707
  O     16.974933   14.932782   16.023212
  C     18.085596   15.608140   16.482198
  O     19.155660   15.029006   16.446340
  C     17.919064   16.767308   17.406497
  C     17.415847   17.946570   16.972626
  C     16.906309   18.262933   15.581464
  N     17.412955   19.057888   17.818183
  C     18.041263   19.110680   19.034816
  S     18.063313   20.493440   19.941281
  N     18.656785   17.959473   19.460934
  C     18.581485   16.649048   18.782925
  C     17.893804   15.599987   19.654205
  C     18.313620   14.258140   19.593868
  C     17.689455   13.273874   20.377791
  C     16.634160   13.632068   21.233151
  C     16.210594   14.966053   21.297144
  O     15.184657   15.313415   22.114087
  C     16.833323   15.944434   20.515365
  H     15.480823   15.355926   18.245427
  H     13.939344   15.655057   17.449513
  H     15.156894   16.912724   17.427146
  H     15.026633   14.248780   15.907432
  H     15.276060   15.854749   15.230953
  H     17.178986   17.491131   14.851666
  H     17.335574   19.203543   15.213047
  H     15.814764   18.366877   15.572040
  H     16.987126   19.919152   17.513624
  H     19.104215   18.024498   20.366569
  H     19.614840   16.308311   18.619817
  H     19.124357   13.974547   18.925625
  H     18.023307   12.239409   20.316589
  H     16.148138   12.874300   21.838746
  H     14.916809   14.517885   22.598392
  H     16.477972   16.967577   20.578603

 Total Charge           Charge          ....    0
 Multiplicity           Mult            ....    1
 Number of Electrons    NEL             ....  154
 Basis Dimension        Dim             ....  828

ORBITAL ENERGIES
----------------

  NO   OCC          E(Eh)            E(eV)
   0   2.0000     -91.890269     -2500.4613
   1   2.0000     -20.597840      -560.4957
   2   2.0000     -20.597723      -560.4925
   3   2.0000     -20.546964      -559.1113
   4   2.0000     -15.627842      -425.2552
   5   2.0000     -15.611163      -424.8013
   6   2.0000     -11.400444      -310.2219
   7   2.0000     -11.386829      -309.8514
   8   2.0000     -11.329728      -308.2976
   9   2.0000     -11.314542      -307.8843
  10   2.0000     -11.314070      -307.8715
  11   2.0000     -11.313026      -307.8431
  12   2.0000     -11.271221      -306.7055
  13   2.0000     -11.265027      -306.5370
  14   2.0000     -11.262341      -306.4639
  15   2.0000     -11.254928      -306.2622
  16   2.0000     -11.243817      -305.9598
  17   2.0000     -11.239611      -305.8454
  18   2.0000     -11.236307      -305.7555
  19   2.0000     -11.233545      -305.6803
  20   2.0000      -8.895370      -242.0553
  21   2.0000      -6.576959      -178.9681
  22   2.0000      -6.574933      -178.9130
  23   2.0000      -6.574357      -178.8974
  24   2.0000      -1.442552       -39.2538
  25   2.0000      -1.417539       -38.5732
  26   2.0000      -1.354018       -36.8447
  27   2.0000      -1.340757       -36.4839
  28   2.0000      -1.239998       -33.7421
  29   2.0000      -1.159096       -31.5406
  30   2.0000      -1.125300       -30.6210
  31   2.0000      -1.047897       -28.5147
  32   2.0000      -1.041164       -28.3315
  33   2.0000      -1.017457       -27.6864
  34   2.0000      -1.005323       -27.3562
  35   2.0000      -0.990434       -26.9511
  36   2.0000      -0.927973       -25.2514
  37   2.0000      -0.901077       -24.5196
  38   2.0000      -0.854274       -23.2460
  39   2.0000      -0.840572       -22.8731
  40   2.0000      -0.834362       -22.7041
  41   2.0000      -0.828577       -22.5467
  42   2.0000      -0.745492       -20.2859
  43   2.0000      -0.736272       -20.0350
  44   2.0000      -0.730637       -19.8816
  45   2.0000      -0.694813       -18.9068
  46   2.0000      -0.686714       -18.6865
  47   2.0000      -0.677880       -18.4460
  48   2.0000      -0.674260       -18.3475
  49   2.0000      -0.662519       -18.0281
  50   2.0000      -0.655731       -17.8433
  51   2.0000      -0.652060       -17.7435
  52   2.0000      -0.641363       -17.4524
  53   2.0000      -0.614330       -16.7168
  54   2.0000      -0.608120       -16.5478
  55   2.0000      -0.604596       -16.4519
  56   2.0000      -0.601903       -16.3786
  57   2.0000      -0.593012       -16.1367
  58   2.0000      -0.579323       -15.7642
  59   2.0000      -0.574212       -15.6251
  60   2.0000      -0.565572       -15.3900
  61   2.0000      -0.558204       -15.1895
  62   2.0000      -0.542702       -14.7677
  63   2.0000      -0.529353       -14.4044
  64   2.0000      -0.518589       -14.1115
  65   2.0000      -0.513763       -13.9802
  66   2.0000      -0.501205       -13.6385
  67   2.0000      -0.500098       -13.6083
  68   2.0000      -0.483879       -13.1670
  69   2.0000      -0.465823       -12.6757
  70   2.0000      -0.453502       -12.3404
  71   2.0000      -0.449717       -12.2374
  72   2.0000      -0.356144        -9.6912
  73   2.0000      -0.348693        -9.4884
  74   2.0000      -0.329872        -8.9763
  75   2.0000      -0.323029        -8.7901
  76   2.0000      -0.318561        -8.6685
  77   0.0000       0.085606         2.3295
  78   0.0000       0.107187         2.9167
  79   0.0000       0.113201         3.0804
  80   0.0000       0.128950         3.5089
  81   0.0000       0.131213         3.5705

MULLIKEN ATOMIC CHARGES
-----------------------
   0 C :   -0.343989
   1 C :    0.043140
   2 O :   -0.330438
   3 C :    0.411877
   4 O :   -0.383515
   5 C :   -0.187145
   6 C :    0.132356
   7 C :   -0.330706
   8 N :   -0.140276
   9 C :    0.204852
  10 S :   -0.440967
  11 N :   -0.228943
  12 C :    0.092043
  13 C :    0.016557
  14 C :   -0.214011
  15 C :   -0.135903
  16 C :   -0.275644
  17 C :    0.320919
  18 O :   -0.357891
  19 C :   -0.275103
  20 H :    0.134780
  21 H :    0.118982
  22 H :    0.105380
  23 H :    0.131026
  24 H :    0.084147
  25 H :    0.127519
  26 H :    0.139259
  27 H :    0.122761
  28 H :    0.196726
  29 H :    0.203058
  30 H :    0.168285
  31 H :    0.176433
  32 H :    0.163963
  33 H :    0.131994
  34 H :    0.241027
  35 H :    0.177446
Sum of atomic charges:    0.0000000

LOEWDIN ATOMIC CHARGES
----------------------
   0 C :    0.105104
   1 C :   -0.015493
   2 O :    0.295351
   3 C :   -0.417632
   4 O :    0.121970
   5 C :   -0.079196
   6 C :   -0.100516
   7 C :    0.125940
   8 N :    0.402399
   9 C :   -0.456639
  10 S :   -0.037607
  11 N :    0.398344
  12 C :   -0.041753
  13 C :   -0.042915
  14 C :    0.020438
  15 C :    0.044519
  16 C :   -0.001676
  17 C :   -0.193901
  18 O :    0.395360
  19 C :    0.026606
  20 H :   -0.022629
  21 H :   -0.022354
  22 H :   -0.037067
  23 H :   -0.016321
  24 H :   -0.037188
  25 H :   -0.008489
  26 H :   -0.009339
  27 H :   -0.017932
  28 H :   -0.058067
  29 H :   -0.063650
  30 H :   -0.001780
  31 H :   -0.021549
  32 H :   -0.018481
  33 H :   -0.035078
  34 H :   -0.153553
  35 H :   -0.025223

  Mayer bond orders larger than 0.100000
B(  0-C ,  1-C ) :   0.9530 B(  0-C , 20-H ) :   0.9640 B(  0-C , 21-H ) :   0.9793
B(  0-C , 22-H ) :   0.9754 B(  1-C ,  2-O ) :   0.9118 B(  1-C , 23-H ) :   0.9790
B(  1-C , 24-H ) :   0.9760 B(  2-O ,  3-C ) :   1.1651 B(  3-C ,  4-O ) :   2.0744
B(  3-C ,  5-C ) :   0.9275 B(  5-C ,  6-C ) :   1.7023 B(  5-C , 12-C ) :   0.9528
B(  6-C ,  7-C ) :   0.9424 B(  6-C ,  8-N ) :   1.0960 B(  7-C , 25-H ) :   0.9793
B(  7-C , 26-H ) :   0.9732 B(  7-C , 27-H ) :   0.9643 B(  8-N ,  9-C ) :   1.1971
B(  8-N , 28-H ) :   0.9521 B(  9-C , 10-S ) :   1.6081 B(  9-C , 11-N ) :   1.2886
B( 11-N , 12-C ) :   0.9849 B( 11-N , 29-H ) :   0.9472 B( 12-C , 13-C ) :   0.9503
B( 12-C , 30-H ) :   0.9934 B( 13-C , 14-C ) :   1.3904 B( 13-C , 19-C ) :   1.3425
B( 14-C , 15-C ) :   1.4019 B( 14-C , 31-H ) :   0.9578 B( 15-C , 16-C ) :   1.3592
B( 15-C , 32-H ) :   0.9700 B( 16-C , 17-C ) :   1.3311 B( 16-C , 33-H ) :   0.9847
B( 17-C , 18-O ) :   1.1093 B( 17-C , 19-C ) :   1.3660 B( 18-O , 34-H ) :   0.9796
B( 19-C , 35-H ) :   0.9583

MP2 TOTAL ENERGY:    -1274.322071116 Eh
FINAL SINGLE POINT ENERGY     -1274.322071116222

DIPOLE MOMENT
-------------
                                X             Y             Z
Electronic contribution:      9.47252       5.57973       6.77825
Nuclear contribution   :    -11.09678      -6.64220      -7.46402
                        -----------------------------------------
Total Dipole Moment    :     -1.62426      -1.06247      -0.68577
                        -----------------------------------------
Magnitude (a.u.)       :      2.05848
Magnitude (Debye)      :      5.23224

Rotational constants in cm-1:     0.011615     0.009583     0.006766
Rotational constants in MHz :   348.220979   287.281054   202.831349

                             ****ORCA TERMINATED NORMALLY****
TOTAL RUN TIME: 0 days 2 hours 11 minutes 5 seconds 925 msec
