                         Program Version 4.2.0 -  RELEASE  -
|  1> ! ri-mp2 cc-pvtz cc-pvtz/c TightSCF  NoKeepInts
|  2>
|  3> %scf
|  4>   MaxCore 4096
|  5> end
|  6> *xyz  0  1
|  7>     C       15.0617554   13.4539554   16.7428645
|  8>     C       15.4594855   14.7381952   15.9979736
|  9>     O       16.3056766   15.5034708   16.8711079
| 10>     C       16.7903666   16.6979279   16.4264083
| 11>     O       16.4577573   17.1770619   15.3548137
| 12>     C       17.5688509   17.4383157   17.4729205
| 13>     C       17.5232053   18.7913283   17.5602034
| 14>     C       16.6595586   19.7307380   16.7453157
| 15>     N       18.3103964   19.4629920   18.4987242
| 16>     C       19.2395300   18.8673382   19.3064904
| 17>     S       20.1421265   19.7373677   20.3853032
| 18>     N       19.3636500   17.5054326   19.1998169
| 19>     C       18.4971212   16.6238087   18.3940292
| 20>     C       17.7999493   15.6409255   19.3283950
| 21>     C       18.2821619   14.3226602   19.4458070
| 22>     C       17.6753884   13.4146366   20.3288491
| 23>     C       16.5786606   13.8279949   21.1027909
| 24>     C       16.1013165   15.1417087   20.9942941
| 25>     O       15.0501295   15.5428791   21.7519212
| 26>     C       16.7096278   16.0460071   20.1176022
| 27>     H       14.4745598   13.7047246   17.6355251
| 28>     H       15.9497956   12.8928438   17.0568058
| 29>     H       14.4487692   12.8074823   16.1027414
| 30>     H       16.0157536   14.4687323   15.0903589
| 31>     H       14.5686314   15.3128940   15.7075845
| 32>     H       15.6720977   19.2935251   16.5517732
| 33>     H       17.1224099   19.9356149   15.7714148
| 34>     H       16.4888793   20.6872114   17.2528716
| 35>     H       18.2227916   20.4614134   18.6053532
| 36>     H       20.0105969   17.0957602   19.8606264
| 37>     H       19.1516471   16.0372546   17.7330150
| 38>     H       19.1352632   13.9999162   18.8548793
| 39>     H       18.0577018   12.3989631   20.4153875
| 40>     H       16.1081944   13.1299412   21.7871506
| 41>     H       14.8075255   14.7988422   22.3232040
| 42>     H       16.3356688   17.0621363   20.0596779
| 43> *
| 44>
| 45>                          ****END OF INPUT****

CARTESIAN COORDINATES (ANGSTROEM)
---------------------------------
  C     15.061755   13.453955   16.742864
  C     15.459485   14.738195   15.997974
  O     16.305677   15.503471   16.871108
  C     16.790367   16.697928   16.426408
  O     16.457757   17.177062   15.354814
  C     17.568851   17.438316   17.472920
  C     17.523205   18.791328   17.560203
  C     16.659559   19.730738   16.745316
  N     18.310396   19.462992   18.498724
  C     19.239530   18.867338   19.306490
  S     20.142126   19.737368   20.385303
  N     19.363650   17.505433   19.199817
  C     18.497121   16.623809   18.394029
  C     17.799949   15.640925   19.328395
  C     18.282162   14.322660   19.445807
  C     17.675388   13.414637   20.328849
  C     16.578661   13.827995   21.102791
  C     16.101316   15.141709   20.994294
  O     15.050130   15.542879   21.751921
  C     16.709628   16.046007   20.117602
  H     14.474560   13.704725   17.635525
  H     15.949796   12.892844   17.056806
  H     14.448769   12.807482   16.102741
  H     16.015754   14.468732   15.090359
  H     14.568631   15.312894   15.707584
  H     15.672098   19.293525   16.551773
  H     17.122410   19.935615   15.771415
  H     16.488879   20.687211   17.252872
  H     18.222792   20.461413   18.605353
  H     20.010597   17.095760   19.860626
  H     19.151647   16.037255   17.733015
  H     19.135263   13.999916   18.854879
  H     18.057702   12.398963   20.415387
  H     16.108194   13.129941   21.787151
  H     14.807525   14.798842   22.323204
  H     16.335669   17.062136   20.059678

 Total Charge           Charge          ....    0
 Multiplicity           Mult            ....    1
 Number of Electrons    NEL             ....  154
 Basis Dimension        Dim             ....  828

ORBITAL ENERGIES
----------------

  NO   OCC          E(Eh)            E(eV)
   0   2.0000     -91.887420     -2500.3838
   1   2.0000     -20.603177      -560.6409
   2   2.0000     -20.596383      -560.4561
   3   2.0000     -20.546052      -559.0865
   4   2.0000     -15.626171      -425.2097
   5   2.0000     -15.607613      -424.7048
   6   2.0000     -11.394267      -310.0538
   7   2.0000     -11.382696      -309.7389
   8   2.0000     -11.332631      -308.3766
   9   2.0000     -11.313156      -307.8466
  10   2.0000     -11.312426      -307.8267
  11   2.0000     -11.295160      -307.3569
  12   2.0000     -11.260265      -306.4074
  13   2.0000     -11.259968      -306.3993
  14   2.0000     -11.254941      -306.2625
  15   2.0000     -11.252540      -306.1972
  16   2.0000     -11.242189      -305.9155
  17   2.0000     -11.237980      -305.8010
  18   2.0000     -11.236332      -305.7561
  19   2.0000     -11.228189      -305.5346
  20   2.0000      -8.892519      -241.9778
  21   2.0000      -6.574102      -178.8904
  22   2.0000      -6.572088      -178.8356
  23   2.0000      -6.571509      -178.8198
  24   2.0000      -1.454791       -39.5869
  25   2.0000      -1.416311       -38.5398
  26   2.0000      -1.356559       -36.9138
  27   2.0000      -1.338664       -36.4269
  28   2.0000      -1.237926       -33.6857
  29   2.0000      -1.156568       -31.4718
  30   2.0000      -1.120305       -30.4850
  31   2.0000      -1.042676       -28.3726
  32   2.0000      -1.039827       -28.2951
  33   2.0000      -1.014480       -27.6054
  34   2.0000      -0.996625       -27.1195
  35   2.0000      -0.983283       -26.7565
  36   2.0000      -0.922859       -25.1123
  37   2.0000      -0.887235       -24.1429
  38   2.0000      -0.845984       -23.0204
  39   2.0000      -0.837061       -22.7776
  40   2.0000      -0.833179       -22.6720
  41   2.0000      -0.815728       -22.1971
  42   2.0000      -0.765144       -20.8206
  43   2.0000      -0.730897       -19.8887
  44   2.0000      -0.723182       -19.6788
  45   2.0000      -0.695733       -18.9319
  46   2.0000      -0.687367       -18.7042
  47   2.0000      -0.679012       -18.4769
  48   2.0000      -0.676359       -18.4047
  49   2.0000      -0.666739       -18.1429
  50   2.0000      -0.648783       -17.6543
  51   2.0000      -0.645261       -17.5584
  52   2.0000      -0.635031       -17.2801
  53   2.0000      -0.606848       -16.5132
  54   2.0000      -0.600775       -16.3479
  55   2.0000      -0.598923       -16.2975
  56   2.0000      -0.586321       -15.9546
  57   2.0000      -0.576885       -15.6978
  58   2.0000      -0.572695       -15.5838
  59   2.0000      -0.569264       -15.4905
  60   2.0000      -0.562442       -15.3048
  61   2.0000      -0.551890       -15.0177
  62   2.0000      -0.538078       -14.6418
  63   2.0000      -0.525513       -14.2999
  64   2.0000      -0.513659       -13.9774
  65   2.0000      -0.512520       -13.9464
  66   2.0000      -0.508304       -13.8316
  67   2.0000      -0.499257       -13.5855
  68   2.0000      -0.480945       -13.0872
  69   2.0000      -0.462865       -12.5952
  70   2.0000      -0.459847       -12.5131
  71   2.0000      -0.452316       -12.3081
  72   2.0000      -0.353603        -9.6220
  73   2.0000      -0.346908        -9.4399
  74   2.0000      -0.327125        -8.9015
  75   2.0000      -0.321232        -8.7412
  76   2.0000      -0.315654        -8.5894
  77   0.0000       0.081773         2.2252
  78   0.0000       0.108180         2.9437
  79   0.0000       0.121329         3.3015
  80   0.0000       0.131888         3.5889
  81   0.0000       0.136823         3.7232

MULLIKEN ATOMIC CHARGES
-----------------------
   0 C :   -0.260616
   1 C :    0.045963
   2 O :   -0.322453
   3 C :    0.396779
   4 O :   -0.425730
   5 C :   -0.193712
   6 C :    0.159252
   7 C :   -0.267255
   8 N :   -0.125164
   9 C :    0.219591
  10 S :   -0.444088
  11 N :   -0.209769
  12 C :    0.054377
  13 C :    0.092043
  14 C :   -0.205197
  15 C :   -0.127322
  16 C :   -0.280912
  17 C :    0.313422
  18 O :   -0.357912
  19 C :   -0.247603
  20 H :    0.098093
  21 H :    0.096055
  22 H :    0.094382
  23 H :    0.086306
  24 H :    0.092935
  25 H :    0.123285
  26 H :    0.133158
  27 H :    0.094340
  28 H :    0.196553
  29 H :    0.196523
  30 H :    0.141057
  31 H :    0.145370
  32 H :    0.160643
  33 H :    0.129247
  34 H :    0.240805
  35 H :    0.157556
Sum of atomic charges:   -0.0000000

LOEWDIN ATOMIC CHARGES
----------------------
   0 C :    0.109076
   1 C :   -0.019008
   2 O :    0.315694
   3 C :   -0.418959
   4 O :    0.102247
   5 C :   -0.087885
   6 C :   -0.068360
   7 C :    0.130421
   8 N :    0.405641
   9 C :   -0.454803
  10 S :   -0.037687
  11 N :    0.395446
  12 C :   -0.050319
  13 C :   -0.034890
  14 C :    0.008213
  15 C :    0.041062
  16 C :   -0.002147
  17 C :   -0.188812
  18 O :    0.395127
  19 C :    0.034793
  20 H :   -0.025621
  21 H :   -0.026992
  22 H :   -0.025188
  23 H :   -0.030719
  24 H :   -0.028416
  25 H :   -0.007040
  26 H :   -0.005041
  27 H :   -0.022286
  28 H :   -0.057058
  29 H :   -0.065702
  30 H :   -0.011977
  31 H :   -0.032513
  32 H :   -0.020939
  33 H :   -0.035835
  34 H :   -0.154071
  35 H :   -0.025450

  Mayer bond orders larger than 0.100000
B(  0-C ,  1-C ) :   0.9724 B(  0-C , 20-H ) :   0.9769 B(  0-C , 21-H ) :   0.9754
B(  0-C , 22-H ) :   0.9789 B(  1-C ,  2-O ) :   0.9117 B(  1-C , 23-H ) :   0.9798
B(  1-C , 24-H ) :   0.9773 B(  2-O ,  3-C ) :   1.1992 B(  3-C ,  4-O ) :   1.9799
B(  3-C ,  5-C ) :   1.0225 B(  5-C ,  6-C ) :   1.6742 B(  5-C , 12-C ) :   0.9676
B(  6-C ,  7-C ) :   0.9640 B(  6-C ,  8-N ) :   1.1594 B(  7-C , 25-H ) :   0.9683
B(  7-C , 26-H ) :   0.9593 B(  7-C , 27-H ) :   0.9860 B(  8-N ,  9-C ) :   1.1901
B(  8-N , 28-H ) :   0.9489 B(  9-C , 10-S ) :   1.5998 B(  9-C , 11-N ) :   1.3035
B( 11-N , 12-C ) :   0.9795 B( 11-N , 29-H ) :   0.9500 B( 12-C , 13-C ) :   0.9527
B( 12-C , 30-H ) :   1.0078 B( 13-C , 14-C ) :   1.3458 B( 13-C , 19-C ) :   1.3731
B( 14-C , 15-C ) :   1.3938 B( 14-C , 31-H ) :   0.9742 B( 15-C , 16-C ) :   1.3688
B( 15-C , 32-H ) :   0.9703 B( 16-C , 17-C ) :   1.3245 B( 16-C , 33-H ) :   0.9858
B( 17-C , 18-O ) :   1.1053 B( 17-C , 19-C ) :   1.3767 B( 18-O , 34-H ) :   0.9799
B( 19-C , 35-H ) :   0.9608

MP2 TOTAL ENERGY:    -1274.346563731 Eh
FINAL SINGLE POINT ENERGY     -1274.346563730904

DIPOLE MOMENT
-------------
                                X             Y             Z
Electronic contribution:     10.12553      10.46498       7.22623
Nuclear contribution   :    -11.33943     -12.15360      -7.62981
                        -----------------------------------------
Total Dipole Moment    :     -1.21390      -1.68862      -0.40358
                        -----------------------------------------
Magnitude (a.u.)       :      2.11846
Magnitude (Debye)      :      5.38470

Rotational constants in cm-1:     0.012152     0.008569     0.005989
Rotational constants in MHz :   364.298341   256.894667   179.559329

                             ****ORCA TERMINATED NORMALLY****
TOTAL RUN TIME: 0 days 1 hours 38 minutes 50 seconds 637 msec
