                         Program Version 4.2.0 -  RELEASE  -
|  1> ! ri-mp2 cc-pvtz cc-pvtz/c TightSCF  NoKeepInts
|  2>
|  3> %scf
|  4>   MaxCore 4096
|  5> end
|  6> *xyz  0  1
|  7>     C       14.7247168   15.3522151   16.3145273
|  8>     C       15.8449731   14.7440188   17.1782053
|  9>     O       17.0905313   14.8303730   16.4542064
| 10>     C       17.7519120   16.0094364   16.2385573
| 11>     O       18.1250877   16.3048285   15.1186725
| 12>     C       17.7800326   16.9896389   17.3708213
| 13>     C       17.3771524   18.2702247   17.1915484
| 14>     C       16.7098906   18.8541405   15.9649628
| 15>     N       17.6155136   19.2257343   18.1815293
| 16>     C       18.4172197   19.0278884   19.2741332
| 17>     S       18.7522535   20.2430585   20.3442655
| 18>     N       18.9355403   17.7670538   19.4349668
| 19>     C       18.5689744   16.5844534   18.6303714
| 20>     C       17.8944405   15.5411752   19.5147196
| 21>     C       18.2777659   14.1893345   19.4292456
| 22>     C       17.6592896   13.2176419   20.2334480
| 23>     C       16.6524055   13.5997509   21.1359265
| 24>     C       16.2721504   14.9451124   21.2303375
| 25>     O       15.2961831   15.3163798   22.0959839
| 26>     C       16.8871503   15.9105234   20.4268039
| 27>     H       14.8339893   16.4385725   16.2318392
| 28>     H       13.7446535   15.1464709   16.7619454
| 29>     H       14.7366039   14.9216973   15.3049833
| 30>     H       15.8700021   15.2640821   18.1369708
| 31>     H       15.6167288   13.6878579   17.3714739
| 32>     H       16.2209932   18.0863783   15.3545587
| 33>     H       17.4553796   19.3412676   15.3235461
| 34>     H       15.9457866   19.5953595   16.2278177
| 35>     H       17.2697632   20.1647566   18.0610581
| 36>     H       19.5110972   17.6501499   20.2595970
| 37>     H       19.5111469   16.1416049   18.2764268
| 38>     H       19.0511450   13.8872617   18.7269922
| 39>     H       17.9611845   12.1742203   20.1555406
| 40>     H       16.1724480   12.8520054   21.7591391
| 41>     H       15.0390190   14.5313408   22.6030759
| 42>     H       16.5738762   16.9459918   20.5158027
| 43> *
| 44>
| 45>                          ****END OF INPUT****

CARTESIAN COORDINATES (ANGSTROEM)
---------------------------------
  C     14.724717   15.352215   16.314527
  C     15.844973   14.744019   17.178205
  O     17.090531   14.830373   16.454206
  C     17.751912   16.009436   16.238557
  O     18.125088   16.304828   15.118673
  C     17.780033   16.989639   17.370821
  C     17.377152   18.270225   17.191548
  C     16.709891   18.854140   15.964963
  N     17.615514   19.225734   18.181529
  C     18.417220   19.027888   19.274133
  S     18.752253   20.243058   20.344265
  N     18.935540   17.767054   19.434967
  C     18.568974   16.584453   18.630371
  C     17.894441   15.541175   19.514720
  C     18.277766   14.189334   19.429246
  C     17.659290   13.217642   20.233448
  C     16.652406   13.599751   21.135927
  C     16.272150   14.945112   21.230337
  O     15.296183   15.316380   22.095984
  C     16.887150   15.910523   20.426804
  H     14.833989   16.438572   16.231839
  H     13.744654   15.146471   16.761945
  H     14.736604   14.921697   15.304983
  H     15.870002   15.264082   18.136971
  H     15.616729   13.687858   17.371474
  H     16.220993   18.086378   15.354559
  H     17.455380   19.341268   15.323546
  H     15.945787   19.595360   16.227818
  H     17.269763   20.164757   18.061058
  H     19.511097   17.650150   20.259597
  H     19.511147   16.141605   18.276427
  H     19.051145   13.887262   18.726992
  H     17.961185   12.174220   20.155541
  H     16.172448   12.852005   21.759139
  H     15.039019   14.531341   22.603076
  H     16.573876   16.945992   20.515803

 Total Charge           Charge          ....    0
 Multiplicity           Mult            ....    1
 Number of Electrons    NEL             ....  154
 Basis Dimension        Dim             ....  828

ORBITAL ENERGIES
----------------

  NO   OCC          E(Eh)            E(eV)
   0   2.0000     -91.890751     -2500.4745
   1   2.0000     -20.603640      -560.6535
   2   2.0000     -20.592173      -560.3415
   3   2.0000     -20.552538      -559.2630
   4   2.0000     -15.627286      -425.2401
   5   2.0000     -15.612158      -424.8284
   6   2.0000     -11.395751      -310.0942
   7   2.0000     -11.386527      -309.8432
   8   2.0000     -11.331198      -308.3376
   9   2.0000     -11.322004      -308.0874
  10   2.0000     -11.319701      -308.0247
  11   2.0000     -11.298884      -307.4583
  12   2.0000     -11.268405      -306.6289
  13   2.0000     -11.263165      -306.4863
  14   2.0000     -11.262362      -306.4645
  15   2.0000     -11.257244      -306.3252
  16   2.0000     -11.251465      -306.1679
  17   2.0000     -11.246210      -306.0249
  18   2.0000     -11.245998      -306.0192
  19   2.0000     -11.230510      -305.5977
  20   2.0000      -8.895830      -242.0679
  21   2.0000      -6.577411      -178.9804
  22   2.0000      -6.575395      -178.9256
  23   2.0000      -6.574812      -178.9097
  24   2.0000      -1.446247       -39.3544
  25   2.0000      -1.423437       -38.7337
  26   2.0000      -1.357869       -36.9495
  27   2.0000      -1.341036       -36.4914
  28   2.0000      -1.241387       -33.7798
  29   2.0000      -1.165020       -31.7018
  30   2.0000      -1.123852       -30.5816
  31   2.0000      -1.049840       -28.5676
  32   2.0000      -1.035609       -28.1804
  33   2.0000      -1.023515       -27.8513
  34   2.0000      -1.003368       -27.3030
  35   2.0000      -0.988908       -26.9096
  36   2.0000      -0.928632       -25.2694
  37   2.0000      -0.891491       -24.2587
  38   2.0000      -0.852153       -23.1883
  39   2.0000      -0.844166       -22.9709
  40   2.0000      -0.842199       -22.9174
  41   2.0000      -0.833901       -22.6916
  42   2.0000      -0.754566       -20.5328
  43   2.0000      -0.737592       -20.0709
  44   2.0000      -0.721718       -19.6389
  45   2.0000      -0.702389       -19.1130
  46   2.0000      -0.692964       -18.8565
  47   2.0000      -0.681549       -18.5459
  48   2.0000      -0.675239       -18.3742
  49   2.0000      -0.667336       -18.1591
  50   2.0000      -0.653565       -17.7844
  51   2.0000      -0.647828       -17.6283
  52   2.0000      -0.636769       -17.3274
  53   2.0000      -0.617978       -16.8160
  54   2.0000      -0.612602       -16.6698
  55   2.0000      -0.607070       -16.5192
  56   2.0000      -0.604583       -16.4515
  57   2.0000      -0.584063       -15.8932
  58   2.0000      -0.578226       -15.7343
  59   2.0000      -0.567808       -15.4508
  60   2.0000      -0.557310       -15.1652
  61   2.0000      -0.552055       -15.0222
  62   2.0000      -0.547026       -14.8853
  63   2.0000      -0.530690       -14.4408
  64   2.0000      -0.526633       -14.3304
  65   2.0000      -0.518256       -14.1025
  66   2.0000      -0.506393       -13.7797
  67   2.0000      -0.502791       -13.6816
  68   2.0000      -0.483081       -13.1453
  69   2.0000      -0.468372       -12.7450
  70   2.0000      -0.454860       -12.3774
  71   2.0000      -0.449044       -12.2191
  72   2.0000      -0.358518        -9.7558
  73   2.0000      -0.354174        -9.6376
  74   2.0000      -0.331142        -9.0108
  75   2.0000      -0.329172        -8.9572
  76   2.0000      -0.319794        -8.7021
  77   0.0000       0.082812         2.2534
  78   0.0000       0.099055         2.6954
  79   0.0000       0.118843         3.2339
  80   0.0000       0.126763         3.4494
  81   0.0000       0.129456         3.5227

MULLIKEN ATOMIC CHARGES
-----------------------
   0 C :   -0.292674
   1 C :    0.031044
   2 O :   -0.339058
   3 C :    0.393667
   4 O :   -0.367433
   5 C :   -0.209437
   6 C :    0.157942
   7 C :   -0.302019
   8 N :   -0.128984
   9 C :    0.201521
  10 S :   -0.437799
  11 N :   -0.210667
  12 C :    0.043984
  13 C :    0.019426
  14 C :   -0.172253
  15 C :   -0.142755
  16 C :   -0.271628
  17 C :    0.304422
  18 O :   -0.353505
  19 C :   -0.249344
  20 H :    0.083942
  21 H :    0.102774
  22 H :    0.114906
  23 H :    0.104528
  24 H :    0.121765
  25 H :    0.123000
  26 H :    0.145506
  27 H :    0.104302
  28 H :    0.197610
  29 H :    0.197128
  30 H :    0.160004
  31 H :    0.149909
  32 H :    0.165183
  33 H :    0.135300
  34 H :    0.241448
  35 H :    0.178243
Sum of atomic charges:   -0.0000000

LOEWDIN ATOMIC CHARGES
----------------------
   0 C :    0.105911
   1 C :   -0.019593
   2 O :    0.298511
   3 C :   -0.422627
   4 O :    0.131375
   5 C :   -0.088471
   6 C :   -0.082960
   7 C :    0.128457
   8 N :    0.404743
   9 C :   -0.457563
  10 S :   -0.035077
  11 N :    0.396610
  12 C :   -0.050810
  13 C :   -0.045298
  14 C :    0.018983
  15 C :    0.044478
  16 C :    0.000465
  17 C :   -0.192269
  18 O :    0.397440
  19 C :    0.029264
  20 H :   -0.034530
  21 H :   -0.024658
  22 H :   -0.022071
  23 H :   -0.040073
  24 H :   -0.020809
  25 H :   -0.012499
  26 H :   -0.004920
  27 H :   -0.019748
  28 H :   -0.056641
  29 H :   -0.064122
  30 H :   -0.007518
  31 H :   -0.027318
  32 H :   -0.018481
  33 H :   -0.033712
  34 H :   -0.152343
  35 H :   -0.022126

  Mayer bond orders larger than 0.100000
B(  0-C ,  1-C ) :   0.9765 B(  0-C , 20-H ) :   0.9774 B(  0-C , 21-H ) :   0.9775
B(  0-C , 22-H ) :   0.9762 B(  1-C ,  2-O ) :   0.8840 B(  1-C , 23-H ) :   0.9576
B(  1-C , 24-H ) :   0.9802 B(  2-O ,  3-C ) :   1.1644 B(  3-C ,  4-O ) :   2.1179
B(  3-C ,  5-C ) :   0.9114 B(  5-C ,  6-C ) :   1.7067 B(  5-C , 12-C ) :   0.9576
B(  6-C ,  7-C ) :   0.9543 B(  6-C ,  8-N ) :   1.1277 B(  7-C , 25-H ) :   0.9754
B(  7-C , 26-H ) :   0.9590 B(  7-C , 27-H ) :   0.9785 B(  8-N ,  9-C ) :   1.1958
B(  8-N , 28-H ) :   0.9509 B(  9-C , 10-S ) :   1.6144 B(  9-C , 11-N ) :   1.2843
B( 11-N , 12-C ) :   0.9953 B( 11-N , 29-H ) :   0.9489 B( 12-C , 13-C ) :   0.9458
B( 12-C , 30-H ) :   1.0090 B( 13-C , 14-C ) :   1.3798 B( 13-C , 19-C ) :   1.3501
B( 14-C , 15-C ) :   1.3936 B( 14-C , 31-H ) :   0.9717 B( 15-C , 16-C ) :   1.3638
B( 15-C , 32-H ) :   0.9696 B( 16-C , 17-C ) :   1.3288 B( 16-C , 33-H ) :   0.9830
B( 17-C , 18-O ) :   1.1146 B( 17-C , 19-C ) :   1.3676 B( 18-O , 34-H ) :   0.9789
B( 19-C , 35-H ) :   0.9574

MP2 TOTAL ENERGY:    -1274.328813008 Eh
FINAL SINGLE POINT ENERGY     -1274.328813007923

DIPOLE MOMENT
-------------
                                X             Y             Z
Electronic contribution:     10.50621       6.60982       7.40387
Nuclear contribution   :    -11.85943      -8.23092      -7.12484
                        -----------------------------------------
Total Dipole Moment    :     -1.35322      -1.62110       0.27902
                        -----------------------------------------
Magnitude (a.u.)       :      2.13003
Magnitude (Debye)      :      5.41410

Rotational constants in cm-1:     0.011478     0.009630     0.006414
Rotational constants in MHz :   344.090280   288.709601   192.275637

                             ****ORCA TERMINATED NORMALLY****
TOTAL RUN TIME: 0 days 1 hours 55 minutes 23 seconds 265 msec
