                         Program Version 4.2.0 -  RELEASE  -
|  1> ! ri-mp2 cc-pvtz cc-pvtz/c TightSCF  NoKeepInts
|  2>
|  3> %scf
|  4>   MaxCore 4096
|  5> end
|  6> *xyz  0  1
|  7>     C       14.8003928   15.4532889   16.4108811
|  8>     C       15.9166869   14.6256825   17.0761878
|  9>     O       17.1560017   14.8122489   16.3588062
| 10>     C       17.7764360   16.0225034   16.1951751
| 11>     O       18.1631346   16.3622479   15.0925254
| 12>     C       17.7716527   16.9681961   17.3568777
| 13>     C       17.3480492   18.2455714   17.2028563
| 14>     C       16.6745118   18.8405629   15.9848391
| 15>     N       17.5783360   19.1873313   18.2079652
| 16>     C       18.4151577   18.9907986   19.2743538
| 17>     S       18.7607401   20.1987081   20.3494126
| 18>     N       18.9608010   17.7375237   19.4019823
| 19>     C       18.5706163   16.5561115   18.6068577
| 20>     C       17.8821958   15.5389917   19.5077846
| 21>     C       18.2912853   14.1920234   19.4951409
| 22>     C       17.6580160   13.2448577   20.3170394
| 23>     C       16.6102479   13.6471743   21.1626211
| 24>     C       16.2039306   14.9881872   21.1834508
| 25>     O       15.1886919   15.3784023   21.9938649
| 26>     C       16.8336151   15.9290183   20.3624276
| 27>     H       14.9099510   16.5193229   16.6363546
| 28>     H       13.8193179   15.1347664   16.7838989
| 29>     H       14.8111243   15.3184980   15.3215810
| 30>     H       15.9839258   14.9005373   18.1279228
| 31>     H       15.6458474   13.5628863   17.0323363
| 32>     H       16.1649064   18.0791435   15.3827448
| 33>     H       17.4203040   19.3134570   15.3330440
| 34>     H       15.9268589   19.5955195   16.2556187
| 35>     H       17.2138617   20.1216964   18.1085512
| 36>     H       19.5627161   17.6204403   20.2074429
| 37>     H       19.5008737   16.0938138   18.2464568
| 38>     H       19.0972854   13.8746509   18.8378354
| 39>     H       17.9803031   12.2048170   20.2973273
| 40>     H       16.1189539   12.9184249   21.7993613
| 41>     H       14.9282856   14.6126335   22.5280167
| 42>     H       16.5019857   16.9619625   20.3944578
| 43> *
| 44>
| 45>                          ****END OF INPUT****

CARTESIAN COORDINATES (ANGSTROEM)
---------------------------------
  C     14.800393   15.453289   16.410881
  C     15.916687   14.625682   17.076188
  O     17.156002   14.812249   16.358806
  C     17.776436   16.022503   16.195175
  O     18.163135   16.362248   15.092525
  C     17.771653   16.968196   17.356878
  C     17.348049   18.245571   17.202856
  C     16.674512   18.840563   15.984839
  N     17.578336   19.187331   18.207965
  C     18.415158   18.990799   19.274354
  S     18.760740   20.198708   20.349413
  N     18.960801   17.737524   19.401982
  C     18.570616   16.556112   18.606858
  C     17.882196   15.538992   19.507785
  C     18.291285   14.192023   19.495141
  C     17.658016   13.244858   20.317039
  C     16.610248   13.647174   21.162621
  C     16.203931   14.988187   21.183451
  O     15.188692   15.378402   21.993865
  C     16.833615   15.929018   20.362428
  H     14.909951   16.519323   16.636355
  H     13.819318   15.134766   16.783899
  H     14.811124   15.318498   15.321581
  H     15.983926   14.900537   18.127923
  H     15.645847   13.562886   17.032336
  H     16.164906   18.079144   15.382745
  H     17.420304   19.313457   15.333044
  H     15.926859   19.595520   16.255619
  H     17.213862   20.121696   18.108551
  H     19.562716   17.620440   20.207443
  H     19.500874   16.093814   18.246457
  H     19.097285   13.874651   18.837835
  H     17.980303   12.204817   20.297327
  H     16.118954   12.918425   21.799361
  H     14.928286   14.612633   22.528017
  H     16.501986   16.961962   20.394458

 Total Charge           Charge          ....    0
 Multiplicity           Mult            ....    1
 Number of Electrons    NEL             ....  154
 Basis Dimension        Dim             ....  828

ORBITAL ENERGIES
----------------

  NO   OCC          E(Eh)            E(eV)
   0   2.0000     -91.890614     -2500.4707
   1   2.0000     -20.604128      -560.6668
   2   2.0000     -20.591772      -560.3306
   3   2.0000     -20.551825      -559.2436
   4   2.0000     -15.627297      -425.2404
   5   2.0000     -15.611841      -424.8198
   6   2.0000     -11.395596      -310.0899
   7   2.0000     -11.386207      -309.8344
   8   2.0000     -11.330655      -308.3228
   9   2.0000     -11.322750      -308.1077
  10   2.0000     -11.319431      -308.0174
  11   2.0000     -11.298670      -307.4525
  12   2.0000     -11.268338      -306.6271
  13   2.0000     -11.263873      -306.5056
  14   2.0000     -11.261474      -306.4403
  15   2.0000     -11.256729      -306.3112
  16   2.0000     -11.252172      -306.1872
  17   2.0000     -11.246711      -306.0386
  18   2.0000     -11.246573      -306.0348
  19   2.0000     -11.231273      -305.6185
  20   2.0000      -8.895684      -242.0639
  21   2.0000      -6.577263      -178.9764
  22   2.0000      -6.575250      -178.9217
  23   2.0000      -6.574666      -178.9058
  24   2.0000      -1.445100       -39.3232
  25   2.0000      -1.423912       -38.7466
  26   2.0000      -1.356872       -36.9224
  27   2.0000      -1.340993       -36.4903
  28   2.0000      -1.241219       -33.7753
  29   2.0000      -1.165575       -31.7169
  30   2.0000      -1.123764       -30.5792
  31   2.0000      -1.050121       -28.5752
  32   2.0000      -1.035434       -28.1756
  33   2.0000      -1.024030       -27.8653
  34   2.0000      -1.003177       -27.2978
  35   2.0000      -0.988811       -26.9069
  36   2.0000      -0.928611       -25.2688
  37   2.0000      -0.894025       -24.3277
  38   2.0000      -0.851654       -23.1747
  39   2.0000      -0.844773       -22.9874
  40   2.0000      -0.842754       -22.9325
  41   2.0000      -0.832145       -22.6438
  42   2.0000      -0.753312       -20.4987
  43   2.0000      -0.738107       -20.0849
  44   2.0000      -0.720176       -19.5970
  45   2.0000      -0.703063       -19.1313
  46   2.0000      -0.692982       -18.8570
  47   2.0000      -0.681673       -18.5493
  48   2.0000      -0.675148       -18.3717
  49   2.0000      -0.665948       -18.1214
  50   2.0000      -0.653521       -17.7832
  51   2.0000      -0.648254       -17.6399
  52   2.0000      -0.636531       -17.3209
  53   2.0000      -0.622319       -16.9342
  54   2.0000      -0.613168       -16.6852
  55   2.0000      -0.607570       -16.5328
  56   2.0000      -0.604369       -16.4457
  57   2.0000      -0.584194       -15.8967
  58   2.0000      -0.578094       -15.7307
  59   2.0000      -0.567325       -15.4377
  60   2.0000      -0.556718       -15.1491
  61   2.0000      -0.548367       -14.9218
  62   2.0000      -0.546948       -14.8832
  63   2.0000      -0.531807       -14.4712
  64   2.0000      -0.528650       -14.3853
  65   2.0000      -0.518616       -14.1123
  66   2.0000      -0.506480       -13.7820
  67   2.0000      -0.502888       -13.6843
  68   2.0000      -0.482459       -13.1284
  69   2.0000      -0.467864       -12.7312
  70   2.0000      -0.453592       -12.3429
  71   2.0000      -0.448892       -12.2150
  72   2.0000      -0.357990        -9.7414
  73   2.0000      -0.355637        -9.6774
  74   2.0000      -0.332009        -9.0344
  75   2.0000      -0.329220        -8.9585
  76   2.0000      -0.319094        -8.6830
  77   0.0000       0.081351         2.2137
  78   0.0000       0.099566         2.7093
  79   0.0000       0.119172         3.2428
  80   0.0000       0.126323         3.4374
  81   0.0000       0.130636         3.5548

MULLIKEN ATOMIC CHARGES
-----------------------
   0 C :   -0.318336
   1 C :    0.038864
   2 O :   -0.338548
   3 C :    0.400604
   4 O :   -0.367462
   5 C :   -0.209845
   6 C :    0.151694
   7 C :   -0.299119
   8 N :   -0.128498
   9 C :    0.198265
  10 S :   -0.437257
  11 N :   -0.200847
  12 C :    0.035513
  13 C :    0.029783
  14 C :   -0.188669
  15 C :   -0.133521
  16 C :   -0.271833
  17 C :    0.301011
  18 O :   -0.353969
  19 C :   -0.244386
  20 H :    0.092950
  21 H :    0.109148
  22 H :    0.117543
  23 H :    0.103390
  24 H :    0.120980
  25 H :    0.122738
  26 H :    0.147735
  27 H :    0.103309
  28 H :    0.197744
  29 H :    0.194061
  30 H :    0.158081
  31 H :    0.153098
  32 H :    0.164911
  33 H :    0.135304
  34 H :    0.241533
  35 H :    0.174031
Sum of atomic charges:   -0.0000000

LOEWDIN ATOMIC CHARGES
----------------------
   0 C :    0.104114
   1 C :   -0.017353
   2 O :    0.295979
   3 C :   -0.421968
   4 O :    0.131441
   5 C :   -0.088749
   6 C :   -0.082705
   7 C :    0.127869
   8 N :    0.404942
   9 C :   -0.457945
  10 S :   -0.034725
  11 N :    0.396759
  12 C :   -0.051287
  13 C :   -0.046343
  14 C :    0.016977
  15 C :    0.044452
  16 C :    0.000872
  17 C :   -0.191955
  18 O :    0.397770
  19 C :    0.030168
  20 H :   -0.034846
  21 H :   -0.023725
  22 H :   -0.022588
  23 H :   -0.039765
  24 H :   -0.020425
  25 H :   -0.011282
  26 H :   -0.004243
  27 H :   -0.020119
  28 H :   -0.056875
  29 H :   -0.064295
  30 H :   -0.006770
  31 H :   -0.027531
  32 H :   -0.018425
  33 H :   -0.033505
  34 H :   -0.152272
  35 H :   -0.021647

  Mayer bond orders larger than 0.100000
B(  0-C ,  1-C ) :   0.9663 B(  0-C , 20-H ) :   0.9766 B(  0-C , 21-H ) :   0.9780
B(  0-C , 22-H ) :   0.9746 B(  1-C ,  2-O ) :   0.8923 B(  1-C , 23-H ) :   0.9598
B(  1-C , 24-H ) :   0.9827 B(  2-O ,  3-C ) :   1.1682 B(  3-C ,  4-O ) :   2.1138
B(  3-C ,  5-C ) :   0.9202 B(  5-C ,  6-C ) :   1.7085 B(  5-C , 12-C ) :   0.9615
B(  6-C ,  7-C ) :   0.9558 B(  6-C ,  8-N ) :   1.1267 B(  7-C , 25-H ) :   0.9753
B(  7-C , 26-H ) :   0.9589 B(  7-C , 27-H ) :   0.9786 B(  8-N ,  9-C ) :   1.1937
B(  8-N , 28-H ) :   0.9508 B(  9-C , 10-S ) :   1.6163 B(  9-C , 11-N ) :   1.2843
B( 11-N , 12-C ) :   0.9972 B( 11-N , 29-H ) :   0.9506 B( 12-C , 13-C ) :   0.9407
B( 12-C , 30-H ) :   1.0097 B( 13-C , 14-C ) :   1.3755 B( 13-C , 19-C ) :   1.3598
B( 14-C , 15-C ) :   1.3899 B( 14-C , 31-H ) :   0.9696 B( 15-C , 16-C ) :   1.3674
B( 15-C , 32-H ) :   0.9694 B( 16-C , 17-C ) :   1.3272 B( 16-C , 33-H ) :   0.9830
B( 17-C , 18-O ) :   1.1156 B( 17-C , 19-C ) :   1.3686 B( 18-O , 34-H ) :   0.9788
B( 19-C , 35-H ) :   0.9580

MP2 TOTAL ENERGY:    -1274.328471686 Eh
FINAL SINGLE POINT ENERGY     -1274.328471686145

DIPOLE MOMENT
-------------
                                X             Y             Z
Electronic contribution:     10.36823       6.52448       7.08629
Nuclear contribution   :    -11.75719      -8.19124      -6.75290
                        -----------------------------------------
Total Dipole Moment    :     -1.38896      -1.66676       0.33338
                        -----------------------------------------
Magnitude (a.u.)       :      2.19509
Magnitude (Debye)      :      5.57949

Rotational constants in cm-1:     0.011455     0.009722     0.006498
Rotational constants in MHz :   343.409280   291.472376   194.793766

                             ****ORCA TERMINATED NORMALLY****
TOTAL RUN TIME: 0 days 1 hours 51 minutes 32 seconds 935 msec
