                         Program Version 5.0.0 -  RELEASE  -
|  1> ! ri-mp2 cc-pvtz cc-pvtz/c TightSCF NoKeepInts
|  2>
|  3> %scf
|  4>   MaxCore 4096
|  5> end
|  6> *xyz  0  1
|  7>     C       14.1750410   15.4806623   16.1486194
|  8>     C       15.4328586   15.3764000   17.0278899
|  9>     O       16.5696277   15.2763214   16.1454656
| 10>     C       17.8285382   15.6553725   16.5321350
| 11>     O       18.7658270   14.8923289   16.3874100
| 12>     C       17.9264539   16.8511394   17.4265170
| 13>     C       17.3154601   18.0312846   17.1646820
| 14>     C       16.4841490   18.3841627   15.9503799
| 15>     N       17.4878999   19.1112034   18.0336777
| 16>     C       18.3325365   19.1173743   19.1132067
| 17>     S       18.5280274   20.4623491   20.0548534
| 18>     N       19.0036357   17.9486963   19.3773616
| 19>     C       18.8069416   16.6723107   18.6621812
| 20>     C       18.2056198   15.6127361   19.5801063
| 21>     C       18.7547074   14.3184093   19.6248215
| 22>     C       18.1870092   13.3277090   20.4431914
| 23>     C       17.0570721   13.6315641   21.2213731
| 24>     C       16.5024237   14.9174438   21.1738458
| 25>     O       15.4022060   15.2106904   21.9113384
| 26>     C       17.0693391   15.9017635   20.3582346
| 27>     H       13.2759474   15.5639830   16.7713444
| 28>     H       14.0731283   14.5872911   15.5195394
| 29>     H       14.2229231   16.3576528   15.4926000
| 30>     H       15.4770091   16.2575188   17.6777395
| 31>     H       15.3795385   14.4868640   17.6700048
| 32>     H       16.6271707   17.6707485   15.1294868
| 33>     H       16.7589232   19.3707093   15.5560287
| 34>     H       15.4162876   18.4064916   16.1977403
| 35>     H       17.0135605   19.9817230   17.8509381
| 36>     H       19.6021587   17.9755482   20.1933048
| 37>     H       19.7930836   16.3200443   18.3249410
| 38>     H       19.6157489   14.0742663   19.0062025
| 39>     H       18.6189561   12.3285000   20.4645870
| 40>     H       16.6137097   12.8675825   21.8515627
| 41>     H       15.2000416   14.4326494   22.4531490
| 42>     H       16.6234391   16.8905053   20.3375405
| 43> *
| 44>
| 45>                          ****END OF INPUT****

CARTESIAN COORDINATES (ANGSTROEM)
---------------------------------
  C     14.175041   15.480662   16.148619
  C     15.432859   15.376400   17.027890
  O     16.569628   15.276321   16.145466
  C     17.828538   15.655372   16.532135
  O     18.765827   14.892329   16.387410
  C     17.926454   16.851139   17.426517
  C     17.315460   18.031285   17.164682
  C     16.484149   18.384163   15.950380
  N     17.487900   19.111203   18.033678
  C     18.332536   19.117374   19.113207
  S     18.528027   20.462349   20.054853
  N     19.003636   17.948696   19.377362
  C     18.806942   16.672311   18.662181
  C     18.205620   15.612736   19.580106
  C     18.754707   14.318409   19.624821
  C     18.187009   13.327709   20.443191
  C     17.057072   13.631564   21.221373
  C     16.502424   14.917444   21.173846
  O     15.402206   15.210690   21.911338
  C     17.069339   15.901763   20.358235
  H     13.275947   15.563983   16.771344
  H     14.073128   14.587291   15.519539
  H     14.222923   16.357653   15.492600
  H     15.477009   16.257519   17.677739
  H     15.379539   14.486864   17.670005
  H     16.627171   17.670748   15.129487
  H     16.758923   19.370709   15.556029
  H     15.416288   18.406492   16.197740
  H     17.013561   19.981723   17.850938
  H     19.602159   17.975548   20.193305
  H     19.793084   16.320044   18.324941
  H     19.615749   14.074266   19.006203
  H     18.618956   12.328500   20.464587
  H     16.613710   12.867582   21.851563
  H     15.200042   14.432649   22.453149
  H     16.623439   16.890505   20.337540

 Total Charge           Charge          ....    0
 Multiplicity           Mult            ....    1
 Number of Electrons    NEL             ....  154
 Basis Dimension        Dim             ....  828

ORBITAL ENERGIES
----------------

  NO   OCC          E(Eh)            E(eV)
   0   2.0000     -91.890794     -2500.4756
   1   2.0000     -20.599386      -560.5378
   2   2.0000     -20.596125      -560.4491
   3   2.0000     -20.551552      -559.2361
   4   2.0000     -15.629277      -425.2942
   5   2.0000     -15.611338      -424.8061
   6   2.0000     -11.396410      -310.1121
   7   2.0000     -11.387196      -309.8613
   8   2.0000     -11.333335      -308.3957
   9   2.0000     -11.315846      -307.9198
  10   2.0000     -11.312565      -307.8305
  11   2.0000     -11.304112      -307.6005
  12   2.0000     -11.267370      -306.6007
  13   2.0000     -11.264090      -306.5115
  14   2.0000     -11.261895      -306.4517
  15   2.0000     -11.255663      -306.2822
  16   2.0000     -11.245351      -306.0016
  17   2.0000     -11.241626      -305.9002
  18   2.0000     -11.238367      -305.8115
  19   2.0000     -11.236096      -305.7497
  20   2.0000      -8.895891      -242.0695
  21   2.0000      -6.577472      -178.9821
  22   2.0000      -6.575454      -178.9272
  23   2.0000      -6.574873      -178.9114
  24   2.0000      -1.448175       -39.4068
  25   2.0000      -1.419178       -38.6178
  26   2.0000      -1.359369       -36.9903
  27   2.0000      -1.341671       -36.5087
  28   2.0000      -1.240545       -33.7569
  29   2.0000      -1.160582       -31.5810
  30   2.0000      -1.125297       -30.6209
  31   2.0000      -1.048162       -28.5219
  32   2.0000      -1.041290       -28.3349
  33   2.0000      -1.017842       -27.6969
  34   2.0000      -1.004775       -27.3413
  35   2.0000      -0.989514       -26.9260
  36   2.0000      -0.927353       -25.2345
  37   2.0000      -0.882824       -24.0229
  38   2.0000      -0.854604       -23.2549
  39   2.0000      -0.842881       -22.9360
  40   2.0000      -0.836409       -22.7598
  41   2.0000      -0.835591       -22.7376
  42   2.0000      -0.758291       -20.6341
  43   2.0000      -0.739737       -20.1293
  44   2.0000      -0.731675       -19.9099
  45   2.0000      -0.697175       -18.9711
  46   2.0000      -0.687882       -18.7182
  47   2.0000      -0.683124       -18.5888
  48   2.0000      -0.676575       -18.4105
  49   2.0000      -0.662637       -18.0313
  50   2.0000      -0.652627       -17.7589
  51   2.0000      -0.642153       -17.4739
  52   2.0000      -0.641226       -17.4486
  53   2.0000      -0.617015       -16.7898
  54   2.0000      -0.607835       -16.5400
  55   2.0000      -0.607292       -16.5253
  56   2.0000      -0.602962       -16.4074
  57   2.0000      -0.585656       -15.9365
  58   2.0000      -0.577843       -15.7239
  59   2.0000      -0.568412       -15.4673
  60   2.0000      -0.562195       -15.2981
  61   2.0000      -0.556708       -15.1488
  62   2.0000      -0.541161       -14.7258
  63   2.0000      -0.532727       -14.4962
  64   2.0000      -0.524352       -14.2683
  65   2.0000      -0.516168       -14.0456
  66   2.0000      -0.502378       -13.6704
  67   2.0000      -0.498482       -13.5644
  68   2.0000      -0.489175       -13.3111
  69   2.0000      -0.469449       -12.7744
  70   2.0000      -0.460265       -12.5245
  71   2.0000      -0.449768       -12.2388
  72   2.0000      -0.357474        -9.7274
  73   2.0000      -0.351428        -9.5628
  74   2.0000      -0.330283        -8.9875
  75   2.0000      -0.323469        -8.8020
  76   2.0000      -0.318904        -8.6778
  77   0.0000       0.077836         2.1180
  78   0.0000       0.104329         2.8389
  79   0.0000       0.116008         3.1567
  80   0.0000       0.129454         3.5226
  81   0.0000       0.134007         3.6465

MULLIKEN ATOMIC CHARGES
-----------------------
   0 C :   -0.268360
   1 C :    0.010393
   2 O :   -0.334115
   3 C :    0.427675
   4 O :   -0.381279
   5 C :   -0.217340
   6 C :    0.145748
   7 C :   -0.330063
   8 N :   -0.132775
   9 C :    0.201281
  10 S :   -0.438915
  11 N :   -0.206345
  12 C :    0.062315
  13 C :    0.037947
  14 C :   -0.183857
  15 C :   -0.129885
  16 C :   -0.278948
  17 C :    0.315184
  18 O :   -0.358319
  19 C :   -0.288728
  20 H :    0.094930
  21 H :    0.110577
  22 H :    0.091565
  23 H :    0.097684
  24 H :    0.127269
  25 H :    0.137485
  26 H :    0.136377
  27 H :    0.121462
  28 H :    0.197390
  29 H :    0.196493
  30 H :    0.161842
  31 H :    0.164770
  32 H :    0.163059
  33 H :    0.132036
  34 H :    0.241848
  35 H :    0.173599
Sum of atomic charges:   -0.0000000

LOEWDIN ATOMIC CHARGES
----------------------
   0 C :    0.108208
   1 C :   -0.018325
   2 O :    0.299122
   3 C :   -0.416196
   4 O :    0.127837
   5 C :   -0.088335
   6 C :   -0.092618
   7 C :    0.126689
   8 N :    0.402730
   9 C :   -0.457020
  10 S :   -0.035857
  11 N :    0.397224
  12 C :   -0.045621
  13 C :   -0.043863
  14 C :    0.022724
  15 C :    0.044691
  16 C :   -0.000621
  17 C :   -0.194574
  18 O :    0.393757
  19 C :    0.027738
  20 H :   -0.023916
  21 H :   -0.023199
  22 H :   -0.031637
  23 H :   -0.040089
  24 H :   -0.025154
  25 H :   -0.007618
  26 H :   -0.011667
  27 H :   -0.016568
  28 H :   -0.057310
  29 H :   -0.063473
  30 H :   -0.003045
  31 H :   -0.022289
  32 H :   -0.018864
  33 H :   -0.034766
  34 H :   -0.153004
  35 H :   -0.025093

  Mayer bond orders larger than 0.100000
B(  0-C ,  1-C ) :   0.9747 B(  0-C , 20-H ) :   0.9758 B(  0-C , 21-H ) :   0.9792
B(  0-C , 22-H ) :   0.9786 B(  1-C ,  2-O ) :   0.8975 B(  1-C , 23-H ) :   0.9636
B(  1-C , 24-H ) :   0.9779 B(  2-O ,  3-C ) :   1.1642 B(  3-C ,  4-O ) :   2.0964
B(  3-C ,  5-C ) :   0.9432 B(  5-C ,  6-C ) :   1.6731 B(  5-C , 12-C ) :   0.9603
B(  6-C ,  7-C ) :   0.9437 B(  6-C ,  8-N ) :   1.1254 B(  7-C , 25-H ) :   0.9754
B(  7-C , 26-H ) :   0.9774 B(  7-C , 27-H ) :   0.9635 B(  8-N ,  9-C ) :   1.1885
B(  8-N , 28-H ) :   0.9512 B(  9-C , 10-S ) :   1.6135 B(  9-C , 11-N ) :   1.2928
B( 11-N , 12-C ) :   1.0001 B( 11-N , 29-H ) :   0.9504 B( 12-C , 13-C ) :   0.9419
B( 12-C , 30-H ) :   0.9978 B( 13-C , 14-C ) :   1.3854 B( 13-C , 19-C ) :   1.3509
B( 14-C , 15-C ) :   1.3951 B( 14-C , 31-H ) :   0.9612 B( 15-C , 16-C ) :   1.3646
B( 15-C , 32-H ) :   0.9702 B( 16-C , 17-C ) :   1.3283 B( 16-C , 33-H ) :   0.9845
B( 17-C , 18-O ) :   1.1108 B( 17-C , 19-C ) :   1.3725 B( 18-O , 34-H ) :   0.9792
B( 19-C , 35-H ) :   0.9575

MP2 TOTAL ENERGY:    -1274.334297997 Eh
FINAL SINGLE POINT ENERGY     -1274.334297996629

DIPOLE MOMENT
-------------
                                X             Y             Z
Electronic contribution:     11.97109       6.14685       7.56505
Nuclear contribution   :    -13.46716      -7.14819      -7.80908
                        -----------------------------------------
Total Dipole Moment    :     -1.49607      -1.00134      -0.24403
                        -----------------------------------------
Magnitude (a.u.)       :      1.81672
Magnitude (Debye)      :      4.61773

Rotational constants in cm-1:     0.011117     0.009328     0.006814
Rotational constants in MHz :   333.286347   279.644415   204.287203

                             ****ORCA TERMINATED NORMALLY****
TOTAL RUN TIME: 0 days 1 hours 52 minutes 40 seconds 153 msec
