                         Program Version 4.2.0 -  RELEASE  -
|  1> ! ri-mp2 cc-pvtz cc-pvtz/c TightSCF  NoKeepInts
|  2>
|  3> %scf
|  4>   MaxCore 4096
|  5> end
|  6> *xyz  0  1
|  7>     C       14.1750738   15.4805767   16.1486059
|  8>     C       15.4328870   15.3763514   17.0278871
|  9>     O       16.5696652   15.2762890   16.1454725
| 10>     C       17.8285642   15.6553721   16.5321475
| 11>     O       18.7658712   14.8923480   16.3874374
| 12>     C       17.9264465   16.8511505   17.4265179
| 13>     C       17.3154284   18.0312794   17.1646657
| 14>     C       16.4841188   18.3841262   15.9503534
| 15>     N       17.4878375   19.1112112   18.0336513
| 16>     C       18.3324650   19.1174120   19.1131872
| 17>     S       18.5279183   20.4624009   20.0548216
| 18>     N       19.0035880   17.9487517   19.3773599
| 19>     C       18.8069288   16.6723544   18.6621906
| 20>     C       18.2056248   15.6127749   19.5801216
| 21>     C       18.7547415   14.3184609   19.6248525
| 22>     C       18.1870601   13.3277554   20.4432278
| 23>     C       17.0571108   13.6315920   21.2213989
| 24>     C       16.5024336   14.9174587   21.1738559
| 25>     O       15.4022041   15.2106872   21.9113382
| 26>     C       17.0693322   15.9017838   20.3582394
| 27>     H       13.2759735   15.5638826   16.7713233
| 28>     H       14.0731865   14.5871973   15.5195335
| 29>     H       14.2229409   16.3575622   15.4925788
| 30>     H       15.4770131   16.2574779   17.6777279
| 31>     H       15.3795818   14.4868209   17.6700107
| 32>     H       16.6271616   17.6707059   15.1294694
| 33>     H       16.7588751   19.3706742   15.5559933
| 34>     H       15.4162551   18.4064354   16.1977058
| 35>     H       17.0134805   19.9817184   17.8508986
| 36>     H       19.6021034   17.9756253   20.1933079
| 37>     H       19.7930816   16.3201077   18.3249613
| 38>     H       19.6157927   14.0743317   19.0062417
| 39>     H       18.6190295   12.3285563   20.4646355
| 40>     H       16.6137614   12.8676062   21.8515924
| 41>     H       15.2000535   14.4326464   22.4531544
| 42>     H       16.6234099   16.8905152   20.3375331
| 43> *
| 44>
| 45>                          ****END OF INPUT****

CARTESIAN COORDINATES (ANGSTROEM)
---------------------------------
  C     14.175074   15.480577   16.148606
  C     15.432887   15.376351   17.027887
  O     16.569665   15.276289   16.145473
  C     17.828564   15.655372   16.532148
  O     18.765871   14.892348   16.387437
  C     17.926447   16.851150   17.426518
  C     17.315428   18.031279   17.164666
  C     16.484119   18.384126   15.950353
  N     17.487837   19.111211   18.033651
  C     18.332465   19.117412   19.113187
  S     18.527918   20.462401   20.054822
  N     19.003588   17.948752   19.377360
  C     18.806929   16.672354   18.662191
  C     18.205625   15.612775   19.580122
  C     18.754742   14.318461   19.624852
  C     18.187060   13.327755   20.443228
  C     17.057111   13.631592   21.221399
  C     16.502434   14.917459   21.173856
  O     15.402204   15.210687   21.911338
  C     17.069332   15.901784   20.358239
  H     13.275973   15.563883   16.771323
  H     14.073187   14.587197   15.519533
  H     14.222941   16.357562   15.492579
  H     15.477013   16.257478   17.677728
  H     15.379582   14.486821   17.670011
  H     16.627162   17.670706   15.129469
  H     16.758875   19.370674   15.555993
  H     15.416255   18.406435   16.197706
  H     17.013480   19.981718   17.850899
  H     19.602103   17.975625   20.193308
  H     19.793082   16.320108   18.324961
  H     19.615793   14.074332   19.006242
  H     18.619029   12.328556   20.464635
  H     16.613761   12.867606   21.851592
  H     15.200053   14.432646   22.453154
  H     16.623410   16.890515   20.337533

 Total Charge           Charge          ....    0
 Multiplicity           Mult            ....    1
 Number of Electrons    NEL             ....  154
 Basis Dimension        Dim             ....  828

ORBITAL ENERGIES
----------------

  NO   OCC          E(Eh)            E(eV)
   0   2.0000     -91.890794     -2500.4756
   1   2.0000     -20.599386      -560.5378
   2   2.0000     -20.596125      -560.4491
   3   2.0000     -20.551551      -559.2361
   4   2.0000     -15.629277      -425.2942
   5   2.0000     -15.611338      -424.8061
   6   2.0000     -11.396410      -310.1121
   7   2.0000     -11.387196      -309.8613
   8   2.0000     -11.333335      -308.3957
   9   2.0000     -11.315846      -307.9198
  10   2.0000     -11.312565      -307.8305
  11   2.0000     -11.304112      -307.6005
  12   2.0000     -11.267370      -306.6007
  13   2.0000     -11.264090      -306.5115
  14   2.0000     -11.261895      -306.4518
  15   2.0000     -11.255663      -306.2822
  16   2.0000     -11.245351      -306.0016
  17   2.0000     -11.241626      -305.9002
  18   2.0000     -11.238367      -305.8115
  19   2.0000     -11.236096      -305.7497
  20   2.0000      -8.895891      -242.0695
  21   2.0000      -6.577472      -178.9821
  22   2.0000      -6.575454      -178.9272
  23   2.0000      -6.574873      -178.9114
  24   2.0000      -1.448175       -39.4068
  25   2.0000      -1.419178       -38.6178
  26   2.0000      -1.359369       -36.9903
  27   2.0000      -1.341671       -36.5087
  28   2.0000      -1.240545       -33.7569
  29   2.0000      -1.160582       -31.5810
  30   2.0000      -1.125297       -30.6209
  31   2.0000      -1.048162       -28.5219
  32   2.0000      -1.041290       -28.3349
  33   2.0000      -1.017842       -27.6969
  34   2.0000      -1.004775       -27.3413
  35   2.0000      -0.989514       -26.9260
  36   2.0000      -0.927353       -25.2345
  37   2.0000      -0.882824       -24.0229
  38   2.0000      -0.854604       -23.2549
  39   2.0000      -0.842881       -22.9360
  40   2.0000      -0.836409       -22.7598
  41   2.0000      -0.835591       -22.7376
  42   2.0000      -0.758291       -20.6341
  43   2.0000      -0.739737       -20.1293
  44   2.0000      -0.731675       -19.9099
  45   2.0000      -0.697175       -18.9711
  46   2.0000      -0.687882       -18.7182
  47   2.0000      -0.683124       -18.5888
  48   2.0000      -0.676575       -18.4105
  49   2.0000      -0.662637       -18.0313
  50   2.0000      -0.652627       -17.7589
  51   2.0000      -0.642153       -17.4739
  52   2.0000      -0.641226       -17.4486
  53   2.0000      -0.617015       -16.7898
  54   2.0000      -0.607835       -16.5400
  55   2.0000      -0.607292       -16.5253
  56   2.0000      -0.602962       -16.4074
  57   2.0000      -0.585656       -15.9365
  58   2.0000      -0.577843       -15.7239
  59   2.0000      -0.568412       -15.4673
  60   2.0000      -0.562195       -15.2981
  61   2.0000      -0.556708       -15.1488
  62   2.0000      -0.541161       -14.7258
  63   2.0000      -0.532727       -14.4962
  64   2.0000      -0.524352       -14.2683
  65   2.0000      -0.516168       -14.0456
  66   2.0000      -0.502378       -13.6704
  67   2.0000      -0.498482       -13.5644
  68   2.0000      -0.489175       -13.3111
  69   2.0000      -0.469449       -12.7744
  70   2.0000      -0.460265       -12.5245
  71   2.0000      -0.449768       -12.2388
  72   2.0000      -0.357474        -9.7274
  73   2.0000      -0.351428        -9.5628
  74   2.0000      -0.330283        -8.9875
  75   2.0000      -0.323469        -8.8020
  76   2.0000      -0.318904        -8.6778
  77   0.0000       0.077836         2.1180
  78   0.0000       0.104329         2.8389
  79   0.0000       0.116008         3.1567
  80   0.0000       0.129454         3.5226
  81   0.0000       0.134007         3.6465

MULLIKEN ATOMIC CHARGES
-----------------------
   0 C :   -0.268360
   1 C :    0.010393
   2 O :   -0.334114
   3 C :    0.427675
   4 O :   -0.381279
   5 C :   -0.217340
   6 C :    0.145748
   7 C :   -0.330063
   8 N :   -0.132776
   9 C :    0.201283
  10 S :   -0.438915
  11 N :   -0.206345
  12 C :    0.062316
  13 C :    0.037947
  14 C :   -0.183858
  15 C :   -0.129884
  16 C :   -0.278948
  17 C :    0.315185
  18 O :   -0.358319
  19 C :   -0.288729
  20 H :    0.094930
  21 H :    0.110577
  22 H :    0.091565
  23 H :    0.097684
  24 H :    0.127269
  25 H :    0.137485
  26 H :    0.136377
  27 H :    0.121462
  28 H :    0.197390
  29 H :    0.196493
  30 H :    0.161842
  31 H :    0.164770
  32 H :    0.163059
  33 H :    0.132036
  34 H :    0.241848
  35 H :    0.173599
Sum of atomic charges:   -0.0000000

LOEWDIN ATOMIC CHARGES
----------------------
   0 C :    0.108208
   1 C :   -0.018325
   2 O :    0.299122
   3 C :   -0.416196
   4 O :    0.127837
   5 C :   -0.088335
   6 C :   -0.092618
   7 C :    0.126689
   8 N :    0.402730
   9 C :   -0.457020
  10 S :   -0.035857
  11 N :    0.397224
  12 C :   -0.045621
  13 C :   -0.043863
  14 C :    0.022724
  15 C :    0.044691
  16 C :   -0.000621
  17 C :   -0.194574
  18 O :    0.393757
  19 C :    0.027738
  20 H :   -0.023915
  21 H :   -0.023199
  22 H :   -0.031637
  23 H :   -0.040089
  24 H :   -0.025155
  25 H :   -0.007618
  26 H :   -0.011667
  27 H :   -0.016568
  28 H :   -0.057310
  29 H :   -0.063473
  30 H :   -0.003045
  31 H :   -0.022289
  32 H :   -0.018864
  33 H :   -0.034766
  34 H :   -0.153004
  35 H :   -0.025093

  Mayer bond orders larger than 0.100000
B(  0-C ,  1-C ) :   0.9747 B(  0-C , 20-H ) :   0.9758 B(  0-C , 21-H ) :   0.9792
B(  0-C , 22-H ) :   0.9786 B(  1-C ,  2-O ) :   0.8975 B(  1-C , 23-H ) :   0.9636
B(  1-C , 24-H ) :   0.9779 B(  2-O ,  3-C ) :   1.1642 B(  3-C ,  4-O ) :   2.0964
B(  3-C ,  5-C ) :   0.9432 B(  5-C ,  6-C ) :   1.6731 B(  5-C , 12-C ) :   0.9603
B(  6-C ,  7-C ) :   0.9437 B(  6-C ,  8-N ) :   1.1254 B(  7-C , 25-H ) :   0.9754
B(  7-C , 26-H ) :   0.9774 B(  7-C , 27-H ) :   0.9635 B(  8-N ,  9-C ) :   1.1885
B(  8-N , 28-H ) :   0.9512 B(  9-C , 10-S ) :   1.6135 B(  9-C , 11-N ) :   1.2928
B( 11-N , 12-C ) :   1.0001 B( 11-N , 29-H ) :   0.9504 B( 12-C , 13-C ) :   0.9419
B( 12-C , 30-H ) :   0.9978 B( 13-C , 14-C ) :   1.3854 B( 13-C , 19-C ) :   1.3509
B( 14-C , 15-C ) :   1.3951 B( 14-C , 31-H ) :   0.9612 B( 15-C , 16-C ) :   1.3646
B( 15-C , 32-H ) :   0.9702 B( 16-C , 17-C ) :   1.3283 B( 16-C , 33-H ) :   0.9845
B( 17-C , 18-O ) :   1.1108 B( 17-C , 19-C ) :   1.3725 B( 18-O , 34-H ) :   0.9792
B( 19-C , 35-H ) :   0.9575

MP2 TOTAL ENERGY:    -1274.334297940 Eh
FINAL SINGLE POINT ENERGY     -1274.334297940047

DIPOLE MOMENT
-------------
                                X             Y             Z
Electronic contribution:     11.97089       6.14719       7.56508
Nuclear contribution   :    -13.46694      -7.14857      -7.80911
                        -----------------------------------------
Total Dipole Moment    :     -1.49605      -1.00138      -0.24403
                        -----------------------------------------
Magnitude (a.u.)       :      1.81672
Magnitude (Debye)      :      4.61773

Rotational constants in cm-1:     0.011117     0.009328     0.006814
Rotational constants in MHz :   333.286383   279.644346   204.287151

                             ****ORCA TERMINATED NORMALLY****
TOTAL RUN TIME: 0 days 1 hours 54 minutes 34 seconds 376 msec
