                         Program Version 4.2.0 -  RELEASE  -
|  1> ! ri-mp2 cc-pvtz cc-pvtz/c TightSCF  NoKeepInts
|  2>
|  3> %scf
|  4>   MaxCore 4096
|  5> end
|  6> *xyz  0  1
|  7>     C       15.2084116   15.2663516   17.2832870
|  8>     C       15.6625129   15.0565314   15.8241235
|  9>     O       16.9212294   15.6900920   15.4925966
| 10>     C       17.9704308   15.7638869   16.3658268
| 11>     O       18.6633417   14.7798573   16.5534706
| 12>     C       17.9049719   16.8811149   17.3705191
| 13>     C       17.3044339   18.0759076   17.1328482
| 14>     C       16.5966527   18.5220791   15.8694844
| 15>     N       17.3934802   19.0991562   18.0819371
| 16>     C       18.2264394   19.0821541   19.1696470
| 17>     S       18.3978280   20.3977432   20.1567855
| 18>     N       18.9110181   17.9146242   19.3956957
| 19>     C       18.6643011   16.6458976   18.6835151
| 20>     C       17.9347378   15.6558064   19.5885220
| 21>     C       18.3774541   14.3234158   19.6830683
| 22>     C       17.7069606   13.4005636   20.5029630
| 23>     C       16.5822145   13.8118582   21.2376984
| 24>     C       16.1362714   15.1370705   21.1467565
| 25>     O       15.0441440   15.5350701   21.8464849
| 26>     C       16.8055498   16.0535522   20.3297038
| 27>     H       15.8905623   14.7625890   17.9772157
| 28>     H       14.2147801   14.8268147   17.4325107
| 29>     H       15.1426065   16.3280563   17.5446909
| 30>     H       15.7606120   13.9762723   15.6522634
| 31>     H       14.8857124   15.4253537   15.1421503
| 32>     H       15.6003157   18.0709776   15.7961375
| 33>     H       17.1656921   18.2306550   14.9776063
| 34>     H       16.4718657   19.6108504   15.8216043
| 35>     H       16.9045990   19.9667100   17.9281885
| 36>     H       19.5012232   17.9184153   20.2178195
| 37>     H       19.6438043   16.2142075   18.4308244
| 38>     H       19.2375188   13.9973279   19.1023716
| 39>     H       18.0575349   12.3715608   20.5608724
| 40>     H       16.0599863   13.1014677   21.8699245
| 41>     H       14.7581597   14.7849898   22.3892991
| 42>     H       16.4396431   17.0730190   20.2755873
| 43> *
| 44>
| 45>                          ****END OF INPUT****

CARTESIAN COORDINATES (ANGSTROEM)
---------------------------------
  C     15.208412   15.266352   17.283287
  C     15.662513   15.056531   15.824124
  O     16.921229   15.690092   15.492597
  C     17.970431   15.763887   16.365827
  O     18.663342   14.779857   16.553471
  C     17.904972   16.881115   17.370519
  C     17.304434   18.075908   17.132848
  C     16.596653   18.522079   15.869484
  N     17.393480   19.099156   18.081937
  C     18.226439   19.082154   19.169647
  S     18.397828   20.397743   20.156786
  N     18.911018   17.914624   19.395696
  C     18.664301   16.645898   18.683515
  C     17.934738   15.655806   19.588522
  C     18.377454   14.323416   19.683068
  C     17.706961   13.400564   20.502963
  C     16.582214   13.811858   21.237698
  C     16.136271   15.137070   21.146756
  O     15.044144   15.535070   21.846485
  C     16.805550   16.053552   20.329704
  H     15.890562   14.762589   17.977216
  H     14.214780   14.826815   17.432511
  H     15.142606   16.328056   17.544691
  H     15.760612   13.976272   15.652263
  H     14.885712   15.425354   15.142150
  H     15.600316   18.070978   15.796138
  H     17.165692   18.230655   14.977606
  H     16.471866   19.610850   15.821604
  H     16.904599   19.966710   17.928189
  H     19.501223   17.918415   20.217820
  H     19.643804   16.214208   18.430824
  H     19.237519   13.997328   19.102372
  H     18.057535   12.371561   20.560872
  H     16.059986   13.101468   21.869924
  H     14.758160   14.784990   22.389299
  H     16.439643   17.073019   20.275587

 Total Charge           Charge          ....    0
 Multiplicity           Mult            ....    1
 Number of Electrons    NEL             ....  154
 Basis Dimension        Dim             ....  828

ORBITAL ENERGIES
----------------

  NO   OCC          E(Eh)            E(eV)
   0   2.0000     -91.891025     -2500.4819
   1   2.0000     -20.595589      -560.4345
   2   2.0000     -20.580802      -560.0321
   3   2.0000     -20.552783      -559.2697
   4   2.0000     -15.631611      -425.3578
   5   2.0000     -15.609308      -424.7509
   6   2.0000     -11.395528      -310.0881
   7   2.0000     -11.385921      -309.8266
   8   2.0000     -11.337979      -308.5221
   9   2.0000     -11.311779      -307.8092
  10   2.0000     -11.309090      -307.7360
  11   2.0000     -11.306736      -307.6719
  12   2.0000     -11.263197      -306.4872
  13   2.0000     -11.262520      -306.4687
  14   2.0000     -11.257691      -306.3374
  15   2.0000     -11.252153      -306.1867
  16   2.0000     -11.241829      -305.9057
  17   2.0000     -11.237136      -305.7780
  18   2.0000     -11.234033      -305.6936
  19   2.0000     -11.230200      -305.5893
  20   2.0000      -8.896072      -242.0744
  21   2.0000      -6.577644      -178.9868
  22   2.0000      -6.575640      -178.9323
  23   2.0000      -6.575048      -178.9162
  24   2.0000      -1.445846       -39.3435
  25   2.0000      -1.415410       -38.5153
  26   2.0000      -1.353154       -36.8212
  27   2.0000      -1.342474       -36.5306
  28   2.0000      -1.239829       -33.7375
  29   2.0000      -1.156060       -31.4580
  30   2.0000      -1.121927       -30.5292
  31   2.0000      -1.044418       -28.4201
  32   2.0000      -1.034513       -28.1505
  33   2.0000      -1.013964       -27.5914
  34   2.0000      -1.002097       -27.2685
  35   2.0000      -0.988215       -26.8907
  36   2.0000      -0.925333       -25.1796
  37   2.0000      -0.896359       -24.3912
  38   2.0000      -0.851147       -23.1609
  39   2.0000      -0.839871       -22.8541
  40   2.0000      -0.832130       -22.6434
  41   2.0000      -0.819750       -22.3065
  42   2.0000      -0.747022       -20.3275
  43   2.0000      -0.732251       -19.9256
  44   2.0000      -0.727996       -19.8098
  45   2.0000      -0.693895       -18.8818
  46   2.0000      -0.687697       -18.7132
  47   2.0000      -0.675813       -18.3898
  48   2.0000      -0.672910       -18.3108
  49   2.0000      -0.661966       -18.0130
  50   2.0000      -0.652925       -17.7670
  51   2.0000      -0.648074       -17.6350
  52   2.0000      -0.640494       -17.4287
  53   2.0000      -0.618870       -16.8403
  54   2.0000      -0.603658       -16.4264
  55   2.0000      -0.603116       -16.4116
  56   2.0000      -0.599788       -16.3210
  57   2.0000      -0.583112       -15.8673
  58   2.0000      -0.575504       -15.6603
  59   2.0000      -0.563167       -15.3245
  60   2.0000      -0.557827       -15.1792
  61   2.0000      -0.547467       -14.8973
  62   2.0000      -0.546225       -14.8635
  63   2.0000      -0.530911       -14.4468
  64   2.0000      -0.521016       -14.1776
  65   2.0000      -0.513020       -13.9600
  66   2.0000      -0.499854       -13.6017
  67   2.0000      -0.490907       -13.3583
  68   2.0000      -0.481520       -13.1028
  69   2.0000      -0.466570       -12.6960
  70   2.0000      -0.454316       -12.3626
  71   2.0000      -0.449475       -12.2308
  72   2.0000      -0.356917        -9.7122
  73   2.0000      -0.346907        -9.4398
  74   2.0000      -0.330093        -8.9823
  75   2.0000      -0.320369        -8.7177
  76   2.0000      -0.317842        -8.6489
  77   0.0000       0.068356         1.8601
  78   0.0000       0.107333         2.9207
  79   0.0000       0.118193         3.2162
  80   0.0000       0.132491         3.6053
  81   0.0000       0.134644         3.6638

MULLIKEN ATOMIC CHARGES
-----------------------
   0 C :   -0.347290
   1 C :    0.039968
   2 O :   -0.386512
   3 C :    0.474500
   4 O :   -0.393423
   5 C :   -0.206701
   6 C :    0.137258
   7 C :   -0.292980
   8 N :   -0.124068
   9 C :    0.188334
  10 S :   -0.434364
  11 N :   -0.199771
  12 C :    0.048921
  13 C :    0.029387
  14 C :   -0.174812
  15 C :   -0.136888
  16 C :   -0.278000
  17 C :    0.310974
  18 O :   -0.359242
  19 C :   -0.260936
  20 H :    0.129888
  21 H :    0.123169
  22 H :    0.103277
  23 H :    0.115043
  24 H :    0.110856
  25 H :    0.116271
  26 H :    0.137702
  27 H :    0.110429
  28 H :    0.197591
  29 H :    0.194124
  30 H :    0.158826
  31 H :    0.164174
  32 H :    0.161786
  33 H :    0.131043
  34 H :    0.240747
  35 H :    0.170720
Sum of atomic charges:   -0.0000000

LOEWDIN ATOMIC CHARGES
----------------------
   0 C :    0.104710
   1 C :   -0.016327
   2 O :    0.277341
   3 C :   -0.418883
   4 O :    0.126782
   5 C :   -0.092918
   6 C :   -0.070783
   7 C :    0.127041
   8 N :    0.405815
   9 C :   -0.460301
  10 S :   -0.033130
  11 N :    0.397638
  12 C :   -0.045167
  13 C :   -0.042270
  14 C :    0.019924
  15 C :    0.041208
  16 C :   -0.002250
  17 C :   -0.194161
  18 O :    0.394404
  19 C :    0.030115
  20 H :   -0.021547
  21 H :   -0.021495
  22 H :   -0.033997
  23 H :   -0.024753
  24 H :   -0.025519
  25 H :   -0.013653
  26 H :   -0.005387
  27 H :   -0.018603
  28 H :   -0.058681
  29 H :   -0.063619
  30 H :   -0.002875
  31 H :   -0.023581
  32 H :   -0.019871
  33 H :   -0.035499
  34 H :   -0.154131
  35 H :   -0.025577

  Mayer bond orders larger than 0.100000
B(  0-C ,  1-C ) :   0.9611 B(  0-C , 20-H ) :   0.9650 B(  0-C , 21-H ) :   0.9765
B(  0-C , 22-H ) :   0.9707 B(  1-C ,  2-O ) :   0.8908 B(  1-C , 23-H ) :   0.9857
B(  1-C , 24-H ) :   0.9813 B(  2-O ,  3-C ) :   1.0942 B(  3-C ,  4-O ) :   2.0385
B(  3-C ,  5-C ) :   1.0131 B(  5-C ,  6-C ) :   1.6624 B(  5-C , 12-C ) :   0.9608
B(  6-C ,  7-C ) :   0.9555 B(  6-C ,  8-N ) :   1.1316 B(  7-C , 25-H ) :   0.9652
B(  7-C , 26-H ) :   0.9650 B(  7-C , 27-H ) :   0.9895 B(  8-N ,  9-C ) :   1.1779
B(  8-N , 28-H ) :   0.9488 B(  9-C , 10-S ) :   1.6172 B(  9-C , 11-N ) :   1.2994
B( 11-N , 12-C ) :   0.9853 B( 11-N , 29-H ) :   0.9522 B( 12-C , 13-C ) :   0.9472
B( 12-C , 30-H ) :   0.9986 B( 13-C , 14-C ) :   1.3882 B( 13-C , 19-C ) :   1.3545
B( 14-C , 15-C ) :   1.3955 B( 14-C , 31-H ) :   0.9603 B( 15-C , 16-C ) :   1.3624
B( 15-C , 32-H ) :   0.9710 B( 16-C , 17-C ) :   1.3299 B( 16-C , 33-H ) :   0.9850
B( 17-C , 18-O ) :   1.1110 B( 17-C , 19-C ) :   1.3771 B( 18-O , 34-H ) :   0.9801
B( 19-C , 35-H ) :   0.9581

MP2 TOTAL ENERGY:    -1274.324525699 Eh
FINAL SINGLE POINT ENERGY     -1274.324525698981

DIPOLE MOMENT
-------------
                                X             Y             Z
Electronic contribution:      9.71718       7.46276       6.25578
Nuclear contribution   :    -11.14987      -8.56728      -6.88252
                        -----------------------------------------
Total Dipole Moment    :     -1.43269      -1.10452      -0.62674
                        -----------------------------------------
Magnitude (a.u.)       :      1.91451
Magnitude (Debye)      :      4.86631

Rotational constants in cm-1:     0.011308     0.009982     0.006805
Rotational constants in MHz :   339.009689   299.262945   204.002046

                             ****ORCA TERMINATED NORMALLY****
TOTAL RUN TIME: 0 days 1 hours 50 minutes 23 seconds 538 msec
