                         Program Version 4.2.0 -  RELEASE  -
|  1> ! ri-mp2 cc-pvtz cc-pvtz/c TightSCF  NoKeepInts
|  2>
|  3> %scf
|  4>   MaxCore 4096
|  5> end
|  6> *xyz  0  1
|  7>     C       15.3401087   13.7482179   16.8300136
|  8>     C       16.5564357   14.0659350   15.9389073
|  9>     O       17.3152055   15.1146113   16.5663484
| 10>     C       16.9047776   16.4147796   16.4541921
| 11>     O       16.0607203   16.7666205   15.6471251
| 12>     C       17.5780559   17.3232266   17.4452112
| 13>     C       17.3887270   18.6671141   17.4468217
| 14>     C       16.5206411   19.4712508   16.5028046
| 15>     N       18.0588671   19.4687706   18.3756261
| 16>     C       18.9925556   19.0195316   19.2707270
| 17>     S       19.7992636   20.0487038   20.2836672
| 18>     N       19.2278457   17.6684919   19.2842667
| 19>     C       18.4829891   16.6662700   18.5005956
| 20>     C       17.6952857   15.7583255   19.4410262
| 21>     C       18.0731669   14.4137172   19.6158171
| 22>     C       17.3460729   13.5724535   20.4747735
| 23>     C       16.2327757   14.0798495   21.1661271
| 24>     C       15.8567618   15.4196374   20.9981742
| 25>     O       14.7830325   15.9126973   21.6652015
| 26>     C       16.5829910   16.2547592   20.1436897
| 27>     H       15.6606800   13.4925064   17.8477338
| 28>     H       14.7769152   12.8999164   16.4230933
| 29>     H       14.6625961   14.6094745   16.8877232
| 30>     H       17.1809048   13.1672294   15.8572545
| 31>     H       16.2364574   14.3525235   14.9276235
| 32>     H       15.4699812   19.1668689   16.5932883
| 33>     H       16.8216120   19.3009239   15.4612999
| 34>     H       16.5701086   20.5505643   16.6883413
| 35>     H       17.8990853   20.4634942   18.3805790
| 36>     H       19.8922319   17.3630371   19.9836186
| 37>     H       19.2236302   16.0540362   17.9671476
| 38>     H       18.9291775   14.0171414   19.0765870
| 39>     H       17.6449176   12.5333818   20.6014308
| 40>     H       15.6676862   13.4341599   21.8302174
| 41>     H       14.4350636   15.2015336   22.2237182
| 42>     H       16.2796728   17.2902449   20.0332276
| 43> *
| 44>
| 45>                          ****END OF INPUT****

CARTESIAN COORDINATES (ANGSTROEM)
---------------------------------
  C     15.340109   13.748218   16.830014
  C     16.556436   14.065935   15.938907
  O     17.315206   15.114611   16.566348
  C     16.904778   16.414780   16.454192
  O     16.060720   16.766620   15.647125
  C     17.578056   17.323227   17.445211
  C     17.388727   18.667114   17.446822
  C     16.520641   19.471251   16.502805
  N     18.058867   19.468771   18.375626
  C     18.992556   19.019532   19.270727
  S     19.799264   20.048704   20.283667
  N     19.227846   17.668492   19.284267
  C     18.482989   16.666270   18.500596
  C     17.695286   15.758325   19.441026
  C     18.073167   14.413717   19.615817
  C     17.346073   13.572453   20.474774
  C     16.232776   14.079849   21.166127
  C     15.856762   15.419637   20.998174
  O     14.783032   15.912697   21.665201
  C     16.582991   16.254759   20.143690
  H     15.660680   13.492506   17.847734
  H     14.776915   12.899916   16.423093
  H     14.662596   14.609474   16.887723
  H     17.180905   13.167229   15.857254
  H     16.236457   14.352524   14.927623
  H     15.469981   19.166869   16.593288
  H     16.821612   19.300924   15.461300
  H     16.570109   20.550564   16.688341
  H     17.899085   20.463494   18.380579
  H     19.892232   17.363037   19.983619
  H     19.223630   16.054036   17.967148
  H     18.929178   14.017141   19.076587
  H     17.644918   12.533382   20.601431
  H     15.667686   13.434160   21.830217
  H     14.435064   15.201534   22.223718
  H     16.279673   17.290245   20.033228

 Total Charge           Charge          ....    0
 Multiplicity           Mult            ....    1
 Number of Electrons    NEL             ....  154
 Basis Dimension        Dim             ....  828

ORBITAL ENERGIES
----------------

  NO   OCC          E(Eh)            E(eV)
   0   2.0000     -91.888820     -2500.4219
   1   2.0000     -20.600544      -560.5693
   2   2.0000     -20.597092      -560.4754
   3   2.0000     -20.541553      -558.9641
   4   2.0000     -15.629009      -425.2870
   5   2.0000     -15.608335      -424.7244
   6   2.0000     -11.395104      -310.0766
   7   2.0000     -11.384034      -309.7753
   8   2.0000     -11.336037      -308.4693
   9   2.0000     -11.314430      -307.8813
  10   2.0000     -11.308998      -307.7335
  11   2.0000     -11.295700      -307.3716
  12   2.0000     -11.260095      -306.4028
  13   2.0000     -11.258952      -306.3717
  14   2.0000     -11.255645      -306.2817
  15   2.0000     -11.252101      -306.1852
  16   2.0000     -11.243705      -305.9568
  17   2.0000     -11.238966      -305.8278
  18   2.0000     -11.238461      -305.8141
  19   2.0000     -11.221667      -305.3571
  20   2.0000      -8.893884      -242.0149
  21   2.0000      -6.575459      -178.9273
  22   2.0000      -6.573453      -178.8728
  23   2.0000      -6.572867      -178.8568
  24   2.0000      -1.450935       -39.4819
  25   2.0000      -1.416762       -38.5520
  26   2.0000      -1.354350       -36.8537
  27   2.0000      -1.339998       -36.4632
  28   2.0000      -1.238559       -33.7029
  29   2.0000      -1.158178       -31.5156
  30   2.0000      -1.120655       -30.4946
  31   2.0000      -1.043080       -28.3837
  32   2.0000      -1.035066       -28.1656
  33   2.0000      -1.015619       -27.6364
  34   2.0000      -0.995363       -27.0852
  35   2.0000      -0.984212       -26.7818
  36   2.0000      -0.922715       -25.1083
  37   2.0000      -0.893539       -24.3144
  38   2.0000      -0.847047       -23.0493
  39   2.0000      -0.838017       -22.8036
  40   2.0000      -0.834432       -22.7061
  41   2.0000      -0.815273       -22.1847
  42   2.0000      -0.756569       -20.5873
  43   2.0000      -0.732846       -19.9417
  44   2.0000      -0.723300       -19.6820
  45   2.0000      -0.696271       -18.9465
  46   2.0000      -0.688741       -18.7416
  47   2.0000      -0.678915       -18.4742
  48   2.0000      -0.670774       -18.2527
  49   2.0000      -0.661229       -17.9930
  50   2.0000      -0.648348       -17.6424
  51   2.0000      -0.641317       -17.4511
  52   2.0000      -0.631910       -17.1952
  53   2.0000      -0.609365       -16.5817
  54   2.0000      -0.607364       -16.5272
  55   2.0000      -0.600091       -16.3293
  56   2.0000      -0.599036       -16.3006
  57   2.0000      -0.577965       -15.7272
  58   2.0000      -0.570709       -15.5298
  59   2.0000      -0.567803       -15.4507
  60   2.0000      -0.559965       -15.2374
  61   2.0000      -0.543535       -14.7903
  62   2.0000      -0.532794       -14.4981
  63   2.0000      -0.530613       -14.4387
  64   2.0000      -0.525361       -14.2958
  65   2.0000      -0.513270       -13.9668
  66   2.0000      -0.501374       -13.6431
  67   2.0000      -0.499447       -13.5906
  68   2.0000      -0.481168       -13.0932
  69   2.0000      -0.464302       -12.6343
  70   2.0000      -0.454371       -12.3641
  71   2.0000      -0.447092       -12.1660
  72   2.0000      -0.354265        -9.6400
  73   2.0000      -0.350118        -9.5272
  74   2.0000      -0.328281        -8.9330
  75   2.0000      -0.321819        -8.7571
  76   2.0000      -0.316251        -8.6056
  77   0.0000       0.076502         2.0817
  78   0.0000       0.105898         2.8816
  79   0.0000       0.124902         3.3987
  80   0.0000       0.132538         3.6066
  81   0.0000       0.138422         3.7666

MULLIKEN ATOMIC CHARGES
-----------------------
   0 C :   -0.299776
   1 C :    0.016808
   2 O :   -0.355295
   3 C :    0.465334
   4 O :   -0.435770
   5 C :   -0.229186
   6 C :    0.153912
   7 C :   -0.272753
   8 N :   -0.121131
   9 C :    0.212871
  10 S :   -0.440569
  11 N :   -0.206403
  12 C :    0.063198
  13 C :    0.063990
  14 C :   -0.188139
  15 C :   -0.139367
  16 C :   -0.275139
  17 C :    0.314437
  18 O :   -0.356420
  19 C :   -0.263012
  20 H :    0.106653
  21 H :    0.098989
  22 H :    0.108755
  23 H :    0.110711
  24 H :    0.118537
  25 H :    0.132060
  26 H :    0.130883
  27 H :    0.095269
  28 H :    0.197084
  29 H :    0.195230
  30 H :    0.149953
  31 H :    0.149368
  32 H :    0.161411
  33 H :    0.130819
  34 H :    0.240768
  35 H :    0.165918
Sum of atomic charges:   -0.0000000

LOEWDIN ATOMIC CHARGES
----------------------
   0 C :    0.104983
   1 C :   -0.018056
   2 O :    0.308179
   3 C :   -0.414038
   4 O :    0.095177
   5 C :   -0.094284
   6 C :   -0.059288
   7 C :    0.131611
   8 N :    0.406612
   9 C :   -0.455918
  10 S :   -0.035800
  11 N :    0.396434
  12 C :   -0.051920
  13 C :   -0.038616
  14 C :    0.013466
  15 C :    0.039054
  16 C :   -0.002076
  17 C :   -0.189343
  18 O :    0.395638
  19 C :    0.031984
  20 H :   -0.026351
  21 H :   -0.027910
  22 H :   -0.025675
  23 H :   -0.026192
  24 H :   -0.027894
  25 H :   -0.004610
  26 H :   -0.003931
  27 H :   -0.023386
  28 H :   -0.057562
  29 H :   -0.064588
  30 H :   -0.011179
  31 H :   -0.030157
  32 H :   -0.021407
  33 H :   -0.035472
  34 H :   -0.153781
  35 H :   -0.023704

  Mayer bond orders larger than 0.100000
B(  0-C ,  1-C ) :   0.9611 B(  0-C , 20-H ) :   0.9707 B(  0-C , 21-H ) :   0.9775
B(  0-C , 22-H ) :   0.9767 B(  1-C ,  2-O ) :   0.8932 B(  1-C , 23-H ) :   0.9848
B(  1-C , 24-H ) :   0.9793 B(  2-O ,  3-C ) :   1.1657 B(  3-C ,  4-O ) :   1.9653
B(  3-C ,  5-C ) :   1.0607 B(  5-C ,  6-C ) :   1.6545 B(  5-C , 12-C ) :   0.9724
B(  6-C ,  7-C ) :   0.9663 B(  6-C ,  8-N ) :   1.1657 B(  7-C , 25-H ) :   0.9602
B(  7-C , 26-H ) :   0.9606 B(  7-C , 27-H ) :   0.9904 B(  8-N ,  9-C ) :   1.1835
B(  8-N , 28-H ) :   0.9478 B(  9-C , 10-S ) :   1.6058 B(  9-C , 11-N ) :   1.3064
B( 11-N , 12-C ) :   0.9850 B( 11-N , 29-H ) :   0.9513 B( 12-C , 13-C ) :   0.9361
B( 12-C , 30-H ) :   1.0019 B( 13-C , 14-C ) :   1.3532 B( 13-C , 19-C ) :   1.3830
B( 14-C , 15-C ) :   1.3916 B( 14-C , 31-H ) :   0.9725 B( 15-C , 16-C ) :   1.3585
B( 15-C , 32-H ) :   0.9715 B( 16-C , 17-C ) :   1.3318 B( 16-C , 33-H ) :   0.9851
B( 17-C , 18-O ) :   1.1109 B( 17-C , 19-C ) :   1.3703 B( 18-O , 34-H ) :   0.9798
B( 19-C , 35-H ) :   0.9577

MP2 TOTAL ENERGY:    -1274.352146211 Eh
FINAL SINGLE POINT ENERGY     -1274.352146211082

DIPOLE MOMENT
-------------
                                X             Y             Z
Electronic contribution:      9.00195      10.92971       7.10838
Nuclear contribution   :     -9.83017     -12.70445      -7.53776
                        -----------------------------------------
Total Dipole Moment    :     -0.82822      -1.77473      -0.42938
                        -----------------------------------------
Magnitude (a.u.)       :      2.00500
Magnitude (Debye)      :      5.09629

Rotational constants in cm-1:     0.012372     0.008668     0.006296
Rotational constants in MHz :   370.912532   259.846678   188.759158

                             ****ORCA TERMINATED NORMALLY****
TOTAL RUN TIME: 0 days 1 hours 45 minutes 50 seconds 608 msec
