                         Program Version 5.0.0 -  RELEASE  -
|  1> ! ri-mp2 cc-pvtz cc-pvtz/c TightSCF NoKeepInts
|  2>
|  3> %scf
|  4>   MaxCore 4096
|  5> end
|  6> *xyz  0  1
|  7>     C       15.1506450   15.2615024   17.5228553
|  8>     C       15.5391051   15.4435438   16.0432232
|  9>     O       16.9334377   15.1360559   15.8090938
| 10>     C       18.0405871   15.6008687   16.4820596
| 11>     O       19.0444140   14.9131444   16.5164785
| 12>     C       17.9089834   16.8011472   17.3689275
| 13>     C       17.4076242   17.9882465   16.9476788
| 14>     C       16.9576691   18.3609917   15.5507290
| 15>     N       17.4152421   19.0919569   17.8037355
| 16>     C       18.0500229   19.1360333   19.0165813
| 17>     S       18.0893186   20.5154300   19.9274084
| 18>     N       18.6589496   17.9791601   19.4330123
| 19>     C       18.5622352   16.6726125   18.7522901
| 20>     C       17.8598723   15.6378417   19.6307929
| 21>     C       18.2933535   14.2987818   19.6217361
| 22>     C       17.6547892   13.3306710   20.4141690
| 23>     C       16.5722526   13.7023831   21.2285847
| 24>     C       16.1380732   15.0342565   21.2455857
| 25>     O       15.0876876   15.3955285   22.0244692
| 26>     C       16.7759728   15.9963799   20.4560596
| 27>     H       15.6526818   14.3881039   17.9590703
| 28>     H       14.0686291   15.1072933   17.6136325
| 29>     H       15.4002145   16.1497057   18.1116544
| 30>     H       14.9400567   14.7469636   15.4422323
| 31>     H       15.2745481   16.4504578   15.7111059
| 32>     H       17.1530538   17.5669771   14.8200937
| 33>     H       17.5026002   19.2446893   15.1941145
| 34>     H       15.8876828   18.6001389   15.5254962
| 35>     H       16.9976067   19.9592128   17.5047146
| 36>     H       19.1112530   18.0359368   20.3368598
| 37>     H       19.5911157   16.3170023   18.5926952
| 38>     H       19.1260142   14.0034187   18.9866414
| 39>     H       17.9989092   12.2979877   20.3911444
| 40>     H       16.0748129   12.9570218   21.8403078
| 41>     H       14.8129837   14.6115914   22.5236828
| 42>     H       16.4146025   17.0189632   20.4850837
| 43> *
| 44>
| 45>                          ****END OF INPUT****

CARTESIAN COORDINATES (ANGSTROEM)
---------------------------------
  C     15.150645   15.261502   17.522855
  C     15.539105   15.443544   16.043223
  O     16.933438   15.136056   15.809094
  C     18.040587   15.600869   16.482060
  O     19.044414   14.913144   16.516479
  C     17.908983   16.801147   17.368928
  C     17.407624   17.988246   16.947679
  C     16.957669   18.360992   15.550729
  N     17.415242   19.091957   17.803735
  C     18.050023   19.136033   19.016581
  S     18.089319   20.515430   19.927408
  N     18.658950   17.979160   19.433012
  C     18.562235   16.672612   18.752290
  C     17.859872   15.637842   19.630793
  C     18.293353   14.298782   19.621736
  C     17.654789   13.330671   20.414169
  C     16.572253   13.702383   21.228585
  C     16.138073   15.034256   21.245586
  O     15.087688   15.395528   22.024469
  C     16.775973   15.996380   20.456060
  H     15.652682   14.388104   17.959070
  H     14.068629   15.107293   17.613633
  H     15.400214   16.149706   18.111654
  H     14.940057   14.746964   15.442232
  H     15.274548   16.450458   15.711106
  H     17.153054   17.566977   14.820094
  H     17.502600   19.244689   15.194114
  H     15.887683   18.600139   15.525496
  H     16.997607   19.959213   17.504715
  H     19.111253   18.035937   20.336860
  H     19.591116   16.317002   18.592695
  H     19.126014   14.003419   18.986641
  H     17.998909   12.297988   20.391144
  H     16.074813   12.957022   21.840308
  H     14.812984   14.611591   22.523683
  H     16.414603   17.018963   20.485084

 Total Charge           Charge          ....    0
 Multiplicity           Mult            ....    1
 Number of Electrons    NEL             ....  154
 Basis Dimension        Dim             ....  828

ORBITAL ENERGIES
----------------

  NO   OCC          E(Eh)            E(eV)
   0   2.0000     -91.891007     -2500.4814
   1   2.0000     -20.599095      -560.5299
   2   2.0000     -20.597481      -560.4860
   3   2.0000     -20.548693      -559.1584
   4   2.0000     -15.629060      -425.2883
   5   2.0000     -15.611359      -424.8067
   6   2.0000     -11.400778      -310.2309
   7   2.0000     -11.387219      -309.8620
   8   2.0000     -11.334670      -308.4320
   9   2.0000     -11.314053      -307.8710
  10   2.0000     -11.313777      -307.8635
  11   2.0000     -11.308746      -307.7266
  12   2.0000     -11.270138      -306.6760
  13   2.0000     -11.268710      -306.6372
  14   2.0000     -11.261570      -306.4429
  15   2.0000     -11.254338      -306.2461
  16   2.0000     -11.243785      -305.9589
  17   2.0000     -11.239355      -305.8384
  18   2.0000     -11.235805      -305.7418
  19   2.0000     -11.228981      -305.5561
  20   2.0000      -8.896108      -242.0754
  21   2.0000      -6.577695      -178.9882
  22   2.0000      -6.575669      -178.9331
  23   2.0000      -6.575091      -178.9173
  24   2.0000      -1.444953       -39.3192
  25   2.0000      -1.417300       -38.5667
  26   2.0000      -1.357638       -36.9432
  27   2.0000      -1.342420       -36.5291
  28   2.0000      -1.241169       -33.7739
  29   2.0000      -1.158749       -31.5312
  30   2.0000      -1.125199       -30.6182
  31   2.0000      -1.047453       -28.5027
  32   2.0000      -1.038301       -28.2536
  33   2.0000      -1.017221       -27.6800
  34   2.0000      -1.006107       -27.3776
  35   2.0000      -0.990224       -26.9454
  36   2.0000      -0.928082       -25.2544
  37   2.0000      -0.897128       -24.4121
  38   2.0000      -0.855587       -23.2817
  39   2.0000      -0.841016       -22.8852
  40   2.0000      -0.834298       -22.7024
  41   2.0000      -0.829525       -22.5725
  42   2.0000      -0.746122       -20.3030
  43   2.0000      -0.739805       -20.1311
  44   2.0000      -0.730381       -19.8747
  45   2.0000      -0.695364       -18.9218
  46   2.0000      -0.687081       -18.6964
  47   2.0000      -0.680259       -18.5108
  48   2.0000      -0.675466       -18.3804
  49   2.0000      -0.661234       -17.9931
  50   2.0000      -0.654646       -17.8138
  51   2.0000      -0.650711       -17.7067
  52   2.0000      -0.639581       -17.4039
  53   2.0000      -0.621572       -16.9138
  54   2.0000      -0.610513       -16.6129
  55   2.0000      -0.605692       -16.4817
  56   2.0000      -0.601650       -16.3717
  57   2.0000      -0.589336       -16.0367
  58   2.0000      -0.577040       -15.7021
  59   2.0000      -0.567876       -15.4527
  60   2.0000      -0.565884       -15.3985
  61   2.0000      -0.553630       -15.0651
  62   2.0000      -0.539205       -14.6725
  63   2.0000      -0.534898       -14.5553
  64   2.0000      -0.520659       -14.1679
  65   2.0000      -0.512997       -13.9594
  66   2.0000      -0.501281       -13.6406
  67   2.0000      -0.499670       -13.5967
  68   2.0000      -0.482700       -13.1349
  69   2.0000      -0.468277       -12.7425
  70   2.0000      -0.456114       -12.4115
  71   2.0000      -0.450093       -12.2476
  72   2.0000      -0.358682        -9.7602
  73   2.0000      -0.348211        -9.4753
  74   2.0000      -0.330544        -8.9946
  75   2.0000      -0.322917        -8.7870
  76   2.0000      -0.319632        -8.6976
  77   0.0000       0.080254         2.1838
  78   0.0000       0.107444         2.9237
  79   0.0000       0.113638         3.0922
  80   0.0000       0.130653         3.5552
  81   0.0000       0.131220         3.5707

MULLIKEN ATOMIC CHARGES
-----------------------
   0 C :   -0.331517
   1 C :    0.024999
   2 O :   -0.327237
   3 C :    0.430518
   4 O :   -0.387061
   5 C :   -0.244175
   6 C :    0.174555
   7 C :   -0.336016
   8 N :   -0.137713
   9 C :    0.200628
  10 S :   -0.439486
  11 N :   -0.223791
  12 C :    0.088986
  13 C :    0.019478
  14 C :   -0.215282
  15 C :   -0.135868
  16 C :   -0.277719
  17 C :    0.323251
  18 O :   -0.358099
  19 C :   -0.272915
  20 H :    0.129216
  21 H :    0.115276
  22 H :    0.108979
  23 H :    0.130222
  24 H :    0.086667
  25 H :    0.133123
  26 H :    0.141346
  27 H :    0.120168
  28 H :    0.196922
  29 H :    0.202116
  30 H :    0.166464
  31 H :    0.177456
  32 H :    0.164285
  33 H :    0.131801
  34 H :    0.241005
  35 H :    0.179417
Sum of atomic charges:   -0.0000000

LOEWDIN ATOMIC CHARGES
----------------------
   0 C :    0.104150
   1 C :   -0.019303
   2 O :    0.296152
   3 C :   -0.413741
   4 O :    0.121991
   5 C :   -0.079967
   6 C :   -0.093635
   7 C :    0.121897
   8 N :    0.402911
   9 C :   -0.458986
  10 S :   -0.036538
  11 N :    0.398210
  12 C :   -0.042586
  13 C :   -0.042417
  14 C :    0.019805
  15 C :    0.042455
  16 C :   -0.001504
  17 C :   -0.193042
  18 O :    0.395210
  19 C :    0.028386
  20 H :   -0.018056
  21 H :   -0.024620
  22 H :   -0.035269
  23 H :   -0.018753
  24 H :   -0.039705
  25 H :   -0.007812
  26 H :   -0.008679
  27 H :   -0.019050
  28 H :   -0.056988
  29 H :   -0.063045
  30 H :   -0.002008
  31 H :   -0.022266
  32 H :   -0.018816
  33 H :   -0.035025
  34 H :   -0.153551
  35 H :   -0.025808

  Mayer bond orders larger than 0.100000
B(  0-C ,  1-C ) :   0.9539 B(  0-C , 20-H ) :   0.9672 B(  0-C , 21-H ) :   0.9771
B(  0-C , 22-H ) :   0.9725 B(  1-C ,  2-O ) :   0.9036 B(  1-C , 23-H ) :   0.9830
B(  1-C , 24-H ) :   0.9732 B(  2-O ,  3-C ) :   1.1830 B(  3-C ,  4-O ) :   2.0769
B(  3-C ,  5-C ) :   0.9323 B(  5-C ,  6-C ) :   1.6822 B(  5-C , 12-C ) :   0.9490
B(  6-C ,  7-C ) :   0.9444 B(  6-C ,  8-N ) :   1.1137 B(  7-C , 25-H ) :   0.9787
B(  7-C , 26-H ) :   0.9690 B(  7-C , 27-H ) :   0.9665 B(  8-N ,  9-C ) :   1.1937
B(  8-N , 28-H ) :   0.9521 B(  9-C , 10-S ) :   1.6101 B(  9-C , 11-N ) :   1.2907
B( 11-N , 12-C ) :   0.9886 B( 11-N , 29-H ) :   0.9482 B( 12-C , 13-C ) :   0.9529
B( 12-C , 30-H ) :   0.9952 B( 13-C , 14-C ) :   1.3904 B( 13-C , 19-C ) :   1.3368
B( 14-C , 15-C ) :   1.4005 B( 14-C , 31-H ) :   0.9571 B( 15-C , 16-C ) :   1.3584
B( 15-C , 32-H ) :   0.9701 B( 16-C , 17-C ) :   1.3314 B( 16-C , 33-H ) :   0.9848
B( 17-C , 18-O ) :   1.1093 B( 17-C , 19-C ) :   1.3664 B( 18-O , 34-H ) :   0.9797
B( 19-C , 35-H ) :   0.9570

MP2 TOTAL ENERGY:    -1274.331513276 Eh
FINAL SINGLE POINT ENERGY     -1274.331513276036

DIPOLE MOMENT
-------------
                                X             Y             Z
Electronic contribution:      8.94911       6.43726       6.19879
Nuclear contribution   :    -10.47422      -7.39340      -6.82415
                        -----------------------------------------
Total Dipole Moment    :     -1.52510      -0.95614      -0.62536
                        -----------------------------------------
Magnitude (a.u.)       :      1.90558
Magnitude (Debye)      :      4.84359

Rotational constants in cm-1:     0.011737     0.009608     0.006740
Rotational constants in MHz :   351.852033   288.048443   202.071015

                             ****ORCA TERMINATED NORMALLY****
TOTAL RUN TIME: 0 days 2 hours 16 minutes 10 seconds 944 msec
