                         Program Version 4.2.0 -  RELEASE  -
|  1> ! ri-mp2 cc-pvtz cc-pvtz/c TightSCF  NoKeepInts
|  2>
|  3> %scf
|  4>   MaxCore 4096
|  5> end
|  6> *xyz  0  1
|  7>     C       14.9885439   14.2555525   15.9637980
|  8>     C       16.1524544   14.3353081   16.9711577
|  9>     O       17.2629955   15.0533329   16.3919149
| 10>     C       17.1648454   16.4026236   16.2047686
| 11>     O       16.5246577   16.8556465   15.2733005
| 12>     C       17.6486077   17.2180504   17.3756453
| 13>     C       17.3866411   18.5459303   17.4916368
| 14>     C       16.5238055   19.3973626   16.5849029
| 15>     N       17.9837558   19.2899416   18.5143671
| 16>     C       19.0016720   18.8371657   19.3113194
| 17>     S       19.7890354   19.8275380   20.3764447
| 18>     N       19.3442443   17.5165025   19.1687468
| 19>     C       18.5625304   16.5275363   18.4046390
| 20>     C       17.8061839   15.6359755   19.3833126
| 21>     C       18.1956606   14.2957852   19.5680016
| 22>     C       17.5011722   13.4666153   20.4647214
| 23>     C       16.4131421   13.9830221   21.1887955
| 24>     C       16.0305655   15.3203381   21.0174358
| 25>     O       14.9815513   15.8226451   21.7155364
| 26>     C       16.7214552   16.1424660   20.1219780
| 27>     H       14.5293706   15.2395730   15.8084382
| 28>     H       14.2100446   13.5763591   16.3313282
| 29>     H       15.3406857   13.8815481   14.9942306
| 30>     H       15.8017513   14.8182277   17.8909942
| 31>     H       16.4764985   13.3174803   17.2233505
| 32>     H       15.5228724   18.9597240   16.4801774
| 33>     H       16.9616361   19.4550030   15.5799975
| 34>     H       16.3969655   20.4225638   16.9518741
| 35>     H       17.7542706   20.2655355   18.6186385
| 36>     H       20.0829829   17.2043873   19.7858680
| 37>     H       19.2741563   15.9018338   17.8473049
| 38>     H       19.0364308   13.8930105   19.0088869
| 39>     H       17.8087510   12.4307268   20.5992508
| 40>     H       15.8750038   13.3468744   21.8841681
| 41>     H       14.6781649   15.1331762   22.3254846
| 42>     H       16.4138950   17.1766382   20.0115845
| 43> *
| 44>
| 45>                          ****END OF INPUT****

CARTESIAN COORDINATES (ANGSTROEM)
---------------------------------
  C     14.988544   14.255552   15.963798
  C     16.152454   14.335308   16.971158
  O     17.262995   15.053333   16.391915
  C     17.164845   16.402624   16.204769
  O     16.524658   16.855646   15.273300
  C     17.648608   17.218050   17.375645
  C     17.386641   18.545930   17.491637
  C     16.523806   19.397363   16.584903
  N     17.983756   19.289942   18.514367
  C     19.001672   18.837166   19.311319
  S     19.789035   19.827538   20.376445
  N     19.344244   17.516503   19.168747
  C     18.562530   16.527536   18.404639
  C     17.806184   15.635976   19.383313
  C     18.195661   14.295785   19.568002
  C     17.501172   13.466615   20.464721
  C     16.413142   13.983022   21.188796
  C     16.030566   15.320338   21.017436
  O     14.981551   15.822645   21.715536
  C     16.721455   16.142466   20.121978
  H     14.529371   15.239573   15.808438
  H     14.210045   13.576359   16.331328
  H     15.340686   13.881548   14.994231
  H     15.801751   14.818228   17.890994
  H     16.476499   13.317480   17.223350
  H     15.522872   18.959724   16.480177
  H     16.961636   19.455003   15.579997
  H     16.396966   20.422564   16.951874
  H     17.754271   20.265535   18.618638
  H     20.082983   17.204387   19.785868
  H     19.274156   15.901834   17.847305
  H     19.036431   13.893011   19.008887
  H     17.808751   12.430727   20.599251
  H     15.875004   13.346874   21.884168
  H     14.678165   15.133176   22.325485
  H     16.413895   17.176638   20.011585

 Total Charge           Charge          ....    0
 Multiplicity           Mult            ....    1
 Number of Electrons    NEL             ....  154
 Basis Dimension        Dim             ....  828

ORBITAL ENERGIES
----------------

  NO   OCC          E(Eh)            E(eV)
   0   2.0000     -91.891288     -2500.4891
   1   2.0000     -20.602129      -560.6124
   2   2.0000     -20.581674      -560.0558
   3   2.0000     -20.548348      -559.1490
   4   2.0000     -15.631815      -425.3633
   5   2.0000     -15.610155      -424.7739
   6   2.0000     -11.393710      -310.0386
   7   2.0000     -11.385868      -309.8252
   8   2.0000     -11.338269      -308.5300
   9   2.0000     -11.320065      -308.0346
  10   2.0000     -11.312487      -307.8284
  11   2.0000     -11.296415      -307.3911
  12   2.0000     -11.264451      -306.5213
  13   2.0000     -11.261278      -306.4350
  14   2.0000     -11.259733      -306.3929
  15   2.0000     -11.254129      -306.2404
  16   2.0000     -11.249134      -306.1045
  17   2.0000     -11.243510      -305.9514
  18   2.0000     -11.243345      -305.9470
  19   2.0000     -11.217461      -305.2426
  20   2.0000      -8.896312      -242.0810
  21   2.0000      -6.577877      -178.9931
  22   2.0000      -6.575883      -178.9389
  23   2.0000      -6.575286      -178.9226
  24   2.0000      -1.445536       -39.3350
  25   2.0000      -1.421827       -38.6899
  26   2.0000      -1.353195       -36.8223
  27   2.0000      -1.342906       -36.5423
  28   2.0000      -1.241218       -33.7753
  29   2.0000      -1.162687       -31.6383
  30   2.0000      -1.121805       -30.5259
  31   2.0000      -1.046730       -28.4830
  32   2.0000      -1.029749       -28.0209
  33   2.0000      -1.021047       -27.7841
  34   2.0000      -0.998279       -27.1646
  35   2.0000      -0.986323       -26.8392
  36   2.0000      -0.926002       -25.1978
  37   2.0000      -0.884691       -24.0737
  38   2.0000      -0.850161       -23.1341
  39   2.0000      -0.844058       -22.9680
  40   2.0000      -0.839409       -22.8415
  41   2.0000      -0.827888       -22.5280
  42   2.0000      -0.752627       -20.4800
  43   2.0000      -0.735576       -20.0160
  44   2.0000      -0.718204       -19.5433
  45   2.0000      -0.701093       -19.0777
  46   2.0000      -0.691995       -18.8301
  47   2.0000      -0.679870       -18.5002
  48   2.0000      -0.668352       -18.1868
  49   2.0000      -0.663667       -18.0593
  50   2.0000      -0.650859       -17.7108
  51   2.0000      -0.648663       -17.6510
  52   2.0000      -0.639187       -17.3932
  53   2.0000      -0.612535       -16.6679
  54   2.0000      -0.607084       -16.5196
  55   2.0000      -0.601951       -16.3799
  56   2.0000      -0.596538       -16.2326
  57   2.0000      -0.582083       -15.8393
  58   2.0000      -0.573319       -15.6008
  59   2.0000      -0.571055       -15.5392
  60   2.0000      -0.561784       -15.2869
  61   2.0000      -0.541987       -14.7482
  62   2.0000      -0.536027       -14.5860
  63   2.0000      -0.529289       -14.4027
  64   2.0000      -0.519778       -14.1439
  65   2.0000      -0.516842       -14.0640
  66   2.0000      -0.505396       -13.7525
  67   2.0000      -0.497396       -13.5348
  68   2.0000      -0.480515       -13.0755
  69   2.0000      -0.464178       -12.6309
  70   2.0000      -0.455386       -12.3917
  71   2.0000      -0.442231       -12.0337
  72   2.0000      -0.358178        -9.7465
  73   2.0000      -0.354505        -9.6466
  74   2.0000      -0.331225        -9.0131
  75   2.0000      -0.327331        -8.9071
  76   2.0000      -0.318275        -8.6607
  77   0.0000       0.068874         1.8741
  78   0.0000       0.099802         2.7158
  79   0.0000       0.121826         3.3150
  80   0.0000       0.128011         3.4833
  81   0.0000       0.132411         3.6031

MULLIKEN ATOMIC CHARGES
-----------------------
   0 C :   -0.268215
   1 C :    0.025010
   2 O :   -0.386254
   3 C :    0.502923
   4 O :   -0.403164
   5 C :   -0.274761
   6 C :    0.155771
   7 C :   -0.270506
   8 N :   -0.125198
   9 C :    0.210510
  10 S :   -0.435244
  11 N :   -0.198107
  12 C :    0.045775
  13 C :    0.031974
  14 C :   -0.166390
  15 C :   -0.131689
  16 C :   -0.274412
  17 C :    0.309492
  18 O :   -0.356031
  19 C :   -0.256914
  20 H :    0.100975
  21 H :    0.090761
  22 H :    0.102693
  23 H :    0.104062
  24 H :    0.106804
  25 H :    0.127819
  26 H :    0.136297
  27 H :    0.094712
  28 H :    0.198615
  29 H :    0.192619
  30 H :    0.151353
  31 H :    0.149365
  32 H :    0.164571
  33 H :    0.133824
  34 H :    0.241842
  35 H :    0.169120
Sum of atomic charges:   -0.0000000

LOEWDIN ATOMIC CHARGES
----------------------
   0 C :    0.105609
   1 C :   -0.021175
   2 O :    0.282504
   3 C :   -0.418030
   4 O :    0.123633
   5 C :   -0.099524
   6 C :   -0.057969
   7 C :    0.130941
   8 N :    0.406968
   9 C :   -0.457060
  10 S :   -0.031855
  11 N :    0.396451
  12 C :   -0.052836
  13 C :   -0.039364
  14 C :    0.016165
  15 C :    0.042296
  16 C :   -0.000916
  17 C :   -0.191054
  18 O :    0.396638
  19 C :    0.029641
  20 H :   -0.029339
  21 H :   -0.029918
  22 H :   -0.024025
  23 H :   -0.033157
  24 H :   -0.023386
  25 H :   -0.005846
  26 H :   -0.002770
  27 H :   -0.023131
  28 H :   -0.057327
  29 H :   -0.065113
  30 H :   -0.006885
  31 H :   -0.028958
  32 H :   -0.019796
  33 H :   -0.034235
  34 H :   -0.152529
  35 H :   -0.024649

  Mayer bond orders larger than 0.100000
B(  0-C ,  1-C ) :   0.9827 B(  0-C , 20-H ) :   0.9727 B(  0-C , 21-H ) :   0.9762
B(  0-C , 22-H ) :   0.9783 B(  1-C ,  2-O ) :   0.8804 B(  1-C , 23-H ) :   0.9654
B(  1-C , 24-H ) :   0.9805 B(  2-O ,  3-C ) :   1.0931 B(  3-C ,  4-O ) :   2.0205
B(  3-C ,  5-C ) :   1.0570 B(  5-C ,  6-C ) :   1.6538 B(  5-C , 12-C ) :   0.9686
B(  6-C ,  7-C ) :   0.9701 B(  6-C ,  8-N ) :   1.1557 B(  7-C , 25-H ) :   0.9638
B(  7-C , 26-H ) :   0.9564 B(  7-C , 27-H ) :   0.9890 B(  8-N ,  9-C ) :   1.1781
B(  8-N , 28-H ) :   0.9480 B(  9-C , 10-S ) :   1.6142 B(  9-C , 11-N ) :   1.3025
B( 11-N , 12-C ) :   0.9755 B( 11-N , 29-H ) :   0.9537 B( 12-C , 13-C ) :   0.9499
B( 12-C , 30-H ) :   1.0010 B( 13-C , 14-C ) :   1.3509 B( 13-C , 19-C ) :   1.3700
B( 14-C , 15-C ) :   1.3852 B( 14-C , 31-H ) :   0.9764 B( 15-C , 16-C ) :   1.3677
B( 15-C , 32-H ) :   0.9693 B( 16-C , 17-C ) :   1.3272 B( 16-C , 33-H ) :   0.9835
B( 17-C , 18-O ) :   1.1149 B( 17-C , 19-C ) :   1.3751 B( 18-O , 34-H ) :   0.9789
B( 19-C , 35-H ) :   0.9571

MP2 TOTAL ENERGY:    -1274.331039359 Eh
FINAL SINGLE POINT ENERGY     -1274.331039359371

DIPOLE MOMENT
-------------
                                X             Y             Z
Electronic contribution:     10.66282       9.19678       6.99642
Nuclear contribution   :    -11.72524     -10.73290      -6.70326
                        -----------------------------------------
Total Dipole Moment    :     -1.06242      -1.53612       0.29316
                        -----------------------------------------
Magnitude (a.u.)       :      1.89059
Magnitude (Debye)      :      4.80550

Rotational constants in cm-1:     0.011776     0.009286     0.006395
Rotational constants in MHz :   353.040032   278.373421   191.716051

                             ****ORCA TERMINATED NORMALLY****
TOTAL RUN TIME: 0 days 1 hours 51 minutes 47 seconds 569 msec
