                         Program Version 4.2.0 -  RELEASE  -
|  1> ! ri-mp2 cc-pvtz cc-pvtz/c TightSCF  NoKeepInts
|  2>
|  3> %scf
|  4>   MaxCore 4096
|  5> end
|  6> *xyz  0  1
|  7>     C       14.7412094   15.1024912   17.4636787
|  8>     C       15.6956010   15.1507164   16.2590379
|  9>     O       17.0205840   14.8917262   16.7425768
| 10>     C       18.0485600   15.7444989   16.4665493
| 11>     O       19.1365854   15.2578451   16.2227555
| 12>     C       17.9930072   16.9198724   17.3809166
| 13>     C       17.4675564   18.1036042   16.9954548
| 14>     C       16.8769626   18.4370978   15.6429490
| 15>     N       17.4988779   19.1953213   17.8660040
| 16>     C       18.1395561   19.2067669   19.0778785
| 17>     S       18.1863990   20.5644620   20.0209157
| 18>     N       18.7377983   18.0344923   19.4712611
| 19>     C       18.6498385   16.7471572   18.7522432
| 20>     C       17.9378258   15.6898668   19.5911299
| 21>     C       18.4336557   14.3736802   19.6316519
| 22>     C       17.7786643   13.3838329   20.3830306
| 23>     C       16.6154495   13.7111442   21.1000665
| 24>     C       16.1158688   15.0197220   21.0591136
| 25>     O       14.9849717   15.3356294   21.7389889
| 26>     C       16.7710533   16.0039969   20.3125618
| 27>     H       14.8627718   14.1620503   18.0164656
| 28>     H       13.6977430   15.1761368   17.1346284
| 29>     H       14.9421719   15.9332136   18.1505069
| 30>     H       15.4153136   14.3727030   15.5368525
| 31>     H       15.6188978   16.1211410   15.7592231
| 32>     H       17.1786327   17.7183271   14.8713240
| 33>     H       17.2169960   19.4222954   15.2984480
| 34>     H       15.7811174   18.4583172   15.6864937
| 35>     H       17.0759335   20.0682518   17.5925149
| 36>     H       19.1839577   18.0663259   20.3791308
| 37>     H       19.6778927   16.3974906   18.5769242
| 38>     H       19.3209613   14.1131090   19.0588800
| 39>     H       18.1689009   12.3677898   20.3989026
| 40>     H       16.1038714   12.9483033   21.6773233
| 41>     H       14.7092139   14.5440012   22.2251170
| 42>     H       16.3625998   17.0086197   20.2925007
| 43> *
| 44>
| 45>                          ****END OF INPUT****

CARTESIAN COORDINATES (ANGSTROEM)
---------------------------------
  C     14.741209   15.102491   17.463679
  C     15.695601   15.150716   16.259038
  O     17.020584   14.891726   16.742577
  C     18.048560   15.744499   16.466549
  O     19.136585   15.257845   16.222756
  C     17.993007   16.919872   17.380917
  C     17.467556   18.103604   16.995455
  C     16.876963   18.437098   15.642949
  N     17.498878   19.195321   17.866004
  C     18.139556   19.206767   19.077878
  S     18.186399   20.564462   20.020916
  N     18.737798   18.034492   19.471261
  C     18.649838   16.747157   18.752243
  C     17.937826   15.689867   19.591130
  C     18.433656   14.373680   19.631652
  C     17.778664   13.383833   20.383031
  C     16.615450   13.711144   21.100067
  C     16.115869   15.019722   21.059114
  O     14.984972   15.335629   21.738989
  C     16.771053   16.003997   20.312562
  H     14.862772   14.162050   18.016466
  H     13.697743   15.176137   17.134628
  H     14.942172   15.933214   18.150507
  H     15.415314   14.372703   15.536853
  H     15.618898   16.121141   15.759223
  H     17.178633   17.718327   14.871324
  H     17.216996   19.422295   15.298448
  H     15.781117   18.458317   15.686494
  H     17.075934   20.068252   17.592515
  H     19.183958   18.066326   20.379131
  H     19.677893   16.397491   18.576924
  H     19.320961   14.113109   19.058880
  H     18.168901   12.367790   20.398903
  H     16.103871   12.948303   21.677323
  H     14.709214   14.544001   22.225117
  H     16.362600   17.008620   20.292501

 Total Charge           Charge          ....    0
 Multiplicity           Mult            ....    1
 Number of Electrons    NEL             ....  154
 Basis Dimension        Dim             ....  828

ORBITAL ENERGIES
----------------

  NO   OCC          E(Eh)            E(eV)
   0   2.0000     -91.886085     -2500.3475
   1   2.0000     -20.596311      -560.4541
   2   2.0000     -20.595504      -560.4322
   3   2.0000     -20.565497      -559.6156
   4   2.0000     -15.620865      -425.0653
   5   2.0000     -15.609026      -424.7432
   6   2.0000     -11.395738      -310.0938
   7   2.0000     -11.382934      -309.7454
   8   2.0000     -11.319905      -308.0303
   9   2.0000     -11.315168      -307.9014
  10   2.0000     -11.312164      -307.8196
  11   2.0000     -11.306350      -307.6614
  12   2.0000     -11.269618      -306.6619
  13   2.0000     -11.264837      -306.5318
  14   2.0000     -11.259498      -306.3865
  15   2.0000     -11.252698      -306.2015
  16   2.0000     -11.241859      -305.9065
  17   2.0000     -11.237310      -305.7827
  18   2.0000     -11.235361      -305.7297
  19   2.0000     -11.229421      -305.5681
  20   2.0000      -8.891238      -241.9429
  21   2.0000      -6.572841      -178.8561
  22   2.0000      -6.570802      -178.8006
  23   2.0000      -6.570241      -178.7853
  24   2.0000      -1.459308       -39.7098
  25   2.0000      -1.416029       -38.5321
  26   2.0000      -1.366036       -37.1717
  27   2.0000      -1.335753       -36.3477
  28   2.0000      -1.236375       -33.6435
  29   2.0000      -1.156770       -31.4773
  30   2.0000      -1.122511       -30.5451
  31   2.0000      -1.046129       -28.4666
  32   2.0000      -1.040366       -28.3098
  33   2.0000      -1.014647       -27.6099
  34   2.0000      -1.002566       -27.2812
  35   2.0000      -0.985991       -26.8302
  36   2.0000      -0.925142       -25.1744
  37   2.0000      -0.887587       -24.1525
  38   2.0000      -0.850730       -23.1495
  39   2.0000      -0.837643       -22.7934
  40   2.0000      -0.833010       -22.6673
  41   2.0000      -0.831856       -22.6360
  42   2.0000      -0.760496       -20.6942
  43   2.0000      -0.735246       -20.0071
  44   2.0000      -0.728823       -19.8323
  45   2.0000      -0.695201       -18.9174
  46   2.0000      -0.690677       -18.7943
  47   2.0000      -0.683197       -18.5907
  48   2.0000      -0.676410       -18.4060
  49   2.0000      -0.664838       -18.0912
  50   2.0000      -0.650333       -17.6965
  51   2.0000      -0.638296       -17.3689
  52   2.0000      -0.633993       -17.2518
  53   2.0000      -0.621184       -16.9033
  54   2.0000      -0.609566       -16.5871
  55   2.0000      -0.604558       -16.4509
  56   2.0000      -0.600114       -16.3299
  57   2.0000      -0.588676       -16.0187
  58   2.0000      -0.575985       -15.6733
  59   2.0000      -0.571280       -15.5453
  60   2.0000      -0.563432       -15.3318
  61   2.0000      -0.554138       -15.0789
  62   2.0000      -0.540364       -14.7040
  63   2.0000      -0.524665       -14.2769
  64   2.0000      -0.518647       -14.1131
  65   2.0000      -0.511035       -13.9060
  66   2.0000      -0.499228       -13.5847
  67   2.0000      -0.499101       -13.5812
  68   2.0000      -0.489645       -13.3239
  69   2.0000      -0.466053       -12.6820
  70   2.0000      -0.459611       -12.5067
  71   2.0000      -0.453201       -12.3322
  72   2.0000      -0.353481        -9.6187
  73   2.0000      -0.346266        -9.4224
  74   2.0000      -0.326048        -8.8722
  75   2.0000      -0.319677        -8.6988
  76   2.0000      -0.314247        -8.5511
  77   0.0000       0.089335         2.4309
  78   0.0000       0.099091         2.6964
  79   0.0000       0.109652         2.9838
  80   0.0000       0.125392         3.4121
  81   0.0000       0.130483         3.5506

MULLIKEN ATOMIC CHARGES
-----------------------
   0 C :   -0.282728
   1 C :    0.004872
   2 O :   -0.311960
   3 C :    0.372528
   4 O :   -0.350080
   5 C :   -0.121981
   6 C :    0.122277
   7 C :   -0.335635
   8 N :   -0.135152
   9 C :    0.208077
  10 S :   -0.447653
  11 N :   -0.215590
  12 C :    0.038395
  13 C :    0.069303
  14 C :   -0.189756
  15 C :   -0.132070
  16 C :   -0.279517
  17 C :    0.331105
  18 O :   -0.361476
  19 C :   -0.306425
  20 H :    0.111756
  21 H :    0.101378
  22 H :    0.104932
  23 H :    0.122214
  24 H :    0.076206
  25 H :    0.117698
  26 H :    0.132542
  27 H :    0.124015
  28 H :    0.193966
  29 H :    0.198983
  30 H :    0.167251
  31 H :    0.157617
  32 H :    0.161221
  33 H :    0.131192
  34 H :    0.240954
  35 H :    0.181540
Sum of atomic charges:   -0.0000000

LOEWDIN ATOMIC CHARGES
----------------------
   0 C :    0.107631
   1 C :   -0.029576
   2 O :    0.326465
   3 C :   -0.426917
   4 O :    0.152368
   5 C :   -0.076064
   6 C :   -0.117061
   7 C :    0.119094
   8 N :    0.398660
   9 C :   -0.455758
  10 S :   -0.043496
  11 N :    0.397892
  12 C :   -0.040203
  13 C :   -0.040006
  14 C :    0.023770
  15 C :    0.044233
  16 C :   -0.001813
  17 C :   -0.192117
  18 O :    0.394553
  19 C :    0.029874
  20 H :   -0.021002
  21 H :   -0.027848
  22 H :   -0.028714
  23 H :   -0.026857
  24 H :   -0.038594
  25 H :   -0.012885
  26 H :   -0.011232
  27 H :   -0.018047
  28 H :   -0.060518
  29 H :   -0.063685
  30 H :   -0.003060
  31 H :   -0.024398
  32 H :   -0.019777
  33 H :   -0.035685
  34 H :   -0.153905
  35 H :   -0.025322

  Mayer bond orders larger than 0.100000
B(  0-C ,  1-C ) :   0.9750 B(  0-C , 20-H ) :   0.9738 B(  0-C , 21-H ) :   0.9784
B(  0-C , 22-H ) :   0.9731 B(  1-C ,  2-O ) :   0.9202 B(  1-C , 23-H ) :   0.9835
B(  1-C , 24-H ) :   0.9729 B(  2-O ,  3-C ) :   1.0783 B(  3-C ,  4-O ) :   2.1063
B(  3-C ,  5-C ) :   0.9314 B(  5-C ,  6-C ) :   1.7305 B(  5-C , 12-C ) :   0.9691
B(  6-C ,  7-C ) :   0.9330 B(  6-C ,  8-N ) :   1.0996 B(  7-C , 25-H ) :   0.9836
B(  7-C , 26-H ) :   0.9750 B(  7-C , 27-H ) :   0.9681 B(  8-N ,  9-C ) :   1.2035
B(  8-N , 28-H ) :   0.9544 B(  9-C , 10-S ) :   1.6033 B(  9-C , 11-N ) :   1.2847
B( 11-N , 12-C ) :   0.9934 B( 11-N , 29-H ) :   0.9475 B( 12-C , 13-C ) :   0.9473
B( 12-C , 30-H ) :   0.9990 B( 13-C , 14-C ) :   1.3795 B( 13-C , 19-C ) :   1.3392
B( 14-C , 15-C ) :   1.4002 B( 14-C , 31-H ) :   0.9666 B( 15-C , 16-C ) :   1.3605
B( 15-C , 32-H ) :   0.9707 B( 16-C , 17-C ) :   1.3319 B( 16-C , 33-H ) :   0.9849
B( 17-C , 18-O ) :   1.1046 B( 17-C , 19-C ) :   1.3569 B( 18-O , 34-H ) :   0.9802
B( 19-C , 35-H ) :   0.9555

MP2 TOTAL ENERGY:    -1274.307262382 Eh
FINAL SINGLE POINT ENERGY     -1274.307262381599

DIPOLE MOMENT
-------------
                                X             Y             Z
Electronic contribution:     10.11950       7.00638       6.60591
Nuclear contribution   :    -11.64503      -8.33696      -7.57700
                        -----------------------------------------
Total Dipole Moment    :     -1.52553      -1.33058      -0.97109
                        -----------------------------------------
Magnitude (a.u.)       :      2.24515
Magnitude (Debye)      :      5.70672

Rotational constants in cm-1:     0.012288     0.009245     0.006913
Rotational constants in MHz :   368.375970   277.164556   207.236429

                             ****ORCA TERMINATED NORMALLY****
TOTAL RUN TIME: 0 days 1 hours 49 minutes 26 seconds 617 msec
