                         Program Version 4.2.0 -  RELEASE  -
|  1> ! ri-mp2 cc-pvtz cc-pvtz/c TightSCF  NoKeepInts
|  2>
|  3> %scf
|  4>   MaxCore 4096
|  5> end
|  6> *xyz  0  1
|  7>     C       15.0774703   15.2126695   16.8391755
|  8>     C       16.2983230   14.2630044   16.8464460
|  9>     O       17.4847265   14.8475909   16.2509909
| 10>     C       17.6343630   16.1891454   16.0325399
| 11>     O       17.4057354   16.6392421   14.9247956
| 12>     C       17.7656760   17.0425417   17.2659262
| 13>     C       17.3570898   18.3368726   17.2886002
| 14>     C       16.5739513   19.0700128   16.2211781
| 15>     N       17.7006849   19.1583759   18.3666255
| 16>     C       18.6490241   18.8419948   19.3038306
| 17>     S       19.1724896   19.9370844   20.4271796
| 18>     N       19.1567429   17.5679441   19.2483786
| 19>     C       18.5761216   16.4756802   18.4457836
| 20>     C       17.7897350   15.5635588   19.3790115
| 21>     C       18.2989665   14.2961525   19.7215198
| 22>     C       17.5881071   13.4513878   20.5906423
| 23>     C       16.3633433   13.8802694   21.1299634
| 24>     C       15.8633704   15.1490139   20.8071861
| 25>     O       14.6832293   15.5684365   21.3280865
| 26>     C       16.5730434   15.9878467   19.9427817
| 27>     H       15.2240546   16.0777224   17.4941953
| 28>     H       14.1872428   14.6800180   17.1950676
| 29>     H       14.8681648   15.5711955   15.8229991
| 30>     H       16.4969757   13.9377579   17.8715557
| 31>     H       16.0410228   13.3592933   16.2790890
| 32>     H       15.7359608   18.4588290   15.8631333
| 33>     H       17.2141448   19.2836010   15.3553390
| 34>     H       16.1577451   20.0203112   16.5754280
| 35>     H       17.3562115   20.1047242   18.4013677
| 36>     H       19.8414910   17.3568908   19.9629572
| 37>     H       19.4071423   15.8945343   18.0213470
| 38>     H       19.2463520   13.9608908   19.3070815
| 39>     H       17.9876620   12.4710292   20.8457513
| 40>     H       15.8110319   13.2311644   21.8018501
| 41>     H       14.3843039   14.8935652   21.9564458
| 42>     H       16.1753005   16.9716483   19.7197504
| 43> *
| 44>
| 45>                          ****END OF INPUT****

CARTESIAN COORDINATES (ANGSTROEM)
---------------------------------
  C     15.077470   15.212669   16.839175
  C     16.298323   14.263004   16.846446
  O     17.484726   14.847591   16.250991
  C     17.634363   16.189145   16.032540
  O     17.405735   16.639242   14.924796
  C     17.765676   17.042542   17.265926
  C     17.357090   18.336873   17.288600
  C     16.573951   19.070013   16.221178
  N     17.700685   19.158376   18.366626
  C     18.649024   18.841995   19.303831
  S     19.172490   19.937084   20.427180
  N     19.156743   17.567944   19.248379
  C     18.576122   16.475680   18.445784
  C     17.789735   15.563559   19.379011
  C     18.298966   14.296152   19.721520
  C     17.588107   13.451388   20.590642
  C     16.363343   13.880269   21.129963
  C     15.863370   15.149014   20.807186
  O     14.683229   15.568436   21.328087
  C     16.573043   15.987847   19.942782
  H     15.224055   16.077722   17.494195
  H     14.187243   14.680018   17.195068
  H     14.868165   15.571195   15.822999
  H     16.496976   13.937758   17.871556
  H     16.041023   13.359293   16.279089
  H     15.735961   18.458829   15.863133
  H     17.214145   19.283601   15.355339
  H     16.157745   20.020311   16.575428
  H     17.356212   20.104724   18.401368
  H     19.841491   17.356891   19.962957
  H     19.407142   15.894534   18.021347
  H     19.246352   13.960891   19.307081
  H     17.987662   12.471029   20.845751
  H     15.811032   13.231164   21.801850
  H     14.384304   14.893565   21.956446
  H     16.175300   16.971648   19.719750

 Total Charge           Charge          ....    0
 Multiplicity           Mult            ....    1
 Number of Electrons    NEL             ....  154
 Basis Dimension        Dim             ....  828

ORBITAL ENERGIES
----------------

  NO   OCC          E(Eh)            E(eV)
   0   2.0000     -91.891524     -2500.4955
   1   2.0000     -20.604201      -560.6688
   2   2.0000     -20.579106      -559.9860
   3   2.0000     -20.549426      -559.1783
   4   2.0000     -15.631145      -425.3451
   5   2.0000     -15.610728      -424.7895
   6   2.0000     -11.393276      -310.0268
   7   2.0000     -11.386113      -309.8319
   8   2.0000     -11.335960      -308.4671
   9   2.0000     -11.322069      -308.0891
  10   2.0000     -11.315170      -307.9014
  11   2.0000     -11.298227      -307.4404
  12   2.0000     -11.266607      -306.5800
  13   2.0000     -11.263080      -306.4840
  14   2.0000     -11.259471      -306.3858
  15   2.0000     -11.254403      -306.2479
  16   2.0000     -11.251167      -306.1598
  17   2.0000     -11.245597      -306.0083
  18   2.0000     -11.245503      -306.0057
  19   2.0000     -11.228830      -305.5520
  20   2.0000      -8.896538      -242.0871
  21   2.0000      -6.578100      -178.9992
  22   2.0000      -6.576109      -178.9450
  23   2.0000      -6.575511      -178.9288
  24   2.0000      -1.441476       -39.2246
  25   2.0000      -1.423857       -38.7451
  26   2.0000      -1.349969       -36.7345
  27   2.0000      -1.342851       -36.5408
  28   2.0000      -1.241688       -33.7881
  29   2.0000      -1.164609       -31.6906
  30   2.0000      -1.122305       -30.5395
  31   2.0000      -1.048445       -28.5297
  32   2.0000      -1.030753       -28.0482
  33   2.0000      -1.023016       -27.8377
  34   2.0000      -1.001585       -27.2545
  35   2.0000      -0.987752       -26.8781
  36   2.0000      -0.927301       -25.2331
  37   2.0000      -0.895984       -24.3810
  38   2.0000      -0.850187       -23.1348
  39   2.0000      -0.846485       -23.0340
  40   2.0000      -0.841136       -22.8885
  41   2.0000      -0.824437       -22.4341
  42   2.0000      -0.747018       -20.3274
  43   2.0000      -0.737502       -20.0685
  44   2.0000      -0.717007       -19.5108
  45   2.0000      -0.703009       -19.1299
  46   2.0000      -0.692793       -18.8519
  47   2.0000      -0.675580       -18.3835
  48   2.0000      -0.672003       -18.2861
  49   2.0000      -0.660087       -17.9619
  50   2.0000      -0.656295       -17.8587
  51   2.0000      -0.649394       -17.6709
  52   2.0000      -0.637764       -17.3544
  53   2.0000      -0.627766       -17.0824
  54   2.0000      -0.614428       -16.7194
  55   2.0000      -0.606075       -16.4921
  56   2.0000      -0.602577       -16.3970
  57   2.0000      -0.583725       -15.8840
  58   2.0000      -0.574626       -15.6364
  59   2.0000      -0.566753       -15.4221
  60   2.0000      -0.545036       -14.8312
  61   2.0000      -0.544075       -14.8050
  62   2.0000      -0.539446       -14.6791
  63   2.0000      -0.534010       -14.5311
  64   2.0000      -0.531963       -14.4754
  65   2.0000      -0.517338       -14.0775
  66   2.0000      -0.507414       -13.8074
  67   2.0000      -0.494623       -13.4594
  68   2.0000      -0.479869       -13.0579
  69   2.0000      -0.470458       -12.8018
  70   2.0000      -0.449472       -12.2308
  71   2.0000      -0.443795       -12.0763
  72   2.0000      -0.358730        -9.7615
  73   2.0000      -0.356324        -9.6961
  74   2.0000      -0.332580        -9.0499
  75   2.0000      -0.328529        -8.9397
  76   2.0000      -0.318423        -8.6647
  77   0.0000       0.068923         1.8755
  78   0.0000       0.101910         2.7731
  79   0.0000       0.120331         3.2744
  80   0.0000       0.125964         3.4276
  81   0.0000       0.131192         3.5699

MULLIKEN ATOMIC CHARGES
-----------------------
   0 C :   -0.342296
   1 C :    0.040279
   2 O :   -0.380683
   3 C :    0.489593
   4 O :   -0.387912
   5 C :   -0.291548
   6 C :    0.163116
   7 C :   -0.275181
   8 N :   -0.126232
   9 C :    0.209741
  10 S :   -0.434576
  11 N :   -0.195414
  12 C :    0.048287
  13 C :    0.057346
  14 C :   -0.175809
  15 C :   -0.131767
  16 C :   -0.274704
  17 C :    0.320401
  18 O :   -0.357308
  19 C :   -0.296176
  20 H :    0.102059
  21 H :    0.116409
  22 H :    0.123379
  23 H :    0.108158
  24 H :    0.122593
  25 H :    0.125126
  26 H :    0.142585
  27 H :    0.094181
  28 H :    0.198371
  29 H :    0.191221
  30 H :    0.148716
  31 H :    0.149121
  32 H :    0.163713
  33 H :    0.134207
  34 H :    0.242629
  35 H :    0.178378
Sum of atomic charges:   -0.0000000

LOEWDIN ATOMIC CHARGES
----------------------
   0 C :    0.104691
   1 C :   -0.008186
   2 O :    0.276362
   3 C :   -0.424259
   4 O :    0.128793
   5 C :   -0.097324
   6 C :   -0.065470
   7 C :    0.130014
   8 N :    0.406800
   9 C :   -0.456196
  10 S :   -0.031440
  11 N :    0.396495
  12 C :   -0.053171
  13 C :   -0.039719
  14 C :    0.012883
  15 C :    0.042324
  16 C :   -0.000344
  17 C :   -0.190056
  18 O :    0.396932
  19 C :    0.034229
  20 H :   -0.037022
  21 H :   -0.021426
  22 H :   -0.025359
  23 H :   -0.034863
  24 H :   -0.024170
  25 H :   -0.007714
  26 H :   -0.002397
  27 H :   -0.022735
  28 H :   -0.057497
  29 H :   -0.065605
  30 H :   -0.005342
  31 H :   -0.028923
  32 H :   -0.019153
  33 H :   -0.033728
  34 H :   -0.151984
  35 H :   -0.025438

  Mayer bond orders larger than 0.100000
B(  0-C ,  1-C ) :   0.9639 B(  0-C , 20-H ) :   0.9685 B(  0-C , 21-H ) :   0.9760
B(  0-C , 22-H ) :   0.9722 B(  1-C ,  2-O ) :   0.8918 B(  1-C , 23-H ) :   0.9677
B(  1-C , 24-H ) :   0.9838 B(  2-O ,  3-C ) :   1.1241 B(  3-C ,  4-O ) :   2.0599
B(  3-C ,  5-C ) :   1.0069 B(  5-C ,  6-C ) :   1.6641 B(  5-C , 12-C ) :   0.9752
B(  6-C ,  7-C ) :   0.9655 B(  6-C ,  8-N ) :   1.1483 B(  7-C , 25-H ) :   0.9679
B(  7-C , 26-H ) :   0.9561 B(  7-C , 27-H ) :   0.9863 B(  8-N ,  9-C ) :   1.1802
B(  8-N , 28-H ) :   0.9492 B(  9-C , 10-S ) :   1.6164 B(  9-C , 11-N ) :   1.2981
B( 11-N , 12-C ) :   0.9721 B( 11-N , 29-H ) :   0.9546 B( 12-C , 13-C ) :   0.9473
B( 12-C , 30-H ) :   1.0035 B( 13-C , 14-C ) :   1.3465 B( 13-C , 19-C ) :   1.3601
B( 14-C , 15-C ) :   1.3940 B( 14-C , 31-H ) :   0.9747 B( 15-C , 16-C ) :   1.3661
B( 15-C , 32-H ) :   0.9700 B( 16-C , 17-C ) :   1.3270 B( 16-C , 33-H ) :   0.9833
B( 17-C , 18-O ) :   1.1144 B( 17-C , 19-C ) :   1.3728 B( 18-O , 34-H ) :   0.9788
B( 19-C , 35-H ) :   0.9524

MP2 TOTAL ENERGY:    -1274.324960640 Eh
FINAL SINGLE POINT ENERGY     -1274.324960639556

DIPOLE MOMENT
-------------
                                X             Y             Z
Electronic contribution:     10.01044       7.25051       5.34581
Nuclear contribution   :    -11.22213      -8.83160      -4.88120
                        -----------------------------------------
Total Dipole Moment    :     -1.21169      -1.58108       0.46461
                        -----------------------------------------
Magnitude (a.u.)       :      2.04545
Magnitude (Debye)      :      5.19913

Rotational constants in cm-1:     0.011765     0.009859     0.006791
Rotational constants in MHz :   352.709913   295.552828   203.597760

                             ****ORCA TERMINATED NORMALLY****
TOTAL RUN TIME: 0 days 1 hours 51 minutes 15 seconds 305 msec
