                         Program Version 4.2.0 -  RELEASE  -
|  1> ! ri-mp2 cc-pvtz cc-pvtz/c TightSCF  NoKeepInts
|  2>
|  3> %scf
|  4>   MaxCore 4096
|  5> end
|  6> *xyz  0  1
|  7>     C       15.4090636   14.0663608   14.7086630
|  8>     C       15.0922663   14.8128041   16.0180289
|  9>     O       16.0460391   15.8788794   16.1764928
| 10>     C       17.2098664   15.6471965   16.8532589
| 11>     O       17.6345596   14.5195856   17.0472632
| 12>     C       17.7151135   16.8325415   17.6250008
| 13>     C       17.4072814   18.1272634   17.3500780
| 14>     C       16.5335393   18.6614214   16.2335224
| 15>     N       17.9875058   19.1536700   18.1028683
| 16>     C       18.9849973   18.9811229   19.0258426
| 17>     S       19.7085192   20.2643152   19.7778821
| 18>     N       19.3528786   17.6869204   19.2928234
| 19>     C       18.6520304   16.4907448   18.7893262
| 20>     C       17.8927239   15.8016260   19.9203414
| 21>     C       18.1123095   14.4400598   20.1997279
| 22>     C       17.4143960   13.7996172   21.2373555
| 23>     C       16.4875979   14.5262159   22.0039641
| 24>     C       16.2628913   15.8814779   21.7267586
| 25>     O       15.3639651   16.5843147   22.4611550
| 26>     C       16.9586324   16.5160018   20.6929236
| 27>     H       15.3976515   14.7559644   13.8556984
| 28>     H       14.6665939   13.2802634   14.5257871
| 29>     H       16.3982352   13.5938723   14.7596482
| 30>     H       14.0830765   15.2381122   15.9465546
| 31>     H       15.1125755   14.1259166   16.8757599
| 32>     H       16.8026436   18.2028038   15.2737944
| 33>     H       16.6258432   19.7468709   16.1064877
| 34>     H       15.4770307   18.4397304   16.4293586
| 35>     H       17.7311094   20.1108400   17.9210478
| 36>     H       20.0687007   17.5848266   20.0007038
| 37>     H       19.4143992   15.7936949   18.4123191
| 38>     H       18.8158791   13.8714227   19.5964636
| 39>     H       17.5894161   12.7443616   21.4388822
| 40>     H       15.9451934   14.0351051   22.8049066
| 41>     H       15.0206085   15.9896415   23.1446937
| 42>     H       16.7718666   17.5664345   20.4986178
| 43> *
| 44>
| 45>                          ****END OF INPUT****

CARTESIAN COORDINATES (ANGSTROEM)
---------------------------------
  C     15.409064   14.066361   14.708663
  C     15.092266   14.812804   16.018029
  O     16.046039   15.878879   16.176493
  C     17.209866   15.647196   16.853259
  O     17.634560   14.519586   17.047263
  C     17.715114   16.832542   17.625001
  C     17.407281   18.127263   17.350078
  C     16.533539   18.661421   16.233522
  N     17.987506   19.153670   18.102868
  C     18.984997   18.981123   19.025843
  S     19.708519   20.264315   19.777882
  N     19.352879   17.686920   19.292823
  C     18.652030   16.490745   18.789326
  C     17.892724   15.801626   19.920341
  C     18.112309   14.440060   20.199728
  C     17.414396   13.799617   21.237355
  C     16.487598   14.526216   22.003964
  C     16.262891   15.881478   21.726759
  O     15.363965   16.584315   22.461155
  C     16.958632   16.516002   20.692924
  H     15.397652   14.755964   13.855698
  H     14.666594   13.280263   14.525787
  H     16.398235   13.593872   14.759648
  H     14.083076   15.238112   15.946555
  H     15.112575   14.125917   16.875760
  H     16.802644   18.202804   15.273794
  H     16.625843   19.746871   16.106488
  H     15.477031   18.439730   16.429359
  H     17.731109   20.110840   17.921048
  H     20.068701   17.584827   20.000704
  H     19.414399   15.793695   18.412319
  H     18.815879   13.871423   19.596464
  H     17.589416   12.744362   21.438882
  H     15.945193   14.035105   22.804907
  H     15.020608   15.989641   23.144694
  H     16.771867   17.566434   20.498618

 Total Charge           Charge          ....    0
 Multiplicity           Mult            ....    1
 Number of Electrons    NEL             ....  154
 Basis Dimension        Dim             ....  828

ORBITAL ENERGIES
----------------

  NO   OCC          E(Eh)            E(eV)
   0   2.0000     -91.888037     -2500.4006
   1   2.0000     -20.600453      -560.5668
   2   2.0000     -20.591896      -560.3340
   3   2.0000     -20.548164      -559.1440
   4   2.0000     -15.628215      -425.2654
   5   2.0000     -15.606812      -424.6829
   6   2.0000     -11.396839      -310.1237
   7   2.0000     -11.383001      -309.7472
   8   2.0000     -11.335585      -308.4569
   9   2.0000     -11.307790      -307.7006
  10   2.0000     -11.306018      -307.6524
  11   2.0000     -11.300416      -307.5000
  12   2.0000     -11.260493      -306.4136
  13   2.0000     -11.258903      -306.3703
  14   2.0000     -11.253759      -306.2304
  15   2.0000     -11.248008      -306.0739
  16   2.0000     -11.237616      -305.7911
  17   2.0000     -11.233674      -305.6838
  18   2.0000     -11.230779      -305.6050
  19   2.0000     -11.224931      -305.4459
  20   2.0000      -8.893101      -241.9936
  21   2.0000      -6.574678      -178.9061
  22   2.0000      -6.572671      -178.8515
  23   2.0000      -6.572086      -178.8355
  24   2.0000      -1.454179       -39.5702
  25   2.0000      -1.411632       -38.4125
  26   2.0000      -1.357806       -36.9478
  27   2.0000      -1.339218       -36.4420
  28   2.0000      -1.236933       -33.6587
  29   2.0000      -1.152395       -31.3583
  30   2.0000      -1.119692       -30.4684
  31   2.0000      -1.042380       -28.3646
  32   2.0000      -1.034290       -28.1444
  33   2.0000      -1.009733       -27.4762
  34   2.0000      -0.997225       -27.1359
  35   2.0000      -0.982662       -26.7396
  36   2.0000      -0.921349       -25.0712
  37   2.0000      -0.890407       -24.2292
  38   2.0000      -0.847620       -23.0649
  39   2.0000      -0.835693       -22.7404
  40   2.0000      -0.828183       -22.5360
  41   2.0000      -0.819105       -22.2890
  42   2.0000      -0.755163       -20.5490
  43   2.0000      -0.734806       -19.9951
  44   2.0000      -0.725210       -19.7340
  45   2.0000      -0.690920       -18.8009
  46   2.0000      -0.685352       -18.6494
  47   2.0000      -0.680222       -18.5098
  48   2.0000      -0.671574       -18.2745
  49   2.0000      -0.659157       -17.9366
  50   2.0000      -0.646168       -17.5831
  51   2.0000      -0.641352       -17.4521
  52   2.0000      -0.629906       -17.1406
  53   2.0000      -0.611603       -16.6426
  54   2.0000      -0.600202       -16.3323
  55   2.0000      -0.599866       -16.3232
  56   2.0000      -0.595100       -16.1935
  57   2.0000      -0.585149       -15.9227
  58   2.0000      -0.573308       -15.6005
  59   2.0000      -0.566151       -15.4057
  60   2.0000      -0.560719       -15.2580
  61   2.0000      -0.546189       -14.8626
  62   2.0000      -0.534642       -14.5483
  63   2.0000      -0.523535       -14.2461
  64   2.0000      -0.517312       -14.0768
  65   2.0000      -0.510389       -13.8884
  66   2.0000      -0.501084       -13.6352
  67   2.0000      -0.495612       -13.4863
  68   2.0000      -0.480263       -13.0686
  69   2.0000      -0.462022       -12.5723
  70   2.0000      -0.456232       -12.4147
  71   2.0000      -0.456080       -12.4106
  72   2.0000      -0.354005        -9.6330
  73   2.0000      -0.344224        -9.3668
  74   2.0000      -0.327179        -8.9030
  75   2.0000      -0.315681        -8.5901
  76   2.0000      -0.314064        -8.5461
  77   0.0000       0.075567         2.0563
  78   0.0000       0.112426         3.0593
  79   0.0000       0.121647         3.3102
  80   0.0000       0.135758         3.6942
  81   0.0000       0.140696         3.8285

MULLIKEN ATOMIC CHARGES
-----------------------
   0 C :   -0.285576
   1 C :    0.039500
   2 O :   -0.350040
   3 C :    0.432542
   4 O :   -0.428000
   5 C :   -0.156033
   6 C :    0.143183
   7 C :   -0.284341
   8 N :   -0.122454
   9 C :    0.201621
  10 S :   -0.439541
  11 N :   -0.197265
  12 C :    0.036975
  13 C :    0.055284
  14 C :   -0.162413
  15 C :   -0.134241
  16 C :   -0.279205
  17 C :    0.311408
  18 O :   -0.358923
  19 C :   -0.271435
  20 H :    0.090457
  21 H :    0.092950
  22 H :    0.114645
  23 H :    0.102261
  24 H :    0.103284
  25 H :    0.125491
  26 H :    0.101869
  27 H :    0.127815
  28 H :    0.196853
  29 H :    0.193610
  30 H :    0.153660
  31 H :    0.153756
  32 H :    0.159284
  33 H :    0.128209
  34 H :    0.240047
  35 H :    0.164764
Sum of atomic charges:    0.0000000

LOEWDIN ATOMIC CHARGES
----------------------
   0 C :    0.104236
   1 C :   -0.015601
   2 O :    0.303438
   3 C :   -0.413219
   4 O :    0.107425
   5 C :   -0.090868
   6 C :   -0.067130
   7 C :    0.125169
   8 N :    0.404674
   9 C :   -0.458712
  10 S :   -0.036187
  11 N :    0.397691
  12 C :   -0.046118
  13 C :   -0.039017
  14 C :    0.021586
  15 C :    0.040573
  16 C :   -0.002371
  17 C :   -0.192588
  18 O :    0.393087
  19 C :    0.028679
  20 H :   -0.030264
  21 H :   -0.027886
  22 H :   -0.024024
  23 H :   -0.026978
  24 H :   -0.026112
  25 H :   -0.008713
  26 H :   -0.020772
  27 H :   -0.009456
  28 H :   -0.059064
  29 H :   -0.063744
  30 H :   -0.004998
  31 H :   -0.025342
  32 H :   -0.021225
  33 H :   -0.036372
  34 H :   -0.154877
  35 H :   -0.024920

  Mayer bond orders larger than 0.100000
B(  0-C ,  1-C ) :   0.9683 B(  0-C , 20-H ) :   0.9772 B(  0-C , 21-H ) :   0.9766
B(  0-C , 22-H ) :   0.9748 B(  1-C ,  2-O ) :   0.8976 B(  1-C , 23-H ) :   0.9844
B(  1-C , 24-H ) :   0.9746 B(  2-O ,  3-C ) :   1.1351 B(  3-C ,  4-O ) :   1.9670
B(  3-C ,  5-C ) :   1.0575 B(  5-C ,  6-C ) :   1.6514 B(  5-C , 12-C ) :   0.9647
B(  6-C ,  7-C ) :   0.9546 B(  6-C ,  8-N ) :   1.1440 B(  7-C , 25-H ) :   0.9670
B(  7-C , 26-H ) :   0.9909 B(  7-C , 27-H ) :   0.9632 B(  8-N ,  9-C ) :   1.1798
B(  8-N , 28-H ) :   0.9489 B(  9-C , 10-S ) :   1.6105 B(  9-C , 11-N ) :   1.3032
B( 11-N , 12-C ) :   0.9926 B( 11-N , 29-H ) :   0.9518 B( 12-C , 13-C ) :   0.9468
B( 12-C , 30-H ) :   0.9995 B( 13-C , 14-C ) :   1.3755 B( 13-C , 19-C ) :   1.3700
B( 14-C , 15-C ) :   1.3945 B( 14-C , 31-H ) :   0.9649 B( 15-C , 16-C ) :   1.3627
B( 15-C , 32-H ) :   0.9714 B( 16-C , 17-C ) :   1.3313 B( 16-C , 33-H ) :   0.9859
B( 17-C , 18-O ) :   1.1082 B( 17-C , 19-C ) :   1.3787 B( 18-O , 34-H ) :   0.9806
B( 19-C , 35-H ) :   0.9584

MP2 TOTAL ENERGY:    -1274.343161756 Eh
FINAL SINGLE POINT ENERGY     -1274.343161756212

DIPOLE MOMENT
-------------
                                X             Y             Z
Electronic contribution:     10.40015       9.82130      11.31496
Nuclear contribution   :    -12.05848     -10.97071     -12.12105
                        -----------------------------------------
Total Dipole Moment    :     -1.65833      -1.14941      -0.80609
                        -----------------------------------------
Magnitude (a.u.)       :      2.17278
Magnitude (Debye)      :      5.52278

Rotational constants in cm-1:     0.010619     0.008899     0.005833
Rotational constants in MHz :   318.346053   266.791675   174.879199

                             ****ORCA TERMINATED NORMALLY****
TOTAL RUN TIME: 0 days 1 hours 38 minutes 50 seconds 663 msec
