                         Program Version 5.0.0 -  RELEASE  -
|  1> ! ri-mp2 cc-pvtz cc-pvtz/c TightSCF NoKeepInts
|  2>
|  3> %scf
|  4>   MaxCore 4096
|  5> end
|  6> *xyz  0  1
|  7>     C       14.2858314   14.7886314   15.4798422
|  8>     C       15.8054600   14.6967838   15.2612077
|  9>     O       16.3963710   15.8427170   15.9020367
| 10>     C       17.4449269   15.6900458   16.7629829
| 11>     O       18.0494183   14.6362515   16.8782630
| 12>     C       17.7470879   16.8907229   17.6165509
| 13>     C       17.2202008   18.1331569   17.4471331
| 14>     C       16.2326335   18.6006014   16.3970987
| 15>     N       17.6368894   19.1818704   18.2744944
| 16>     C       18.6674241   19.1105221   19.1739447
| 17>     S       19.1852337   20.4376314   20.0143856
| 18>     N       19.2470157   17.8789652   19.3405372
| 19>     C       18.7383564   16.6243065   18.7560508
| 20>     C       18.1109511   15.7481241   19.8374921
| 21>     C       18.5492946   14.4240918   20.0245145
| 22>     C       17.9744838   13.6120714   21.0165612
| 23>     C       16.9514196   14.1274024   21.8303991
| 24>     C       16.5091916   15.4442938   21.6453036
| 25>     O       15.5172351   15.9429588   22.4255503
| 26>     C       17.0829973   16.2499756   20.6568165
| 27>     H       14.0483628   14.7708560   16.5509954
| 28>     H       13.7770910   13.9424630   15.0021287
| 29>     H       13.8874975   15.7162836   15.0506119
| 30>     H       16.1667976   13.7520284   15.6898306
| 31>     H       16.0394202   14.7013608   14.1888166
| 32>     H       16.6019204   18.3764643   15.3886008
| 33>     H       16.0463835   19.6805184   16.4394337
| 34>     H       15.2659219   18.0973381   16.5238992
| 35>     H       17.2238175   20.0944008   18.1672861
| 36>     H       19.9834334   17.8445062   20.0336338
| 37>     H       19.5980365   16.0848097   18.3328139
| 38>     H       19.3284220   14.0173889   19.3843653
| 39>     H       18.3184531   12.5875498   21.1462089
| 40>     H       16.5033394   13.5030875   22.5961153
| 41>     H       15.2776335   15.2545364   23.0638219
| 42>     H       16.7280477   17.2672840   20.5342727
| 43> *
| 44>
| 45>                          ****END OF INPUT****

CARTESIAN COORDINATES (ANGSTROEM)
---------------------------------
  C     14.285831   14.788631   15.479842
  C     15.805460   14.696784   15.261208
  O     16.396371   15.842717   15.902037
  C     17.444927   15.690046   16.762983
  O     18.049418   14.636252   16.878263
  C     17.747088   16.890723   17.616551
  C     17.220201   18.133157   17.447133
  C     16.232633   18.600601   16.397099
  N     17.636889   19.181870   18.274494
  C     18.667424   19.110522   19.173945
  S     19.185234   20.437631   20.014386
  N     19.247016   17.878965   19.340537
  C     18.738356   16.624306   18.756051
  C     18.110951   15.748124   19.837492
  C     18.549295   14.424092   20.024514
  C     17.974484   13.612071   21.016561
  C     16.951420   14.127402   21.830399
  C     16.509192   15.444294   21.645304
  O     15.517235   15.942959   22.425550
  C     17.082997   16.249976   20.656816
  H     14.048363   14.770856   16.550995
  H     13.777091   13.942463   15.002129
  H     13.887498   15.716284   15.050612
  H     16.166798   13.752028   15.689831
  H     16.039420   14.701361   14.188817
  H     16.601920   18.376464   15.388601
  H     16.046384   19.680518   16.439434
  H     15.265922   18.097338   16.523899
  H     17.223817   20.094401   18.167286
  H     19.983433   17.844506   20.033634
  H     19.598036   16.084810   18.332814
  H     19.328422   14.017389   19.384365
  H     18.318453   12.587550   21.146209
  H     16.503339   13.503087   22.596115
  H     15.277634   15.254536   23.063822
  H     16.728048   17.267284   20.534273

 Total Charge           Charge          ....    0
 Multiplicity           Mult            ....    1
 Number of Electrons    NEL             ....  154
 Basis Dimension        Dim             ....  828

ORBITAL ENERGIES
----------------

  NO   OCC          E(Eh)            E(eV)
   0   2.0000     -91.888092     -2500.4021
   1   2.0000     -20.604657      -560.6812
   2   2.0000     -20.591142      -560.3135
   3   2.0000     -20.544288      -559.0385
   4   2.0000     -15.628684      -425.2781
   5   2.0000     -15.606520      -424.6750
   6   2.0000     -11.396248      -310.1077
   7   2.0000     -11.382815      -309.7421
   8   2.0000     -11.337298      -308.5036
   9   2.0000     -11.306865      -307.6754
  10   2.0000     -11.304960      -307.6236
  11   2.0000     -11.299050      -307.4628
  12   2.0000     -11.260902      -306.4247
  13   2.0000     -11.259000      -306.3730
  14   2.0000     -11.252771      -306.2035
  15   2.0000     -11.246923      -306.0443
  16   2.0000     -11.236616      -305.7639
  17   2.0000     -11.233587      -305.6815
  18   2.0000     -11.232815      -305.6604
  19   2.0000     -11.229631      -305.5738
  20   2.0000      -8.893151      -241.9949
  21   2.0000      -6.574728      -178.9074
  22   2.0000      -6.572722      -178.8529
  23   2.0000      -6.572135      -178.8369
  24   2.0000      -1.453936       -39.5636
  25   2.0000      -1.410878       -38.3919
  26   2.0000      -1.357169       -36.9304
  27   2.0000      -1.339523       -36.4503
  28   2.0000      -1.236959       -33.6594
  29   2.0000      -1.151524       -31.3345
  30   2.0000      -1.119203       -30.4551
  31   2.0000      -1.044494       -28.4221
  32   2.0000      -1.036709       -28.2103
  33   2.0000      -1.008911       -27.4539
  34   2.0000      -0.997571       -27.1453
  35   2.0000      -0.983116       -26.7520
  36   2.0000      -0.920827       -25.0570
  37   2.0000      -0.890755       -24.2387
  38   2.0000      -0.847188       -23.0532
  39   2.0000      -0.834568       -22.7097
  40   2.0000      -0.827164       -22.5083
  41   2.0000      -0.816235       -22.2109
  42   2.0000      -0.762220       -20.7411
  43   2.0000      -0.736085       -20.0299
  44   2.0000      -0.724314       -19.7096
  45   2.0000      -0.690887       -18.8000
  46   2.0000      -0.685071       -18.6417
  47   2.0000      -0.679117       -18.4797
  48   2.0000      -0.673499       -18.3268
  49   2.0000      -0.659420       -17.9437
  50   2.0000      -0.648289       -17.6408
  51   2.0000      -0.643734       -17.5169
  52   2.0000      -0.634164       -17.2565
  53   2.0000      -0.601952       -16.3800
  54   2.0000      -0.599673       -16.3179
  55   2.0000      -0.595515       -16.2048
  56   2.0000      -0.592093       -16.1117
  57   2.0000      -0.585666       -15.9368
  58   2.0000      -0.573042       -15.5933
  59   2.0000      -0.562298       -15.3009
  60   2.0000      -0.560710       -15.2577
  61   2.0000      -0.557131       -15.1603
  62   2.0000      -0.537313       -14.6210
  63   2.0000      -0.527661       -14.3584
  64   2.0000      -0.516800       -14.0628
  65   2.0000      -0.509712       -13.8700
  66   2.0000      -0.499355       -13.5881
  67   2.0000      -0.495147       -13.4736
  68   2.0000      -0.480740       -13.0816
  69   2.0000      -0.465057       -12.6549
  70   2.0000      -0.456623       -12.4253
  71   2.0000      -0.455800       -12.4030
  72   2.0000      -0.354438        -9.6448
  73   2.0000      -0.343483        -9.3467
  74   2.0000      -0.327167        -8.9027
  75   2.0000      -0.315531        -8.5860
  76   2.0000      -0.313100        -8.5199
  77   0.0000       0.075822         2.0632
  78   0.0000       0.113976         3.1015
  79   0.0000       0.120622         3.2823
  80   0.0000       0.136394         3.7115
  81   0.0000       0.139474         3.7953

MULLIKEN ATOMIC CHARGES
-----------------------
   0 C :   -0.272083
   1 C :    0.019674
   2 O :   -0.339134
   3 C :    0.453448
   4 O :   -0.433292
   5 C :   -0.182384
   6 C :    0.143788
   7 C :   -0.285193
   8 N :   -0.120688
   9 C :    0.201075
  10 S :   -0.438868
  11 N :   -0.196394
  12 C :    0.034065
  13 C :    0.059076
  14 C :   -0.159576
  15 C :   -0.134192
  16 C :   -0.278961
  17 C :    0.311397
  18 O :   -0.359365
  19 C :   -0.273656
  20 H :    0.100430
  21 H :    0.099387
  22 H :    0.090300
  23 H :    0.118214
  24 H :    0.097514
  25 H :    0.127631
  26 H :    0.103113
  27 H :    0.127099
  28 H :    0.196685
  29 H :    0.193470
  30 H :    0.153570
  31 H :    0.152909
  32 H :    0.158816
  33 H :    0.127794
  34 H :    0.240023
  35 H :    0.164309
Sum of atomic charges:    0.0000000

LOEWDIN ATOMIC CHARGES
----------------------
   0 C :    0.103960
   1 C :   -0.011609
   2 O :    0.308645
   3 C :   -0.415256
   4 O :    0.101305
   5 C :   -0.091452
   6 C :   -0.064189
   7 C :    0.124729
   8 N :    0.405001
   9 C :   -0.459192
  10 S :   -0.035682
  11 N :    0.398079
  12 C :   -0.046784
  13 C :   -0.038629
  14 C :    0.022549
  15 C :    0.040888
  16 C :   -0.002439
  17 C :   -0.192767
  18 O :    0.392831
  19 C :    0.028058
  20 H :   -0.025362
  21 H :   -0.024232
  22 H :   -0.030555
  23 H :   -0.026186
  24 H :   -0.030616
  25 H :   -0.008341
  26 H :   -0.021291
  27 H :   -0.010062
  28 H :   -0.059276
  29 H :   -0.063570
  30 H :   -0.005104
  31 H :   -0.025308
  32 H :   -0.021313
  33 H :   -0.036501
  34 H :   -0.154980
  35 H :   -0.025349

  Mayer bond orders larger than 0.100000
B(  0-C ,  1-C ) :   0.9722 B(  0-C , 20-H ) :   0.9762 B(  0-C , 21-H ) :   0.9775
B(  0-C , 22-H ) :   0.9793 B(  1-C ,  2-O ) :   0.8892 B(  1-C , 23-H ) :   0.9735
B(  1-C , 24-H ) :   0.9826 B(  2-O ,  3-C ) :   1.1773 B(  3-C ,  4-O ) :   1.9746
B(  3-C ,  5-C ) :   1.0555 B(  5-C ,  6-C ) :   1.6423 B(  5-C , 12-C ) :   0.9670
B(  6-C ,  7-C ) :   0.9558 B(  6-C ,  8-N ) :   1.1528 B(  7-C , 25-H ) :   0.9645
B(  7-C , 26-H ) :   0.9916 B(  7-C , 27-H ) :   0.9646 B(  8-N ,  9-C ) :   1.1767
B(  8-N , 28-H ) :   0.9487 B(  9-C , 10-S ) :   1.6111 B(  9-C , 11-N ) :   1.3053
B( 11-N , 12-C ) :   0.9924 B( 11-N , 29-H ) :   0.9521 B( 12-C , 13-C ) :   0.9474
B( 12-C , 30-H ) :   1.0005 B( 13-C , 14-C ) :   1.3756 B( 13-C , 19-C ) :   1.3689
B( 14-C , 15-C ) :   1.3947 B( 14-C , 31-H ) :   0.9650 B( 15-C , 16-C ) :   1.3623
B( 15-C , 32-H ) :   0.9715 B( 16-C , 17-C ) :   1.3317 B( 16-C , 33-H ) :   0.9861
B( 17-C , 18-O ) :   1.1078 B( 17-C , 19-C ) :   1.3796 B( 18-O , 34-H ) :   0.9806
B( 19-C , 35-H ) :   0.9585

MP2 TOTAL ENERGY:    -1274.348491983 Eh
FINAL SINGLE POINT ENERGY     -1274.348491982827

DIPOLE MOMENT
-------------
                                X             Y             Z
Electronic contribution:     11.84152       8.84649      10.50284
Nuclear contribution   :    -13.32818     -10.15006     -11.54668
                        -----------------------------------------
Total Dipole Moment    :     -1.48666      -1.30357      -1.04384
                        -----------------------------------------
Magnitude (a.u.)       :      2.23586
Magnitude (Debye)      :      5.68310

Rotational constants in cm-1:     0.010324     0.008951     0.005934
Rotational constants in MHz :   309.499712   268.342006   177.886058

                             ****ORCA TERMINATED NORMALLY****
TOTAL RUN TIME: 0 days 2 hours 3 minutes 3 seconds 37 msec
