                         Program Version 4.2.0 -  RELEASE  -
|  1> ! ri-mp2 cc-pvtz cc-pvtz/c TightSCF  NoKeepInts
|  2>
|  3> %scf
|  4>   MaxCore 4096
|  5> end
|  6> *xyz  0  1
|  7>     C       15.0188641   15.8519089   17.3532164
|  8>     C       15.5300267   15.2008867   16.0506690
|  9>     O       16.9631859   14.9861585   15.9400473
| 10>     C       18.0718422   15.5979420   16.4858384
| 11>     O       19.1287555   14.9944673   16.4624917
| 12>     C       17.9109009   16.7602702   17.4082464
| 13>     C       17.4091069   17.9408427   16.9748979
| 14>     C       16.9027063   18.2618830   15.5831637
| 15>     N       17.4121958   19.0529970   17.8193837
| 16>     C       18.0458603   19.1063022   19.0331006
| 17>     S       18.0745210   20.4901484   19.9377195
| 18>     N       18.6614857   17.9547202   19.4576555
| 19>     C       18.5811256   16.6437376   18.7815263
| 20>     C       17.8987391   15.5969647   19.6598498
| 21>     C       18.3245363   14.2566073   19.6087133
| 22>     C       17.7050638   13.2750436   20.3997386
| 23>     C       16.6485013   13.6344501   21.2530252
| 24>     C       16.2191872   14.9669881   21.3081318
| 25>     O       15.1922821   15.3155751   22.1233285
| 26>     C       16.8374018   15.9426561   20.5194313
| 27>     H       15.5175361   15.4164537   18.2245582
| 28>     H       13.9476005   15.6442293   17.4645525
| 29>     H       15.1216558   16.9383393   17.3696876
| 30>     H       15.0393855   14.2253263   15.9367782
| 31>     H       15.1963035   15.8177244   15.2066032
| 32>     H       17.1668420   17.4871345   14.8534446
| 33>     H       17.3426982   19.1972863   15.2142339
| 34>     H       15.8125299   18.3781808   15.5722106
| 35>     H       16.9870187   19.9147696   17.5153619
| 36>     H       19.1128901   18.0200806   20.3613004
| 37>     H       19.6133487   16.3022796   18.6128484
| 38>     H       19.1365965   13.9719368   18.9425634
| 39>     H       18.0436424   12.2417000   20.3457918
| 40>     H       16.1661296   12.8787654   21.8641321
| 41>     H       14.9284186   14.5224047   22.6136674
| 42>     H       16.4781156   16.9648391   20.5760907
| 43> *
| 44>
| 45>                          ****END OF INPUT****

CARTESIAN COORDINATES (ANGSTROEM)
---------------------------------
  C     15.018864   15.851909   17.353216
  C     15.530027   15.200887   16.050669
  O     16.963186   14.986159   15.940047
  C     18.071842   15.597942   16.485838
  O     19.128756   14.994467   16.462492
  C     17.910901   16.760270   17.408246
  C     17.409107   17.940843   16.974898
  C     16.902706   18.261883   15.583164
  N     17.412196   19.052997   17.819384
  C     18.045860   19.106302   19.033101
  S     18.074521   20.490148   19.937719
  N     18.661486   17.954720   19.457656
  C     18.581126   16.643738   18.781526
  C     17.898739   15.596965   19.659850
  C     18.324536   14.256607   19.608713
  C     17.705064   13.275044   20.399739
  C     16.648501   13.634450   21.253025
  C     16.219187   14.966988   21.308132
  O     15.192282   15.315575   22.123328
  C     16.837402   15.942656   20.519431
  H     15.517536   15.416454   18.224558
  H     13.947601   15.644229   17.464552
  H     15.121656   16.938339   17.369688
  H     15.039385   14.225326   15.936778
  H     15.196303   15.817724   15.206603
  H     17.166842   17.487134   14.853445
  H     17.342698   19.197286   15.214234
  H     15.812530   18.378181   15.572211
  H     16.987019   19.914770   17.515362
  H     19.112890   18.020081   20.361300
  H     19.613349   16.302280   18.612848
  H     19.136596   13.971937   18.942563
  H     18.043642   12.241700   20.345792
  H     16.166130   12.878765   21.864132
  H     14.928419   14.522405   22.613667
  H     16.478116   16.964839   20.576091

 Total Charge           Charge          ....    0
 Multiplicity           Mult            ....    1
 Number of Electrons    NEL             ....  154
 Basis Dimension        Dim             ....  828

ORBITAL ENERGIES
----------------

  NO   OCC          E(Eh)            E(eV)
   0   2.0000     -91.890475     -2500.4669
   1   2.0000     -20.597903      -560.4974
   2   2.0000     -20.597131      -560.4764
   3   2.0000     -20.546124      -559.0885
   4   2.0000     -15.628255      -425.2664
   5   2.0000     -15.611179      -424.8018
   6   2.0000     -11.400588      -310.2258
   7   2.0000     -11.386969      -309.8552
   8   2.0000     -11.330766      -308.3258
   9   2.0000     -11.314755      -307.8901
  10   2.0000     -11.313753      -307.8629
  11   2.0000     -11.313615      -307.8591
  12   2.0000     -11.270364      -306.6822
  13   2.0000     -11.264959      -306.5351
  14   2.0000     -11.262488      -306.4679
  15   2.0000     -11.255081      -306.2663
  16   2.0000     -11.243992      -305.9646
  17   2.0000     -11.239847      -305.8518
  18   2.0000     -11.236430      -305.7588
  19   2.0000     -11.234785      -305.7140
  20   2.0000      -8.895574      -242.0609
  21   2.0000      -6.577161      -178.9737
  22   2.0000      -6.575137      -178.9186
  23   2.0000      -6.574560      -178.9029
  24   2.0000      -1.441322       -39.2204
  25   2.0000      -1.417716       -38.5780
  26   2.0000      -1.353357       -36.8267
  27   2.0000      -1.341052       -36.4919
  28   2.0000      -1.240175       -33.7469
  29   2.0000      -1.159205       -31.5436
  30   2.0000      -1.125220       -30.6188
  31   2.0000      -1.047764       -28.5111
  32   2.0000      -1.041715       -28.3465
  33   2.0000      -1.017574       -27.6896
  34   2.0000      -1.005322       -27.3562
  35   2.0000      -0.990521       -26.9535
  36   2.0000      -0.928036       -25.2532
  37   2.0000      -0.901867       -24.5410
  38   2.0000      -0.854261       -23.2456
  39   2.0000      -0.840700       -22.8766
  40   2.0000      -0.834535       -22.7089
  41   2.0000      -0.828245       -22.5377
  42   2.0000      -0.745054       -20.2740
  43   2.0000      -0.734958       -19.9992
  44   2.0000      -0.730731       -19.8842
  45   2.0000      -0.694944       -18.9104
  46   2.0000      -0.686542       -18.6818
  47   2.0000      -0.677950       -18.4480
  48   2.0000      -0.674250       -18.3473
  49   2.0000      -0.661450       -17.9990
  50   2.0000      -0.657756       -17.8984
  51   2.0000      -0.652114       -17.7449
  52   2.0000      -0.641545       -17.4573
  53   2.0000      -0.614639       -16.7252
  54   2.0000      -0.607798       -16.5390
  55   2.0000      -0.604720       -16.4553
  56   2.0000      -0.602022       -16.3819
  57   2.0000      -0.593100       -16.1391
  58   2.0000      -0.577937       -15.7265
  59   2.0000      -0.574005       -15.6195
  60   2.0000      -0.565572       -15.3900
  61   2.0000      -0.558113       -15.1870
  62   2.0000      -0.543128       -14.7793
  63   2.0000      -0.529861       -14.4183
  64   2.0000      -0.519776       -14.1438
  65   2.0000      -0.513949       -13.9853
  66   2.0000      -0.501307       -13.6413
  67   2.0000      -0.498250       -13.5581
  68   2.0000      -0.483721       -13.1627
  69   2.0000      -0.466919       -12.7055
  70   2.0000      -0.453940       -12.3523
  71   2.0000      -0.448846       -12.2137
  72   2.0000      -0.356284        -9.6950
  73   2.0000      -0.348866        -9.4931
  74   2.0000      -0.330050        -8.9811
  75   2.0000      -0.323184        -8.7943
  76   2.0000      -0.318850        -8.6764
  77   0.0000       0.084647         2.3034
  78   0.0000       0.107434         2.9234
  79   0.0000       0.113712         3.0943
  80   0.0000       0.128765         3.5039
  81   0.0000       0.131136         3.5684

MULLIKEN ATOMIC CHARGES
-----------------------
   0 C :   -0.348064
   1 C :    0.049394
   2 O :   -0.334130
   3 C :    0.419047
   4 O :   -0.385430
   5 C :   -0.201581
   6 C :    0.137534
   7 C :   -0.329631
   8 N :   -0.140620
   9 C :    0.204074
  10 S :   -0.440549
  11 N :   -0.228308
  12 C :    0.095859
  13 C :    0.015175
  14 C :   -0.215502
  15 C :   -0.135587
  16 C :   -0.275743
  17 C :    0.321972
  18 O :   -0.357685
  19 C :   -0.276542
  20 H :    0.135395
  21 H :    0.121129
  22 H :    0.104977
  23 H :    0.129419
  24 H :    0.084845
  25 H :    0.130017
  26 H :    0.138791
  27 H :    0.121757
  28 H :    0.196970
  29 H :    0.202952
  30 H :    0.167586
  31 H :    0.177734
  32 H :    0.164095
  33 H :    0.132015
  34 H :    0.241049
  35 H :    0.177586
Sum of atomic charges:   -0.0000000

LOEWDIN ATOMIC CHARGES
----------------------
   0 C :    0.105309
   1 C :   -0.014214
   2 O :    0.292258
   3 C :   -0.417358
   4 O :    0.120359
   5 C :   -0.080552
   6 C :   -0.097827
   7 C :    0.126440
   8 N :    0.402757
   9 C :   -0.456831
  10 S :   -0.037248
  11 N :    0.398237
  12 C :   -0.041997
  13 C :   -0.043343
  14 C :    0.020022
  15 C :    0.044409
  16 C :   -0.001535
  17 C :   -0.193814
  18 O :    0.395327
  19 C :    0.026416
  20 H :   -0.023560
  21 H :   -0.021413
  22 H :   -0.036514
  23 H :   -0.016950
  24 H :   -0.035459
  25 H :   -0.007948
  26 H :   -0.009531
  27 H :   -0.018296
  28 H :   -0.057804
  29 H :   -0.063622
  30 H :   -0.001933
  31 H :   -0.021575
  32 H :   -0.018487
  33 H :   -0.035058
  34 H :   -0.153524
  35 H :   -0.025141

  Mayer bond orders larger than 0.100000
B(  0-C ,  1-C ) :   0.9554 B(  0-C , 20-H ) :   0.9632 B(  0-C , 21-H ) :   0.9791
B(  0-C , 22-H ) :   0.9748 B(  1-C ,  2-O ) :   0.9088 B(  1-C , 23-H ) :   0.9783
B(  1-C , 24-H ) :   0.9760 B(  2-O ,  3-C ) :   1.1728 B(  3-C ,  4-O ) :   2.0731
B(  3-C ,  5-C ) :   0.9323 B(  5-C ,  6-C ) :   1.6983 B(  5-C , 12-C ) :   0.9499
B(  6-C ,  7-C ) :   0.9426 B(  6-C ,  8-N ) :   1.0989 B(  7-C , 25-H ) :   0.9783
B(  7-C , 26-H ) :   0.9734 B(  7-C , 27-H ) :   0.9643 B(  8-N ,  9-C ) :   1.1964
B(  8-N , 28-H ) :   0.9518 B(  9-C , 10-S ) :   1.6087 B(  9-C , 11-N ) :   1.2891
B( 11-N , 12-C ) :   0.9860 B( 11-N , 29-H ) :   0.9473 B( 12-C , 13-C ) :   0.9509
B( 12-C , 30-H ) :   0.9934 B( 13-C , 14-C ) :   1.3906 B( 13-C , 19-C ) :   1.3418
B( 14-C , 15-C ) :   1.4015 B( 14-C , 31-H ) :   0.9571 B( 15-C , 16-C ) :   1.3595
B( 15-C , 32-H ) :   0.9700 B( 16-C , 17-C ) :   1.3313 B( 16-C , 33-H ) :   0.9847
B( 17-C , 18-O ) :   1.1093 B( 17-C , 19-C ) :   1.3657 B( 18-O , 34-H ) :   0.9795
B( 19-C , 35-H ) :   0.9585

MP2 TOTAL ENERGY:    -1274.322951681 Eh
FINAL SINGLE POINT ENERGY     -1274.322951681269

DIPOLE MOMENT
-------------
                                X             Y             Z
Electronic contribution:      9.46841       5.57215       6.78513
Nuclear contribution   :    -11.09582      -6.63127      -7.42102
                        -----------------------------------------
Total Dipole Moment    :     -1.62741      -1.05912      -0.63589
                        -----------------------------------------
Magnitude (a.u.)       :      2.04317
Magnitude (Debye)      :      5.19332

Rotational constants in cm-1:     0.011541     0.009584     0.006746
Rotational constants in MHz :   345.991370   287.330411   202.248749

                             ****ORCA TERMINATED NORMALLY****
TOTAL RUN TIME: 0 days 3 hours 5 minutes 12 seconds 125 msec
