                         Program Version 4.2.0 -  RELEASE  -
|  1> ! ri-mp2 cc-pvtz cc-pvtz/c TightSCF  NoKeepInts
|  2>
|  3> %scf
|  4>   MaxCore 4096
|  5> end
|  6> *xyz  0  1
|  7>     C       15.0953003   15.5156549   17.0158863
|  8>     C       16.1357100   14.3744796   16.9315327
|  9>     O       17.4256660   14.7672434   16.3915012
| 10>     C       17.8120200   16.0508264   16.1152813
| 11>     O       17.8332144   16.4234408   14.9567370
| 12>     C       17.8139161   17.0041832   17.2778681
| 13>     C       17.3902421   18.2866603   17.1524728
| 14>     C       16.7100976   18.9099707   15.9527630
| 15>     N       17.6009400   19.1982766   18.1902007
| 16>     C       18.4084189   18.9679742   19.2720954
| 17>     S       18.7392662   20.1461714   20.3842695
| 18>     N       18.9376692   17.7066318   19.3823919
| 19>     C       18.5477753   16.5496222   18.5537716
| 20>     C       17.7933718   15.5489318   19.4217067
| 21>     C       18.2857529   14.2394919   19.5830571
| 22>     C       17.6099580   13.3168301   20.3993832
| 23>     C       16.4372095   13.7079833   21.0675543
| 24>     C       15.9543192   15.0157507   20.9245001
| 25>     O       14.8241442   15.3980494   21.5697828
| 26>     C       16.6302022   15.9323892   20.1134364
| 27>     H       15.3502353   16.2644078   17.7704272
| 28>     H       14.1172129   15.1032515   17.2919862
| 29>     H       14.9809845   16.0112833   16.0439025
| 30>     H       16.2603794   13.9278569   17.9238714
| 31>     H       15.7271048   13.5860056   16.2863989
| 32>     H       15.9564446   18.2339476   15.5315283
| 33>     H       17.4433008   19.1106008   15.1607227
| 34>     H       16.2052308   19.8528418   16.1934639
| 35>     H       17.2416247   20.1362827   18.1096189
| 36>     H       19.5117995   17.5620464   20.2033761
| 37>     H       19.4771869   16.0636102   18.2247714
| 38>     H       19.1911225   13.9314788   19.0660151
| 39>     H       17.9958293   12.3048348   20.5125796
| 40>     H       15.9116168   12.9983984   21.6984755
| 41>     H       14.5440691   14.6604201   22.1327817
| 42>     H       16.2476641   16.9441715   20.0278885
| 43> *
| 44>
| 45>                          ****END OF INPUT****

CARTESIAN COORDINATES (ANGSTROEM)
---------------------------------
  C     15.095300   15.515655   17.015886
  C     16.135710   14.374480   16.931533
  O     17.425666   14.767243   16.391501
  C     17.812020   16.050826   16.115281
  O     17.833214   16.423441   14.956737
  C     17.813916   17.004183   17.277868
  C     17.390242   18.286660   17.152473
  C     16.710098   18.909971   15.952763
  N     17.600940   19.198277   18.190201
  C     18.408419   18.967974   19.272095
  S     18.739266   20.146171   20.384269
  N     18.937669   17.706632   19.382392
  C     18.547775   16.549622   18.553772
  C     17.793372   15.548932   19.421707
  C     18.285753   14.239492   19.583057
  C     17.609958   13.316830   20.399383
  C     16.437210   13.707983   21.067554
  C     15.954319   15.015751   20.924500
  O     14.824144   15.398049   21.569783
  C     16.630202   15.932389   20.113436
  H     15.350235   16.264408   17.770427
  H     14.117213   15.103251   17.291986
  H     14.980984   16.011283   16.043903
  H     16.260379   13.927857   17.923871
  H     15.727105   13.586006   16.286399
  H     15.956445   18.233948   15.531528
  H     17.443301   19.110601   15.160723
  H     16.205231   19.852842   16.193464
  H     17.241625   20.136283   18.109619
  H     19.511799   17.562046   20.203376
  H     19.477187   16.063610   18.224771
  H     19.191122   13.931479   19.066015
  H     17.995829   12.304835   20.512580
  H     15.911617   12.998398   21.698476
  H     14.544069   14.660420   22.132782
  H     16.247664   16.944171   20.027888

 Total Charge           Charge          ....    0
 Multiplicity           Mult            ....    1
 Number of Electrons    NEL             ....  154
 Basis Dimension        Dim             ....  828

ORBITAL ENERGIES
----------------

  NO   OCC          E(Eh)            E(eV)
   0   2.0000     -91.891230     -2500.4875
   1   2.0000     -20.603701      -560.6552
   2   2.0000     -20.579577      -559.9987
   3   2.0000     -20.551567      -559.2366
   4   2.0000     -15.629602      -425.3031
   5   2.0000     -15.611279      -424.8045
   6   2.0000     -11.394306      -310.0548
   7   2.0000     -11.386204      -309.8344
   8   2.0000     -11.333541      -308.4013
   9   2.0000     -11.321713      -308.0795
  10   2.0000     -11.316526      -307.9383
  11   2.0000     -11.300608      -307.5052
  12   2.0000     -11.266753      -306.5839
  13   2.0000     -11.262264      -306.4618
  14   2.0000     -11.259591      -306.3891
  15   2.0000     -11.254687      -306.2556
  16   2.0000     -11.251358      -306.1650
  17   2.0000     -11.246340      -306.0285
  18   2.0000     -11.245407      -306.0031
  19   2.0000     -11.231080      -305.6132
  20   2.0000      -8.896279      -242.0801
  21   2.0000      -6.577851      -178.9924
  22   2.0000      -6.575848      -178.9379
  23   2.0000      -6.575257      -178.9218
  24   2.0000      -1.441184       -39.2166
  25   2.0000      -1.423472       -38.7346
  26   2.0000      -1.350240       -36.7419
  27   2.0000      -1.341956       -36.5165
  28   2.0000      -1.241484       -33.7825
  29   2.0000      -1.164419       -31.6855
  30   2.0000      -1.122412       -30.5424
  31   2.0000      -1.048652       -28.5353
  32   2.0000      -1.032663       -28.1002
  33   2.0000      -1.022850       -27.8332
  34   2.0000      -1.002366       -27.2758
  35   2.0000      -0.988286       -26.8926
  36   2.0000      -0.927497       -25.2385
  37   2.0000      -0.897578       -24.4243
  38   2.0000      -0.850334       -23.1388
  39   2.0000      -0.845140       -22.9974
  40   2.0000      -0.841713       -22.9042
  41   2.0000      -0.824595       -22.4384
  42   2.0000      -0.747141       -20.3307
  43   2.0000      -0.737607       -20.0713
  44   2.0000      -0.719383       -19.5754
  45   2.0000      -0.702482       -19.1155
  46   2.0000      -0.691419       -18.8145
  47   2.0000      -0.676229       -18.4011
  48   2.0000      -0.672868       -18.3097
  49   2.0000      -0.658573       -17.9207
  50   2.0000      -0.657343       -17.8872
  51   2.0000      -0.648572       -17.6485
  52   2.0000      -0.639289       -17.3960
  53   2.0000      -0.626090       -17.0368
  54   2.0000      -0.613413       -16.6918
  55   2.0000      -0.605993       -16.4899
  56   2.0000      -0.602815       -16.4034
  57   2.0000      -0.582777       -15.8582
  58   2.0000      -0.575781       -15.6678
  59   2.0000      -0.566896       -15.4260
  60   2.0000      -0.551155       -14.9977
  61   2.0000      -0.548542       -14.9266
  62   2.0000      -0.541405       -14.7324
  63   2.0000      -0.532843       -14.4994
  64   2.0000      -0.529959       -14.4209
  65   2.0000      -0.516973       -14.0676
  66   2.0000      -0.506050       -13.7703
  67   2.0000      -0.493518       -13.4293
  68   2.0000      -0.479614       -13.0510
  69   2.0000      -0.473001       -12.8710
  70   2.0000      -0.449500       -12.2315
  71   2.0000      -0.445383       -12.1195
  72   2.0000      -0.358528        -9.7560
  73   2.0000      -0.353194        -9.6109
  74   2.0000      -0.331629        -9.0241
  75   2.0000      -0.328800        -8.9471
  76   2.0000      -0.318960        -8.6794
  77   0.0000       0.072257         1.9662
  78   0.0000       0.100305         2.7295
  79   0.0000       0.119148         3.2422
  80   0.0000       0.126020         3.4292
  81   0.0000       0.131589         3.5807

MULLIKEN ATOMIC CHARGES
-----------------------
   0 C :   -0.351712
   1 C :    0.040573
   2 O :   -0.369766
   3 C :    0.448874
   4 O :   -0.374817
   5 C :   -0.261428
   6 C :    0.160493
   7 C :   -0.279289
   8 N :   -0.123826
   9 C :    0.198313
  10 S :   -0.435374
  11 N :   -0.194393
  12 C :    0.054297
  13 C :    0.031516
  14 C :   -0.163685
  15 C :   -0.135397
  16 C :   -0.275510
  17 C :    0.319914
  18 O :   -0.356141
  19 C :   -0.289092
  20 H :    0.112943
  21 H :    0.123288
  22 H :    0.113947
  23 H :    0.109552
  24 H :    0.124964
  25 H :    0.123721
  26 H :    0.144176
  27 H :    0.094543
  28 H :    0.197838
  29 H :    0.192611
  30 H :    0.150571
  31 H :    0.148651
  32 H :    0.164165
  33 H :    0.134572
  34 H :    0.242013
  35 H :    0.178896
Sum of atomic charges:   -0.0000000

LOEWDIN ATOMIC CHARGES
----------------------
   0 C :    0.104515
   1 C :   -0.007688
   2 O :    0.277618
   3 C :   -0.424138
   4 O :    0.132653
   5 C :   -0.093967
   6 C :   -0.069738
   7 C :    0.130032
   8 N :    0.405887
   9 C :   -0.458345
  10 S :   -0.033123
  11 N :    0.396857
  12 C :   -0.052985
  13 C :   -0.042126
  14 C :    0.017268
  15 C :    0.041117
  16 C :   -0.000597
  17 C :   -0.191676
  18 O :    0.397106
  19 C :    0.034398
  20 H :   -0.037981
  21 H :   -0.020510
  22 H :   -0.028807
  23 H :   -0.031062
  24 H :   -0.024163
  25 H :   -0.010108
  26 H :   -0.002740
  27 H :   -0.022284
  28 H :   -0.057635
  29 H :   -0.064349
  30 H :   -0.007315
  31 H :   -0.027862
  32 H :   -0.019275
  33 H :   -0.033699
  34 H :   -0.152296
  35 H :   -0.022986

  Mayer bond orders larger than 0.100000
B(  0-C ,  1-C ) :   0.9624 B(  0-C , 20-H ) :   0.9672 B(  0-C , 21-H ) :   0.9758
B(  0-C , 22-H ) :   0.9743 B(  1-C ,  2-O ) :   0.8906 B(  1-C , 23-H ) :   0.9694
B(  1-C , 24-H ) :   0.9839 B(  2-O ,  3-C ) :   1.1423 B(  3-C ,  4-O ) :   2.0844
B(  3-C ,  5-C ) :   0.9753 B(  5-C ,  6-C ) :   1.6814 B(  5-C , 12-C ) :   0.9663
B(  6-C ,  7-C ) :   0.9598 B(  6-C ,  8-N ) :   1.1392 B(  7-C , 25-H ) :   0.9700
B(  7-C , 26-H ) :   0.9570 B(  7-C , 27-H ) :   0.9859 B(  8-N ,  9-C ) :   1.1864
B(  8-N , 28-H ) :   0.9494 B(  9-C , 10-S ) :   1.6178 B(  9-C , 11-N ) :   1.2905
B( 11-N , 12-C ) :   0.9938 B( 11-N , 29-H ) :   0.9525 B( 12-C , 13-C ) :   0.9362
B( 12-C , 30-H ) :   1.0083 B( 13-C , 14-C ) :   1.3579 B( 13-C , 19-C ) :   1.3589
B( 14-C , 15-C ) :   1.3958 B( 14-C , 31-H ) :   0.9726 B( 15-C , 16-C ) :   1.3623
B( 15-C , 32-H ) :   0.9704 B( 16-C , 17-C ) :   1.3282 B( 16-C , 33-H ) :   0.9835
B( 17-C , 18-O ) :   1.1139 B( 17-C , 19-C ) :   1.3692 B( 18-O , 34-H ) :   0.9788
B( 19-C , 35-H ) :   0.9537

MP2 TOTAL ENERGY:    -1274.319636085 Eh
FINAL SINGLE POINT ENERGY     -1274.319636084748

DIPOLE MOMENT
-------------
                                X             Y             Z
Electronic contribution:      9.58210       6.75107       5.67816
Nuclear contribution   :    -10.78819      -8.35270      -5.35496
                        -----------------------------------------
Total Dipole Moment    :     -1.20609      -1.60163       0.32320
                        -----------------------------------------
Magnitude (a.u.)       :      2.03085
Magnitude (Debye)      :      5.16200

Rotational constants in cm-1:     0.012042     0.009751     0.006702
Rotational constants in MHz :   361.013283   292.314711   200.924837

                             ****ORCA TERMINATED NORMALLY****
TOTAL RUN TIME: 0 days 2 hours 9 minutes 5 seconds 849 msec
