                         Program Version 4.2.0 -  RELEASE  -
|  1> ! ri-mp2 cc-pvtz cc-pvtz/c TightSCF  NoKeepInts
|  2>
|  3> %scf
|  4>   MaxCore 4096
|  5> end
|  6> *xyz  0  1
|  7>     C       15.1752812   15.2624321   17.0639719
|  8>     C       16.2289296   14.2312127   16.6004903
|  9>     O       17.5783831   14.7503042   16.4892196
| 10>     C       17.8219905   16.0380803   16.1115723
| 11>     O       17.5282075   16.3830676   14.9811032
| 12>     C       17.8432980   16.9904708   17.2775660
| 13>     C       17.4269206   18.2791953   17.1827155
| 14>     C       16.7420429   18.9428163   16.0071389
| 15>     N       17.6811069   19.1711651   18.2292448
| 16>     C       18.5523517   18.9267096   19.2582575
| 17>     S       18.9687052   20.0957588   20.3512340
| 18>     N       19.0644351   17.6553906   19.3334631
| 19>     C       18.5671760   16.5079679   18.5499482
| 20>     C       17.7369490   15.5941751   19.4506808
| 21>     C       18.0151354   14.2150791   19.5097658
| 22>     C       17.2688231   13.3668826   20.3447483
| 23>     C       16.2402149   13.9018527   21.1381132
| 24>     C       15.9691570   15.2759568   21.0962595
| 25>     O       14.9766292   15.7960152   21.8609268
| 26>     C       16.7136872   16.1176540   20.2640365
| 27>     H       15.4175459   15.6885666   18.0388731
| 28>     H       14.1955760   14.7778418   17.1531604
| 29>     H       15.0716472   16.0771096   16.3374046
| 30>     H       16.2293122   13.3767164   17.2893748
| 31>     H       15.9210822   13.8553520   15.6158105
| 32>     H       17.4409784   19.0511775   15.1677615
| 33>     H       16.3498374   19.9378194   16.2476866
| 34>     H       15.8998184   18.3361299   15.6528925
| 35>     H       17.3259132   20.1126350   18.1773144
| 36>     H       19.6847211   17.4957602   20.1171166
| 37>     H       19.4472633   15.9363959   18.2230268
| 38>     H       18.8081206   13.7959152   18.8955607
| 39>     H       17.4901690   12.3013418   20.3765697
| 40>     H       15.6608947   13.2509634   21.7848283
| 41>     H       14.6185119   15.0778435   22.4040563
| 42>     H       16.4861844   17.1782451   20.2521071
| 43> *
| 44>
| 45>                          ****END OF INPUT****

CARTESIAN COORDINATES (ANGSTROEM)
---------------------------------
  C     15.175281   15.262432   17.063972
  C     16.228930   14.231213   16.600490
  O     17.578383   14.750304   16.489220
  C     17.821990   16.038080   16.111572
  O     17.528208   16.383068   14.981103
  C     17.843298   16.990471   17.277566
  C     17.426921   18.279195   17.182716
  C     16.742043   18.942816   16.007139
  N     17.681107   19.171165   18.229245
  C     18.552352   18.926710   19.258257
  S     18.968705   20.095759   20.351234
  N     19.064435   17.655391   19.333463
  C     18.567176   16.507968   18.549948
  C     17.736949   15.594175   19.450681
  C     18.015135   14.215079   19.509766
  C     17.268823   13.366883   20.344748
  C     16.240215   13.901853   21.138113
  C     15.969157   15.275957   21.096259
  O     14.976629   15.796015   21.860927
  C     16.713687   16.117654   20.264036
  H     15.417546   15.688567   18.038873
  H     14.195576   14.777842   17.153160
  H     15.071647   16.077110   16.337405
  H     16.229312   13.376716   17.289375
  H     15.921082   13.855352   15.615810
  H     17.440978   19.051178   15.167761
  H     16.349837   19.937819   16.247687
  H     15.899818   18.336130   15.652892
  H     17.325913   20.112635   18.177314
  H     19.684721   17.495760   20.117117
  H     19.447263   15.936396   18.223027
  H     18.808121   13.795915   18.895561
  H     17.490169   12.301342   20.376570
  H     15.660895   13.250963   21.784828
  H     14.618512   15.077844   22.404056
  H     16.486184   17.178245   20.252107

 Total Charge           Charge          ....    0
 Multiplicity           Mult            ....    1
 Number of Electrons    NEL             ....  154
 Basis Dimension        Dim             ....  828

ORBITAL ENERGIES
----------------

  NO   OCC          E(Eh)            E(eV)
   0   2.0000     -91.891338     -2500.4904
   1   2.0000     -20.599102      -560.5301
   2   2.0000     -20.577276      -559.9361
   3   2.0000     -20.553664      -559.2936
   4   2.0000     -15.630563      -425.3293
   5   2.0000     -15.609967      -424.7688
   6   2.0000     -11.394575      -310.0621
   7   2.0000     -11.385761      -309.8223
   8   2.0000     -11.335820      -308.4633
   9   2.0000     -11.316517      -307.9381
  10   2.0000     -11.313804      -307.8643
  11   2.0000     -11.301422      -307.5273
  12   2.0000     -11.262991      -306.4816
  13   2.0000     -11.260607      -306.4167
  14   2.0000     -11.257851      -306.3417
  15   2.0000     -11.254593      -306.2530
  16   2.0000     -11.246294      -306.0272
  17   2.0000     -11.241367      -305.8931
  18   2.0000     -11.240350      -305.8655
  19   2.0000     -11.226420      -305.4864
  20   2.0000      -8.896360      -242.0823
  21   2.0000      -6.577927      -178.9945
  22   2.0000      -6.575931      -178.9402
  23   2.0000      -6.575334      -178.9239
  24   2.0000      -1.446881       -39.3716
  25   2.0000      -1.418905       -38.6104
  26   2.0000      -1.350623       -36.7523
  27   2.0000      -1.341961       -36.5166
  28   2.0000      -1.240379       -33.7524
  29   2.0000      -1.159557       -31.5531
  30   2.0000      -1.120775       -30.4978
  31   2.0000      -1.044809       -28.4307
  32   2.0000      -1.032160       -28.0865
  33   2.0000      -1.018299       -27.7093
  34   2.0000      -1.000190       -27.2165
  35   2.0000      -0.987108       -26.8606
  36   2.0000      -0.925189       -25.1757
  37   2.0000      -0.896954       -24.4074
  38   2.0000      -0.848660       -23.0932
  39   2.0000      -0.842532       -22.9265
  40   2.0000      -0.837149       -22.7800
  41   2.0000      -0.818615       -22.2756
  42   2.0000      -0.747134       -20.3305
  43   2.0000      -0.734422       -19.9846
  44   2.0000      -0.723230       -19.6801
  45   2.0000      -0.698070       -18.9955
  46   2.0000      -0.690985       -18.8026
  47   2.0000      -0.674348       -18.3499
  48   2.0000      -0.670002       -18.2317
  49   2.0000      -0.663738       -18.0612
  50   2.0000      -0.652022       -17.7424
  51   2.0000      -0.645736       -17.5714
  52   2.0000      -0.638360       -17.3707
  53   2.0000      -0.622777       -16.9466
  54   2.0000      -0.609073       -16.5737
  55   2.0000      -0.602045       -16.3825
  56   2.0000      -0.600932       -16.3522
  57   2.0000      -0.579703       -15.7745
  58   2.0000      -0.573190       -15.5973
  59   2.0000      -0.565027       -15.3752
  60   2.0000      -0.551064       -14.9952
  61   2.0000      -0.546494       -14.8709
  62   2.0000      -0.541254       -14.7283
  63   2.0000      -0.529014       -14.3952
  64   2.0000      -0.526125       -14.3166
  65   2.0000      -0.515484       -14.0270
  66   2.0000      -0.503699       -13.7064
  67   2.0000      -0.497990       -13.5510
  68   2.0000      -0.478555       -13.0221
  69   2.0000      -0.465418       -12.6647
  70   2.0000      -0.453786       -12.3481
  71   2.0000      -0.444758       -12.1025
  72   2.0000      -0.357819        -9.7368
  73   2.0000      -0.349596        -9.5130
  74   2.0000      -0.330438        -8.9917
  75   2.0000      -0.324676        -8.8349
  76   2.0000      -0.318449        -8.6654
  77   0.0000       0.066857         1.8193
  78   0.0000       0.102604         2.7920
  79   0.0000       0.118679         3.2294
  80   0.0000       0.128805         3.5050
  81   0.0000       0.132492         3.6053

MULLIKEN ATOMIC CHARGES
-----------------------
   0 C :   -0.341252
   1 C :    0.040263
   2 O :   -0.391499
   3 C :    0.469004
   4 O :   -0.393840
   5 C :   -0.233727
   6 C :    0.159578
   7 C :   -0.276905
   8 N :   -0.121750
   9 C :    0.187765
  10 S :   -0.431537
  11 N :   -0.196039
  12 C :    0.046597
  13 C :    0.053888
  14 C :   -0.199050
  15 C :   -0.138680
  16 C :   -0.274411
  17 C :    0.310227
  18 O :   -0.356785
  19 C :   -0.261478
  20 H :    0.119739
  21 H :    0.118205
  22 H :    0.105404
  23 H :    0.115279
  24 H :    0.120827
  25 H :    0.138976
  26 H :    0.094946
  27 H :    0.126048
  28 H :    0.197970
  29 H :    0.191781
  30 H :    0.149219
  31 H :    0.157240
  32 H :    0.165920
  33 H :    0.133161
  34 H :    0.240624
  35 H :    0.174293
Sum of atomic charges:   -0.0000000

LOEWDIN ATOMIC CHARGES
----------------------
   0 C :    0.107376
   1 C :   -0.009161
   2 O :    0.275737
   3 C :   -0.423344
   4 O :    0.130046
   5 C :   -0.095235
   6 C :   -0.062467
   7 C :    0.129991
   8 N :    0.406802
   9 C :   -0.459921
  10 S :   -0.031560
  11 N :    0.396173
  12 C :   -0.051427
  13 C :   -0.039833
  14 C :    0.019104
  15 C :    0.039040
  16 C :   -0.002297
  17 C :   -0.192196
  18 O :    0.396412
  19 C :    0.031147
  20 H :   -0.034334
  21 H :   -0.021732
  22 H :   -0.030349
  23 H :   -0.024487
  24 H :   -0.027705
  25 H :   -0.003157
  26 H :   -0.022642
  27 H :   -0.010070
  28 H :   -0.057974
  29 H :   -0.064909
  30 H :   -0.006511
  31 H :   -0.027789
  32 H :   -0.020499
  33 H :   -0.034895
  34 H :   -0.153427
  35 H :   -0.023907

  Mayer bond orders larger than 0.100000
B(  0-C ,  1-C ) :   0.9604 B(  0-C , 20-H ) :   0.9671 B(  0-C , 21-H ) :   0.9775
B(  0-C , 22-H ) :   0.9729 B(  1-C ,  2-O ) :   0.8778 B(  1-C , 23-H ) :   0.9765
B(  1-C , 24-H ) :   0.9860 B(  2-O ,  3-C ) :   1.1029 B(  3-C ,  4-O ) :   2.0340
B(  3-C ,  5-C ) :   1.0282 B(  5-C ,  6-C ) :   1.6635 B(  5-C , 12-C ) :   0.9628
B(  6-C ,  7-C ) :   0.9666 B(  6-C ,  8-N ) :   1.1375 B(  7-C , 25-H ) :   0.9566
B(  7-C , 26-H ) :   0.9874 B(  7-C , 27-H ) :   0.9677 B(  8-N ,  9-C ) :   1.1796
B(  8-N , 28-H ) :   0.9490 B(  9-C , 10-S ) :   1.6223 B(  9-C , 11-N ) :   1.2936
B( 11-N , 12-C ) :   0.9894 B( 11-N , 29-H ) :   0.9527 B( 12-C , 13-C ) :   0.9418
B( 12-C , 30-H ) :   1.0065 B( 13-C , 14-C ) :   1.3595 B( 13-C , 19-C ) :   1.3561
B( 14-C , 15-C ) :   1.3913 B( 14-C , 31-H ) :   0.9689 B( 15-C , 16-C ) :   1.3615
B( 15-C , 32-H ) :   0.9695 B( 16-C , 17-C ) :   1.3304 B( 16-C , 33-H ) :   0.9838
B( 17-C , 18-O ) :   1.1132 B( 17-C , 19-C ) :   1.3757 B( 18-O , 34-H ) :   0.9798
B( 19-C , 35-H ) :   0.9585

MP2 TOTAL ENERGY:    -1274.316589020 Eh
FINAL SINGLE POINT ENERGY     -1274.316589020251

DIPOLE MOMENT
-------------
                                X             Y             Z
Electronic contribution:     10.05945       7.43516       6.07438
Nuclear contribution   :    -11.22340      -9.02074      -6.06585
                        -----------------------------------------
Total Dipole Moment    :     -1.16394      -1.58557       0.00853
                        -----------------------------------------
Magnitude (a.u.)       :      1.96695
Magnitude (Debye)      :      4.99958

Rotational constants in cm-1:     0.011752     0.010040     0.006608
Rotational constants in MHz :   352.326422   300.977719   198.117708

                             ****ORCA TERMINATED NORMALLY****
TOTAL RUN TIME: 0 days 1 hours 54 minutes 17 seconds 800 msec
