                         Program Version 5.0.0 -  RELEASE  -
|  1> ! ri-mp2 cc-pvtz cc-pvtz/c TightSCF NoKeepInts
|  2>
|  3> %scf
|  4>   MaxCore 4096
|  5> end
|  6> *xyz  0  1
|  7>     C       15.3716558   14.1799070   14.9624459
|  8>     C       15.9632733   13.9472070   16.3703961
|  9>     O       16.7937725   15.0336755   16.8466443
| 10>     C       16.5059992   16.3707311   16.7332908
| 11>     O       15.5558493   16.8103492   16.1109152
| 12>     C       17.4052063   17.2158917   17.5955589
| 13>     C       17.3346174   18.5718757   17.6133927
| 14>     C       16.3930476   19.4538939   16.8211445
| 15>     N       18.2240989   19.3105942   18.3996448
| 16>     C       19.2760704   18.7831213   19.0994801
| 17>     S       20.3467577   19.7381596   19.9226250
| 18>     N       19.4001877   17.4176079   19.0796568
| 19>     C       18.4240047   16.4851940   18.4870605
| 20>     C       17.7427421   15.6841017   19.5932444
| 21>     C       17.9809723   14.3029002   19.7238580
| 22>     C       17.3549860   13.5622853   20.7406771
| 23>     C       16.4858234   14.2080978   21.6364720
| 24>     C       16.2499457   15.5841789   21.5122253
| 25>     O       15.4126806   16.2108347   22.3767368
| 26>     C       16.8742540   16.3184864   20.4992762
| 27>     H       14.5087168   14.8560808   14.9955716
| 28>     H       15.0239640   13.2308664   14.5371720
| 29>     H       16.1245853   14.6006720   14.2845243
| 30>     H       15.1357816   13.7892254   17.0745497
| 31>     H       16.5640499   13.0288874   16.3599495
| 32>     H       15.3507557   19.2477274   17.0966198
| 33>     H       16.4918949   19.2573676   15.7460452
| 34>     H       16.5719079   20.5239155   16.9786364
| 35>     H       18.1485952   20.3149098   18.4247909
| 36>     H       20.1631203   17.0554865   19.6369208
| 37>     H       18.9861729   15.7887277   17.8493245
| 38>     H       18.6494479   13.8005988   19.0299145
| 39>     H       17.5442755   12.4942593   20.8326084
| 40>     H       16.0003997   13.6407797   22.4237166
| 41>     H       15.1033326   15.5496745   23.0138102
| 42>     H       16.6840550   17.3837277   20.4251001
| 43> *
| 44>
| 45>                          ****END OF INPUT****

CARTESIAN COORDINATES (ANGSTROEM)
---------------------------------
  C     15.371656   14.179907   14.962446
  C     15.963273   13.947207   16.370396
  O     16.793772   15.033675   16.846644
  C     16.505999   16.370731   16.733291
  O     15.555849   16.810349   16.110915
  C     17.405206   17.215892   17.595559
  C     17.334617   18.571876   17.613393
  C     16.393048   19.453894   16.821144
  N     18.224099   19.310594   18.399645
  C     19.276070   18.783121   19.099480
  S     20.346758   19.738160   19.922625
  N     19.400188   17.417608   19.079657
  C     18.424005   16.485194   18.487060
  C     17.742742   15.684102   19.593244
  C     17.980972   14.302900   19.723858
  C     17.354986   13.562285   20.740677
  C     16.485823   14.208098   21.636472
  C     16.249946   15.584179   21.512225
  O     15.412681   16.210835   22.376737
  C     16.874254   16.318486   20.499276
  H     14.508717   14.856081   14.995572
  H     15.023964   13.230866   14.537172
  H     16.124585   14.600672   14.284524
  H     15.135782   13.789225   17.074550
  H     16.564050   13.028887   16.359949
  H     15.350756   19.247727   17.096620
  H     16.491895   19.257368   15.746045
  H     16.571908   20.523916   16.978636
  H     18.148595   20.314910   18.424791
  H     20.163120   17.055486   19.636921
  H     18.986173   15.788728   17.849325
  H     18.649448   13.800599   19.029915
  H     17.544276   12.494259   20.832608
  H     16.000400   13.640780   22.423717
  H     15.103333   15.549674   23.013810
  H     16.684055   17.383728   20.425100

 Total Charge           Charge          ....    0
 Multiplicity           Mult            ....    1
 Number of Electrons    NEL             ....  154
 Basis Dimension        Dim             ....  828

ORBITAL ENERGIES
----------------

  NO   OCC          E(Eh)            E(eV)
   0   2.0000     -91.887866     -2500.3959
   1   2.0000     -20.599511      -560.5412
   2   2.0000     -20.595146      -560.4224
   3   2.0000     -20.541003      -558.9491
   4   2.0000     -15.627963      -425.2585
   5   2.0000     -15.607027      -424.6888
   6   2.0000     -11.397320      -310.1368
   7   2.0000     -11.382844      -309.7429
   8   2.0000     -11.334707      -308.4331
   9   2.0000     -11.312120      -307.8184
  10   2.0000     -11.307514      -307.6931
  11   2.0000     -11.302467      -307.5558
  12   2.0000     -11.258195      -306.3511
  13   2.0000     -11.258034      -306.3467
  14   2.0000     -11.253666      -306.2278
  15   2.0000     -11.251227      -306.1615
  16   2.0000     -11.241370      -305.8932
  17   2.0000     -11.236715      -305.7666
  18   2.0000     -11.236608      -305.7637
  19   2.0000     -11.222106      -305.3690
  20   2.0000      -8.892936      -241.9891
  21   2.0000      -6.574513      -178.9016
  22   2.0000      -6.572507      -178.8470
  23   2.0000      -6.571922      -178.8311
  24   2.0000      -1.445309       -39.3289
  25   2.0000      -1.414783       -38.4982
  26   2.0000      -1.354922       -36.8693
  27   2.0000      -1.339010       -36.4363
  28   2.0000      -1.237382       -33.6709
  29   2.0000      -1.155898       -31.4536
  30   2.0000      -1.118801       -30.4441
  31   2.0000      -1.041316       -28.3356
  32   2.0000      -1.035997       -28.1909
  33   2.0000      -1.013418       -27.5765
  34   2.0000      -0.994252       -27.0550
  35   2.0000      -0.982650       -26.7393
  36   2.0000      -0.921222       -25.0677
  37   2.0000      -0.896934       -24.4068
  38   2.0000      -0.846267       -23.0281
  39   2.0000      -0.836668       -22.7669
  40   2.0000      -0.832458       -22.6523
  41   2.0000      -0.818119       -22.2621
  42   2.0000      -0.747882       -20.3509
  43   2.0000      -0.729542       -19.8519
  44   2.0000      -0.719523       -19.5792
  45   2.0000      -0.694357       -18.8944
  46   2.0000      -0.687370       -18.7043
  47   2.0000      -0.678947       -18.4751
  48   2.0000      -0.668245       -18.1839
  49   2.0000      -0.655261       -17.8306
  50   2.0000      -0.651042       -17.7158
  51   2.0000      -0.644039       -17.5252
  52   2.0000      -0.633586       -17.2408
  53   2.0000      -0.605908       -16.4876
  54   2.0000      -0.604058       -16.4373
  55   2.0000      -0.597921       -16.2703
  56   2.0000      -0.597366       -16.2552
  57   2.0000      -0.580897       -15.8070
  58   2.0000      -0.573537       -15.6067
  59   2.0000      -0.569982       -15.5100
  60   2.0000      -0.561382       -15.2760
  61   2.0000      -0.538253       -14.6466
  62   2.0000      -0.535901       -14.5826
  63   2.0000      -0.523740       -14.2517
  64   2.0000      -0.521354       -14.1868
  65   2.0000      -0.511982       -13.9317
  66   2.0000      -0.502844       -13.6831
  67   2.0000      -0.498559       -13.5665
  68   2.0000      -0.483007       -13.1433
  69   2.0000      -0.463097       -12.6015
  70   2.0000      -0.454466       -12.3666
  71   2.0000      -0.440004       -11.9731
  72   2.0000      -0.353137        -9.6094
  73   2.0000      -0.347829        -9.4649
  74   2.0000      -0.327236        -8.9045
  75   2.0000      -0.319753        -8.7009
  76   2.0000      -0.314895        -8.5687
  77   0.0000       0.077381         2.1057
  78   0.0000       0.108904         2.9634
  79   0.0000       0.124912         3.3990
  80   0.0000       0.133538         3.6337
  81   0.0000       0.137504         3.7417

MULLIKEN ATOMIC CHARGES
-----------------------
   0 C :   -0.292092
   1 C :    0.050519
   2 O :   -0.360595
   3 C :    0.468274
   4 O :   -0.434580
   5 C :   -0.207966
   6 C :    0.146050
   7 C :   -0.274173
   8 N :   -0.119926
   9 C :    0.211965
  10 S :   -0.441475
  11 N :   -0.203374
  12 C :    0.048891
  13 C :    0.075234
  14 C :   -0.187574
  15 C :   -0.130918
  16 C :   -0.279123
  17 C :    0.315912
  18 O :   -0.356879
  19 C :   -0.270002
  20 H :    0.124054
  21 H :    0.094497
  22 H :    0.095669
  23 H :    0.089661
  24 H :    0.099754
  25 H :    0.132475
  26 H :    0.129210
  27 H :    0.095028
  28 H :    0.197082
  29 H :    0.194054
  30 H :    0.148782
  31 H :    0.148425
  32 H :    0.159180
  33 H :    0.129159
  34 H :    0.240463
  35 H :    0.164339
Sum of atomic charges:   -0.0000000

LOEWDIN ATOMIC CHARGES
----------------------
   0 C :    0.102977
   1 C :   -0.009393
   2 O :    0.297699
   3 C :   -0.412360
   4 O :    0.105408
   5 C :   -0.093099
   6 C :   -0.059523
   7 C :    0.130641
   8 N :    0.406338
   9 C :   -0.456776
  10 S :   -0.036633
  11 N :    0.396425
  12 C :   -0.052866
  13 C :   -0.037741
  14 C :    0.013686
  15 C :    0.038861
  16 C :   -0.002191
  17 C :   -0.189454
  18 O :    0.395010
  19 C :    0.031426
  20 H :   -0.025592
  21 H :   -0.029242
  22 H :   -0.026826
  23 H :   -0.028183
  24 H :   -0.025120
  25 H :   -0.004753
  26 H :   -0.004593
  27 H :   -0.023613
  28 H :   -0.057784
  29 H :   -0.064785
  30 H :   -0.011400
  31 H :   -0.030790
  32 H :   -0.021709
  33 H :   -0.035908
  34 H :   -0.154170
  35 H :   -0.023965

  Mayer bond orders larger than 0.100000
B(  0-C ,  1-C ) :   0.9744 B(  0-C , 20-H ) :   0.9718 B(  0-C , 21-H ) :   0.9773
B(  0-C , 22-H ) :   0.9759 B(  1-C ,  2-O ) :   0.8983 B(  1-C , 23-H ) :   0.9756
B(  1-C , 24-H ) :   0.9832 B(  2-O ,  3-C ) :   1.1559 B(  3-C ,  4-O ) :   1.9637
B(  3-C ,  5-C ) :   1.0627 B(  5-C ,  6-C ) :   1.6573 B(  5-C , 12-C ) :   0.9747
B(  6-C ,  7-C ) :   0.9677 B(  6-C ,  8-N ) :   1.1634 B(  7-C , 25-H ) :   0.9602
B(  7-C , 26-H ) :   0.9607 B(  7-C , 27-H ) :   0.9910 B(  8-N ,  9-C ) :   1.1829
B(  8-N , 28-H ) :   0.9481 B(  9-C , 10-S ) :   1.6059 B(  9-C , 11-N ) :   1.3056
B( 11-N , 12-C ) :   0.9861 B( 11-N , 29-H ) :   0.9518 B( 12-C , 13-C ) :   0.9374
B( 12-C , 30-H ) :   1.0026 B( 13-C , 14-C ) :   1.3531 B( 13-C , 19-C ) :   1.3834
B( 14-C , 15-C ) :   1.3924 B( 14-C , 31-H ) :   0.9721 B( 15-C , 16-C ) :   1.3640
B( 15-C , 32-H ) :   0.9710 B( 16-C , 17-C ) :   1.3318 B( 16-C , 33-H ) :   0.9853
B( 17-C , 18-O ) :   1.1098 B( 17-C , 19-C ) :   1.3731 B( 18-O , 34-H ) :   0.9801
B( 19-C , 35-H ) :   0.9584

MP2 TOTAL ENERGY:    -1274.341810621 Eh
FINAL SINGLE POINT ENERGY     -1274.341810621018

DIPOLE MOMENT
-------------
                                X             Y             Z
Electronic contribution:      9.76223       9.63277      10.12540
Nuclear contribution   :    -10.81865     -11.38359     -10.53349
                        -----------------------------------------
Total Dipole Moment    :     -1.05642      -1.75082      -0.40808
                        -----------------------------------------
Magnitude (a.u.)       :      2.08517
Magnitude (Debye)      :      5.30007

Rotational constants in cm-1:     0.010993     0.008821     0.006008
Rotational constants in MHz :   329.571377   264.455077   180.126442

                             ****ORCA TERMINATED NORMALLY****
TOTAL RUN TIME: 0 days 1 hours 45 minutes 19 seconds 747 msec
