                         Program Version 4.2.0 -  RELEASE  -
|  1> ! ri-mp2 cc-pvtz cc-pvtz/c TightSCF  NoKeepInts
|  2>
|  3> %scf
|  4>   MaxCore 4096
|  5> end
|  6> *xyz  0  1
|  7>     C       14.3183400   14.6786492   16.7642710
|  8>     C       15.4124213   15.7251210   17.0286279
|  9>     O       16.6247861   15.2261429   16.4364934
| 10>     C       17.8096340   15.9169534   16.3977098
| 11>     O       18.8123829   15.3385943   16.0229533
| 12>     C       17.9222560   17.0241616   17.3916367
| 13>     C       17.3994729   18.2508956   17.1686380
| 14>     C       16.6616458   18.7134854   15.9308097
| 15>     N       17.5913527   19.2686390   18.1051384
| 16>     C       18.3729756   19.1580043   19.2261964
| 17>     S       18.5913357   20.4298253   20.2598893
| 18>     N       18.9624616   17.9375236   19.4512760
| 19>     C       18.7462705   16.7207927   18.6421135
| 20>     C       18.1015598   15.6049264   19.4595370
| 21>     C       18.5061553   14.2712634   19.2668950
| 22>     C       17.9029639   13.2276356   19.9879910
| 23>     C       16.8830426   13.5180258   20.9096755
| 24>     C       16.4724949   14.8439303   21.1008961
| 25>     O       15.4776447   15.1266245   21.9788094
| 26>     C       17.0744178   15.8814889   20.3817736
| 27>     H       13.3618783   15.0022829   17.1923295
| 28>     H       14.5899492   13.7171779   17.2183823
| 29>     H       14.1806899   14.5246654   15.6866969
| 30>     H       15.1092504   16.6731267   16.5720815
| 31>     H       15.5339337   15.8687158   18.1097419
| 32>     H       16.6243338   17.9424108   15.1514420
| 33>     H       17.1600938   19.5850227   15.4870324
| 34>     H       15.6301269   19.0014286   16.1685388
| 35>     H       17.1833617   20.1773492   17.9499373
| 36>     H       19.5192980   17.8813244   20.2948501
| 37>     H       19.7325461   16.3660198   18.3075580
| 38>     H       19.2812854   14.0410273   18.5386220
| 39>     H       18.2221165   12.1997336   19.8239209
| 40>     H       16.4120856   12.7139659   21.4654901
| 41>     H       15.2281389   14.2961782   22.4120069
| 42>     H       16.7342977   16.8988877   20.5440383
| 43> *
| 44>
| 45>                          ****END OF INPUT****

CARTESIAN COORDINATES (ANGSTROEM)
---------------------------------
  C     14.318340   14.678649   16.764271
  C     15.412421   15.725121   17.028628
  O     16.624786   15.226143   16.436493
  C     17.809634   15.916953   16.397710
  O     18.812383   15.338594   16.022953
  C     17.922256   17.024162   17.391637
  C     17.399473   18.250896   17.168638
  C     16.661646   18.713485   15.930810
  N     17.591353   19.268639   18.105138
  C     18.372976   19.158004   19.226196
  S     18.591336   20.429825   20.259889
  N     18.962462   17.937524   19.451276
  C     18.746271   16.720793   18.642113
  C     18.101560   15.604926   19.459537
  C     18.506155   14.271263   19.266895
  C     17.902964   13.227636   19.987991
  C     16.883043   13.518026   20.909675
  C     16.472495   14.843930   21.100896
  O     15.477645   15.126625   21.978809
  C     17.074418   15.881489   20.381774
  H     13.361878   15.002283   17.192329
  H     14.589949   13.717178   17.218382
  H     14.180690   14.524665   15.686697
  H     15.109250   16.673127   16.572081
  H     15.533934   15.868716   18.109742
  H     16.624334   17.942411   15.151442
  H     17.160094   19.585023   15.487032
  H     15.630127   19.001429   16.168539
  H     17.183362   20.177349   17.949937
  H     19.519298   17.881324   20.294850
  H     19.732546   16.366020   18.307558
  H     19.281285   14.041027   18.538622
  H     18.222116   12.199734   19.823921
  H     16.412086   12.713966   21.465490
  H     15.228139   14.296178   22.412007
  H     16.734298   16.898888   20.544038

 Total Charge           Charge          ....    0
 Multiplicity           Mult            ....    1
 Number of Electrons    NEL             ....  154
 Basis Dimension        Dim             ....  828

ORBITAL ENERGIES
----------------

  NO   OCC          E(Eh)            E(eV)
   0   2.0000     -91.889382     -2500.4372
   1   2.0000     -20.602148      -560.6129
   2   2.0000     -20.599715      -560.5467
   3   2.0000     -20.552309      -559.2568
   4   2.0000     -15.625326      -425.1867
   5   2.0000     -15.611703      -424.8160
   6   2.0000     -11.397519      -310.1423
   7   2.0000     -11.386374      -309.8390
   8   2.0000     -11.326570      -308.2116
   9   2.0000     -11.316611      -307.9406
  10   2.0000     -11.316406      -307.9351
  11   2.0000     -11.302333      -307.5521
  12   2.0000     -11.270985      -306.6991
  13   2.0000     -11.265145      -306.5402
  14   2.0000     -11.263917      -306.5068
  15   2.0000     -11.256616      -306.3081
  16   2.0000     -11.245777      -306.0132
  17   2.0000     -11.241976      -305.9097
  18   2.0000     -11.238909      -305.8262
  19   2.0000     -11.232569      -305.6537
  20   2.0000      -8.894511      -242.0319
  21   2.0000      -6.576104      -178.9449
  22   2.0000      -6.574072      -178.8896
  23   2.0000      -6.573502      -178.8741
  24   2.0000      -1.450836       -39.4792
  25   2.0000      -1.419538       -38.6276
  26   2.0000      -1.361007       -37.0349
  27   2.0000      -1.339299       -36.4442
  28   2.0000      -1.239545       -33.7297
  29   2.0000      -1.161154       -31.5966
  30   2.0000      -1.125548       -30.6277
  31   2.0000      -1.049217       -28.5507
  32   2.0000      -1.040508       -28.3137
  33   2.0000      -1.018977       -27.7278
  34   2.0000      -1.005258       -27.3545
  35   2.0000      -0.989095       -26.9146
  36   2.0000      -0.928005       -25.2523
  37   2.0000      -0.880725       -23.9658
  38   2.0000      -0.855642       -23.2832
  39   2.0000      -0.841656       -22.9026
  40   2.0000      -0.837258       -22.7830
  41   2.0000      -0.836482       -22.7618
  42   2.0000      -0.757436       -20.6109
  43   2.0000      -0.739349       -20.1187
  44   2.0000      -0.731752       -19.9120
  45   2.0000      -0.697582       -18.9822
  46   2.0000      -0.688413       -18.7327
  47   2.0000      -0.681498       -18.5445
  48   2.0000      -0.677748       -18.4425
  49   2.0000      -0.663731       -18.0610
  50   2.0000      -0.656935       -17.8761
  51   2.0000      -0.651085       -17.7169
  52   2.0000      -0.639601       -17.4044
  53   2.0000      -0.612430       -16.6651
  54   2.0000      -0.607972       -16.5438
  55   2.0000      -0.603453       -16.4208
  56   2.0000      -0.595601       -16.2071
  57   2.0000      -0.583747       -15.8846
  58   2.0000      -0.576905       -15.6984
  59   2.0000      -0.571977       -15.5643
  60   2.0000      -0.564430       -15.3589
  61   2.0000      -0.558167       -15.1885
  62   2.0000      -0.552347       -15.0301
  63   2.0000      -0.526800       -14.3349
  64   2.0000      -0.518949       -14.1213
  65   2.0000      -0.515122       -14.0172
  66   2.0000      -0.507981       -13.8229
  67   2.0000      -0.502298       -13.6682
  68   2.0000      -0.487466       -13.2646
  69   2.0000      -0.469061       -12.7638
  70   2.0000      -0.453749       -12.3471
  71   2.0000      -0.451519       -12.2865
  72   2.0000      -0.356849        -9.7103
  73   2.0000      -0.351338        -9.5604
  74   2.0000      -0.329160        -8.9569
  75   2.0000      -0.324220        -8.8225
  76   2.0000      -0.318062        -8.6549
  77   0.0000       0.089799         2.4436
  78   0.0000       0.104128         2.8335
  79   0.0000       0.110143         2.9972
  80   0.0000       0.128511         3.4970
  81   0.0000       0.130468         3.5502

MULLIKEN ATOMIC CHARGES
-----------------------
   0 C :   -0.261791
   1 C :    0.020119
   2 O :   -0.300830
   3 C :    0.387149
   4 O :   -0.377950
   5 C :   -0.173700
   6 C :    0.140977
   7 C :   -0.329769
   8 N :   -0.141537
   9 C :    0.207495
  10 S :   -0.442522
  11 N :   -0.221295
  12 C :    0.074107
  13 C :    0.028468
  14 C :   -0.194482
  15 C :   -0.132045
  16 C :   -0.274945
  17 C :    0.325077
  18 O :   -0.357743
  19 C :   -0.293976
  20 H :    0.088129
  21 H :    0.107255
  22 H :    0.101135
  23 H :    0.082791
  24 H :    0.109427
  25 H :    0.120047
  26 H :    0.142104
  27 H :    0.120647
  28 H :    0.195323
  29 H :    0.200616
  30 H :    0.166375
  31 H :    0.166533
  32 H :    0.163751
  33 H :    0.132419
  34 H :    0.241494
  35 H :    0.181149
Sum of atomic charges:   -0.0000000

LOEWDIN ATOMIC CHARGES
----------------------
   0 C :    0.112261
   1 C :   -0.026681
   2 O :    0.314159
   3 C :   -0.418180
   4 O :    0.127361
   5 C :   -0.078674
   6 C :   -0.107805
   7 C :    0.121681
   8 N :    0.400543
   9 C :   -0.455469
  10 S :   -0.039123
  11 N :    0.397457
  12 C :   -0.042763
  13 C :   -0.042510
  14 C :    0.024040
  15 C :    0.046251
  16 C :   -0.000277
  17 C :   -0.194207
  18 O :    0.394831
  19 C :    0.026037
  20 H :   -0.025324
  21 H :   -0.022986
  22 H :   -0.025710
  23 H :   -0.038452
  24 H :   -0.033169
  25 H :   -0.009981
  26 H :   -0.009095
  27 H :   -0.017585
  28 H :   -0.058375
  29 H :   -0.063700
  30 H :   -0.002033
  31 H :   -0.021761
  32 H :   -0.018325
  33 H :   -0.034679
  34 H :   -0.152971
  35 H :   -0.024789

  Mayer bond orders larger than 0.100000
B(  0-C ,  1-C ) :   0.9852 B(  0-C , 20-H ) :   0.9769 B(  0-C , 21-H ) :   0.9795
B(  0-C , 22-H ) :   0.9786 B(  1-C ,  2-O ) :   0.9162 B(  1-C , 23-H ) :   0.9736
B(  1-C , 24-H ) :   0.9574 B(  2-O ,  3-C ) :   1.1689 B(  3-C ,  4-O ) :   2.0940
B(  3-C ,  5-C ) :   0.9189 B(  5-C ,  6-C ) :   1.6921 B(  5-C , 12-C ) :   0.9595
B(  6-C ,  7-C ) :   0.9442 B(  6-C ,  8-N ) :   1.1143 B(  7-C , 25-H ) :   0.9827
B(  7-C , 26-H ) :   0.9674 B(  7-C , 27-H ) :   0.9675 B(  8-N ,  9-C ) :   1.1998
B(  8-N , 28-H ) :   0.9533 B(  9-C , 10-S ) :   1.6084 B(  9-C , 11-N ) :   1.2852
B( 11-N , 12-C ) :   0.9930 B( 11-N , 29-H ) :   0.9477 B( 12-C , 13-C ) :   0.9449
B( 12-C , 30-H ) :   0.9973 B( 13-C , 14-C ) :   1.3872 B( 13-C , 19-C ) :   1.3398
B( 14-C , 15-C ) :   1.3985 B( 14-C , 31-H ) :   0.9623 B( 15-C , 16-C ) :   1.3620
B( 15-C , 32-H ) :   0.9698 B( 16-C , 17-C ) :   1.3310 B( 16-C , 33-H ) :   0.9844
B( 17-C , 18-O ) :   1.1091 B( 17-C , 19-C ) :   1.3615 B( 18-O , 34-H ) :   0.9793
B( 19-C , 35-H ) :   0.9576

MP2 TOTAL ENERGY:    -1274.328887010 Eh
FINAL SINGLE POINT ENERGY     -1274.328887009575

DIPOLE MOMENT
-------------
                                X             Y             Z
Electronic contribution:     11.65534       7.21988       6.95936
Nuclear contribution   :    -13.28562      -8.21426      -7.39875
                        -----------------------------------------
Total Dipole Moment    :     -1.63027      -0.99438      -0.43939
                        -----------------------------------------
Magnitude (a.u.)       :      1.95950
Magnitude (Debye)      :      4.98065

Rotational constants in cm-1:     0.012016     0.009047     0.006726
Rotational constants in MHz :   360.228307   271.210887   201.636503

                             ****ORCA TERMINATED NORMALLY****
TOTAL RUN TIME: 0 days 1 hours 46 minutes 25 seconds 958 msec
