                         Program Version 4.2.0 -  RELEASE  -
|  1> ! ri-mp2 cc-pvtz cc-pvtz/c TightSCF  NoKeepInts
|  2>
|  3> %scf
|  4>   MaxCore 4096
|  5> end
|  6> *xyz  0  1
|  7>     C       15.0253421   15.4511887   16.9526941
|  8>     C       16.1444143   14.3862780   16.9086946
|  9>     O       17.3063581   14.8253275   16.1648356
| 10>     C       17.7613785   16.1129222   16.0422010
| 11>     O       17.9980188   16.5562310   14.9337625
| 12>     C       17.7759875   16.9841064   17.2649409
| 13>     C       17.3480926   18.2684158   17.2018890
| 14>     C       16.6262928   18.9238004   16.0449699
| 15>     N       17.6071286   19.1461202   18.2575824
| 16>     C       18.4995479   18.8920353   19.2658072
| 17>     S       18.9153873   20.0426156   20.3784747
| 18>     N       19.0440588   17.6317955   19.2953619
| 19>     C       18.5655616   16.4910187   18.4907779
| 20>     C       17.8112117   15.5387831   19.4083220
| 21>     C       18.3226239   14.2528525   19.6689100
| 22>     C       17.6386559   13.3722082   20.5239088
| 23>     C       16.4395297   13.7829179   21.1309393
| 24>     C       15.9378611   15.0688934   20.8889904
| 25>     O       14.7818292   15.4699861   21.4742336
| 26>     C       16.6206160   15.9435274   20.0384047
| 27>     H       15.2652674   16.2818850   17.6227634
| 28>     H       14.0965077   14.9987924   17.3210987
| 29>     H       14.8278681   15.8493435   15.9493913
| 30>     H       16.4091705   14.0858580   17.9246144
| 31>     H       15.7506068   13.4872062   16.4173306
| 32>     H       15.9157975   18.2307452   15.5781413
| 33>     H       17.3438127   19.2224197   15.2694082
| 34>     H       16.0637379   19.8141217   16.3495995
| 35>     H       17.2422228   20.0850121   18.2271798
| 36>     H       19.6876992   17.4703972   20.0595675
| 37>     H       19.4509224   15.9619616   18.1102549
| 38>     H       19.2499044   13.9307525   19.2016226
| 39>     H       18.0391026   12.3777803   20.7154900
| 40>     H       15.9081325   13.1056788   21.7918933
| 41>     H       14.5030264   14.7691565   22.0831719
| 42>     H       16.2233245   16.9398656   19.8767718
| 43> *
| 44>
| 45>                          ****END OF INPUT****

CARTESIAN COORDINATES (ANGSTROEM)
---------------------------------
  C     15.025342   15.451189   16.952694
  C     16.144414   14.386278   16.908695
  O     17.306358   14.825327   16.164836
  C     17.761378   16.112922   16.042201
  O     17.998019   16.556231   14.933762
  C     17.775987   16.984106   17.264941
  C     17.348093   18.268416   17.201889
  C     16.626293   18.923800   16.044970
  N     17.607129   19.146120   18.257582
  C     18.499548   18.892035   19.265807
  S     18.915387   20.042616   20.378475
  N     19.044059   17.631795   19.295362
  C     18.565562   16.491019   18.490778
  C     17.811212   15.538783   19.408322
  C     18.322624   14.252852   19.668910
  C     17.638656   13.372208   20.523909
  C     16.439530   13.782918   21.130939
  C     15.937861   15.068893   20.888990
  O     14.781829   15.469986   21.474234
  C     16.620616   15.943527   20.038405
  H     15.265267   16.281885   17.622763
  H     14.096508   14.998792   17.321099
  H     14.827868   15.849343   15.949391
  H     16.409170   14.085858   17.924614
  H     15.750607   13.487206   16.417331
  H     15.915798   18.230745   15.578141
  H     17.343813   19.222420   15.269408
  H     16.063738   19.814122   16.349600
  H     17.242223   20.085012   18.227180
  H     19.687699   17.470397   20.059567
  H     19.450922   15.961962   18.110255
  H     19.249904   13.930753   19.201623
  H     18.039103   12.377780   20.715490
  H     15.908133   13.105679   21.791893
  H     14.503026   14.769156   22.083172
  H     16.223325   16.939866   19.876772

 Total Charge           Charge          ....    0
 Multiplicity           Mult            ....    1
 Number of Electrons    NEL             ....  154
 Basis Dimension        Dim             ....  828

ORBITAL ENERGIES
----------------

  NO   OCC          E(Eh)            E(eV)
   0   2.0000     -91.890862     -2500.4775
   1   2.0000     -20.605624      -560.7075
   2   2.0000     -20.587730      -560.2206
   3   2.0000     -20.548519      -559.1536
   4   2.0000     -15.628772      -425.2805
   5   2.0000     -15.611388      -424.8075
   6   2.0000     -11.394594      -310.0627
   7   2.0000     -11.385956      -309.8276
   8   2.0000     -11.330980      -308.3316
   9   2.0000     -11.323971      -308.1409
  10   2.0000     -11.318443      -307.9905
  11   2.0000     -11.299563      -307.4767
  12   2.0000     -11.268636      -306.6352
  13   2.0000     -11.265008      -306.5365
  14   2.0000     -11.258988      -306.3726
  15   2.0000     -11.255057      -306.2657
  16   2.0000     -11.253449      -306.2219
  17   2.0000     -11.247925      -306.0716
  18   2.0000     -11.247598      -306.0627
  19   2.0000     -11.231572      -305.6266
  20   2.0000      -8.895901      -242.0698
  21   2.0000      -6.577470      -178.9821
  22   2.0000      -6.575470      -178.9276
  23   2.0000      -6.574879      -178.9116
  24   2.0000      -1.441146       -39.2156
  25   2.0000      -1.425322       -38.7850
  26   2.0000      -1.352558       -36.8050
  27   2.0000      -1.341573       -36.5061
  28   2.0000      -1.241409       -33.7805
  29   2.0000      -1.166583       -31.7443
  30   2.0000      -1.123237       -30.5648
  31   2.0000      -1.050462       -28.5845
  32   2.0000      -1.033383       -28.1198
  33   2.0000      -1.025001       -27.8917
  34   2.0000      -1.002794       -27.2874
  35   2.0000      -0.988505       -26.8986
  36   2.0000      -0.928463       -25.2647
  37   2.0000      -0.897853       -24.4318
  38   2.0000      -0.850946       -23.1554
  39   2.0000      -0.847361       -23.0579
  40   2.0000      -0.843092       -22.9417
  41   2.0000      -0.827549       -22.5188
  42   2.0000      -0.749347       -20.3908
  43   2.0000      -0.739190       -20.1144
  44   2.0000      -0.717808       -19.5326
  45   2.0000      -0.704748       -19.1772
  46   2.0000      -0.693217       -18.8634
  47   2.0000      -0.678893       -18.4736
  48   2.0000      -0.673891       -18.3375
  49   2.0000      -0.661909       -18.0114
  50   2.0000      -0.654783       -17.8176
  51   2.0000      -0.650218       -17.6933
  52   2.0000      -0.638818       -17.3831
  53   2.0000      -0.624341       -16.9892
  54   2.0000      -0.615454       -16.7473
  55   2.0000      -0.607889       -16.5415
  56   2.0000      -0.603307       -16.4168
  57   2.0000      -0.584885       -15.9155
  58   2.0000      -0.577050       -15.7023
  59   2.0000      -0.567099       -15.4315
  60   2.0000      -0.554922       -15.1002
  61   2.0000      -0.547250       -14.8914
  62   2.0000      -0.540473       -14.7070
  63   2.0000      -0.535718       -14.5776
  64   2.0000      -0.532101       -14.4792
  65   2.0000      -0.518059       -14.0971
  66   2.0000      -0.507841       -13.8191
  67   2.0000      -0.497960       -13.5502
  68   2.0000      -0.482572       -13.1315
  69   2.0000      -0.469644       -12.7797
  70   2.0000      -0.448445       -12.2028
  71   2.0000      -0.446443       -12.1483
  72   2.0000      -0.358658        -9.7596
  73   2.0000      -0.356070        -9.6892
  74   2.0000      -0.333889        -9.0856
  75   2.0000      -0.329030        -8.9534
  76   2.0000      -0.318012        -8.6535
  77   0.0000       0.074829         2.0362
  78   0.0000       0.100626         2.7382
  79   0.0000       0.119385         3.2486
  80   0.0000       0.125858         3.4248
  81   0.0000       0.130840         3.5603

MULLIKEN ATOMIC CHARGES
-----------------------
   0 C :   -0.346237
   1 C :    0.037417
   2 O :   -0.341167
   3 C :    0.417102
   4 O :   -0.370227
   5 C :   -0.255860
   6 C :    0.160821
   7 C :   -0.282183
   8 N :   -0.127654
   9 C :    0.203749
  10 S :   -0.435961
  11 N :   -0.191429
  12 C :    0.046947
  13 C :    0.044120
  14 C :   -0.177764
  15 C :   -0.131689
  16 C :   -0.273550
  17 C :    0.319191
  18 O :   -0.356156
  19 C :   -0.291206
  20 H :    0.109104
  21 H :    0.119664
  22 H :    0.116329
  23 H :    0.104131
  24 H :    0.125539
  25 H :    0.120570
  26 H :    0.147697
  27 H :    0.095521
  28 H :    0.197843
  29 H :    0.191117
  30 H :    0.151704
  31 H :    0.150598
  32 H :    0.164189
  33 H :    0.135155
  34 H :    0.242559
  35 H :    0.180012
Sum of atomic charges:   -0.0000000

LOEWDIN ATOMIC CHARGES
----------------------
   0 C :    0.103552
   1 C :   -0.012075
   2 O :    0.288311
   3 C :   -0.422608
   4 O :    0.129584
   5 C :   -0.091333
   6 C :   -0.076639
   7 C :    0.129577
   8 N :    0.405316
   9 C :   -0.456677
  10 S :   -0.033099
  11 N :    0.396899
  12 C :   -0.052607
  13 C :   -0.043388
  14 C :    0.012656
  15 C :    0.043006
  16 C :    0.000969
  17 C :   -0.190421
  18 O :    0.397627
  19 C :    0.035352
  20 H :   -0.038167
  21 H :   -0.021451
  22 H :   -0.027658
  23 H :   -0.036926
  24 H :   -0.021805
  25 H :   -0.009812
  26 H :   -0.002305
  27 H :   -0.021677
  28 H :   -0.057681
  29 H :   -0.065073
  30 H :   -0.005633
  31 H :   -0.028544
  32 H :   -0.018713
  33 H :   -0.033188
  34 H :   -0.151807
  35 H :   -0.023564

  Mayer bond orders larger than 0.100000
B(  0-C ,  1-C ) :   0.9589 B(  0-C , 20-H ) :   0.9677 B(  0-C , 21-H ) :   0.9764
B(  0-C , 22-H ) :   0.9755 B(  1-C ,  2-O ) :   0.9039 B(  1-C , 23-H ) :   0.9662
B(  1-C , 24-H ) :   0.9833 B(  2-O ,  3-C ) :   1.1755 B(  3-C ,  4-O ) :   2.1013
B(  3-C ,  5-C ) :   0.9478 B(  5-C ,  6-C ) :   1.6954 B(  5-C , 12-C ) :   0.9712
B(  6-C ,  7-C ) :   0.9562 B(  6-C ,  8-N ) :   1.1331 B(  7-C , 25-H ) :   0.9723
B(  7-C , 26-H ) :   0.9573 B(  7-C , 27-H ) :   0.9839 B(  8-N ,  9-C ) :   1.1873
B(  8-N , 28-H ) :   0.9502 B(  9-C , 10-S ) :   1.6172 B(  9-C , 11-N ) :   1.2891
B( 11-N , 12-C ) :   0.9852 B( 11-N , 29-H ) :   0.9539 B( 12-C , 13-C ) :   0.9410
B( 12-C , 30-H ) :   1.0071 B( 13-C , 14-C ) :   1.3519 B( 13-C , 19-C ) :   1.3596
B( 14-C , 15-C ) :   1.3930 B( 14-C , 31-H ) :   0.9735 B( 15-C , 16-C ) :   1.3685
B( 15-C , 32-H ) :   0.9699 B( 16-C , 17-C ) :   1.3254 B( 16-C , 33-H ) :   0.9830
B( 17-C , 18-O ) :   1.1150 B( 17-C , 19-C ) :   1.3728 B( 18-O , 34-H ) :   0.9786
B( 19-C , 35-H ) :   0.9523

MP2 TOTAL ENERGY:    -1274.326101879 Eh
FINAL SINGLE POINT ENERGY     -1274.326101878826

DIPOLE MOMENT
-------------
                                X             Y             Z
Electronic contribution:      9.88396       6.71857       5.34123
Nuclear contribution   :    -11.26427      -8.40162      -4.79915
                        -----------------------------------------
Total Dipole Moment    :     -1.38031      -1.68305       0.54208
                        -----------------------------------------
Magnitude (a.u.)       :      2.24316
Magnitude (Debye)      :      5.70166

Rotational constants in cm-1:     0.011774     0.009825     0.006756
Rotational constants in MHz :   352.978248   294.543026   202.532185

                             ****ORCA TERMINATED NORMALLY****
TOTAL RUN TIME: 0 days 1 hours 50 minutes 21 seconds 946 msec
