                         Program Version 5.0.0 -  RELEASE  -
|  1> ! ri-mp2 cc-pvtz cc-pvtz/c TightSCF NoKeepInts
|  2>
|  3> %scf
|  4>   MaxCore 4096
|  5> end
|  6> *xyz  0  1
|  7>     C       14.9167354   13.9126964   15.8162586
|  8>     C       15.3866029   15.0142345   16.7810233
|  9>     O       16.3839790   15.7945525   16.0987818
| 10>     C       17.6547389   15.7553026   16.5893062
| 11>     O       18.2127110   14.6875291   16.7782575
| 12>     C       17.9520286   16.9482678   17.4448947
| 13>     C       17.5316928   18.2040697   17.1529060
| 14>     C       16.7496467   18.6484116   15.9346575
| 15>     N       17.8832853   19.2670468   17.9901203
| 16>     C       18.7473300   19.1741904   19.0498831
| 17>     S       19.1938033   20.5026845   19.9278990
| 18>     N       19.2225322   17.9209528   19.3466197
| 19>     C       18.7678008   16.6698652   18.7100158
| 20>     C       17.9566190   15.8302431   19.6932810
| 21>     C       18.3140304   14.4949529   19.9555148
| 22>     C       17.5578050   13.7120983   20.8437762
| 23>     C       16.4325346   14.2680109   21.4757015
| 24>     C       16.0705155   15.5962536   21.2140961
| 25>     O       14.9782985   16.1330413   21.8138940
| 26>     C       16.8245285   16.3726242   20.3286664
| 27>     H       15.7541989   13.2555168   15.5488977
| 28>     H       14.5110676   14.3494556   14.8953917
| 29>     H       14.1355173   13.2998882   16.2818403
| 30>     H       14.5362078   15.6537462   17.0500163
| 31>     H       15.7837886   14.5657589   17.7033483
| 32>     H       17.1035716   18.1359365   15.0312490
| 33>     H       16.8422128   19.7253000   15.7479563
| 34>     H       15.6836331   18.4180374   16.0535849
| 35>     H       17.5459528   20.1948490   17.7882048
| 36>     H       19.8346595   17.8772865   20.1513000
| 37>     H       19.6600015   16.0976643   18.4168961
| 38>     H       19.1720225   14.0563099   19.4515659
| 39>     H       17.8420432   12.6784382   21.0332017
| 40>     H       15.8445797   13.6659129   22.1605107
| 41>     H       14.6324375   15.4717853   22.4322729
| 42>     H       16.5278871   17.3990863   20.1422101
| 43> *
| 44>
| 45>                          ****END OF INPUT****

CARTESIAN COORDINATES (ANGSTROEM)
---------------------------------
  C     14.916735   13.912696   15.816259
  C     15.386603   15.014235   16.781023
  O     16.383979   15.794552   16.098782
  C     17.654739   15.755303   16.589306
  O     18.212711   14.687529   16.778257
  C     17.952029   16.948268   17.444895
  C     17.531693   18.204070   17.152906
  C     16.749647   18.648412   15.934657
  N     17.883285   19.267047   17.990120
  C     18.747330   19.174190   19.049883
  S     19.193803   20.502685   19.927899
  N     19.222532   17.920953   19.346620
  C     18.767801   16.669865   18.710016
  C     17.956619   15.830243   19.693281
  C     18.314030   14.494953   19.955515
  C     17.557805   13.712098   20.843776
  C     16.432535   14.268011   21.475701
  C     16.070515   15.596254   21.214096
  O     14.978298   16.133041   21.813894
  C     16.824528   16.372624   20.328666
  H     15.754199   13.255517   15.548898
  H     14.511068   14.349456   14.895392
  H     14.135517   13.299888   16.281840
  H     14.536208   15.653746   17.050016
  H     15.783789   14.565759   17.703348
  H     17.103572   18.135936   15.031249
  H     16.842213   19.725300   15.747956
  H     15.683633   18.418037   16.053585
  H     17.545953   20.194849   17.788205
  H     19.834660   17.877287   20.151300
  H     19.660001   16.097664   18.416896
  H     19.172023   14.056310   19.451566
  H     17.842043   12.678438   21.033202
  H     15.844580   13.665913   22.160511
  H     14.632437   15.471785   22.432273
  H     16.527887   17.399086   20.142210

 Total Charge           Charge          ....    0
 Multiplicity           Mult            ....    1
 Number of Electrons    NEL             ....  154
 Basis Dimension        Dim             ....  828

ORBITAL ENERGIES
----------------

  NO   OCC          E(Eh)            E(eV)
   0   2.0000     -91.889053     -2500.4283
   1   2.0000     -20.596511      -560.4596
   2   2.0000     -20.583353      -560.1015
   3   2.0000     -20.556408      -559.3683
   4   2.0000     -15.628575      -425.2752
   5   2.0000     -15.608681      -424.7338
   6   2.0000     -11.395026      -310.0744
   7   2.0000     -11.384610      -309.7910
   8   2.0000     -11.333136      -308.3903
   9   2.0000     -11.312855      -307.8384
  10   2.0000     -11.309156      -307.7378
  11   2.0000     -11.298774      -307.4553
  12   2.0000     -11.260539      -306.4148
  13   2.0000     -11.259612      -306.3896
  14   2.0000     -11.258326      -306.3546
  15   2.0000     -11.253044      -306.2109
  16   2.0000     -11.242708      -305.9296
  17   2.0000     -11.238456      -305.8139
  18   2.0000     -11.235782      -305.7412
  19   2.0000     -11.223149      -305.3974
  20   2.0000      -8.894129      -242.0216
  21   2.0000      -6.575707      -178.9341
  22   2.0000      -6.573698      -178.8794
  23   2.0000      -6.573113      -178.8635
  24   2.0000      -1.453254       -39.5451
  25   2.0000      -1.416294       -38.5393
  26   2.0000      -1.356947       -36.9244
  27   2.0000      -1.339726       -36.4558
  28   2.0000      -1.238099       -33.6904
  29   2.0000      -1.157018       -31.4841
  30   2.0000      -1.121742       -30.5242
  31   2.0000      -1.045024       -28.4365
  32   2.0000      -1.032187       -28.0872
  33   2.0000      -1.014422       -27.6038
  34   2.0000      -0.999367       -27.1942
  35   2.0000      -0.984625       -26.7930
  36   2.0000      -0.923771       -25.1371
  37   2.0000      -0.881114       -23.9763
  38   2.0000      -0.849160       -23.1068
  39   2.0000      -0.839356       -22.8400
  40   2.0000      -0.833031       -22.6679
  41   2.0000      -0.827178       -22.5087
  42   2.0000      -0.754464       -20.5300
  43   2.0000      -0.734557       -19.9883
  44   2.0000      -0.728855       -19.8331
  45   2.0000      -0.694694       -18.9036
  46   2.0000      -0.686842       -18.6899
  47   2.0000      -0.680765       -18.5246
  48   2.0000      -0.673589       -18.3293
  49   2.0000      -0.662036       -18.0149
  50   2.0000      -0.647678       -17.6242
  51   2.0000      -0.642239       -17.4762
  52   2.0000      -0.634152       -17.2562
  53   2.0000      -0.607437       -16.5292
  54   2.0000      -0.604361       -16.4455
  55   2.0000      -0.601664       -16.3721
  56   2.0000      -0.599503       -16.3133
  57   2.0000      -0.582416       -15.8483
  58   2.0000      -0.576929       -15.6990
  59   2.0000      -0.566346       -15.4111
  60   2.0000      -0.563148       -15.3240
  61   2.0000      -0.549837       -14.9618
  62   2.0000      -0.534555       -14.5460
  63   2.0000      -0.522138       -14.2081
  64   2.0000      -0.513006       -13.9596
  65   2.0000      -0.510628       -13.8949
  66   2.0000      -0.504177       -13.7193
  67   2.0000      -0.498373       -13.5614
  68   2.0000      -0.482329       -13.1248
  69   2.0000      -0.465315       -12.6619
  70   2.0000      -0.456637       -12.4257
  71   2.0000      -0.451538       -12.2870
  72   2.0000      -0.354346        -9.6422
  73   2.0000      -0.348672        -9.4878
  74   2.0000      -0.328391        -8.9360
  75   2.0000      -0.320130        -8.7112
  76   2.0000      -0.315951        -8.5975
  77   0.0000       0.070704         1.9239
  78   0.0000       0.104503         2.8437
  79   0.0000       0.118924         3.2361
  80   0.0000       0.131875         3.5885
  81   0.0000       0.135380         3.6839

MULLIKEN ATOMIC CHARGES
-----------------------
   0 C :   -0.261289
   1 C :    0.047191
   2 O :   -0.377290
   3 C :    0.438851
   4 O :   -0.399478
   5 C :   -0.180136
   6 C :    0.134218
   7 C :   -0.279196
   8 N :   -0.124335
   9 C :    0.203192
  10 S :   -0.439489
  11 N :   -0.201678
  12 C :    0.056848
  13 C :    0.030786
  14 C :   -0.157744
  15 C :   -0.135250
  16 C :   -0.280233
  17 C :    0.310204
  18 O :   -0.358355
  19 C :   -0.271657
  20 H :    0.108311
  21 H :    0.091420
  22 H :    0.085827
  23 H :    0.093651
  24 H :    0.106336
  25 H :    0.123449
  26 H :    0.104170
  27 H :    0.125347
  28 H :    0.197165
  29 H :    0.194271
  30 H :    0.155083
  31 H :    0.157172
  32 H :    0.161383
  33 H :    0.131213
  34 H :    0.240959
  35 H :    0.169082
Sum of atomic charges:    0.0000000

LOEWDIN ATOMIC CHARGES
----------------------
   0 C :    0.106047
   1 C :   -0.014081
   2 O :    0.290566
   3 C :   -0.419201
   4 O :    0.128558
   5 C :   -0.093643
   6 C :   -0.074779
   7 C :    0.126576
   8 N :    0.404060
   9 C :   -0.457323
  10 S :   -0.036163
  11 N :    0.396989
  12 C :   -0.045363
  13 C :   -0.041657
  14 C :    0.020749
  15 C :    0.041168
  16 C :   -0.002211
  17 C :   -0.194158
  18 O :    0.393701
  19 C :    0.028469
  20 H :   -0.022567
  21 H :   -0.028972
  22 H :   -0.028874
  23 H :   -0.030966
  24 H :   -0.024283
  25 H :   -0.007873
  26 H :   -0.019319
  27 H :   -0.009749
  28 H :   -0.058644
  29 H :   -0.064095
  30 H :   -0.004700
  31 H :   -0.024505
  32 H :   -0.020144
  33 H :   -0.035436
  34 H :   -0.153906
  35 H :   -0.024272

  Mayer bond orders larger than 0.100000
B(  0-C ,  1-C ) :   0.9815 B(  0-C , 20-H ) :   0.9761 B(  0-C , 21-H ) :   0.9790
B(  0-C , 22-H ) :   0.9762 B(  1-C ,  2-O ) :   0.8802 B(  1-C , 23-H ) :   0.9798
B(  1-C , 24-H ) :   0.9675 B(  2-O ,  3-C ) :   1.0821 B(  3-C ,  4-O ) :   2.0169
B(  3-C ,  5-C ) :   1.0354 B(  5-C ,  6-C ) :   1.6674 B(  5-C , 12-C ) :   0.9635
B(  6-C ,  7-C ) :   0.9515 B(  6-C ,  8-N ) :   1.1377 B(  7-C , 25-H ) :   0.9708
B(  7-C , 26-H ) :   0.9879 B(  7-C , 27-H ) :   0.9632 B(  8-N ,  9-C ) :   1.1846
B(  8-N , 28-H ) :   0.9499 B(  9-C , 10-S ) :   1.6111 B(  9-C , 11-N ) :   1.2993
B( 11-N , 12-C ) :   0.9932 B( 11-N , 29-H ) :   0.9516 B( 12-C , 13-C ) :   0.9433
B( 12-C , 30-H ) :   0.9984 B( 13-C , 14-C ) :   1.3787 B( 13-C , 19-C ) :   1.3687
B( 14-C , 15-C ) :   1.3941 B( 14-C , 31-H ) :   0.9636 B( 15-C , 16-C ) :   1.3636
B( 15-C , 32-H ) :   0.9709 B( 16-C , 17-C ) :   1.3300 B( 16-C , 33-H ) :   0.9849
B( 17-C , 18-O ) :   1.1104 B( 17-C , 19-C ) :   1.3752 B( 18-O , 34-H ) :   0.9798
B( 19-C , 35-H ) :   0.9575

MP2 TOTAL ENERGY:    -1274.323355416 Eh
FINAL SINGLE POINT ENERGY     -1274.323355415684

DIPOLE MOMENT
-------------
                                X             Y             Z
Electronic contribution:     10.95516      10.37510       8.14047
Nuclear contribution   :    -12.35963     -11.54050      -8.62913
                        -----------------------------------------
Total Dipole Moment    :     -1.40447      -1.16540      -0.48866
                        -----------------------------------------
Magnitude (a.u.)       :      1.88931
Magnitude (Debye)      :      4.80224

Rotational constants in cm-1:     0.011727     0.009016     0.006370
Rotational constants in MHz :   351.570357   270.283091   190.972912

                             ****ORCA TERMINATED NORMALLY****
TOTAL RUN TIME: 0 days 1 hours 34 minutes 39 seconds 336 msec
