                         Program Version 4.2.0 -  RELEASE  -
|  1> ! ri-mp2 cc-pvtz cc-pvtz/c TightSCF  NoKeepInts
|  2>
|  3> %scf
|  4>   MaxCore 4096
|  5> end
|  6> *xyz  0  1
|  7>     C       14.7439182   15.7586506   17.2370096
|  8>     C       15.8145663   14.8253209   16.6415633
|  9>     O       16.7300778   15.5816802   15.8231931
| 10>     C       17.9679444   15.8507385   16.3332451
| 11>     O       18.7840975   14.9498585   16.4162764
| 12>     C       17.9474221   16.9561565   17.3414659
| 13>     C       17.3249107   18.1375099   17.1146800
| 14>     C       16.6023580   18.5577715   15.8520883
| 15>     N       17.3876533   19.1518060   18.0737430
| 16>     C       18.1660049   19.1105027   19.2013212
| 17>     S       18.2668908   20.3964927   20.2359880
| 18>     N       18.8564504   17.9455813   19.4301459
| 19>     C       18.7091567   16.7037605   18.6454214
| 20>     C       18.0235931   15.6162522   19.4691581
| 21>     C       18.5537342   14.3134573   19.5073433
| 22>     C       17.9130440   13.2993316   20.2384527
| 23>     C       16.7295450   13.5883852   20.9384563
| 24>     C       16.1970174   14.8839136   20.9029245
| 25>     O       15.0476015   15.1642935   21.5667489
| 26>     C       16.8378268   15.8913436   20.1753038
| 27>     H       15.1870717   16.5039260   17.9056557
| 28>     H       14.0199694   15.1775677   17.8213497
| 29>     H       14.1972403   16.2785486   16.4411899
| 30>     H       16.3456904   14.2931587   17.4435741
| 31>     H       15.3174569   14.0722088   16.0167217
| 32>     H       15.5482296   18.2598588   15.8855706
| 33>     H       17.0504474   18.0978582   14.9624805
| 34>     H       16.6408897   19.6433837   15.6991741
| 35>     H       16.8927850   20.0163124   17.9207615
| 36>     H       19.4034108   17.9349302   20.2816603
| 37>     H       19.7177606   16.3522826   18.3830673
| 38>     H       19.4583045   14.0816501   18.9493128
| 39>     H       18.3317120   12.2944326   20.2539979
| 40>     H       16.2297305   12.8070361   21.5014727
| 41>     H       14.7958445   14.3694154   22.0608925
| 42>     H       16.4066434   16.8866238   20.1625897
| 43> *
| 44>
| 45>                          ****END OF INPUT****

CARTESIAN COORDINATES (ANGSTROEM)
---------------------------------
  C     14.743918   15.758651   17.237010
  C     15.814566   14.825321   16.641563
  O     16.730078   15.581680   15.823193
  C     17.967944   15.850738   16.333245
  O     18.784097   14.949858   16.416276
  C     17.947422   16.956156   17.341466
  C     17.324911   18.137510   17.114680
  C     16.602358   18.557772   15.852088
  N     17.387653   19.151806   18.073743
  C     18.166005   19.110503   19.201321
  S     18.266891   20.396493   20.235988
  N     18.856450   17.945581   19.430146
  C     18.709157   16.703761   18.645421
  C     18.023593   15.616252   19.469158
  C     18.553734   14.313457   19.507343
  C     17.913044   13.299332   20.238453
  C     16.729545   13.588385   20.938456
  C     16.197017   14.883914   20.902924
  O     15.047601   15.164293   21.566749
  C     16.837827   15.891344   20.175304
  H     15.187072   16.503926   17.905656
  H     14.019969   15.177568   17.821350
  H     14.197240   16.278549   16.441190
  H     16.345690   14.293159   17.443574
  H     15.317457   14.072209   16.016722
  H     15.548230   18.259859   15.885571
  H     17.050447   18.097858   14.962480
  H     16.640890   19.643384   15.699174
  H     16.892785   20.016312   17.920762
  H     19.403411   17.934930   20.281660
  H     19.717761   16.352283   18.383067
  H     19.458305   14.081650   18.949313
  H     18.331712   12.294433   20.253998
  H     16.229730   12.807036   21.501473
  H     14.795844   14.369415   22.060892
  H     16.406643   16.886624   20.162590

 Total Charge           Charge          ....    0
 Multiplicity           Mult            ....    1
 Number of Electrons    NEL             ....  154
 Basis Dimension        Dim             ....  828

ORBITAL ENERGIES
----------------

  NO   OCC          E(Eh)            E(eV)
   0   2.0000     -91.890725     -2500.4738
   1   2.0000     -20.598985      -560.5269
   2   2.0000     -20.578500      -559.9694
   3   2.0000     -20.557745      -559.4047
   4   2.0000     -15.629776      -425.3078
   5   2.0000     -15.610632      -424.7869
   6   2.0000     -11.394175      -310.0513
   7   2.0000     -11.386557      -309.8440
   8   2.0000     -11.333005      -308.3868
   9   2.0000     -11.315432      -307.9086
  10   2.0000     -11.312056      -307.8167
  11   2.0000     -11.299836      -307.4842
  12   2.0000     -11.261968      -306.4537
  13   2.0000     -11.261324      -306.4362
  14   2.0000     -11.260780      -306.4214
  15   2.0000     -11.255453      -306.2764
  16   2.0000     -11.245328      -306.0009
  17   2.0000     -11.241101      -305.8859
  18   2.0000     -11.237772      -305.7953
  19   2.0000     -11.228770      -305.5504
  20   2.0000      -8.895795      -242.0669
  21   2.0000      -6.577372      -178.9794
  22   2.0000      -6.575362      -178.9247
  23   2.0000      -6.574776      -178.9087
  24   2.0000      -1.450144       -39.4604
  25   2.0000      -1.418760       -38.6064
  26   2.0000      -1.354845       -36.8672
  27   2.0000      -1.341255       -36.4974
  28   2.0000      -1.239829       -33.7375
  29   2.0000      -1.159619       -31.5548
  30   2.0000      -1.123582       -30.5742
  31   2.0000      -1.046980       -28.4898
  32   2.0000      -1.032867       -28.1057
  33   2.0000      -1.017204       -27.6795
  34   2.0000      -1.001851       -27.2617
  35   2.0000      -0.988673       -26.9032
  36   2.0000      -0.926216       -25.2036
  37   2.0000      -0.885603       -24.0985
  38   2.0000      -0.850176       -23.1345
  39   2.0000      -0.841121       -22.8881
  40   2.0000      -0.835836       -22.7443
  41   2.0000      -0.826867       -22.5002
  42   2.0000      -0.755236       -20.5510
  43   2.0000      -0.735786       -20.0218
  44   2.0000      -0.730268       -19.8716
  45   2.0000      -0.697432       -18.9781
  46   2.0000      -0.687623       -18.7112
  47   2.0000      -0.679250       -18.4833
  48   2.0000      -0.675359       -18.3774
  49   2.0000      -0.659484       -17.9455
  50   2.0000      -0.655394       -17.8342
  51   2.0000      -0.645460       -17.5639
  52   2.0000      -0.638118       -17.3641
  53   2.0000      -0.609231       -16.5780
  54   2.0000      -0.606369       -16.5001
  55   2.0000      -0.602967       -16.4076
  56   2.0000      -0.595515       -16.2048
  57   2.0000      -0.583462       -15.8768
  58   2.0000      -0.578000       -15.7282
  59   2.0000      -0.574735       -15.6393
  60   2.0000      -0.564047       -15.3485
  61   2.0000      -0.552608       -15.0372
  62   2.0000      -0.543544       -14.7906
  63   2.0000      -0.524462       -14.2713
  64   2.0000      -0.517177       -14.0731
  65   2.0000      -0.510708       -13.8971
  66   2.0000      -0.503109       -13.6903
  67   2.0000      -0.498537       -13.5659
  68   2.0000      -0.484009       -13.1706
  69   2.0000      -0.466620       -12.6974
  70   2.0000      -0.454733       -12.3739
  71   2.0000      -0.452184       -12.3046
  72   2.0000      -0.355612        -9.6767
  73   2.0000      -0.351071        -9.5531
  74   2.0000      -0.330029        -8.9805
  75   2.0000      -0.323072        -8.7912
  76   2.0000      -0.318187        -8.6583
  77   0.0000       0.069631         1.8948
  78   0.0000       0.101993         2.7754
  79   0.0000       0.119183         3.2431
  80   0.0000       0.128478         3.4961
  81   0.0000       0.132928         3.6172

MULLIKEN ATOMIC CHARGES
-----------------------
   0 C :   -0.327431
   1 C :    0.039303
   2 O :   -0.380691
   3 C :    0.454955
   4 O :   -0.385317
   5 C :   -0.196137
   6 C :    0.124018
   7 C :   -0.283721
   8 N :   -0.124732
   9 C :    0.193386
  10 S :   -0.436881
  11 N :   -0.205878
  12 C :    0.060150
  13 C :    0.028642
  14 C :   -0.177054
  15 C :   -0.134250
  16 C :   -0.279258
  17 C :    0.320563
  18 O :   -0.359857
  19 C :   -0.289256
  20 H :    0.103148
  21 H :    0.122490
  22 H :    0.107153
  23 H :    0.104869
  24 H :    0.120811
  25 H :    0.125721
  26 H :    0.125248
  27 H :    0.112513
  28 H :    0.198179
  29 H :    0.195437
  30 H :    0.160376
  31 H :    0.164786
  32 H :    0.163236
  33 H :    0.132743
  34 H :    0.241365
  35 H :    0.181369
Sum of atomic charges:   -0.0000000

LOEWDIN ATOMIC CHARGES
----------------------
   0 C :    0.103143
   1 C :   -0.009259
   2 O :    0.277255
   3 C :   -0.419947
   4 O :    0.137164
   5 C :   -0.093003
   6 C :   -0.079984
   7 C :    0.128568
   8 N :    0.404476
   9 C :   -0.457776
  10 S :   -0.034774
  11 N :    0.397016
  12 C :   -0.044656
  13 C :   -0.043621
  14 C :    0.020435
  15 C :    0.041446
  16 C :   -0.001885
  17 C :   -0.194121
  18 O :    0.394780
  19 C :    0.030232
  20 H :   -0.035181
  21 H :   -0.021680
  22 H :   -0.031923
  23 H :   -0.025456
  24 H :   -0.023491
  25 H :   -0.012275
  26 H :   -0.007452
  27 H :   -0.017114
  28 H :   -0.057910
  29 H :   -0.063903
  30 H :   -0.003582
  31 H :   -0.023204
  32 H :   -0.019369
  33 H :   -0.034860
  34 H :   -0.153286
  35 H :   -0.024803

  Mayer bond orders larger than 0.100000
B(  0-C ,  1-C ) :   0.9646 B(  0-C , 20-H ) :   0.9728 B(  0-C , 21-H ) :   0.9772
B(  0-C , 22-H ) :   0.9767 B(  1-C ,  2-O ) :   0.8842 B(  1-C , 23-H ) :   0.9683
B(  1-C , 24-H ) :   0.9851 B(  2-O ,  3-C ) :   1.0956 B(  3-C ,  4-O ) :   2.0568
B(  3-C ,  5-C ) :   0.9869 B(  5-C ,  6-C ) :   1.6775 B(  5-C , 12-C ) :   0.9562
B(  6-C ,  7-C ) :   0.9562 B(  6-C ,  8-N ) :   1.1264 B(  7-C , 25-H ) :   0.9614
B(  7-C , 26-H ) :   0.9713 B(  7-C , 27-H ) :   0.9848 B(  8-N ,  9-C ) :   1.1858
B(  8-N , 28-H ) :   0.9502 B(  9-C , 10-S ) :   1.6162 B(  9-C , 11-N ) :   1.2925
B( 11-N , 12-C ) :   0.9905 B( 11-N , 29-H ) :   0.9512 B( 12-C , 13-C ) :   0.9461
B( 12-C , 30-H ) :   0.9979 B( 13-C , 14-C ) :   1.3839 B( 13-C , 19-C ) :   1.3455
B( 14-C , 15-C ) :   1.3974 B( 14-C , 31-H ) :   0.9610 B( 15-C , 16-C ) :   1.3617
B( 15-C , 32-H ) :   0.9705 B( 16-C , 17-C ) :   1.3313 B( 16-C , 33-H ) :   0.9841
B( 17-C , 18-O ) :   1.1081 B( 17-C , 19-C ) :   1.3699 B( 18-O , 34-H ) :   0.9796
B( 19-C , 35-H ) :   0.9529

MP2 TOTAL ENERGY:    -1274.320031341 Eh
FINAL SINGLE POINT ENERGY     -1274.320031341044

DIPOLE MOMENT
-------------
                                X             Y             Z
Electronic contribution:     10.09014       6.67218       5.63023
Nuclear contribution   :    -11.28038      -7.89865      -6.09465
                        -----------------------------------------
Total Dipole Moment    :     -1.19024      -1.22647      -0.46442
                        -----------------------------------------
Magnitude (a.u.)       :      1.77104
Magnitude (Debye)      :      4.50162

Rotational constants in cm-1:     0.012222     0.009512     0.007119
Rotational constants in MHz :   366.401090   285.156276   213.428663

                             ****ORCA TERMINATED NORMALLY****
TOTAL RUN TIME: 0 days 1 hours 50 minutes 40 seconds 820 msec
