                         Program Version 4.2.0 -  RELEASE  -
|  1> ! ri-mp2 cc-pvtz cc-pvtz/c TightSCF  NoKeepInts
|  2>
|  3> %scf
|  4>   MaxCore 4096
|  5> end
|  6> *xyz  0  1
|  7>     C       15.4214560   14.0904204   16.9620985
|  8>     C       15.3096627   15.3311098   16.0484756
|  9>     O       16.5863469   15.9133708   15.6885799
| 10>     C       17.6918777   15.8008782   16.4819524
| 11>     O       18.2946186   14.7481139   16.6040805
| 12>     C       17.9143517   16.9680028   17.3987964
| 13>     C       17.4740022   18.2311936   17.1644661
| 14>     C       16.7236354   18.7448755   15.9528230
| 15>     N       17.7754479   19.2511243   18.0726359
| 16>     C       18.6145438   19.1211227   19.1476932
| 17>     S       19.0040204   20.4093355   20.1088940
| 18>     N       19.1138797   17.8658120   19.3860586
| 19>     C       18.7025387   16.6427158   18.6716366
| 20>     C       17.8926263   15.7328368   19.5907673
| 21>     C       18.2759796   14.3931624   19.7856975
| 22>     C       17.5227781   13.5460965   20.6156805
| 23>     C       16.3748877   14.0417612   21.2569899
| 24>     C       15.9878106   15.3745737   21.0630725
| 25>     O       14.8742243   15.8536344   21.6724287
| 26>     C       16.7390798   16.2152348   20.2358881
| 27>     H       16.0390992   13.3136932   16.4933414
| 28>     H       14.4284366   13.6637143   17.1468017
| 29>     H       15.8588589   14.3456658   17.9349416
| 30>     H       14.7673746   15.0629044   15.1325993
| 31>     H       14.7115738   16.0861257   16.5748380
| 32>     H       17.1613946   18.3528127   15.0259971
| 33>     H       16.7489873   19.8388054   15.8760848
| 34>     H       15.6714591   18.4383701   15.9862855
| 35>     H       17.4223717   20.1812849   17.9133926
| 36>     H       19.7076150   17.7910632   20.2021604
| 37>     H       19.6157657   16.1077014   18.3727405
| 38>     H       19.1516112   14.0015326   19.2733264
| 39>     H       17.8265749   12.5096940   20.7522299
| 40>     H       15.7889441   13.3898582   21.8963523
| 41>     H       14.5302642   15.1494605   22.2425501
| 42>     H       16.4229012   17.2439384   20.1016432
| 43> *
| 44>
| 45>                          ****END OF INPUT****

CARTESIAN COORDINATES (ANGSTROEM)
---------------------------------
  C     15.421456   14.090420   16.962098
  C     15.309663   15.331110   16.048476
  O     16.586347   15.913371   15.688580
  C     17.691878   15.800878   16.481952
  O     18.294619   14.748114   16.604080
  C     17.914352   16.968003   17.398796
  C     17.474002   18.231194   17.164466
  C     16.723635   18.744875   15.952823
  N     17.775448   19.251124   18.072636
  C     18.614544   19.121123   19.147693
  S     19.004020   20.409335   20.108894
  N     19.113880   17.865812   19.386059
  C     18.702539   16.642716   18.671637
  C     17.892626   15.732837   19.590767
  C     18.275980   14.393162   19.785698
  C     17.522778   13.546097   20.615680
  C     16.374888   14.041761   21.256990
  C     15.987811   15.374574   21.063073
  O     14.874224   15.853634   21.672429
  C     16.739080   16.215235   20.235888
  H     16.039099   13.313693   16.493341
  H     14.428437   13.663714   17.146802
  H     15.858859   14.345666   17.934942
  H     14.767375   15.062904   15.132599
  H     14.711574   16.086126   16.574838
  H     17.161395   18.352813   15.025997
  H     16.748987   19.838805   15.876085
  H     15.671459   18.438370   15.986285
  H     17.422372   20.181285   17.913393
  H     19.707615   17.791063   20.202160
  H     19.615766   16.107701   18.372740
  H     19.151611   14.001533   19.273326
  H     17.826575   12.509694   20.752230
  H     15.788944   13.389858   21.896352
  H     14.530264   15.149460   22.242550
  H     16.422901   17.243938   20.101643

 Total Charge           Charge          ....    0
 Multiplicity           Mult            ....    1
 Number of Electrons    NEL             ....  154
 Basis Dimension        Dim             ....  828

ORBITAL ENERGIES
----------------

  NO   OCC          E(Eh)            E(eV)
   0   2.0000     -91.889705     -2500.4460
   1   2.0000     -20.596397      -560.4565
   2   2.0000     -20.584316      -560.1277
   3   2.0000     -20.551943      -559.2468
   4   2.0000     -15.629997      -425.3138
   5   2.0000     -15.608669      -424.7335
   6   2.0000     -11.395339      -310.0829
   7   2.0000     -11.384898      -309.7988
   8   2.0000     -11.337233      -308.5018
   9   2.0000     -11.312784      -307.8365
  10   2.0000     -11.307771      -307.7001
  11   2.0000     -11.306756      -307.6725
  12   2.0000     -11.261016      -306.4278
  13   2.0000     -11.260504      -306.4139
  14   2.0000     -11.257959      -306.3446
  15   2.0000     -11.252678      -306.2009
  16   2.0000     -11.242428      -305.9220
  17   2.0000     -11.238407      -305.8126
  18   2.0000     -11.235124      -305.7233
  19   2.0000     -11.223866      -305.4169
  20   2.0000      -8.894772      -242.0390
  21   2.0000      -6.576347      -178.9515
  22   2.0000      -6.574340      -178.8969
  23   2.0000      -6.573753      -178.8809
  24   2.0000      -1.445565       -39.3358
  25   2.0000      -1.416191       -38.5365
  26   2.0000      -1.355404       -36.8824
  27   2.0000      -1.341001       -36.4905
  28   2.0000      -1.238888       -33.7119
  29   2.0000      -1.156876       -31.4802
  30   2.0000      -1.121389       -30.5146
  31   2.0000      -1.044390       -28.4193
  32   2.0000      -1.031900       -28.0794
  33   2.0000      -1.014349       -27.6018
  34   2.0000      -1.000598       -27.2276
  35   2.0000      -0.985679       -26.8217
  36   2.0000      -0.924449       -25.1555
  37   2.0000      -0.893492       -24.3131
  38   2.0000      -0.850659       -23.1476
  39   2.0000      -0.839451       -22.8426
  40   2.0000      -0.832768       -22.6608
  41   2.0000      -0.823016       -22.3954
  42   2.0000      -0.743951       -20.2439
  43   2.0000      -0.728795       -19.8315
  44   2.0000      -0.726434       -19.7673
  45   2.0000      -0.694198       -18.8901
  46   2.0000      -0.685825       -18.6622
  47   2.0000      -0.678838       -18.4721
  48   2.0000      -0.675339       -18.3769
  49   2.0000      -0.665372       -18.1057
  50   2.0000      -0.649457       -17.6726
  51   2.0000      -0.646994       -17.6056
  52   2.0000      -0.636632       -17.3236
  53   2.0000      -0.620112       -16.8741
  54   2.0000      -0.605135       -16.4666
  55   2.0000      -0.603147       -16.4125
  56   2.0000      -0.600074       -16.3288
  57   2.0000      -0.578145       -15.7321
  58   2.0000      -0.575128       -15.6500
  59   2.0000      -0.566073       -15.4036
  60   2.0000      -0.551774       -15.0145
  61   2.0000      -0.547937       -14.9101
  62   2.0000      -0.537181       -14.6174
  63   2.0000      -0.528039       -14.3687
  64   2.0000      -0.519780       -14.1439
  65   2.0000      -0.511673       -13.9233
  66   2.0000      -0.500178       -13.6105
  67   2.0000      -0.492781       -13.4092
  68   2.0000      -0.482367       -13.1259
  69   2.0000      -0.465476       -12.6662
  70   2.0000      -0.455704       -12.4003
  71   2.0000      -0.449157       -12.2222
  72   2.0000      -0.355841        -9.6829
  73   2.0000      -0.348740        -9.4897
  74   2.0000      -0.328959        -8.9514
  75   2.0000      -0.320004        -8.7077
  76   2.0000      -0.316965        -8.6250
  77   0.0000       0.071256         1.9390
  78   0.0000       0.105673         2.8755
  79   0.0000       0.120135         3.2690
  80   0.0000       0.131990         3.5916
  81   0.0000       0.138627         3.7722

MULLIKEN ATOMIC CHARGES
-----------------------
   0 C :   -0.301348
   1 C :    0.046871
   2 O :   -0.383078
   3 C :    0.457946
   4 O :   -0.394957
   5 C :   -0.204984
   6 C :    0.145138
   7 C :   -0.287793
   8 N :   -0.123685
   9 C :    0.201123
  10 S :   -0.438131
  11 N :   -0.200844
  12 C :    0.055046
  13 C :    0.011447
  14 C :   -0.150573
  15 C :   -0.138668
  16 C :   -0.272049
  17 C :    0.302206
  18 O :   -0.359949
  19 C :   -0.251034
  20 H :    0.117844
  21 H :    0.101808
  22 H :    0.113606
  23 H :    0.108688
  24 H :    0.079668
  25 H :    0.133188
  26 H :    0.106767
  27 H :    0.120750
  28 H :    0.197262
  29 H :    0.194438
  30 H :    0.155022
  31 H :    0.157468
  32 H :    0.160679
  33 H :    0.131075
  34 H :    0.240973
  35 H :    0.168081
Sum of atomic charges:   -0.0000000

LOEWDIN ATOMIC CHARGES
----------------------
   0 C :    0.108268
   1 C :   -0.014460
   2 O :    0.283095
   3 C :   -0.419001
   4 O :    0.127627
   5 C :   -0.095078
   6 C :   -0.069265
   7 C :    0.126348
   8 N :    0.404824
   9 C :   -0.458561
  10 S :   -0.034997
  11 N :    0.397574
  12 C :   -0.046289
  13 C :   -0.042653
  14 C :    0.021898
  15 C :    0.041994
  16 C :   -0.001785
  17 C :   -0.193980
  18 O :    0.393890
  19 C :    0.026784
  20 H :   -0.022262
  21 H :   -0.025727
  22 H :   -0.024863
  23 H :   -0.023245
  24 H :   -0.037245
  25 H :   -0.006011
  26 H :   -0.019587
  27 H :   -0.012093
  28 H :   -0.058608
  29 H :   -0.063742
  30 H :   -0.004534
  31 H :   -0.024226
  32 H :   -0.020089
  33 H :   -0.035449
  34 H :   -0.153900
  35 H :   -0.024654

  Mayer bond orders larger than 0.100000
B(  0-C ,  1-C ) :   0.9771 B(  0-C , 20-H ) :   0.9715 B(  0-C , 21-H ) :   0.9747
B(  0-C , 22-H ) :   0.9654 B(  1-C ,  2-O ) :   0.9004 B(  1-C , 23-H ) :   0.9795
B(  1-C , 24-H ) :   0.9746 B(  2-O ,  3-C ) :   1.0890 B(  3-C ,  4-O ) :   2.0430
B(  3-C ,  5-C ) :   1.0208 B(  5-C ,  6-C ) :   1.6605 B(  5-C , 12-C ) :   0.9625
B(  6-C ,  7-C ) :   0.9517 B(  6-C ,  8-N ) :   1.1462 B(  7-C , 25-H ) :   0.9660
B(  7-C , 26-H ) :   0.9889 B(  7-C , 27-H ) :   0.9671 B(  8-N ,  9-C ) :   1.1810
B(  8-N , 28-H ) :   0.9490 B(  9-C , 10-S ) :   1.6121 B(  9-C , 11-N ) :   1.3024
B( 11-N , 12-C ) :   0.9914 B( 11-N , 29-H ) :   0.9519 B( 12-C , 13-C ) :   0.9439
B( 12-C , 30-H ) :   0.9991 B( 13-C , 14-C ) :   1.3840 B( 13-C , 19-C ) :   1.3711
B( 14-C , 15-C ) :   1.3936 B( 14-C , 31-H ) :   0.9632 B( 15-C , 16-C ) :   1.3621
B( 15-C , 32-H ) :   0.9715 B( 16-C , 17-C ) :   1.3320 B( 16-C , 33-H ) :   0.9849
B( 17-C , 18-O ) :   1.1108 B( 17-C , 19-C ) :   1.3733 B( 18-O , 34-H ) :   0.9798
B( 19-C , 35-H ) :   0.9575

MP2 TOTAL ENERGY:    -1274.330775505 Eh
FINAL SINGLE POINT ENERGY     -1274.330775504528

DIPOLE MOMENT
-------------
                                X             Y             Z
Electronic contribution:      9.97483       9.36780       6.54925
Nuclear contribution   :    -11.50469     -10.46551      -7.13518
                        -----------------------------------------
Total Dipole Moment    :     -1.52986      -1.09772      -0.58593
                        -----------------------------------------
Magnitude (a.u.)       :      1.97200
Magnitude (Debye)      :      5.01242

Rotational constants in cm-1:     0.011896     0.009346     0.006593
Rotational constants in MHz :   356.645618   280.192319   197.658923

                             ****ORCA TERMINATED NORMALLY****
TOTAL RUN TIME: 0 days 2 hours 17 minutes 26 seconds 477 msec
