                         Program Version 4.2.0 -  RELEASE  -
|  1> ! ri-mp2 cc-pvtz cc-pvtz/c TightSCF  NoKeepInts
|  2>
|  3> %scf
|  4>   MaxCore 4096
|  5> end
|  6> *xyz  0  1
|  7>     C       15.2346817   14.7512151   16.9326349
|  8>     C       16.6246127   14.1687738   16.5928622
|  9>     O       17.3625864   15.0561244   15.7305995
| 10>     C       17.4405180   16.4223085   15.8287578
| 11>     O       17.3858148   17.0749400   14.8032022
| 12>     C       17.6124062   17.0666023   17.1852322
| 13>     C       17.2802727   18.3713292   17.3728517
| 14>     C       16.4961593   19.2652049   16.4365915
| 15>     N       17.7538849   19.0562641   18.4975360
| 16>     C       18.8144382   18.6246859   19.2527736
| 17>     S       19.5527754   19.5924049   20.3726029
| 18>     N       19.2483809   17.3458055   19.0025009
| 19>     C       18.4424432   16.3515598   18.2713215
| 20>     C       17.6399914   15.5771984   19.3180015
| 21>     C       18.1442400   14.3604292   19.8184514
| 22>     C       17.4392163   13.6374786   20.7951011
| 23>     C       16.2260479   14.1418624   21.2920630
| 24>     C       15.7339775   15.3656374   20.8201403
| 25>     O       14.5679110   15.8622534   21.3036921
| 26>     C       16.4369625   16.0817178   19.8466190
| 27>     H       15.2933611   15.7153767   17.4451880
| 28>     H       14.6845669   14.0606744   17.5835562
| 29>     H       14.6473893   14.8907314   16.0162429
| 30>     H       17.1852186   13.9482181   17.5010098
| 31>     H       16.4891276   13.2108127   16.0741855
| 32>     H       15.6667816   18.7168252   15.9724538
| 33>     H       17.1405795   19.6283893   15.6252508
| 34>     H       16.0668624   20.1363224   16.9451893
| 35>     H       17.4645896   20.0078321   18.6600057
| 36>     H       20.0266863   17.0457500   19.5750061
| 37>     H       19.1296792   15.6560551   17.7687233
| 38>     H       19.0880036   13.9705267   19.4457107
| 39>     H       17.8363279   12.6951217   21.1694255
| 40>     H       15.6787523   13.5886447   22.0485525
| 41>     H       14.2724437   15.2737307   22.0151218
| 42>     H       16.0393094   17.0331935   19.5148426
| 43> *
| 44>
| 45>                          ****END OF INPUT****

CARTESIAN COORDINATES (ANGSTROEM)
---------------------------------
  C     15.234682   14.751215   16.932635
  C     16.624613   14.168774   16.592862
  O     17.362586   15.056124   15.730600
  C     17.440518   16.422308   15.828758
  O     17.385815   17.074940   14.803202
  C     17.612406   17.066602   17.185232
  C     17.280273   18.371329   17.372852
  C     16.496159   19.265205   16.436591
  N     17.753885   19.056264   18.497536
  C     18.814438   18.624686   19.252774
  S     19.552775   19.592405   20.372603
  N     19.248381   17.345806   19.002501
  C     18.442443   16.351560   18.271321
  C     17.639991   15.577198   19.318001
  C     18.144240   14.360429   19.818451
  C     17.439216   13.637479   20.795101
  C     16.226048   14.141862   21.292063
  C     15.733977   15.365637   20.820140
  O     14.567911   15.862253   21.303692
  C     16.436962   16.081718   19.846619
  H     15.293361   15.715377   17.445188
  H     14.684567   14.060674   17.583556
  H     14.647389   14.890731   16.016243
  H     17.185219   13.948218   17.501010
  H     16.489128   13.210813   16.074185
  H     15.666782   18.716825   15.972454
  H     17.140579   19.628389   15.625251
  H     16.066862   20.136322   16.945189
  H     17.464590   20.007832   18.660006
  H     20.026686   17.045750   19.575006
  H     19.129679   15.656055   17.768723
  H     19.088004   13.970527   19.445711
  H     17.836328   12.695122   21.169425
  H     15.678752   13.588645   22.048552
  H     14.272444   15.273731   22.015122
  H     16.039309   17.033193   19.514843

 Total Charge           Charge          ....    0
 Multiplicity           Mult            ....    1
 Number of Electrons    NEL             ....  154
 Basis Dimension        Dim             ....  828

ORBITAL ENERGIES
----------------

  NO   OCC          E(Eh)            E(eV)
   0   2.0000     -91.892433     -2500.5202
   1   2.0000     -20.604877      -560.6872
   2   2.0000     -20.589503      -560.2689
   3   2.0000     -20.541465      -558.9617
   4   2.0000     -15.632030      -425.3692
   5   2.0000     -15.611424      -424.8084
   6   2.0000     -11.394302      -310.0547
   7   2.0000     -11.386471      -309.8416
   8   2.0000     -11.336399      -308.4791
   9   2.0000     -11.322530      -308.1017
  10   2.0000     -11.319576      -308.0213
  11   2.0000     -11.300251      -307.4955
  12   2.0000     -11.270051      -306.6737
  13   2.0000     -11.264547      -306.5239
  14   2.0000     -11.261591      -306.4435
  15   2.0000     -11.253891      -306.2339
  16   2.0000     -11.250849      -306.1512
  17   2.0000     -11.247421      -306.0579
  18   2.0000     -11.246186      -306.0243
  19   2.0000     -11.229643      -305.5741
  20   2.0000      -8.897384      -242.1101
  21   2.0000      -6.578934      -179.0219
  22   2.0000      -6.576959      -178.9682
  23   2.0000      -6.576351      -178.9516
  24   2.0000      -1.441167       -39.2161
  25   2.0000      -1.424437       -38.7609
  26   2.0000      -1.351387       -36.7731
  27   2.0000      -1.344109       -36.5751
  28   2.0000      -1.242803       -33.8184
  29   2.0000      -1.165304       -31.7095
  30   2.0000      -1.122137       -30.5349
  31   2.0000      -1.049180       -28.5497
  32   2.0000      -1.032499       -28.0957
  33   2.0000      -1.024525       -27.8787
  34   2.0000      -1.002289       -27.2737
  35   2.0000      -0.987721       -26.8772
  36   2.0000      -0.928254       -25.2591
  37   2.0000      -0.897876       -24.4324
  38   2.0000      -0.851024       -23.1575
  39   2.0000      -0.850083       -23.1319
  40   2.0000      -0.842118       -22.9152
  41   2.0000      -0.826586       -22.4925
  42   2.0000      -0.751939       -20.4613
  43   2.0000      -0.738593       -20.0981
  44   2.0000      -0.714978       -19.4555
  45   2.0000      -0.704524       -19.1711
  46   2.0000      -0.695410       -18.9231
  47   2.0000      -0.677866       -18.4457
  48   2.0000      -0.672655       -18.3039
  49   2.0000      -0.661474       -17.9996
  50   2.0000      -0.653918       -17.7940
  51   2.0000      -0.653041       -17.7701
  52   2.0000      -0.637685       -17.3523
  53   2.0000      -0.624155       -16.9841
  54   2.0000      -0.616109       -16.7652
  55   2.0000      -0.606770       -16.5111
  56   2.0000      -0.602240       -16.3878
  57   2.0000      -0.585189       -15.9238
  58   2.0000      -0.575498       -15.6601
  59   2.0000      -0.566376       -15.4119
  60   2.0000      -0.552624       -15.0377
  61   2.0000      -0.544824       -14.8254
  62   2.0000      -0.539532       -14.6814
  63   2.0000      -0.537403       -14.6235
  64   2.0000      -0.533347       -14.5131
  65   2.0000      -0.517973       -14.0948
  66   2.0000      -0.510332       -13.8868
  67   2.0000      -0.496833       -13.5195
  68   2.0000      -0.482917       -13.1408
  69   2.0000      -0.466203       -12.6860
  70   2.0000      -0.448632       -12.2079
  71   2.0000      -0.443554       -12.0697
  72   2.0000      -0.362880        -9.8745
  73   2.0000      -0.356863        -9.7107
  74   2.0000      -0.333391        -9.0720
  75   2.0000      -0.328314        -8.9339
  76   2.0000      -0.318401        -8.6641
  77   0.0000       0.071152         1.9361
  78   0.0000       0.103858         2.8261
  79   0.0000       0.117990         3.2107
  80   0.0000       0.122904         3.3444
  81   0.0000       0.128988         3.5099

MULLIKEN ATOMIC CHARGES
-----------------------
   0 C :   -0.320593
   1 C :    0.027566
   2 O :   -0.333999
   3 C :    0.447673
   4 O :   -0.382889
   5 C :   -0.244181
   6 C :    0.125847
   7 C :   -0.274572
   8 N :   -0.124421
   9 C :    0.213680
  10 S :   -0.432594
  11 N :   -0.197111
  12 C :    0.038586
  13 C :    0.076301
  14 C :   -0.223495
  15 C :   -0.126880
  16 C :   -0.276424
  17 C :    0.325006
  18 O :   -0.357061
  19 C :   -0.286371
  20 H :    0.100251
  21 H :    0.108387
  22 H :    0.121916
  23 H :    0.090162
  24 H :    0.125837
  25 H :    0.122667
  26 H :    0.144693
  27 H :    0.093644
  28 H :    0.199340
  29 H :    0.188915
  30 H :    0.158474
  31 H :    0.155273
  32 H :    0.163319
  33 H :    0.133728
  34 H :    0.243095
  35 H :    0.176232
Sum of atomic charges:   -0.0000000

LOEWDIN ATOMIC CHARGES
----------------------
   0 C :    0.106884
   1 C :   -0.019349
   2 O :    0.295512
   3 C :   -0.423224
   4 O :    0.121088
   5 C :   -0.096008
   6 C :   -0.065034
   7 C :    0.128787
   8 N :    0.408451
   9 C :   -0.453275
  10 S :   -0.028746
  11 N :    0.395789
  12 C :   -0.052221
  13 C :   -0.038238
  14 C :    0.006389
  15 C :    0.042754
  16 C :   -0.000096
  17 C :   -0.187812
  18 O :    0.396826
  19 C :    0.034006
  20 H :   -0.037237
  21 H :   -0.021988
  22 H :   -0.025041
  23 H :   -0.044692
  24 H :   -0.019834
  25 H :   -0.007254
  26 H :   -0.001666
  27 H :   -0.022696
  28 H :   -0.057040
  29 H :   -0.067700
  30 H :   -0.003593
  31 H :   -0.031222
  32 H :   -0.018838
  33 H :   -0.033869
  34 H :   -0.151502
  35 H :   -0.028314

  Mayer bond orders larger than 0.100000
B(  0-C ,  1-C ) :   0.9609 B(  0-C , 20-H ) :   0.9688 B(  0-C , 21-H ) :   0.9747
B(  0-C , 22-H ) :   0.9760 B(  1-C ,  2-O ) :   0.9063 B(  1-C , 23-H ) :   0.9687
B(  1-C , 24-H ) :   0.9810 B(  2-O ,  3-C ) :   1.1711 B(  3-C ,  4-O ) :   2.0739
B(  3-C ,  5-C ) :   0.9708 B(  5-C ,  6-C ) :   1.6588 B(  5-C , 12-C ) :   0.9725
B(  6-C ,  7-C ) :   0.9770 B(  6-C ,  8-N ) :   1.1390 B(  7-C , 25-H ) :   0.9702
B(  7-C , 26-H ) :   0.9530 B(  7-C , 27-H ) :   0.9832 B(  8-N ,  9-C ) :   1.1804
B(  8-N , 28-H ) :   0.9500 B(  9-C , 10-S ) :   1.6211 B(  9-C , 11-N ) :   1.2920
B( 11-N , 12-C ) :   0.9576 B( 11-N , 29-H ) :   0.9548 B( 12-C , 13-C ) :   0.9584
B( 12-C , 30-H ) :   0.9963 B( 13-C , 14-C ) :   1.3323 B( 13-C , 19-C ) :   1.3646
B( 14-C , 15-C ) :   1.3990 B( 14-C , 31-H ) :   0.9761 B( 15-C , 16-C ) :   1.3675
B( 15-C , 32-H ) :   0.9696 B( 16-C , 17-C ) :   1.3303 B( 16-C , 33-H ) :   0.9833
B( 17-C , 18-O ) :   1.1177 B( 17-C , 19-C ) :   1.3686 B( 18-O , 34-H ) :   0.9785
B( 19-C , 35-H ) :   0.9507

MP2 TOTAL ENERGY:    -1274.329864725 Eh
FINAL SINGLE POINT ENERGY     -1274.329864725157

DIPOLE MOMENT
-------------
                                X             Y             Z
Electronic contribution:      9.40091       7.95118       4.18106
Nuclear contribution   :    -10.72570      -9.65853      -3.35102
                        -----------------------------------------
Total Dipole Moment    :     -1.32479      -1.70736       0.83004
                        -----------------------------------------
Magnitude (a.u.)       :      2.31497
Magnitude (Debye)      :      5.88420

Rotational constants in cm-1:     0.011182     0.010129     0.006791
Rotational constants in MHz :   335.227787   303.661623   203.594909

                             ****ORCA TERMINATED NORMALLY****
TOTAL RUN TIME: 0 days 1 hours 50 minutes 38 seconds 985 msec
