                         Program Version 4.2.0 -  RELEASE  -
|  1> ! ri-mp2 cc-pvtz cc-pvtz/c TightSCF  NoKeepInts
|  2>
|  3> %scf
|  4>   MaxCore 4096
|  5> end
|  6> *xyz  0  1
|  7>     C       14.6558145   14.2701420   16.2310082
|  8>     C       15.5925582   15.3103264   16.8658166
|  9>     O       16.7290774   15.4523701   15.9943680
| 10>     C       17.9512526   15.6326709   16.5723198
| 11>     O       18.6945359   14.6827758   16.7389585
| 12>     C       18.0409727   16.8670971   17.4165648
| 13>     C       17.5236445   18.0630184   17.0431194
| 14>     C       16.8291198   18.3928910   15.7382097
| 15>     N       17.6876877   19.1787553   17.8686435
| 16>     C       18.4664912   19.2069546   18.9962637
| 17>     S       18.6930848   20.5975754   19.8616839
| 18>     N       19.0460518   18.0204764   19.3728871
| 19>     C       18.7796640   16.7105716   18.7469531
| 20>     C       17.9871995   15.8082460   19.6886640
| 21>     C       18.4039681   14.4853698   19.9239603
| 22>     C       17.6636053   13.6399351   20.7669129
| 23>     C       16.4936138   14.1195950   21.3796658
| 24>     C       16.0717479   15.4348184   21.1441746
| 25>     O       14.9349362   15.8974106   21.7221402
| 26>     C       16.8100497   16.2738437   20.3036769
| 27>     H       15.1743484   13.3106729   16.1082192
| 28>     H       14.3138430   14.6070071   15.2445837
| 29>     H       13.7756560   14.1060178   16.8644205
| 30>     H       15.0755533   16.2683592   17.0015639
| 31>     H       15.9053969   14.9380497   17.8516171
| 32>     H       17.2286474   17.7937047   14.9101687
| 33>     H       16.9645121   19.4445837   15.4564992
| 34>     H       15.7520880   18.1992122   15.8032570
| 35>     H       17.2765553   20.0606638   17.6058042
| 36>     H       19.5956683   18.0650945   20.2216916
| 37>     H       19.7487576   16.2324063   18.5415869
| 38>     H       19.2972538   14.1045650   19.4336386
| 39>     H       17.9946928   12.6165250   20.9353844
| 40>     H       15.9174721   13.4683350   22.0287124
| 41>     H       14.6070712   15.2035995   22.3143960
| 42>     H       16.4644084   17.2883601   20.1364656
| 43> *
| 44>
| 45>                          ****END OF INPUT****

CARTESIAN COORDINATES (ANGSTROEM)
---------------------------------
  C     14.655814   14.270142   16.231008
  C     15.592558   15.310326   16.865817
  O     16.729077   15.452370   15.994368
  C     17.951253   15.632671   16.572320
  O     18.694536   14.682776   16.738958
  C     18.040973   16.867097   17.416565
  C     17.523644   18.063018   17.043119
  C     16.829120   18.392891   15.738210
  N     17.687688   19.178755   17.868643
  C     18.466491   19.206955   18.996264
  S     18.693085   20.597575   19.861684
  N     19.046052   18.020476   19.372887
  C     18.779664   16.710572   18.746953
  C     17.987199   15.808246   19.688664
  C     18.403968   14.485370   19.923960
  C     17.663605   13.639935   20.766913
  C     16.493614   14.119595   21.379666
  C     16.071748   15.434818   21.144175
  O     14.934936   15.897411   21.722140
  C     16.810050   16.273844   20.303677
  H     15.174348   13.310673   16.108219
  H     14.313843   14.607007   15.244584
  H     13.775656   14.106018   16.864421
  H     15.075553   16.268359   17.001564
  H     15.905397   14.938050   17.851617
  H     17.228647   17.793705   14.910169
  H     16.964512   19.444584   15.456499
  H     15.752088   18.199212   15.803257
  H     17.276555   20.060664   17.605804
  H     19.595668   18.065095   20.221692
  H     19.748758   16.232406   18.541587
  H     19.297254   14.104565   19.433639
  H     17.994693   12.616525   20.935384
  H     15.917472   13.468335   22.028712
  H     14.607071   15.203599   22.314396
  H     16.464408   17.288360   20.136466

 Total Charge           Charge          ....    0
 Multiplicity           Mult            ....    1
 Number of Electrons    NEL             ....  154
 Basis Dimension        Dim             ....  828

ORBITAL ENERGIES
----------------

  NO   OCC          E(Eh)            E(eV)
   0   2.0000     -91.890882     -2500.4780
   1   2.0000     -20.598367      -560.5101
   2   2.0000     -20.584756      -560.1397
   3   2.0000     -20.556385      -559.3677
   4   2.0000     -15.630333      -425.3230
   5   2.0000     -15.610472      -424.7825
   6   2.0000     -11.394432      -310.0582
   7   2.0000     -11.386656      -309.8467
   8   2.0000     -11.335500      -308.4546
   9   2.0000     -11.314863      -307.8931
  10   2.0000     -11.310994      -307.7878
  11   2.0000     -11.302106      -307.5459
  12   2.0000     -11.264658      -306.5269
  13   2.0000     -11.261604      -306.4438
  14   2.0000     -11.260463      -306.4128
  15   2.0000     -11.254910      -306.2617
  16   2.0000     -11.244630      -305.9819
  17   2.0000     -11.240348      -305.8654
  18   2.0000     -11.237363      -305.7842
  19   2.0000     -11.229612      -305.5733
  20   2.0000      -8.895954      -242.0712
  21   2.0000      -6.577530      -178.9837
  22   2.0000      -6.575520      -178.9290
  23   2.0000      -6.574933      -178.9130
  24   2.0000      -1.450989       -39.4834
  25   2.0000      -1.418197       -38.5911
  26   2.0000      -1.358965       -36.9793
  27   2.0000      -1.341720       -36.5101
  28   2.0000      -1.240029       -33.7429
  29   2.0000      -1.159256       -31.5450
  30   2.0000      -1.123824       -30.5808
  31   2.0000      -1.047027       -28.4910
  32   2.0000      -1.035458       -28.1762
  33   2.0000      -1.016680       -27.6653
  34   2.0000      -1.002776       -27.2869
  35   2.0000      -0.987985       -26.8844
  36   2.0000      -0.926169       -25.2023
  37   2.0000      -0.877256       -23.8713
  38   2.0000      -0.853756       -23.2319
  39   2.0000      -0.842571       -22.9275
  40   2.0000      -0.835280       -22.7291
  41   2.0000      -0.833967       -22.6934
  42   2.0000      -0.756213       -20.5776
  43   2.0000      -0.736687       -20.0463
  44   2.0000      -0.730853       -19.8875
  45   2.0000      -0.696313       -18.9476
  46   2.0000      -0.688303       -18.7297
  47   2.0000      -0.681233       -18.5373
  48   2.0000      -0.676023       -18.3955
  49   2.0000      -0.662158       -18.0182
  50   2.0000      -0.650714       -17.7068
  51   2.0000      -0.647597       -17.6220
  52   2.0000      -0.640871       -17.4390
  53   2.0000      -0.610118       -16.6022
  54   2.0000      -0.606634       -16.5074
  55   2.0000      -0.602482       -16.3944
  56   2.0000      -0.601542       -16.3688
  57   2.0000      -0.582905       -15.8616
  58   2.0000      -0.577537       -15.7156
  59   2.0000      -0.565553       -15.3895
  60   2.0000      -0.561404       -15.2766
  61   2.0000      -0.556137       -15.1333
  62   2.0000      -0.541582       -14.7372
  63   2.0000      -0.524476       -14.2717
  64   2.0000      -0.515089       -14.0163
  65   2.0000      -0.513994       -13.9865
  66   2.0000      -0.502498       -13.6737
  67   2.0000      -0.498281       -13.5589
  68   2.0000      -0.486812       -13.2468
  69   2.0000      -0.468355       -12.7446
  70   2.0000      -0.457916       -12.4605
  71   2.0000      -0.453452       -12.3391
  72   2.0000      -0.357643        -9.7319
  73   2.0000      -0.350313        -9.5325
  74   2.0000      -0.330183        -8.9847
  75   2.0000      -0.322522        -8.7763
  76   2.0000      -0.318555        -8.6683
  77   0.0000       0.071700         1.9511
  78   0.0000       0.103947         2.8285
  79   0.0000       0.116887         3.1807
  80   0.0000       0.130223         3.5436
  81   0.0000       0.134182         3.6513

MULLIKEN ATOMIC CHARGES
-----------------------
   0 C :   -0.256083
   1 C :    0.026667
   2 O :   -0.357632
   3 C :    0.444443
   4 O :   -0.380899
   5 C :   -0.201506
   6 C :    0.128621
   7 C :   -0.293549
   8 N :   -0.128100
   9 C :    0.197596
  10 S :   -0.436925
  11 N :   -0.202733
  12 C :    0.056850
  13 C :    0.019266
  14 C :   -0.164468
  15 C :   -0.136072
  16 C :   -0.277521
  17 C :    0.314406
  18 O :   -0.358754
  19 C :   -0.273073
  20 H :    0.107996
  21 H :    0.095400
  22 H :    0.088483
  23 H :    0.088208
  24 H :    0.109120
  25 H :    0.133006
  26 H :    0.114969
  27 H :    0.120278
  28 H :    0.197296
  29 H :    0.194919
  30 H :    0.159030
  31 H :    0.163412
  32 H :    0.162529
  33 H :    0.132264
  34 H :    0.241470
  35 H :    0.171087
Sum of atomic charges:    0.0000000

LOEWDIN ATOMIC CHARGES
----------------------
   0 C :    0.111476
   1 C :   -0.021005
   2 O :    0.289660
   3 C :   -0.422496
   4 O :    0.133916
   5 C :   -0.092406
   6 C :   -0.079567
   7 C :    0.127966
   8 N :    0.403947
   9 C :   -0.457876
  10 S :   -0.034405
  11 N :    0.397042
  12 C :   -0.045417
  13 C :   -0.043937
  14 C :    0.021148
  15 C :    0.043031
  16 C :   -0.001466
  17 C :   -0.195474
  18 O :    0.394035
  19 C :    0.027704
  20 H :   -0.020865
  21 H :   -0.027962
  22 H :   -0.025959
  23 H :   -0.038646
  24 H :   -0.024888
  25 H :   -0.006456
  26 H :   -0.016285
  27 H :   -0.014496
  28 H :   -0.058042
  29 H :   -0.063784
  30 H :   -0.003426
  31 H :   -0.023015
  32 H :   -0.019249
  33 H :   -0.034915
  34 H :   -0.153303
  35 H :   -0.024584

  Mayer bond orders larger than 0.100000
B(  0-C ,  1-C ) :   0.9846 B(  0-C , 20-H ) :   0.9774 B(  0-C , 21-H ) :   0.9802
B(  0-C , 22-H ) :   0.9760 B(  1-C ,  2-O ) :   0.8890 B(  1-C , 23-H ) :   0.9720
B(  1-C , 24-H ) :   0.9692 B(  2-O ,  3-C ) :   1.1242 B(  3-C ,  4-O ) :   2.0730
B(  3-C ,  5-C ) :   0.9817 B(  5-C ,  6-C ) :   1.6628 B(  5-C , 12-C ) :   0.9625
B(  6-C ,  7-C ) :   0.9493 B(  6-C ,  8-N ) :   1.1348 B(  7-C , 25-H ) :   0.9707
B(  7-C , 26-H ) :   0.9841 B(  7-C , 27-H ) :   0.9646 B(  8-N ,  9-C ) :   1.1845
B(  8-N , 28-H ) :   0.9504 B(  9-C , 10-S ) :   1.6145 B(  9-C , 11-N ) :   1.2964
B( 11-N , 12-C ) :   0.9938 B( 11-N , 29-H ) :   0.9516 B( 12-C , 13-C ) :   0.9419
B( 12-C , 30-H ) :   0.9982 B( 13-C , 14-C ) :   1.3854 B( 13-C , 19-C ) :   1.3589
B( 14-C , 15-C ) :   1.3953 B( 14-C , 31-H ) :   0.9608 B( 15-C , 16-C ) :   1.3644
B( 15-C , 32-H ) :   0.9706 B( 16-C , 17-C ) :   1.3289 B( 16-C , 33-H ) :   0.9844
B( 17-C , 18-O ) :   1.1115 B( 17-C , 19-C ) :   1.3718 B( 18-O , 34-H ) :   0.9793
B( 19-C , 35-H ) :   0.9586

MP2 TOTAL ENERGY:    -1274.327406090 Eh
FINAL SINGLE POINT ENERGY     -1274.327406090404

DIPOLE MOMENT
-------------
                                X             Y             Z
Electronic contribution:     11.03361       9.19937       7.29021
Nuclear contribution   :    -12.41986     -10.23448      -7.64817
                        -----------------------------------------
Total Dipole Moment    :     -1.38626      -1.03511      -0.35796
                        -----------------------------------------
Magnitude (a.u.)       :      1.76672
Magnitude (Debye)      :      4.49064

Rotational constants in cm-1:     0.011624     0.009235     0.006668
Rotational constants in MHz :   348.478730   276.870006   199.894753

                             ****ORCA TERMINATED NORMALLY****
TOTAL RUN TIME: 0 days 1 hours 43 minutes 8 seconds 584 msec
