                         Program Version 4.2.0 -  RELEASE  -
|  1> ! ri-mp2 cc-pvtz cc-pvtz/c TightSCF  NoKeepInts
|  2>
|  3> %scf
|  4>   MaxCore 4096
|  5> end
|  6> *xyz  0  1
|  7>     C       15.0317779   15.3269864   17.1709754
|  8>     C       15.7751504   14.8530025   15.9073967
|  9>     O       16.8422403   15.7546329   15.5480759
| 10>     C       17.9522598   15.8368507   16.3392938
| 11>     O       18.6464229   14.8490210   16.5047802
| 12>     C       17.8949386   16.9262631   17.3719062
| 13>     C       17.2871701   18.1224650   17.1646436
| 14>     C       16.5828557   18.5953538   15.9087701
| 15>     N       17.3817173   19.1260294   18.1339674
| 16>     C       18.2304674   19.0912290   19.2092528
| 17>     S       18.4118385   20.3879507   20.2193642
| 18>     N       18.9226291   17.9220177   19.4030603
| 19>     C       18.6660504   16.6649780   18.6732887
| 20>     C       17.9453661   15.6580722   19.5685398
| 21>     C       18.3602348   14.3136338   19.5984708
| 22>     C       17.7010529   13.3758312   20.4104753
| 23>     C       16.6160261   13.7840062   21.2040863
| 24>     C       16.1985102   15.1212354   21.1795349
| 25>     O       15.1451775   15.5170154   21.9375523
| 26>     C       16.8562501   16.0524923   20.3697122
| 27>     H       15.6653917   15.2246303   18.0566258
| 28>     H       14.1387501   14.7120550   17.3358217
| 29>     H       14.7107204   16.3704814   17.0815794
| 30>     H       16.1716288   13.8405239   16.0657555
| 31>     H       15.0604835   14.8041909   15.0758531
| 32>     H       15.5842281   18.1522382   15.8241097
| 33>     H       17.1503032   18.3144679   15.0125985
| 34>     H       16.4656915   19.6855840   15.8796615
| 35>     H       16.8863591   19.9937703   18.0039936
| 36>     H       19.5249877   17.9126548   20.2162556
| 37>     H       19.6424740   16.2367607   18.4034471
| 38>     H       19.1915061   13.9906807   18.9756663
| 39>     H       18.0305671   12.3383145   20.4182340
| 40>     H       16.1029108   13.0625110   21.8311863
| 41>     H       14.8618051   14.7533951   22.4624795
| 42>     H       16.5110567   17.0806747   20.3675856
| 43> *
| 44>
| 45>                          ****END OF INPUT****

CARTESIAN COORDINATES (ANGSTROEM)
---------------------------------
  C     15.031778   15.326986   17.170975
  C     15.775150   14.853002   15.907397
  O     16.842240   15.754633   15.548076
  C     17.952260   15.836851   16.339294
  O     18.646423   14.849021   16.504780
  C     17.894939   16.926263   17.371906
  C     17.287170   18.122465   17.164644
  C     16.582856   18.595354   15.908770
  N     17.381717   19.126029   18.133967
  C     18.230467   19.091229   19.209253
  S     18.411838   20.387951   20.219364
  N     18.922629   17.922018   19.403060
  C     18.666050   16.664978   18.673289
  C     17.945366   15.658072   19.568540
  C     18.360235   14.313634   19.598471
  C     17.701053   13.375831   20.410475
  C     16.616026   13.784006   21.204086
  C     16.198510   15.121235   21.179535
  O     15.145178   15.517015   21.937552
  C     16.856250   16.052492   20.369712
  H     15.665392   15.224630   18.056626
  H     14.138750   14.712055   17.335822
  H     14.710720   16.370481   17.081579
  H     16.171629   13.840524   16.065756
  H     15.060484   14.804191   15.075853
  H     15.584228   18.152238   15.824110
  H     17.150303   18.314468   15.012598
  H     16.465691   19.685584   15.879661
  H     16.886359   19.993770   18.003994
  H     19.524988   17.912655   20.216256
  H     19.642474   16.236761   18.403447
  H     19.191506   13.990681   18.975666
  H     18.030567   12.338314   20.418234
  H     16.102911   13.062511   21.831186
  H     14.861805   14.753395   22.462480
  H     16.511057   17.080675   20.367586

 Total Charge           Charge          ....    0
 Multiplicity           Mult            ....    1
 Number of Electrons    NEL             ....  154
 Basis Dimension        Dim             ....  828

ORBITAL ENERGIES
----------------

  NO   OCC          E(Eh)            E(eV)
   0   2.0000     -91.890620     -2500.4709
   1   2.0000     -20.595349      -560.4279
   2   2.0000     -20.582768      -560.0856
   3   2.0000     -20.554280      -559.3104
   4   2.0000     -15.630709      -425.3332
   5   2.0000     -15.609073      -424.7445
   6   2.0000     -11.395288      -310.0815
   7   2.0000     -11.385557      -309.8168
   8   2.0000     -11.336800      -308.4900
   9   2.0000     -11.311828      -307.8105
  10   2.0000     -11.309583      -307.7494
  11   2.0000     -11.302382      -307.5534
  12   2.0000     -11.262107      -306.4575
  13   2.0000     -11.261463      -306.4400
  14   2.0000     -11.258344      -306.3551
  15   2.0000     -11.252193      -306.1877
  16   2.0000     -11.241693      -305.9020
  17   2.0000     -11.237343      -305.7837
  18   2.0000     -11.234003      -305.6928
  19   2.0000     -11.227309      -305.5106
  20   2.0000      -8.895669      -242.0635
  21   2.0000      -6.577242      -178.9759
  22   2.0000      -6.575237      -178.9213
  23   2.0000      -6.574646      -178.9052
  24   2.0000      -1.450029       -39.4573
  25   2.0000      -1.415187       -38.5092
  26   2.0000      -1.354732       -36.8641
  27   2.0000      -1.341695       -36.5094
  28   2.0000      -1.239264       -33.7221
  29   2.0000      -1.155891       -31.4534
  30   2.0000      -1.121675       -30.5223
  31   2.0000      -1.044245       -28.4153
  32   2.0000      -1.033022       -28.1100
  33   2.0000      -1.013945       -27.5909
  34   2.0000      -1.000865       -27.2349
  35   2.0000      -0.987540       -26.8723
  36   2.0000      -0.924626       -25.1604
  37   2.0000      -0.892820       -24.2949
  38   2.0000      -0.849784       -23.1238
  39   2.0000      -0.839473       -22.8432
  40   2.0000      -0.832027       -22.6406
  41   2.0000      -0.818983       -22.2857
  42   2.0000      -0.751898       -20.4602
  43   2.0000      -0.734428       -19.9848
  44   2.0000      -0.728119       -19.8131
  45   2.0000      -0.694138       -18.8885
  46   2.0000      -0.687223       -18.7003
  47   2.0000      -0.675932       -18.3930
  48   2.0000      -0.673845       -18.3362
  49   2.0000      -0.661261       -17.9938
  50   2.0000      -0.653546       -17.7839
  51   2.0000      -0.646626       -17.5956
  52   2.0000      -0.638647       -17.3785
  53   2.0000      -0.610692       -16.6178
  54   2.0000      -0.602951       -16.4071
  55   2.0000      -0.600534       -16.3414
  56   2.0000      -0.598575       -16.2881
  57   2.0000      -0.584055       -15.8929
  58   2.0000      -0.574940       -15.6449
  59   2.0000      -0.562990       -15.3197
  60   2.0000      -0.561841       -15.2885
  61   2.0000      -0.550592       -14.9824
  62   2.0000      -0.546505       -14.8712
  63   2.0000      -0.524964       -14.2850
  64   2.0000      -0.520109       -14.1529
  65   2.0000      -0.513087       -13.9618
  66   2.0000      -0.499847       -13.6015
  67   2.0000      -0.492508       -13.4018
  68   2.0000      -0.481354       -13.0983
  69   2.0000      -0.464236       -12.6325
  70   2.0000      -0.456691       -12.4272
  71   2.0000      -0.451369       -12.2824
  72   2.0000      -0.356700        -9.7063
  73   2.0000      -0.346906        -9.4398
  74   2.0000      -0.329739        -8.9726
  75   2.0000      -0.320258        -8.7147
  76   2.0000      -0.317471        -8.6388
  77   0.0000       0.068567         1.8658
  78   0.0000       0.106957         2.9105
  79   0.0000       0.119834         3.2608
  80   0.0000       0.132998         3.6191
  81   0.0000       0.133873         3.6429

MULLIKEN ATOMIC CHARGES
-----------------------
   0 C :   -0.332427
   1 C :    0.042906
   2 O :   -0.381615
   3 C :    0.475645
   4 O :   -0.400597
   5 C :   -0.216582
   6 C :    0.154546
   7 C :   -0.283707
   8 N :   -0.125780
   9 C :    0.186947
  10 S :   -0.434464
  11 N :   -0.203215
  12 C :    0.055594
  13 C :    0.025740
  14 C :   -0.179014
  15 C :   -0.141548
  16 C :   -0.273629
  17 C :    0.313149
  18 O :   -0.358833
  19 C :   -0.262882
  20 H :    0.126167
  21 H :    0.117886
  22 H :    0.095671
  23 H :    0.108968
  24 H :    0.110337
  25 H :    0.120643
  26 H :    0.129882
  27 H :    0.106715
  28 H :    0.197573
  29 H :    0.194859
  30 H :    0.159564
  31 H :    0.167127
  32 H :    0.161910
  33 H :    0.131217
  34 H :    0.240475
  35 H :    0.170773
Sum of atomic charges:    0.0000000

LOEWDIN ATOMIC CHARGES
----------------------
   0 C :    0.106010
   1 C :   -0.016967
   2 O :    0.281820
   3 C :   -0.415926
   4 O :    0.126751
   5 C :   -0.092904
   6 C :   -0.069011
   7 C :    0.126517
   8 N :    0.405940
   9 C :   -0.460123
  10 S :   -0.033638
  11 N :    0.397157
  12 C :   -0.044610
  13 C :   -0.042181
  14 C :    0.019693
  15 C :    0.041284
  16 C :   -0.002141
  17 C :   -0.194122
  18 O :    0.394810
  19 C :    0.028357
  20 H :   -0.027722
  21 H :   -0.023008
  22 H :   -0.032858
  23 H :   -0.026066
  24 H :   -0.023031
  25 H :   -0.014717
  26 H :   -0.006419
  27 H :   -0.019166
  28 H :   -0.058604
  29 H :   -0.063936
  30 H :   -0.002890
  31 H :   -0.023724
  32 H :   -0.019949
  33 H :   -0.035542
  34 H :   -0.154158
  35 H :   -0.024926

  Mayer bond orders larger than 0.100000
B(  0-C ,  1-C ) :   0.9617 B(  0-C , 20-H ) :   0.9650 B(  0-C , 21-H ) :   0.9794
B(  0-C , 22-H ) :   0.9753 B(  1-C ,  2-O ) :   0.8930 B(  1-C , 23-H ) :   0.9803
B(  1-C , 24-H ) :   0.9838 B(  2-O ,  3-C ) :   1.0904 B(  3-C ,  4-O ) :   2.0186
B(  3-C ,  5-C ) :   1.0299 B(  5-C ,  6-C ) :   1.6592 B(  5-C , 12-C ) :   0.9558
B(  6-C ,  7-C ) :   0.9535 B(  6-C ,  8-N ) :   1.1344 B(  7-C , 25-H ) :   0.9638
B(  7-C , 26-H ) :   0.9675 B(  7-C , 27-H ) :   0.9892 B(  8-N ,  9-C ) :   1.1800
B(  8-N , 28-H ) :   0.9494 B(  9-C , 10-S ) :   1.6169 B(  9-C , 11-N ) :   1.2976
B( 11-N , 12-C ) :   0.9827 B( 11-N , 29-H ) :   0.9518 B( 12-C , 13-C ) :   0.9495
B( 12-C , 30-H ) :   0.9978 B( 13-C , 14-C ) :   1.3880 B( 13-C , 19-C ) :   1.3524
B( 14-C , 15-C ) :   1.3973 B( 14-C , 31-H ) :   0.9590 B( 15-C , 16-C ) :   1.3624
B( 15-C , 32-H ) :   0.9709 B( 16-C , 17-C ) :   1.3306 B( 16-C , 33-H ) :   0.9847
B( 17-C , 18-O ) :   1.1111 B( 17-C , 19-C ) :   1.3747 B( 18-O , 34-H ) :   0.9801
B( 19-C , 35-H ) :   0.9596

MP2 TOTAL ENERGY:    -1274.326060938 Eh
FINAL SINGLE POINT ENERGY     -1274.326060937678

DIPOLE MOMENT
-------------
                                X             Y             Z
Electronic contribution:      9.88351       7.65060       6.45332
Nuclear contribution   :    -11.21946      -8.86251      -7.13602
                        -----------------------------------------
Total Dipole Moment    :     -1.33595      -1.21191      -0.68271
                        -----------------------------------------
Magnitude (a.u.)       :      1.92862
Magnitude (Debye)      :      4.90215

Rotational constants in cm-1:     0.011289     0.009945     0.006756
Rotational constants in MHz :   338.426921   298.133714   202.546190

                             ****ORCA TERMINATED NORMALLY****
TOTAL RUN TIME: 0 days 1 hours 53 minutes 59 seconds 988 msec
