                         Program Version 5.0.0 -  RELEASE  -
|  1> ! ri-mp2 cc-pvtz cc-pvtz/c TightSCF NoKeepInts
|  2>
|  3> %scf
|  4>   MaxCore 4096
|  5> end
|  6> *xyz  0  1
|  7>     C       15.2465445   14.3538413   17.1197544
|  8>     C       16.4802415   13.9966315   16.2634329
|  9>     O       17.5489104   14.9465820   16.4615274
| 10>     C       17.3389659   16.2673462   16.1811143
| 11>     O       16.6473823   16.6062920   15.2359260
| 12>     C       17.7230846   17.1774437   17.3164578
| 13>     C       17.4282887   18.5030483   17.3191307
| 14>     C       16.6430553   19.2731036   16.2788921
| 15>     N       17.9132340   19.3252666   18.3412687
| 16>     C       18.8401894   18.9428925   19.2744167
| 17>     S       19.4926132   20.0146973   20.3520330
| 18>     N       19.2078941   17.6213448   19.2618968
| 19>     C       18.5408473   16.5716211   18.4698513
| 20>     C       17.6990665   15.7004168   19.3969369
| 21>     C       18.0474353   14.3546529   19.6192448
| 22>     C       17.2877584   13.5532760   20.4882538
| 23>     C       16.1730323   14.1026578   21.1445477
| 24>     C       15.8267541   15.4439422   20.9305834
| 25>     O       14.7507755   15.9770735   21.5619421
| 26>     C       16.5837013   16.2385636   20.0640612
| 27>     H       15.4933628   14.3406199   18.1860037
| 28>     H       14.4475739   13.6214986   16.9534858
| 29>     H       14.8490213   15.3436371   16.8639016
| 30>     H       16.8312317   12.9930453   16.5354008
| 31>     H       16.1939432   13.9769580   15.2030406
| 32>     H       17.1363685   19.2128816   15.3003759
| 33>     H       16.5277370   20.3346689   16.5269799
| 34>     H       15.6369963   18.8497152   16.1644675
| 35>     H       17.6602928   20.3003930   18.3572831
| 36>     H       19.8706493   17.3613188   19.9808959
| 37>     H       19.3274587   15.9446092   18.0269927
| 38>     H       18.9085016   13.9270460   19.1125054
| 39>     H       17.5647041   12.5132935   20.6523203
| 40>     H       15.5839716   13.4881592   21.8174498
| 41>     H       14.3910231   15.2968688   22.1508787
| 42>     H       16.3043893   17.2765933   19.9207465
| 43> *
| 44>
| 45>                          ****END OF INPUT****

CARTESIAN COORDINATES (ANGSTROEM)
---------------------------------
  C     15.246544   14.353841   17.119754
  C     16.480242   13.996631   16.263433
  O     17.548910   14.946582   16.461527
  C     17.338966   16.267346   16.181114
  O     16.647382   16.606292   15.235926
  C     17.723085   17.177444   17.316458
  C     17.428289   18.503048   17.319131
  C     16.643055   19.273104   16.278892
  N     17.913234   19.325267   18.341269
  C     18.840189   18.942892   19.274417
  S     19.492613   20.014697   20.352033
  N     19.207894   17.621345   19.261897
  C     18.540847   16.571621   18.469851
  C     17.699067   15.700417   19.396937
  C     18.047435   14.354653   19.619245
  C     17.287758   13.553276   20.488254
  C     16.173032   14.102658   21.144548
  C     15.826754   15.443942   20.930583
  O     14.750775   15.977073   21.561942
  C     16.583701   16.238564   20.064061
  H     15.493363   14.340620   18.186004
  H     14.447574   13.621499   16.953486
  H     14.849021   15.343637   16.863902
  H     16.831232   12.993045   16.535401
  H     16.193943   13.976958   15.203041
  H     17.136368   19.212882   15.300376
  H     16.527737   20.334669   16.526980
  H     15.636996   18.849715   16.164468
  H     17.660293   20.300393   18.357283
  H     19.870649   17.361319   19.980896
  H     19.327459   15.944609   18.026993
  H     18.908502   13.927046   19.112505
  H     17.564704   12.513293   20.652320
  H     15.583972   13.488159   21.817450
  H     14.391023   15.296869   22.150879
  H     16.304389   17.276593   19.920746

 Total Charge           Charge          ....    0
 Multiplicity           Mult            ....    1
 Number of Electrons    NEL             ....  154
 Basis Dimension        Dim             ....  828

ORBITAL ENERGIES
----------------

  NO   OCC          E(Eh)            E(eV)
   0   2.0000     -91.890113     -2500.4571
   1   2.0000     -20.598613      -560.5168
   2   2.0000     -20.590962      -560.3086
   3   2.0000     -20.543911      -559.0282
   4   2.0000     -15.630577      -425.3296
   5   2.0000     -15.608892      -424.7396
   6   2.0000     -11.394397      -310.0573
   7   2.0000     -11.384803      -309.7962
   8   2.0000     -11.337182      -308.5004
   9   2.0000     -11.316098      -307.9267
  10   2.0000     -11.310357      -307.7704
  11   2.0000     -11.297042      -307.4081
  12   2.0000     -11.261336      -306.4365
  13   2.0000     -11.259947      -306.3987
  14   2.0000     -11.257665      -306.3366
  15   2.0000     -11.252958      -306.2086
  16   2.0000     -11.245511      -306.0059
  17   2.0000     -11.240202      -305.8615
  18   2.0000     -11.240031      -305.8568
  19   2.0000     -11.220936      -305.3372
  20   2.0000      -8.895145      -242.0492
  21   2.0000      -6.576712      -178.9614
  22   2.0000      -6.574716      -178.9071
  23   2.0000      -6.574122      -178.8910
  24   2.0000      -1.448443       -39.4141
  25   2.0000      -1.418328       -38.5947
  26   2.0000      -1.351843       -36.7855
  27   2.0000      -1.341473       -36.5033
  28   2.0000      -1.239652       -33.7326
  29   2.0000      -1.159386       -31.5485
  30   2.0000      -1.120993       -30.5038
  31   2.0000      -1.043962       -28.4076
  32   2.0000      -1.032038       -28.0832
  33   2.0000      -1.017310       -27.6824
  34   2.0000      -0.997040       -27.1308
  35   2.0000      -0.985452       -26.8155
  36   2.0000      -0.923928       -25.1414
  37   2.0000      -0.894883       -24.3510
  38   2.0000      -0.847898       -23.0725
  39   2.0000      -0.840451       -22.8698
  40   2.0000      -0.835981       -22.7482
  41   2.0000      -0.815371       -22.1874
  42   2.0000      -0.751014       -20.4361
  43   2.0000      -0.733883       -19.9700
  44   2.0000      -0.722868       -19.6702
  45   2.0000      -0.697924       -18.9915
  46   2.0000      -0.690495       -18.7893
  47   2.0000      -0.676435       -18.4067
  48   2.0000      -0.669212       -18.2102
  49   2.0000      -0.664623       -18.0853
  50   2.0000      -0.649295       -17.6682
  51   2.0000      -0.643100       -17.4996
  52   2.0000      -0.635590       -17.2953
  53   2.0000      -0.613586       -16.6965
  54   2.0000      -0.609025       -16.5724
  55   2.0000      -0.601534       -16.3686
  56   2.0000      -0.599926       -16.3248
  57   2.0000      -0.579460       -15.7679
  58   2.0000      -0.571273       -15.5451
  59   2.0000      -0.565867       -15.3980
  60   2.0000      -0.552384       -15.0311
  61   2.0000      -0.543856       -14.7991
  62   2.0000      -0.533801       -14.5255
  63   2.0000      -0.531359       -14.4590
  64   2.0000      -0.526819       -14.3355
  65   2.0000      -0.514764       -14.0074
  66   2.0000      -0.503108       -13.6903
  67   2.0000      -0.501281       -13.6405
  68   2.0000      -0.476525       -12.9669
  69   2.0000      -0.465297       -12.6614
  70   2.0000      -0.452950       -12.3254
  71   2.0000      -0.444433       -12.0936
  72   2.0000      -0.356434        -9.6991
  73   2.0000      -0.351399        -9.5621
  74   2.0000      -0.329451        -8.9648
  75   2.0000      -0.324303        -8.8247
  76   2.0000      -0.317036        -8.6270
  77   0.0000       0.071101         1.9347
  78   0.0000       0.105425         2.8688
  79   0.0000       0.122913         3.3446
  80   0.0000       0.130359         3.5473
  81   0.0000       0.136331         3.7098

MULLIKEN ATOMIC CHARGES
-----------------------
   0 C :   -0.320495
   1 C :    0.029713
   2 O :   -0.380871
   3 C :    0.463468
   4 O :   -0.424639
   5 C :   -0.213570
   6 C :    0.149788
   7 C :   -0.270458
   8 N :   -0.123723
   9 C :    0.207353
  10 S :   -0.436351
  11 N :   -0.198698
  12 C :    0.041609
  13 C :    0.046235
  14 C :   -0.179573
  15 C :   -0.133690
  16 C :   -0.273786
  17 C :    0.300367
  18 O :   -0.358888
  19 C :   -0.243065
  20 H :    0.110055
  21 H :    0.109051
  22 H :    0.110423
  23 H :    0.113892
  24 H :    0.120058
  25 H :    0.133464
  26 H :    0.095002
  27 H :    0.130314
  28 H :    0.198500
  29 H :    0.192537
  30 H :    0.151750
  31 H :    0.154383
  32 H :    0.160986
  33 H :    0.131579
  34 H :    0.241030
  35 H :    0.166250
Sum of atomic charges:    0.0000000

LOEWDIN ATOMIC CHARGES
----------------------
   0 C :    0.107191
   1 C :   -0.015471
   2 O :    0.291541
   3 C :   -0.417449
   4 O :    0.105150
   5 C :   -0.096031
   6 C :   -0.057657
   7 C :    0.131304
   8 N :    0.406840
   9 C :   -0.457469
  10 S :   -0.033034
  11 N :    0.396767
  12 C :   -0.052385
  13 C :   -0.039104
  14 C :    0.014248
  15 C :    0.039131
  16 C :   -0.002489
  17 C :   -0.191127
  18 O :    0.396480
  19 C :    0.032270
  20 H :   -0.027882
  21 H :   -0.025414
  22 H :   -0.027440
  23 H :   -0.024313
  24 H :   -0.028384
  25 H :   -0.003294
  26 H :   -0.023309
  27 H :   -0.005491
  28 H :   -0.057551
  29 H :   -0.064902
  30 H :   -0.007874
  31 H :   -0.029180
  32 H :   -0.020793
  33 H :   -0.035162
  34 H :   -0.153417
  35 H :   -0.024300

  Mayer bond orders larger than 0.100000
B(  0-C ,  1-C ) :   0.9566 B(  0-C , 20-H ) :   0.9701 B(  0-C , 21-H ) :   0.9783
B(  0-C , 22-H ) :   0.9738 B(  1-C ,  2-O ) :   0.8857 B(  1-C , 23-H ) :   0.9830
B(  1-C , 24-H ) :   0.9840 B(  2-O ,  3-C ) :   1.1223 B(  3-C ,  4-O ) :   1.9855
B(  3-C ,  5-C ) :   1.0674 B(  5-C ,  6-C ) :   1.6529 B(  5-C , 12-C ) :   0.9712
B(  6-C ,  7-C ) :   0.9690 B(  6-C ,  8-N ) :   1.1559 B(  7-C , 25-H ) :   0.9584
B(  7-C , 26-H ) :   0.9898 B(  7-C , 27-H ) :   0.9624 B(  8-N ,  9-C ) :   1.1793
B(  8-N , 28-H ) :   0.9480 B(  9-C , 10-S ) :   1.6137 B(  9-C , 11-N ) :   1.3027
B( 11-N , 12-C ) :   0.9827 B( 11-N , 29-H ) :   0.9534 B( 12-C , 13-C ) :   0.9363
B( 12-C , 30-H ) :   1.0033 B( 13-C , 14-C ) :   1.3595 B( 13-C , 19-C ) :   1.3816
B( 14-C , 15-C ) :   1.3871 B( 14-C , 31-H ) :   0.9701 B( 15-C , 16-C ) :   1.3614
B( 15-C , 32-H ) :   0.9716 B( 16-C , 17-C ) :   1.3312 B( 16-C , 33-H ) :   0.9850
B( 17-C , 18-O ) :   1.1130 B( 17-C , 19-C ) :   1.3766 B( 18-O , 34-H ) :   0.9795
B( 19-C , 35-H ) :   0.9565

MP2 TOTAL ENERGY:    -1274.341942503 Eh
FINAL SINGLE POINT ENERGY     -1274.341942503436

DIPOLE MOMENT
-------------
                                X             Y             Z
Electronic contribution:      9.61589       9.58267       5.91015
Nuclear contribution   :    -10.57680     -11.26958      -6.02810
                        -----------------------------------------
Total Dipole Moment    :     -0.96091      -1.68691      -0.11794
                        -----------------------------------------
Magnitude (a.u.)       :      1.94497
Magnitude (Debye)      :      4.94372

Rotational constants in cm-1:     0.012157     0.009322     0.006533
Rotational constants in MHz :   364.470926   279.456701   195.865809

                             ****ORCA TERMINATED NORMALLY****
TOTAL RUN TIME: 0 days 2 hours 10 minutes 5 seconds 985 msec
