                         Program Version 4.2.0 -  RELEASE  -
|  1> ! ri-mp2 cc-pvtz cc-pvtz/c TightSCF  NoKeepInts
|  2>
|  3> %scf
|  4>   MaxCore 4096
|  5> end
|  6> *xyz  0  1
|  7>     C       15.1447692   15.4488047   17.0840581
|  8>     C       16.1429113   14.3088055   16.7764033
|  9>     O       17.5048905   14.7279015   16.4952034
| 10>     C       17.8417921   15.9981591   16.1246824
| 11>     O       17.6624552   16.3343005   14.9683660
| 12>     C       17.8447594   16.9775809   17.2678341
| 13>     C       17.4342999   18.2643263   17.1321143
| 14>     C       16.7766873   18.8984170   15.9250287
| 15>     N       17.6559760   19.1795419   18.1651980
| 16>     C       18.4759038   18.9530431   19.2387984
| 17>     S       18.8360195   20.1403081   20.3320516
| 18>     N       18.9887608   17.6858283   19.3584361
| 19>     C       18.5540169   16.5236801   18.5596795
| 20>     C       17.7535926   15.5684847   19.4436959
| 21>     C       18.1070975   14.2073105   19.5158503
| 22>     C       17.3925852   13.3228587   20.3411044
| 23>     C       16.3205185   13.8036429   21.1113737
| 24>     C       15.9762619   15.1608784   21.0584280
| 25>     O       14.9431592   15.6293545   21.8023147
| 26>     C       16.6905689   16.0388823   20.2374343
| 27>     H       15.4276190   16.0305105   17.9632084
| 28>     H       14.1512942   15.0275851   17.2798084
| 29>     H       15.0488392   16.1256303   16.2267577
| 30>     H       16.1496979   13.5979781   17.6124185
| 31>     H       15.7671945   13.7659894   15.8992580
| 32>     H       17.5041758   19.0161307   15.1115113
| 33>     H       16.3509863   19.8853349   16.1407066
| 34>     H       15.9641363   18.2683669   15.5442172
| 35>     H       17.3037823   20.1197951   18.0805241
| 36>     H       19.5714043   17.5422791   20.1735667
| 37>     H       19.4651027   15.9926429   18.2497676
| 38>     H       18.9334029   13.8296053   18.9188276
| 39>     H       17.6714791   12.2711601   20.3825985
| 40>     H       15.7652021   13.1244196   21.7500412
| 41>     H       14.6158982   14.8956685   22.3443092
| 42>     H       16.4097597   17.0867945   20.2184238
| 43> *
| 44>
| 45>                          ****END OF INPUT****

CARTESIAN COORDINATES (ANGSTROEM)
---------------------------------
  C     15.144769   15.448805   17.084058
  C     16.142911   14.308806   16.776403
  O     17.504890   14.727901   16.495203
  C     17.841792   15.998159   16.124682
  O     17.662455   16.334301   14.968366
  C     17.844759   16.977581   17.267834
  C     17.434300   18.264326   17.132114
  C     16.776687   18.898417   15.925029
  N     17.655976   19.179542   18.165198
  C     18.475904   18.953043   19.238798
  S     18.836019   20.140308   20.332052
  N     18.988761   17.685828   19.358436
  C     18.554017   16.523680   18.559679
  C     17.753593   15.568485   19.443696
  C     18.107097   14.207311   19.515850
  C     17.392585   13.322859   20.341104
  C     16.320518   13.803643   21.111374
  C     15.976262   15.160878   21.058428
  O     14.943159   15.629354   21.802315
  C     16.690569   16.038882   20.237434
  H     15.427619   16.030510   17.963208
  H     14.151294   15.027585   17.279808
  H     15.048839   16.125630   16.226758
  H     16.149698   13.597978   17.612419
  H     15.767194   13.765989   15.899258
  H     17.504176   19.016131   15.111511
  H     16.350986   19.885335   16.140707
  H     15.964136   18.268367   15.544217
  H     17.303782   20.119795   18.080524
  H     19.571404   17.542279   20.173567
  H     19.465103   15.992643   18.249768
  H     18.933403   13.829605   18.918828
  H     17.671479   12.271160   20.382598
  H     15.765202   13.124420   21.750041
  H     14.615898   14.895668   22.344309
  H     16.409760   17.086794   20.218424

 Total Charge           Charge          ....    0
 Multiplicity           Mult            ....    1
 Number of Electrons    NEL             ....  154
 Basis Dimension        Dim             ....  828

ORBITAL ENERGIES
----------------

  NO   OCC          E(Eh)            E(eV)
   0   2.0000     -91.891385     -2500.4917
   1   2.0000     -20.600443      -560.5666
   2   2.0000     -20.575592      -559.8903
   3   2.0000     -20.554219      -559.3087
   4   2.0000     -15.630225      -425.3200
   5   2.0000     -15.610568      -424.7851
   6   2.0000     -11.394625      -310.0635
   7   2.0000     -11.386016      -309.8292
   8   2.0000     -11.335156      -308.4453
   9   2.0000     -11.317954      -307.9772
  10   2.0000     -11.314962      -307.8958
  11   2.0000     -11.301787      -307.5373
  12   2.0000     -11.264248      -306.5158
  13   2.0000     -11.260565      -306.4155
  14   2.0000     -11.258780      -306.3670
  15   2.0000     -11.254736      -306.2569
  16   2.0000     -11.247756      -306.0670
  17   2.0000     -11.243148      -305.9416
  18   2.0000     -11.241807      -305.9051
  19   2.0000     -11.228665      -305.5475
  20   2.0000      -8.896424      -242.0840
  21   2.0000      -6.577994      -178.9963
  22   2.0000      -6.575994      -178.9419
  23   2.0000      -6.575400      -178.9257
  24   2.0000      -1.444485       -39.3064
  25   2.0000      -1.420247       -38.6469
  26   2.0000      -1.349869       -36.7318
  27   2.0000      -1.342023       -36.5183
  28   2.0000      -1.240915       -33.7670
  29   2.0000      -1.160929       -31.5905
  30   2.0000      -1.121193       -30.5092
  31   2.0000      -1.045964       -28.4621
  32   2.0000      -1.032414       -28.0934
  33   2.0000      -1.019697       -27.7474
  34   2.0000      -1.001269       -27.2459
  35   2.0000      -0.987619       -26.8745
  36   2.0000      -0.926009       -25.1980
  37   2.0000      -0.897339       -24.4178
  38   2.0000      -0.849408       -23.1136
  39   2.0000      -0.843201       -22.9447
  40   2.0000      -0.838634       -22.8204
  41   2.0000      -0.820700       -22.3324
  42   2.0000      -0.746407       -20.3108
  43   2.0000      -0.735297       -20.0085
  44   2.0000      -0.722551       -19.6616
  45   2.0000      -0.699255       -19.0277
  46   2.0000      -0.690595       -18.7920
  47   2.0000      -0.673109       -18.3162
  48   2.0000      -0.672190       -18.2912
  49   2.0000      -0.661635       -18.0040
  50   2.0000      -0.653785       -17.7904
  51   2.0000      -0.646304       -17.5868
  52   2.0000      -0.639222       -17.3941
  53   2.0000      -0.624931       -17.0052
  54   2.0000      -0.610392       -16.6096
  55   2.0000      -0.603155       -16.4127
  56   2.0000      -0.601705       -16.3732
  57   2.0000      -0.580423       -15.7941
  58   2.0000      -0.574156       -15.6236
  59   2.0000      -0.565779       -15.3956
  60   2.0000      -0.550866       -14.9898
  61   2.0000      -0.548362       -14.9217
  62   2.0000      -0.541894       -14.7457
  63   2.0000      -0.529714       -14.4143
  64   2.0000      -0.526820       -14.3355
  65   2.0000      -0.515885       -14.0379
  66   2.0000      -0.504301       -13.7227
  67   2.0000      -0.494939       -13.4680
  68   2.0000      -0.479349       -13.0438
  69   2.0000      -0.468688       -12.7537
  70   2.0000      -0.451884       -12.2964
  71   2.0000      -0.445150       -12.1131
  72   2.0000      -0.357985        -9.7413
  73   2.0000      -0.349990        -9.5237
  74   2.0000      -0.330615        -8.9965
  75   2.0000      -0.325741        -8.8639
  76   2.0000      -0.318964        -8.6795
  77   0.0000       0.068374         1.8606
  78   0.0000       0.101486         2.7616
  79   0.0000       0.117852         3.2069
  80   0.0000       0.127766         3.4767
  81   0.0000       0.132095         3.5945

MULLIKEN ATOMIC CHARGES
-----------------------
   0 C :   -0.347500
   1 C :    0.042348
   2 O :   -0.388826
   3 C :    0.466957
   4 O :   -0.384438
   5 C :   -0.254551
   6 C :    0.165225
   7 C :   -0.278220
   8 N :   -0.122434
   9 C :    0.191618
  10 S :   -0.433153
  11 N :   -0.198278
  12 C :    0.057386
  13 C :    0.060597
  14 C :   -0.203654
  15 C :   -0.137869
  16 C :   -0.275639
  17 C :    0.318991
  18 O :   -0.355718
  19 C :   -0.276846
  20 H :    0.115955
  21 H :    0.121971
  22 H :    0.108006
  23 H :    0.115333
  24 H :    0.122108
  25 H :    0.140718
  26 H :    0.094668
  27 H :    0.125596
  28 H :    0.197876
  29 H :    0.192968
  30 H :    0.149306
  31 H :    0.152031
  32 H :    0.166294
  33 H :    0.133682
  34 H :    0.241013
  35 H :    0.176479
Sum of atomic charges:   -0.0000000

LOEWDIN ATOMIC CHARGES
----------------------
   0 C :    0.106292
   1 C :   -0.006579
   2 O :    0.273709
   3 C :   -0.424134
   4 O :    0.133750
   5 C :   -0.095009
   6 C :   -0.064802
   7 C :    0.130011
   8 N :    0.406495
   9 C :   -0.459635
  10 S :   -0.032324
  11 N :    0.396411
  12 C :   -0.051763
  13 C :   -0.040160
  14 C :    0.019646
  15 C :    0.039126
  16 C :   -0.002171
  17 C :   -0.192123
  18 O :    0.396420
  19 C :    0.032290
  20 H :   -0.037171
  21 H :   -0.020746
  22 H :   -0.030239
  23 H :   -0.025779
  24 H :   -0.026672
  25 H :   -0.003066
  26 H :   -0.022533
  27 H :   -0.010627
  28 H :   -0.057881
  29 H :   -0.064479
  30 H :   -0.007246
  31 H :   -0.027696
  32 H :   -0.020204
  33 H :   -0.034580
  34 H :   -0.153122
  35 H :   -0.023410

  Mayer bond orders larger than 0.100000
B(  0-C ,  1-C ) :   0.9614 B(  0-C , 20-H ) :   0.9679 B(  0-C , 21-H ) :   0.9765
B(  0-C , 22-H ) :   0.9733 B(  1-C ,  2-O ) :   0.8786 B(  1-C , 23-H ) :   0.9733
B(  1-C , 24-H ) :   0.9855 B(  2-O ,  3-C ) :   1.1127 B(  3-C ,  4-O ) :   2.0546
B(  3-C ,  5-C ) :   1.0068 B(  5-C ,  6-C ) :   1.6686 B(  5-C , 12-C ) :   0.9619
B(  6-C ,  7-C ) :   0.9639 B(  6-C ,  8-N ) :   1.1396 B(  7-C , 25-H ) :   0.9567
B(  7-C , 26-H ) :   0.9870 B(  7-C , 27-H ) :   0.9684 B(  8-N ,  9-C ) :   1.1825
B(  8-N , 28-H ) :   0.9491 B(  9-C , 10-S ) :   1.6199 B(  9-C , 11-N ) :   1.2919
B( 11-N , 12-C ) :   0.9913 B( 11-N , 29-H ) :   0.9521 B( 12-C , 13-C ) :   0.9403
B( 12-C , 30-H ) :   1.0077 B( 13-C , 14-C ) :   1.3557 B( 13-C , 19-C ) :   1.3537
B( 14-C , 15-C ) :   1.3937 B( 14-C , 31-H ) :   0.9721 B( 15-C , 16-C ) :   1.3579
B( 15-C , 32-H ) :   0.9699 B( 16-C , 17-C ) :   1.3306 B( 16-C , 33-H ) :   0.9839
B( 17-C , 18-O ) :   1.1139 B( 17-C , 19-C ) :   1.3699 B( 18-O , 34-H ) :   0.9795
B( 19-C , 35-H ) :   0.9579

MP2 TOTAL ENERGY:    -1274.313391360 Eh
FINAL SINGLE POINT ENERGY     -1274.313391360090

DIPOLE MOMENT
-------------
                                X             Y             Z
Electronic contribution:      9.83907       6.97101       5.88597
Nuclear contribution   :    -10.99931      -8.52999      -5.78501
                        -----------------------------------------
Total Dipole Moment    :     -1.16024      -1.55899       0.10096
                        -----------------------------------------
Magnitude (a.u.)       :      1.94597
Magnitude (Debye)      :      4.94626

Rotational constants in cm-1:     0.011931     0.009921     0.006633
Rotational constants in MHz :   357.684606   297.437458   198.845554

                             ****ORCA TERMINATED NORMALLY****
TOTAL RUN TIME: 0 days 2 hours 31 minutes 44 seconds 642 msec
