                         Program Version 5.0.0 -  RELEASE  -
|  1> ! ri-mp2 cc-pvtz cc-pvtz/c TightSCF NoKeepInts
|  2>
|  3> %scf
|  4>   MaxCore 4096
|  5> end
|  6> *xyz  0  1
|  7>     C       15.0287435   15.8252148   17.2194626
|  8>     C       15.8839391   14.5456767   17.0740354
|  9>     O       17.2073476   14.7349672   16.5038739
| 10>     C       17.8591903   15.9134598   16.2449869
| 11>     O       18.2716337   16.1349602   15.1215501
| 12>     C       17.8290937   16.9772959   17.3003920
| 13>     C       17.4876337   18.2519611   16.9931554
| 14>     C       16.9634443   18.7529095   15.6645446
| 15>     N       17.6222627   19.2659322   17.9436645
| 16>     C       18.1923570   19.1081253   19.1781916
| 17>     S       18.3500513   20.3696107   20.2355599
| 18>     N       18.6273164   17.8468008   19.4982285
| 19>     C       18.4589857   16.6393755   18.6655414
| 20>     C       17.7756517   15.5370073   19.4699907
| 21>     C       18.2991835   14.2297442   19.4578922
| 22>     C       17.6979644   13.2095999   20.2140908
| 23>     C       16.5680798   13.4986158   20.9977344
| 24>     C       16.0523393   14.8011452   21.0258891
| 25>     O       14.9619718   15.0844152   21.7812017
| 26>     C       16.6534761   15.8149060   20.2732136
| 27>     H       15.3911067   16.4923320   18.0057209
| 28>     H       14.0015476   15.5499741   17.4881698
| 29>     H       14.9823438   16.3742968   16.2720184
| 30>     H       15.9688552   14.0617351   18.0538812
| 31>     H       15.3401978   13.8427145   16.4298079
| 32>     H       16.3300061   18.0047665   15.1736405
| 33>     H       17.7980766   18.9619570   14.9828683
| 34>     H       16.3679464   19.6678469   15.7664543
| 35>     H       17.3324964   20.2039172   17.7160749
| 36>     H       19.0228122   17.7595005   20.4261229
| 37>     H       19.4733357   16.2779207   18.4438393
| 38>     H       19.1706764   13.9994533   18.8497833
| 39>     H       18.1081117   12.2010691   20.1906089
| 40>     H       16.1002880   12.7133612   21.5828846
| 41>     H       14.7277422   14.2815877   22.2713384
| 42>     H       16.2407916   16.8178443   20.3175869
| 43> *
| 44>
| 45>                          ****END OF INPUT****

CARTESIAN COORDINATES (ANGSTROEM)
---------------------------------
  C     15.028743   15.825215   17.219463
  C     15.883939   14.545677   17.074035
  O     17.207348   14.734967   16.503874
  C     17.859190   15.913460   16.244987
  O     18.271634   16.134960   15.121550
  C     17.829094   16.977296   17.300392
  C     17.487634   18.251961   16.993155
  C     16.963444   18.752910   15.664545
  N     17.622263   19.265932   17.943665
  C     18.192357   19.108125   19.178192
  S     18.350051   20.369611   20.235560
  N     18.627316   17.846801   19.498228
  C     18.458986   16.639375   18.665541
  C     17.775652   15.537007   19.469991
  C     18.299183   14.229744   19.457892
  C     17.697964   13.209600   20.214091
  C     16.568080   13.498616   20.997734
  C     16.052339   14.801145   21.025889
  O     14.961972   15.084415   21.781202
  C     16.653476   15.814906   20.273214
  H     15.391107   16.492332   18.005721
  H     14.001548   15.549974   17.488170
  H     14.982344   16.374297   16.272018
  H     15.968855   14.061735   18.053881
  H     15.340198   13.842714   16.429808
  H     16.330006   18.004766   15.173640
  H     17.798077   18.961957   14.982868
  H     16.367946   19.667847   15.766454
  H     17.332496   20.203917   17.716075
  H     19.022812   17.759501   20.426123
  H     19.473336   16.277921   18.443839
  H     19.170676   13.999453   18.849783
  H     18.108112   12.201069   20.190609
  H     16.100288   12.713361   21.582885
  H     14.727742   14.281588   22.271338
  H     16.240792   16.817844   20.317587

 Total Charge           Charge          ....    0
 Multiplicity           Mult            ....    1
 Number of Electrons    NEL             ....  154
 Basis Dimension        Dim             ....  828

ORBITAL ENERGIES
----------------

  NO   OCC          E(Eh)            E(eV)
   0   2.0000     -91.890607     -2500.4705
   1   2.0000     -20.604386      -560.6738
   2   2.0000     -20.585928      -560.1716
   3   2.0000     -20.550382      -559.2043
   4   2.0000     -15.627405      -425.2433
   5   2.0000     -15.612121      -424.8274
   6   2.0000     -11.395472      -310.0866
   7   2.0000     -11.386400      -309.8397
   8   2.0000     -11.329599      -308.2941
   9   2.0000     -11.322346      -308.0967
  10   2.0000     -11.318624      -307.9954
  11   2.0000     -11.303194      -307.5755
  12   2.0000     -11.269321      -306.6538
  13   2.0000     -11.262915      -306.4795
  14   2.0000     -11.259761      -306.3937
  15   2.0000     -11.255808      -306.2861
  16   2.0000     -11.252338      -306.1917
  17   2.0000     -11.247766      -306.0673
  18   2.0000     -11.246720      -306.0388
  19   2.0000     -11.233955      -305.6914
  20   2.0000      -8.895702      -242.0644
  21   2.0000      -6.577286      -178.9771
  22   2.0000      -6.575267      -178.9221
  23   2.0000      -6.574686      -178.9063
  24   2.0000      -1.440201       -39.1899
  25   2.0000      -1.424239       -38.7555
  26   2.0000      -1.351895       -36.7869
  27   2.0000      -1.340615       -36.4800
  28   2.0000      -1.241188       -33.7744
  29   2.0000      -1.165474       -31.7142
  30   2.0000      -1.123061       -30.5600
  31   2.0000      -1.049884       -28.5688
  32   2.0000      -1.035330       -28.1728
  33   2.0000      -1.023861       -27.8607
  34   2.0000      -1.003249       -27.2998
  35   2.0000      -0.989107       -26.9150
  36   2.0000      -0.928034       -25.2531
  37   2.0000      -0.899564       -24.4784
  38   2.0000      -0.851278       -23.1644
  39   2.0000      -0.843960       -22.9653
  40   2.0000      -0.842368       -22.9220
  41   2.0000      -0.827182       -22.5088
  42   2.0000      -0.747795       -20.3485
  43   2.0000      -0.738291       -20.0899
  44   2.0000      -0.721283       -19.6271
  45   2.0000      -0.702898       -19.1268
  46   2.0000      -0.690074       -18.7779
  47   2.0000      -0.677306       -18.4304
  48   2.0000      -0.674597       -18.3567
  49   2.0000      -0.659496       -17.9458
  50   2.0000      -0.657728       -17.8977
  51   2.0000      -0.649666       -17.6783
  52   2.0000      -0.639361       -17.3979
  53   2.0000      -0.622177       -16.9303
  54   2.0000      -0.613560       -16.6958
  55   2.0000      -0.607056       -16.5188
  56   2.0000      -0.603444       -16.4205
  57   2.0000      -0.582801       -15.8588
  58   2.0000      -0.577647       -15.7186
  59   2.0000      -0.567816       -15.4511
  60   2.0000      -0.561689       -15.2843
  61   2.0000      -0.553435       -15.0597
  62   2.0000      -0.541723       -14.7410
  63   2.0000      -0.532545       -14.4913
  64   2.0000      -0.528016       -14.3680
  65   2.0000      -0.516470       -14.0539
  66   2.0000      -0.505637       -13.7591
  67   2.0000      -0.493320       -13.4239
  68   2.0000      -0.485226       -13.2037
  69   2.0000      -0.469946       -12.7879
  70   2.0000      -0.452145       -12.3035
  71   2.0000      -0.446275       -12.1438
  72   2.0000      -0.359489        -9.7822
  73   2.0000      -0.350344        -9.5334
  74   2.0000      -0.331085        -9.0093
  75   2.0000      -0.329261        -8.9597
  76   2.0000      -0.319282        -8.6881
  77   0.0000       0.081232         2.2104
  78   0.0000       0.097808         2.6615
  79   0.0000       0.118957         3.2370
  80   0.0000       0.125708         3.4207
  81   0.0000       0.129308         3.5186

MULLIKEN ATOMIC CHARGES
-----------------------
   0 C :   -0.343748
   1 C :    0.032007
   2 O :   -0.346767
   3 C :    0.405947
   4 O :   -0.367623
   5 C :   -0.238106
   6 C :    0.160963
   7 C :   -0.286485
   8 N :   -0.129865
   9 C :    0.209136
  10 S :   -0.439941
  11 N :   -0.219781
  12 C :    0.081734
  13 C :    0.000876
  14 C :   -0.174426
  15 C :   -0.135251
  16 C :   -0.277464
  17 C :    0.323713
  18 O :   -0.355623
  19 C :   -0.276732
  20 H :    0.114321
  21 H :    0.126374
  22 H :    0.107462
  23 H :    0.107594
  24 H :    0.127871
  25 H :    0.119887
  26 H :    0.145303
  27 H :    0.097153
  28 H :    0.196914
  29 H :    0.201365
  30 H :    0.158875
  31 H :    0.149344
  32 H :    0.164388
  33 H :    0.134743
  34 H :    0.242147
  35 H :    0.183693
Sum of atomic charges:   -0.0000000

LOEWDIN ATOMIC CHARGES
----------------------
   0 C :    0.103894
   1 C :   -0.010175
   2 O :    0.286897
   3 C :   -0.423087
   4 O :    0.130908
   5 C :   -0.089340
   6 C :   -0.078321
   7 C :    0.129464
   8 N :    0.405125
   9 C :   -0.457252
  10 S :   -0.036332
  11 N :    0.396919
  12 C :   -0.051716
  13 C :   -0.043228
  14 C :    0.021114
  15 C :    0.042312
  16 C :   -0.000405
  17 C :   -0.193951
  18 O :    0.397125
  19 C :    0.031334
  20 H :   -0.036743
  21 H :   -0.019925
  22 H :   -0.030633
  23 H :   -0.029286
  24 H :   -0.023257
  25 H :   -0.012151
  26 H :   -0.003306
  27 H :   -0.021187
  28 H :   -0.057466
  29 H :   -0.064024
  30 H :   -0.009635
  31 H :   -0.026628
  32 H :   -0.018538
  33 H :   -0.033482
  34 H :   -0.152161
  35 H :   -0.022863

  Mayer bond orders larger than 0.100000
B(  0-C ,  1-C ) :   0.9613 B(  0-C , 20-H ) :   0.9678 B(  0-C , 21-H ) :   0.9752
B(  0-C , 22-H ) :   0.9748 B(  1-C ,  2-O ) :   0.8987 B(  1-C , 23-H ) :   0.9691
B(  1-C , 24-H ) :   0.9832 B(  2-O ,  3-C ) :   1.1658 B(  3-C ,  4-O ) :   2.1068
B(  3-C ,  5-C ) :   0.9255 B(  5-C ,  6-C ) :   1.7009 B(  5-C , 12-C ) :   0.9540
B(  6-C ,  7-C ) :   0.9535 B(  6-C ,  8-N ) :   1.1360 B(  7-C , 25-H ) :   0.9726
B(  7-C , 26-H ) :   0.9583 B(  7-C , 27-H ) :   0.9842 B(  8-N ,  9-C ) :   1.1983
B(  8-N , 28-H ) :   0.9502 B(  9-C , 10-S ) :   1.6099 B(  9-C , 11-N ) :   1.2858
B( 11-N , 12-C ) :   0.9935 B( 11-N , 29-H ) :   0.9465 B( 12-C , 13-C ) :   0.9370
B( 12-C , 30-H ) :   1.0065 B( 13-C , 14-C ) :   1.3717 B( 13-C , 19-C ) :   1.3497
B( 14-C , 15-C ) :   1.4020 B( 14-C , 31-H ) :   0.9724 B( 15-C , 16-C ) :   1.3555
B( 15-C , 32-H ) :   0.9704 B( 16-C , 17-C ) :   1.3308 B( 16-C , 33-H ) :   0.9839
B( 17-C , 18-O ) :   1.1115 B( 17-C , 19-C ) :   1.3595 B( 18-O , 34-H ) :   0.9785
B( 19-C , 35-H ) :   0.9522

MP2 TOTAL ENERGY:    -1274.320836034 Eh
FINAL SINGLE POINT ENERGY     -1274.320836033658

DIPOLE MOMENT
-------------
                                X             Y             Z
Electronic contribution:      8.90122       6.09898       5.80931
Nuclear contribution   :    -10.12301      -7.70864      -5.58896
                        -----------------------------------------
Total Dipole Moment    :     -1.22179      -1.60966       0.22035
                        -----------------------------------------
Magnitude (a.u.)       :      2.03281
Magnitude (Debye)      :      5.16700

Rotational constants in cm-1:     0.012542     0.009336     0.006546
Rotational constants in MHz :   376.014297   279.873394   196.234109

                             ****ORCA TERMINATED NORMALLY****
TOTAL RUN TIME: 0 days 2 hours 29 minutes 54 seconds 671 msec
