                         Program Version 5.0.0 -  RELEASE  -
|  1> ! ri-mp2 cc-pvtz cc-pvtz/c TightSCF NoKeepInts
|  2>
|  3> %scf
|  4>   MaxCore 4096
|  5> end
|  6> *xyz  0  1
|  7>     C       15.2255731   14.0215400   16.9422567
|  8>     C       15.3542660   15.5278018   16.6479768
|  9>     O       16.5268903   15.7523793   15.8409396
| 10>     C       17.7409951   15.7532268   16.4626560
| 11>     O       18.3897549   14.7275733   16.5680256
| 12>     C       17.9684250   16.9389834   17.3502138
| 13>     C       17.5294355   18.1902172   17.0669566
| 14>     C       16.7985840   18.6463080   15.8216263
| 15>     N       17.8101119   19.2401148   17.9460600
| 16>     C       18.6149205   19.1408490   19.0509252
| 17>     S       18.9697344   20.4556840   19.9888678
| 18>     N       19.1078335   17.8931551   19.3421897
| 19>     C       18.7354645   16.6488722   18.6418315
| 20>     C       17.9121333   15.7402859   19.5506784
| 21>     C       18.2798697   14.3950144   19.7358304
| 22>     C       17.5069691   13.5458241   20.5451859
| 23>     C       16.3537140   14.0445200   21.1742685
| 24>     C       15.9817905   15.3827879   20.9895751
| 25>     O       14.8615686   15.8647812   21.5839737
| 26>     C       16.7534154   16.2259786   20.1840621
| 27>     H       16.0499983   13.6750158   17.5786753
| 28>     H       15.2417822   13.4414673   16.0111278
| 29>     H       14.2847230   13.8103494   17.4643251
| 30>     H       14.4674845   15.8528466   16.0889352
| 31>     H       15.3933601   16.0984942   17.5853584
| 32>     H       17.1796949   18.1328234   14.9296531
| 33>     H       16.9177667   19.7218066   15.6410986
| 34>     H       15.7251652   18.4358023   15.8977350
| 35>     H       17.4622473   20.1650027   17.7479447
| 36>     H       19.6765105   17.8439515   20.1780187
| 37>     H       19.6633636   16.1233840   18.3723260
| 38>     H       19.1582350   14.0002379   19.2302944
| 39>     H       17.7991632   12.5050250   20.6739866
| 40>     H       15.7518234   13.3904885   21.7965141
| 41>     H       14.5063412   15.1605472   22.1473935
| 42>     H       16.4478918   17.2588606   20.0565138
| 43> *
| 44>
| 45>                          ****END OF INPUT****

CARTESIAN COORDINATES (ANGSTROEM)
---------------------------------
  C     15.225573   14.021540   16.942257
  C     15.354266   15.527802   16.647977
  O     16.526890   15.752379   15.840940
  C     17.740995   15.753227   16.462656
  O     18.389755   14.727573   16.568026
  C     17.968425   16.938983   17.350214
  C     17.529436   18.190217   17.066957
  C     16.798584   18.646308   15.821626
  N     17.810112   19.240115   17.946060
  C     18.614921   19.140849   19.050925
  S     18.969734   20.455684   19.988868
  N     19.107833   17.893155   19.342190
  C     18.735464   16.648872   18.641831
  C     17.912133   15.740286   19.550678
  C     18.279870   14.395014   19.735830
  C     17.506969   13.545824   20.545186
  C     16.353714   14.044520   21.174269
  C     15.981791   15.382788   20.989575
  O     14.861569   15.864781   21.583974
  C     16.753415   16.225979   20.184062
  H     16.049998   13.675016   17.578675
  H     15.241782   13.441467   16.011128
  H     14.284723   13.810349   17.464325
  H     14.467484   15.852847   16.088935
  H     15.393360   16.098494   17.585358
  H     17.179695   18.132823   14.929653
  H     16.917767   19.721807   15.641099
  H     15.725165   18.435802   15.897735
  H     17.462247   20.165003   17.747945
  H     19.676510   17.843951   20.178019
  H     19.663364   16.123384   18.372326
  H     19.158235   14.000238   19.230294
  H     17.799163   12.505025   20.673987
  H     15.751823   13.390489   21.796514
  H     14.506341   15.160547   22.147393
  H     16.447892   17.258861   20.056514

 Total Charge           Charge          ....    0
 Multiplicity           Mult            ....    1
 Number of Electrons    NEL             ....  154
 Basis Dimension        Dim             ....  828

ORBITAL ENERGIES
----------------

  NO   OCC          E(Eh)            E(eV)
   0   2.0000     -91.890875     -2500.4778
   1   2.0000     -20.598575      -560.5157
   2   2.0000     -20.584731      -560.1390
   3   2.0000     -20.555555      -559.3451
   4   2.0000     -15.630689      -425.3327
   5   2.0000     -15.610414      -424.7810
   6   2.0000     -11.394633      -310.0637
   7   2.0000     -11.386555      -309.8439
   8   2.0000     -11.336365      -308.4782
   9   2.0000     -11.314953      -307.8955
  10   2.0000     -11.310317      -307.7694
  11   2.0000     -11.302572      -307.5586
  12   2.0000     -11.263412      -306.4930
  13   2.0000     -11.260938      -306.4257
  14   2.0000     -11.260429      -306.4118
  15   2.0000     -11.254598      -306.2532
  16   2.0000     -11.244329      -305.9737
  17   2.0000     -11.240681      -305.8745
  18   2.0000     -11.237249      -305.7811
  19   2.0000     -11.220905      -305.3363
  20   2.0000      -8.895946      -242.0710
  21   2.0000      -6.577521      -178.9834
  22   2.0000      -6.575512      -178.9288
  23   2.0000      -6.574925      -178.9128
  24   2.0000      -1.450089       -39.4589
  25   2.0000      -1.418378       -38.5960
  26   2.0000      -1.358600       -36.9694
  27   2.0000      -1.341835       -36.5132
  28   2.0000      -1.240072       -33.7441
  29   2.0000      -1.159183       -31.5430
  30   2.0000      -1.123495       -30.5719
  31   2.0000      -1.046500       -28.4767
  32   2.0000      -1.030458       -28.0402
  33   2.0000      -1.016642       -27.6642
  34   2.0000      -1.002301       -27.2740
  35   2.0000      -0.987610       -26.8742
  36   2.0000      -0.925994       -25.1976
  37   2.0000      -0.884008       -24.0551
  38   2.0000      -0.852895       -23.2085
  39   2.0000      -0.841661       -22.9028
  40   2.0000      -0.835050       -22.7229
  41   2.0000      -0.831153       -22.6168
  42   2.0000      -0.748588       -20.3701
  43   2.0000      -0.733338       -19.9551
  44   2.0000      -0.730437       -19.8762
  45   2.0000      -0.696814       -18.9613
  46   2.0000      -0.687332       -18.7033
  47   2.0000      -0.680316       -18.5123
  48   2.0000      -0.675378       -18.3780
  49   2.0000      -0.666463       -18.1354
  50   2.0000      -0.650966       -17.7137
  51   2.0000      -0.648862       -17.6564
  52   2.0000      -0.639177       -17.3929
  53   2.0000      -0.608598       -16.5608
  54   2.0000      -0.607595       -16.5335
  55   2.0000      -0.602956       -16.4073
  56   2.0000      -0.598349       -16.2819
  57   2.0000      -0.580049       -15.7839
  58   2.0000      -0.575692       -15.6654
  59   2.0000      -0.571447       -15.5499
  60   2.0000      -0.560300       -15.2465
  61   2.0000      -0.554100       -15.0778
  62   2.0000      -0.537815       -14.6347
  63   2.0000      -0.525342       -14.2953
  64   2.0000      -0.518956       -14.1215
  65   2.0000      -0.513306       -13.9678
  66   2.0000      -0.501925       -13.6581
  67   2.0000      -0.493709       -13.4345
  68   2.0000      -0.484448       -13.1825
  69   2.0000      -0.468386       -12.7454
  70   2.0000      -0.458695       -12.4817
  71   2.0000      -0.448791       -12.2122
  72   2.0000      -0.356984        -9.7140
  73   2.0000      -0.350582        -9.5398
  74   2.0000      -0.330169        -8.9844
  75   2.0000      -0.322134        -8.7657
  76   2.0000      -0.318447        -8.6654
  77   0.0000       0.070523         1.9190
  78   0.0000       0.102976         2.8021
  79   0.0000       0.118495         3.2244
  80   0.0000       0.129385         3.5207
  81   0.0000       0.135773         3.6946

MULLIKEN ATOMIC CHARGES
-----------------------
   0 C :   -0.264537
   1 C :    0.001379
   2 O :   -0.368901
   3 C :    0.469060
   4 O :   -0.387856
   5 C :   -0.248128
   6 C :    0.163692
   7 C :   -0.288995
   8 N :   -0.125191
   9 C :    0.200543
  10 S :   -0.437002
  11 N :   -0.203724
  12 C :    0.062395
  13 C :    0.055736
  14 C :   -0.180902
  15 C :   -0.131193
  16 C :   -0.277702
  17 C :    0.322235
  18 O :   -0.359553
  19 C :   -0.310972
  20 H :    0.111590
  21 H :    0.104313
  22 H :    0.089020
  23 H :    0.116441
  24 H :    0.099519
  25 H :    0.133580
  26 H :    0.110504
  27 H :    0.121198
  28 H :    0.197367
  29 H :    0.195071
  30 H :    0.156933
  31 H :    0.160948
  32 H :    0.163342
  33 H :    0.131770
  34 H :    0.241646
  35 H :    0.176373
Sum of atomic charges:    0.0000000

LOEWDIN ATOMIC CHARGES
----------------------
   0 C :    0.109636
   1 C :   -0.023229
   2 O :    0.288790
   3 C :   -0.419031
   4 O :    0.133506
   5 C :   -0.095645
   6 C :   -0.076293
   7 C :    0.127678
   8 N :    0.404354
   9 C :   -0.457681
  10 S :   -0.034226
  11 N :    0.397114
  12 C :   -0.046088
  13 C :   -0.042543
  14 C :    0.022292
  15 C :    0.043287
  16 C :   -0.000591
  17 C :   -0.194435
  18 O :    0.393769
  19 C :    0.027631
  20 H :   -0.024879
  21 H :   -0.023885
  22 H :   -0.028503
  23 H :   -0.025717
  24 H :   -0.037302
  25 H :   -0.005810
  26 H :   -0.017802
  27 H :   -0.011776
  28 H :   -0.058227
  29 H :   -0.063719
  30 H :   -0.004066
  31 H :   -0.023646
  32 H :   -0.019627
  33 H :   -0.035034
  34 H :   -0.153199
  35 H :   -0.025102

  Mayer bond orders larger than 0.100000
B(  0-C ,  1-C ) :   0.9862 B(  0-C , 20-H ) :   0.9682 B(  0-C , 21-H ) :   0.9773
B(  0-C , 22-H ) :   0.9757 B(  1-C ,  2-O ) :   0.8938 B(  1-C , 23-H ) :   0.9790
B(  1-C , 24-H ) :   0.9633 B(  2-O ,  3-C ) :   1.1085 B(  3-C ,  4-O ) :   2.0609
B(  3-C ,  5-C ) :   0.9823 B(  5-C ,  6-C ) :   1.6626 B(  5-C , 12-C ) :   0.9632
B(  6-C ,  7-C ) :   0.9509 B(  6-C ,  8-N ) :   1.1420 B(  7-C , 25-H ) :   0.9688
B(  7-C , 26-H ) :   0.9860 B(  7-C , 27-H ) :   0.9645 B(  8-N ,  9-C ) :   1.1833
B(  8-N , 28-H ) :   0.9493 B(  9-C , 10-S ) :   1.6140 B(  9-C , 11-N ) :   1.2984
B( 11-N , 12-C ) :   0.9949 B( 11-N , 29-H ) :   0.9515 B( 12-C , 13-C ) :   0.9428
B( 12-C , 30-H ) :   0.9985 B( 13-C , 14-C ) :   1.3797 B( 13-C , 19-C ) :   1.3475
B( 14-C , 15-C ) :   1.3929 B( 14-C , 31-H ) :   0.9625 B( 15-C , 16-C ) :   1.3629
B( 15-C , 32-H ) :   0.9705 B( 16-C , 17-C ) :   1.3319 B( 16-C , 33-H ) :   0.9844
B( 17-C , 18-O ) :   1.1108 B( 17-C , 19-C ) :   1.3643 B( 18-O , 34-H ) :   0.9795
B( 19-C , 35-H ) :   0.9575

MP2 TOTAL ENERGY:    -1274.330958795 Eh
FINAL SINGLE POINT ENERGY     -1274.330958794871

DIPOLE MOMENT
-------------
                                X             Y             Z
Electronic contribution:     10.22404       9.32799       5.90725
Nuclear contribution   :    -11.66755     -10.27402      -6.28280
                        -----------------------------------------
Total Dipole Moment    :     -1.44351      -0.94603      -0.37554
                        -----------------------------------------
Magnitude (a.u.)       :      1.76627
Magnitude (Debye)      :      4.48950

Rotational constants in cm-1:     0.012465     0.009222     0.006748
Rotational constants in MHz :   373.681874   276.476641   202.289656

                             ****ORCA TERMINATED NORMALLY****
TOTAL RUN TIME: 0 days 1 hours 39 minutes 16 seconds 839 msec
