                         Program Version 5.0.0 -  RELEASE  -
|  1> ! ri-mp2 cc-pvtz cc-pvtz/c TightSCF NoKeepInts
|  2>
|  3> %scf
|  4>   MaxCore 4096
|  5> end
|  6> *xyz  0  1
|  7>     C       14.5828737   14.4206011   16.8266828
|  8>     C       15.5946241   15.5773802   16.8208455
|  9>     O       16.8602457   15.0254008   16.4130928
| 10>     C       18.0753269   15.6423525   16.5820775
| 11>     O       19.0930514   14.9825145   16.4834694
| 12>     C       18.0631531   16.8844207   17.4106996
| 13>     C       17.5659532   18.0580111   16.9582816
| 14>     C       16.9922748   18.3351733   15.5855813
| 15>     N       17.6326425   19.1971195   17.7631651
| 16>     C       18.2634117   19.2561387   18.9791031
| 17>     S       18.3424218   20.6608682   19.8475200
| 18>     N       18.8222154   18.0899428   19.4430422
| 19>     C       18.7162119   16.7709145   18.7870493
| 20>     C       17.9608107   15.7684764   19.6550664
| 21>     C       18.4009154   14.4345012   19.7335702
| 22>     C       17.6967909   13.4911662   20.4999983
| 23>     C       16.5389054   13.8828037   21.1928652
| 24>     C       16.0930406   15.2086716   21.1126969
| 25>     O       14.9668812   15.5870936   21.7676514
| 26>     C       16.7960745   16.1462740   20.3495036
| 27>     H       14.8995614   13.6381418   17.5282079
| 28>     H       14.4974618   13.9748561   15.8277654
| 29>     H       13.5913624   14.7752604   17.1331063
| 30>     H       15.2605910   16.3559186   16.1257283
| 31>     H       15.6503863   15.9959322   17.8337062
| 32>     H       17.0748092   17.4712016   14.9146232
| 33>     H       17.5297271   19.1606856   15.1012418
| 34>     H       15.9333358   18.6146514   15.6472491
| 35>     H       17.2448141   20.0676099   17.4342824
| 36>     H       19.2642564   18.1599070   20.3510961
| 37>     H       19.7376146   16.3898128   18.6387505
| 38>     H       19.2846947   14.1229621   19.1803902
| 39>     H       18.0457036   12.4608946   20.5466131
| 40>     H       15.9900119   13.1557519   21.7822344
| 41>     H       14.6571986   14.8231076   22.2775507
| 42>     H       16.4276463   17.1654820   20.2994923
| 43> *
| 44>
| 45>                          ****END OF INPUT****

CARTESIAN COORDINATES (ANGSTROEM)
---------------------------------
  C     14.582874   14.420601   16.826683
  C     15.594624   15.577380   16.820846
  O     16.860246   15.025401   16.413093
  C     18.075327   15.642352   16.582078
  O     19.093051   14.982515   16.483469
  C     18.063153   16.884421   17.410700
  C     17.565953   18.058011   16.958282
  C     16.992275   18.335173   15.585581
  N     17.632642   19.197119   17.763165
  C     18.263412   19.256139   18.979103
  S     18.342422   20.660868   19.847520
  N     18.822215   18.089943   19.443042
  C     18.716212   16.770914   18.787049
  C     17.960811   15.768476   19.655066
  C     18.400915   14.434501   19.733570
  C     17.696791   13.491166   20.499998
  C     16.538905   13.882804   21.192865
  C     16.093041   15.208672   21.112697
  O     14.966881   15.587094   21.767651
  C     16.796074   16.146274   20.349504
  H     14.899561   13.638142   17.528208
  H     14.497462   13.974856   15.827765
  H     13.591362   14.775260   17.133106
  H     15.260591   16.355919   16.125728
  H     15.650386   15.995932   17.833706
  H     17.074809   17.471202   14.914623
  H     17.529727   19.160686   15.101242
  H     15.933336   18.614651   15.647249
  H     17.244814   20.067610   17.434282
  H     19.264256   18.159907   20.351096
  H     19.737615   16.389813   18.638751
  H     19.284695   14.122962   19.180390
  H     18.045704   12.460895   20.546613
  H     15.990012   13.155752   21.782234
  H     14.657199   14.823108   22.277551
  H     16.427646   17.165482   20.299492

 Total Charge           Charge          ....    0
 Multiplicity           Mult            ....    1
 Number of Electrons    NEL             ....  154
 Basis Dimension        Dim             ....  828

ORBITAL ENERGIES
----------------

  NO   OCC          E(Eh)            E(eV)
   0   2.0000     -91.890034     -2500.4549
   1   2.0000     -20.602129      -560.6124
   2   2.0000     -20.599983      -560.5540
   3   2.0000     -20.550256      -559.2009
   4   2.0000     -15.626623      -425.2220
   5   2.0000     -15.611923      -424.8220
   6   2.0000     -11.397572      -310.1437
   7   2.0000     -11.386936      -309.8543
   8   2.0000     -11.328559      -308.2657
   9   2.0000     -11.316898      -307.9484
  10   2.0000     -11.315694      -307.9157
  11   2.0000     -11.302786      -307.5644
  12   2.0000     -11.270665      -306.6904
  13   2.0000     -11.265067      -306.5381
  14   2.0000     -11.263932      -306.5072
  15   2.0000     -11.256744      -306.3116
  16   2.0000     -11.245997      -306.0191
  17   2.0000     -11.242359      -305.9201
  18   2.0000     -11.239027      -305.8295
  19   2.0000     -11.231695      -305.6300
  20   2.0000      -8.895154      -242.0494
  21   2.0000      -6.576743      -178.9623
  22   2.0000      -6.574715      -178.9071
  23   2.0000      -6.574142      -178.8915
  24   2.0000      -1.449148       -39.4333
  25   2.0000      -1.419795       -38.6346
  26   2.0000      -1.360030       -37.0083
  27   2.0000      -1.340168       -36.4678
  28   2.0000      -1.240087       -33.7445
  29   2.0000      -1.161461       -31.6050
  30   2.0000      -1.125871       -30.6365
  31   2.0000      -1.049376       -28.5550
  32   2.0000      -1.040088       -28.3022
  33   2.0000      -1.019127       -27.7319
  34   2.0000      -1.005527       -27.3618
  35   2.0000      -0.989551       -26.9271
  36   2.0000      -0.928208       -25.2578
  37   2.0000      -0.880545       -23.9609
  38   2.0000      -0.856052       -23.2943
  39   2.0000      -0.842058       -22.9136
  40   2.0000      -0.837255       -22.7829
  41   2.0000      -0.836725       -22.7685
  42   2.0000      -0.756928       -20.5971
  43   2.0000      -0.740119       -20.1397
  44   2.0000      -0.731714       -19.9110
  45   2.0000      -0.698028       -18.9943
  46   2.0000      -0.688642       -18.7389
  47   2.0000      -0.681700       -18.5500
  48   2.0000      -0.677530       -18.4365
  49   2.0000      -0.661565       -18.0021
  50   2.0000      -0.658430       -17.9168
  51   2.0000      -0.650648       -17.7050
  52   2.0000      -0.640020       -17.4158
  53   2.0000      -0.612354       -16.6630
  54   2.0000      -0.608125       -16.5479
  55   2.0000      -0.603702       -16.4276
  56   2.0000      -0.596113       -16.2211
  57   2.0000      -0.583223       -15.8703
  58   2.0000      -0.577505       -15.7147
  59   2.0000      -0.571799       -15.5594
  60   2.0000      -0.563888       -15.3442
  61   2.0000      -0.557290       -15.1646
  62   2.0000      -0.552499       -15.0343
  63   2.0000      -0.527452       -14.3527
  64   2.0000      -0.518021       -14.0961
  65   2.0000      -0.515847       -14.0369
  66   2.0000      -0.505662       -13.7598
  67   2.0000      -0.502483       -13.6733
  68   2.0000      -0.488337       -13.2883
  69   2.0000      -0.470541       -12.8041
  70   2.0000      -0.453517       -12.3408
  71   2.0000      -0.451000       -12.2723
  72   2.0000      -0.357057        -9.7160
  73   2.0000      -0.351773        -9.5722
  74   2.0000      -0.329733        -8.9725
  75   2.0000      -0.324526        -8.8308
  76   2.0000      -0.318625        -8.6702
  77   0.0000       0.086691         2.3590
  78   0.0000       0.104248         2.8367
  79   0.0000       0.111867         3.0440
  80   0.0000       0.128075         3.4851
  81   0.0000       0.131994         3.5917

MULLIKEN ATOMIC CHARGES
-----------------------
   0 C :   -0.259541
   1 C :    0.014075
   2 O :   -0.302712
   3 C :    0.394771
   4 O :   -0.381764
   5 C :   -0.194754
   6 C :    0.152260
   7 C :   -0.332825
   8 N :   -0.139769
   9 C :    0.205718
  10 S :   -0.441161
  11 N :   -0.218677
  12 C :    0.077976
  13 C :    0.029985
  14 C :   -0.196863
  15 C :   -0.130878
  16 C :   -0.275998
  17 C :    0.324096
  18 O :   -0.357376
  19 C :   -0.297331
  20 H :    0.108030
  21 H :    0.102498
  22 H :    0.088002
  23 H :    0.089288
  24 H :    0.106475
  25 H :    0.124501
  26 H :    0.141973
  27 H :    0.121113
  28 H :    0.196178
  29 H :    0.199732
  30 H :    0.165556
  31 H :    0.168156
  32 H :    0.164004
  33 H :    0.132483
  34 H :    0.241639
  35 H :    0.181141
Sum of atomic charges:   -0.0000000

LOEWDIN ATOMIC CHARGES
----------------------
   0 C :    0.112734
   1 C :   -0.025657
   2 O :    0.311388
   3 C :   -0.417013
   4 O :    0.124092
   5 C :   -0.080996
   6 C :   -0.103453
   7 C :    0.122700
   8 N :    0.401138
   9 C :   -0.455830
  10 S :   -0.038022
  11 N :    0.397305
  12 C :   -0.043600
  13 C :   -0.042967
  14 C :    0.023703
  15 C :    0.046172
  16 C :   -0.000056
  17 C :   -0.193948
  18 O :    0.394737
  19 C :    0.026136
  20 H :   -0.022210
  21 H :   -0.025869
  22 H :   -0.025156
  23 H :   -0.038547
  24 H :   -0.034968
  25 H :   -0.008886
  26 H :   -0.009268
  27 H :   -0.017589
  28 H :   -0.057946
  29 H :   -0.063624
  30 H :   -0.002096
  31 H :   -0.021621
  32 H :   -0.018307
  33 H :   -0.034654
  34 H :   -0.152919
  35 H :   -0.024903

  Mayer bond orders larger than 0.100000
B(  0-C ,  1-C ) :   0.9852 B(  0-C , 20-H ) :   0.9783 B(  0-C , 21-H ) :   0.9794
B(  0-C , 22-H ) :   0.9770 B(  1-C ,  2-O ) :   0.9142 B(  1-C , 23-H ) :   0.9734
B(  1-C , 24-H ) :   0.9571 B(  2-O ,  3-C ) :   1.1845 B(  3-C ,  4-O ) :   2.0914
B(  3-C ,  5-C ) :   0.9191 B(  5-C ,  6-C ) :   1.6846 B(  5-C , 12-C ) :   0.9571
B(  6-C ,  7-C ) :   0.9442 B(  6-C ,  8-N ) :   1.1166 B(  7-C , 25-H ) :   0.9815
B(  7-C , 26-H ) :   0.9679 B(  7-C , 27-H ) :   0.9669 B(  8-N ,  9-C ) :   1.1966
B(  8-N , 28-H ) :   0.9526 B(  9-C , 10-S ) :   1.6104 B(  9-C , 11-N ) :   1.2866
B( 11-N , 12-C ) :   0.9953 B( 11-N , 29-H ) :   0.9484 B( 12-C , 13-C ) :   0.9437
B( 12-C , 30-H ) :   0.9971 B( 13-C , 14-C ) :   1.3886 B( 13-C , 19-C ) :   1.3395
B( 14-C , 15-C ) :   1.3978 B( 14-C , 31-H ) :   0.9611 B( 15-C , 16-C ) :   1.3627
B( 15-C , 32-H ) :   0.9698 B( 16-C , 17-C ) :   1.3302 B( 16-C , 33-H ) :   0.9843
B( 17-C , 18-O ) :   1.1102 B( 17-C , 19-C ) :   1.3631 B( 18-O , 34-H ) :   0.9793
B( 19-C , 35-H ) :   0.9569

MP2 TOTAL ENERGY:    -1274.332267538 Eh
FINAL SINGLE POINT ENERGY     -1274.332267537937

DIPOLE MOMENT
-------------
                                X             Y             Z
Electronic contribution:     10.60068       8.27585       6.95477
Nuclear contribution   :    -12.13203      -9.28673      -7.42274
                        -----------------------------------------
Total Dipole Moment    :     -1.53135      -1.01088      -0.46796
                        -----------------------------------------
Magnitude (a.u.)       :      1.89365
Magnitude (Debye)      :      4.81328

Rotational constants in cm-1:     0.012112     0.009041     0.006788
Rotational constants in MHz :   363.094288   271.031171   203.497678

                             ****ORCA TERMINATED NORMALLY****
TOTAL RUN TIME: 0 days 2 hours 9 minutes 37 seconds 207 msec
