                         Program Version 5.0.0 -  RELEASE  -
|  1> ! ri-mp2 cc-pvtz cc-pvtz/c TightSCF NoKeepInts
|  2>
|  3> %scf
|  4>   MaxCore 4096
|  5> end
|  6> *xyz  0  1
|  7>     C       14.9604901   15.0058180   17.1064975
|  8>     C       15.7734087   14.7879913   15.8163097
|  9>     O       16.6991756   15.8784757   15.6571953
| 10>     C       17.8479340   15.8753958   16.3933502
| 11>     O       18.4987194   14.8534169   16.5338474
| 12>     C       17.9083173   16.9886040   17.3989725
| 13>     C       17.3278383   18.2042509   17.2279075
| 14>     C       16.5393214   18.6945417   16.0309956
| 15>     N       17.5073556   19.2010321   18.1925692
| 16>     C       18.3818146   19.1210254   19.2445616
| 17>     S       18.6461211   20.4009937   20.2579746
| 18>     N       19.0259844   17.9211891   19.4135590
| 19>     C       18.7117737   16.6867221   18.6689938
| 20>     C       17.9696761   15.6944088   19.5615616
| 21>     C       18.4033240   14.3589634   19.6539576
| 22>     C       17.7178408   13.4361880   20.4615591
| 23>     C       16.5870822   13.8508120   21.1852354
| 24>     C       16.1497075   15.1790067   21.0950346
| 25>     O       15.0520041   15.5802610   21.7841775
| 26>     C       16.8336929   16.0950341   20.2897802
| 27>     H       15.6011145   14.9045710   17.9904147
| 28>     H       14.1615578   14.2587486   17.1855142
| 29>     H       14.5016285   16.0019019   17.1189697
| 30>     H       16.2942968   13.8208267   15.8439923
| 31>     H       15.0845350   14.7765284   14.9620113
| 32>     H       15.5368340   18.2494450   16.0186340
| 33>     H       17.0400947   18.4212481   15.0937523
| 34>     H       16.4198386   19.7847779   16.0229540
| 35>     H       17.0442620   20.0892291   18.0840692
| 36>     H       19.6445276   17.8782254   20.2132948
| 37>     H       19.6647782   16.2298864   18.3649490
| 38>     H       19.2671501   14.0307664   19.0804753
| 39>     H       18.0612482   12.4047789   20.5185108
| 40>     H       16.0533916   13.1407500   21.8081492
| 41>     H       14.7543959   14.8288809   22.3187858
| 42>     H       16.4757647   17.1173045   20.2354838
| 43> *
| 44>
| 45>                          ****END OF INPUT****

CARTESIAN COORDINATES (ANGSTROEM)
---------------------------------
  C     14.960490   15.005818   17.106497
  C     15.773409   14.787991   15.816310
  O     16.699176   15.878476   15.657195
  C     17.847934   15.875396   16.393350
  O     18.498719   14.853417   16.533847
  C     17.908317   16.988604   17.398972
  C     17.327838   18.204251   17.227908
  C     16.539321   18.694542   16.030996
  N     17.507356   19.201032   18.192569
  C     18.381815   19.121025   19.244562
  S     18.646121   20.400994   20.257975
  N     19.025984   17.921189   19.413559
  C     18.711774   16.686722   18.668994
  C     17.969676   15.694409   19.561562
  C     18.403324   14.358963   19.653958
  C     17.717841   13.436188   20.461559
  C     16.587082   13.850812   21.185235
  C     16.149708   15.179007   21.095035
  O     15.052004   15.580261   21.784177
  C     16.833693   16.095034   20.289780
  H     15.601114   14.904571   17.990415
  H     14.161558   14.258749   17.185514
  H     14.501629   16.001902   17.118970
  H     16.294297   13.820827   15.843992
  H     15.084535   14.776528   14.962011
  H     15.536834   18.249445   16.018634
  H     17.040095   18.421248   15.093752
  H     16.419839   19.784778   16.022954
  H     17.044262   20.089229   18.084069
  H     19.644528   17.878225   20.213295
  H     19.664778   16.229886   18.364949
  H     19.267150   14.030766   19.080475
  H     18.061248   12.404779   20.518511
  H     16.053392   13.140750   21.808149
  H     14.754396   14.828881   22.318786
  H     16.475765   17.117304   20.235484

 Total Charge           Charge          ....    0
 Multiplicity           Mult            ....    1
 Number of Electrons    NEL             ....  154
 Basis Dimension        Dim             ....  828

ORBITAL ENERGIES
----------------

  NO   OCC          E(Eh)            E(eV)
   0   2.0000     -91.889468     -2500.4395
   1   2.0000     -20.594735      -560.4112
   2   2.0000     -20.589020      -560.2557
   3   2.0000     -20.552089      -559.2508
   4   2.0000     -15.629549      -425.3017
   5   2.0000     -15.608235      -424.7217
   6   2.0000     -11.395613      -310.0904
   7   2.0000     -11.384478      -309.7874
   8   2.0000     -11.335759      -308.4617
   9   2.0000     -11.310960      -307.7869
  10   2.0000     -11.308178      -307.7112
  11   2.0000     -11.299214      -307.4673
  12   2.0000     -11.260974      -306.4267
  13   2.0000     -11.260054      -306.4016
  14   2.0000     -11.256923      -306.3164
  15   2.0000     -11.251373      -306.1654
  16   2.0000     -11.240974      -305.8824
  17   2.0000     -11.236583      -305.7630
  18   2.0000     -11.233702      -305.6846
  19   2.0000     -11.226200      -305.4804
  20   2.0000      -8.894523      -242.0323
  21   2.0000      -6.576098      -178.9447
  22   2.0000      -6.574093      -178.8902
  23   2.0000      -6.573504      -178.8741
  24   2.0000      -1.452438       -39.5228
  25   2.0000      -1.414553       -38.4920
  26   2.0000      -1.356338       -36.9078
  27   2.0000      -1.340508       -36.4771
  28   2.0000      -1.238234       -33.6941
  29   2.0000      -1.155338       -31.4383
  30   2.0000      -1.121028       -30.5047
  31   2.0000      -1.043730       -28.4013
  32   2.0000      -1.032618       -28.0990
  33   2.0000      -1.012950       -27.5638
  34   2.0000      -0.999556       -27.1993
  35   2.0000      -0.985629       -26.8203
  36   2.0000      -0.923471       -25.1289
  37   2.0000      -0.892119       -24.2758
  38   2.0000      -0.848391       -23.0859
  39   2.0000      -0.838069       -22.8050
  40   2.0000      -0.831279       -22.6203
  41   2.0000      -0.816325       -22.2133
  42   2.0000      -0.753877       -20.5140
  43   2.0000      -0.735637       -20.0177
  44   2.0000      -0.727459       -19.7952
  45   2.0000      -0.693530       -18.8719
  46   2.0000      -0.686472       -18.6799
  47   2.0000      -0.677516       -18.4362
  48   2.0000      -0.673828       -18.3358
  49   2.0000      -0.660169       -17.9641
  50   2.0000      -0.653210       -17.7747
  51   2.0000      -0.645699       -17.5704
  52   2.0000      -0.636310       -17.3149
  53   2.0000      -0.607590       -16.5334
  54   2.0000      -0.602218       -16.3872
  55   2.0000      -0.599661       -16.3176
  56   2.0000      -0.597836       -16.2679
  57   2.0000      -0.582068       -15.8389
  58   2.0000      -0.575184       -15.6516
  59   2.0000      -0.562100       -15.2955
  60   2.0000      -0.558821       -15.2063
  61   2.0000      -0.551543       -15.0083
  62   2.0000      -0.542431       -14.7603
  63   2.0000      -0.525581       -14.3018
  64   2.0000      -0.520187       -14.1550
  65   2.0000      -0.512116       -13.9354
  66   2.0000      -0.499173       -13.5832
  67   2.0000      -0.493952       -13.4411
  68   2.0000      -0.481043       -13.0898
  69   2.0000      -0.463719       -12.6184
  70   2.0000      -0.459825       -12.5125
  71   2.0000      -0.449707       -12.2372
  72   2.0000      -0.355309        -9.6684
  73   2.0000      -0.346794        -9.4367
  74   2.0000      -0.328613        -8.9420
  75   2.0000      -0.318842        -8.6761
  76   2.0000      -0.316237        -8.6053
  77   0.0000       0.071071         1.9339
  78   0.0000       0.108261         2.9459
  79   0.0000       0.119785         3.2595
  80   0.0000       0.133260         3.6262
  81   0.0000       0.138756         3.7757

MULLIKEN ATOMIC CHARGES
-----------------------
   0 C :   -0.310532
   1 C :    0.034437
   2 O :   -0.372205
   3 C :    0.459122
   4 O :   -0.410324
   5 C :   -0.183683
   6 C :    0.138634
   7 C :   -0.283211
   8 N :   -0.122848
   9 C :    0.194238
  10 S :   -0.436848
  11 N :   -0.199084
  12 C :    0.048229
  13 C :    0.030790
  14 C :   -0.161843
  15 C :   -0.140169
  16 C :   -0.274489
  17 C :    0.313253
  18 O :   -0.360307
  19 C :   -0.269446
  20 H :    0.120832
  21 H :    0.108296
  22 H :    0.093323
  23 H :    0.113754
  24 H :    0.106728
  25 H :    0.123013
  26 H :    0.127185
  27 H :    0.104038
  28 H :    0.197340
  29 H :    0.193609
  30 H :    0.156750
  31 H :    0.161225
  32 H :    0.160896
  33 H :    0.130652
  34 H :    0.240499
  35 H :    0.168147
Sum of atomic charges:    0.0000000

LOEWDIN ATOMIC CHARGES
----------------------
   0 C :    0.105438
   1 C :   -0.018290
   2 O :    0.293237
   3 C :   -0.415013
   4 O :    0.118860
   5 C :   -0.093329
   6 C :   -0.069010
   7 C :    0.125879
   8 N :    0.405195
   9 C :   -0.459281
  10 S :   -0.034740
  11 N :    0.397445
  12 C :   -0.045369
  13 C :   -0.041871
  14 C :    0.020623
  15 C :    0.040967
  16 C :   -0.002444
  17 C :   -0.194282
  18 O :    0.394352
  19 C :    0.029021
  20 H :   -0.024691
  21 H :   -0.024960
  22 H :   -0.030646
  23 H :   -0.026455
  24 H :   -0.025291
  25 H :   -0.012080
  26 H :   -0.007216
  27 H :   -0.020094
  28 H :   -0.058790
  29 H :   -0.064003
  30 H :   -0.003753
  31 H :   -0.024137
  32 H :   -0.020353
  33 H :   -0.035730
  34 H :   -0.154293
  35 H :   -0.024898

  Mayer bond orders larger than 0.100000
B(  0-C ,  1-C ) :   0.9622 B(  0-C , 20-H ) :   0.9672 B(  0-C , 21-H ) :   0.9787
B(  0-C , 22-H ) :   0.9769 B(  1-C ,  2-O ) :   0.8906 B(  1-C , 23-H ) :   0.9776
B(  1-C , 24-H ) :   0.9847 B(  2-O ,  3-C ) :   1.1030 B(  3-C ,  4-O ) :   2.0060
B(  3-C ,  5-C ) :   1.0371 B(  5-C ,  6-C ) :   1.6625 B(  5-C , 12-C ) :   0.9604
B(  6-C ,  7-C ) :   0.9547 B(  6-C ,  8-N ) :   1.1384 B(  7-C , 25-H ) :   0.9636
B(  7-C , 26-H ) :   0.9678 B(  7-C , 27-H ) :   0.9896 B(  8-N ,  9-C ) :   1.1803
B(  8-N , 28-H ) :   0.9493 B(  9-C , 10-S ) :   1.6146 B(  9-C , 11-N ) :   1.3001
B( 11-N , 12-C ) :   0.9884 B( 11-N , 29-H ) :   0.9522 B( 12-C , 13-C ) :   0.9453
B( 12-C , 30-H ) :   0.9989 B( 13-C , 14-C ) :   1.3834 B( 13-C , 19-C ) :   1.3628
B( 14-C , 15-C ) :   1.3950 B( 14-C , 31-H ) :   0.9611 B( 15-C , 16-C ) :   1.3627
B( 15-C , 32-H ) :   0.9713 B( 16-C , 17-C ) :   1.3308 B( 16-C , 33-H ) :   0.9850
B( 17-C , 18-O ) :   1.1098 B( 17-C , 19-C ) :   1.3749 B( 18-O , 34-H ) :   0.9802
B( 19-C , 35-H ) :   0.9592

MP2 TOTAL ENERGY:    -1274.333754346 Eh
FINAL SINGLE POINT ENERGY     -1274.333754345977

DIPOLE MOMENT
-------------
                                X             Y             Z
Electronic contribution:     10.21384       8.44377       6.61877
Nuclear contribution   :    -11.55757      -9.72479      -7.40774
                        -----------------------------------------
Total Dipole Moment    :     -1.34373      -1.28102      -0.78897
                        -----------------------------------------
Magnitude (a.u.)       :      2.01720
Magnitude (Debye)      :      5.12731

Rotational constants in cm-1:     0.011517     0.009645     0.006716
Rotational constants in MHz :   345.261338   289.136840   201.353844

                             ****ORCA TERMINATED NORMALLY****
TOTAL RUN TIME: 0 days 1 hours 53 minutes 39 seconds 516 msec
