                         Program Version 5.0.0 -  RELEASE  -
|  1> ! ri-mp2 cc-pvtz cc-pvtz/c TightSCF NoKeepInts
|  2>
|  3> %scf
|  4>   MaxCore 4096
|  5> end
|  6> *xyz  0  1
|  7>     C       15.1474467   14.3269792   17.2603885
|  8>     C       15.4043588   15.6589181   16.5320640
|  9>     O       16.6484919   15.5441516   15.8105215
| 10>     C       17.8456101   15.6870768   16.4582946
| 11>     O       18.6352354   14.7616521   16.5077014
| 12>     C       17.9735716   16.8886995   17.3448820
| 13>     C       17.5173072   18.1205960   17.0093198
| 14>     C       16.8591089   18.5335330   15.7090915
| 15>     N       17.7153670   19.1962378   17.8788943
| 16>     C       18.4597577   19.1449865   19.0283012
| 17>     S       18.7111629   20.4871517   19.9607560
| 18>     N       18.9834043   17.9222759   19.3679102
| 19>     C       18.7077708   16.6536874   18.6659094
| 20>     C       17.9123903   15.7039096   19.5552808
| 21>     C       18.3459201   14.3795672   19.7482082
| 22>     C       17.6043240   13.4928607   20.5466667
| 23>     C       16.4162919   13.9323108   21.1551934
| 24>     C       15.9783161   15.2491620   20.9608781
| 25>     O       14.8241466   15.6729339   21.5342368
| 26>     C       16.7190744   16.1301771   20.1668615
| 27>     H       15.9440098   14.1122785   17.9829152
| 28>     H       15.1054273   13.4973898   16.5435652
| 29>     H       14.1955790   14.3612137   17.8038670
| 30>     H       14.5879912   15.8342519   15.8196298
| 31>     H       15.4097906   16.4856031   17.2528287
| 32>     H       17.1887685   17.9044359   14.8725709
| 33>     H       17.1120900   19.5661753   15.4375249
| 34>     H       15.7671845   18.4633282   15.7762941
| 35>     H       17.3487736   20.1050070   17.6428531
| 36>     H       19.5076380   17.9086455   20.2336944
| 37>     H       19.6738977   16.1820133   18.4331758
| 38>     H       19.2528883   14.0306038   19.2594434
| 39>     H       17.9476364   12.4687027   20.6829678
| 40>     H       15.8385033   13.2487520   21.7685272
| 41>     H       14.4948100   14.9509699   22.0909595
| 42>     H       16.3629550   17.1457628   20.0318231
| 43> *
| 44>
| 45>                          ****END OF INPUT****

CARTESIAN COORDINATES (ANGSTROEM)
---------------------------------
  C     15.147447   14.326979   17.260389
  C     15.404359   15.658918   16.532064
  O     16.648492   15.544152   15.810521
  C     17.845610   15.687077   16.458295
  O     18.635235   14.761652   16.507701
  C     17.973572   16.888700   17.344882
  C     17.517307   18.120596   17.009320
  C     16.859109   18.533533   15.709091
  N     17.715367   19.196238   17.878894
  C     18.459758   19.144987   19.028301
  S     18.711163   20.487152   19.960756
  N     18.983404   17.922276   19.367910
  C     18.707771   16.653687   18.665909
  C     17.912390   15.703910   19.555281
  C     18.345920   14.379567   19.748208
  C     17.604324   13.492861   20.546667
  C     16.416292   13.932311   21.155193
  C     15.978316   15.249162   20.960878
  O     14.824147   15.672934   21.534237
  C     16.719074   16.130177   20.166861
  H     15.944010   14.112278   17.982915
  H     15.105427   13.497390   16.543565
  H     14.195579   14.361214   17.803867
  H     14.587991   15.834252   15.819630
  H     15.409791   16.485603   17.252829
  H     17.188768   17.904436   14.872571
  H     17.112090   19.566175   15.437525
  H     15.767184   18.463328   15.776294
  H     17.348774   20.105007   17.642853
  H     19.507638   17.908645   20.233694
  H     19.673898   16.182013   18.433176
  H     19.252888   14.030604   19.259443
  H     17.947636   12.468703   20.682968
  H     15.838503   13.248752   21.768527
  H     14.494810   14.950970   22.090960
  H     16.362955   17.145763   20.031823

 Total Charge           Charge          ....    0
 Multiplicity           Mult            ....    1
 Number of Electrons    NEL             ....  154
 Basis Dimension        Dim             ....  828

ORBITAL ENERGIES
----------------

  NO   OCC          E(Eh)            E(eV)
   0   2.0000     -91.891177     -2500.4860
   1   2.0000     -20.599611      -560.5439
   2   2.0000     -20.592065      -560.3386
   3   2.0000     -20.552227      -559.2545
   4   2.0000     -15.630538      -425.3286
   5   2.0000     -15.611130      -424.8005
   6   2.0000     -11.395852      -310.0969
   7   2.0000     -11.387153      -309.8602
   8   2.0000     -11.336001      -308.4683
   9   2.0000     -11.316075      -307.9261
  10   2.0000     -11.311591      -307.8041
  11   2.0000     -11.304572      -307.6130
  12   2.0000     -11.265802      -306.5580
  13   2.0000     -11.263375      -306.4920
  14   2.0000     -11.261701      -306.4465
  15   2.0000     -11.256051      -306.2927
  16   2.0000     -11.245561      -306.0073
  17   2.0000     -11.241757      -305.9038
  18   2.0000     -11.238624      -305.8185
  19   2.0000     -11.223556      -305.4085
  20   2.0000      -8.896256      -242.0794
  21   2.0000      -6.577834      -178.9920
  22   2.0000      -6.575821      -178.9372
  23   2.0000      -6.575236      -178.9213
  24   2.0000      -1.448117       -39.4053
  25   2.0000      -1.419359       -38.6227
  26   2.0000      -1.358870       -36.9767
  27   2.0000      -1.342350       -36.5272
  28   2.0000      -1.240838       -33.7649
  29   2.0000      -1.160610       -31.5818
  30   2.0000      -1.124805       -30.6075
  31   2.0000      -1.047847       -28.5134
  32   2.0000      -1.033098       -28.1120
  33   2.0000      -1.017909       -27.6987
  34   2.0000      -1.004475       -27.3332
  35   2.0000      -0.989129       -26.9156
  36   2.0000      -0.927357       -25.2347
  37   2.0000      -0.886368       -24.1193
  38   2.0000      -0.854591       -23.2546
  39   2.0000      -0.842270       -22.9193
  40   2.0000      -0.836316       -22.7573
  41   2.0000      -0.832963       -22.6661
  42   2.0000      -0.748462       -20.3667
  43   2.0000      -0.737716       -20.0743
  44   2.0000      -0.730814       -19.8865
  45   2.0000      -0.697698       -18.9853
  46   2.0000      -0.687858       -18.7176
  47   2.0000      -0.680065       -18.5055
  48   2.0000      -0.677264       -18.4293
  49   2.0000      -0.662729       -18.0338
  50   2.0000      -0.655144       -17.8274
  51   2.0000      -0.649171       -17.6649
  52   2.0000      -0.640158       -17.4196
  53   2.0000      -0.613640       -16.6980
  54   2.0000      -0.608851       -16.5677
  55   2.0000      -0.605528       -16.4772
  56   2.0000      -0.600733       -16.3468
  57   2.0000      -0.582578       -15.8527
  58   2.0000      -0.577428       -15.7126
  59   2.0000      -0.569326       -15.4921
  60   2.0000      -0.558562       -15.1992
  61   2.0000      -0.554877       -15.0990
  62   2.0000      -0.542770       -14.7695
  63   2.0000      -0.528468       -14.3803
  64   2.0000      -0.520595       -14.1661
  65   2.0000      -0.513510       -13.9733
  66   2.0000      -0.502347       -13.6696
  67   2.0000      -0.494923       -13.4675
  68   2.0000      -0.487309       -13.2604
  69   2.0000      -0.469748       -12.7825
  70   2.0000      -0.459044       -12.4912
  71   2.0000      -0.447635       -12.1808
  72   2.0000      -0.357963        -9.7407
  73   2.0000      -0.352070        -9.5803
  74   2.0000      -0.330584        -8.9956
  75   2.0000      -0.323746        -8.8096
  76   2.0000      -0.319171        -8.6851
  77   0.0000       0.073580         2.0022
  78   0.0000       0.102880         2.7995
  79   0.0000       0.116833         3.1792
  80   0.0000       0.128107         3.4860
  81   0.0000       0.136723         3.7204

MULLIKEN ATOMIC CHARGES
-----------------------
   0 C :   -0.275653
   1 C :    0.004093
   2 O :   -0.348536
   3 C :    0.436897
   4 O :   -0.384196
   5 C :   -0.229621
   6 C :    0.154514
   7 C :   -0.305959
   8 N :   -0.129471
   9 C :    0.200914
  10 S :   -0.437852
  11 N :   -0.203339
  12 C :    0.062282
  13 C :    0.019447
  14 C :   -0.169882
  15 C :   -0.131455
  16 C :   -0.275629
  17 C :    0.313358
  18 O :   -0.361086
  19 C :   -0.272619
  20 H :    0.108357
  21 H :    0.111373
  22 H :    0.092867
  23 H :    0.120808
  24 H :    0.095761
  25 H :    0.139593
  26 H :    0.120029
  27 H :    0.120511
  28 H :    0.197692
  29 H :    0.195607
  30 H :    0.159318
  31 H :    0.161976
  32 H :    0.162710
  33 H :    0.132009
  34 H :    0.241900
  35 H :    0.173286
Sum of atomic charges:    0.0000000

LOEWDIN ATOMIC CHARGES
----------------------
   0 C :    0.109409
   1 C :   -0.024577
   2 O :    0.295248
   3 C :   -0.418313
   4 O :    0.127665
   5 C :   -0.091588
   6 C :   -0.084084
   7 C :    0.128172
   8 N :    0.403493
   9 C :   -0.457752
  10 S :   -0.034757
  11 N :    0.397395
  12 C :   -0.045934
  13 C :   -0.044533
  14 C :    0.021792
  15 C :    0.043825
  16 C :   -0.000145
  17 C :   -0.192959
  18 O :    0.394418
  19 C :    0.027897
  20 H :   -0.024153
  21 H :   -0.023730
  22 H :   -0.026859
  23 H :   -0.024975
  24 H :   -0.040191
  25 H :   -0.006019
  26 H :   -0.014691
  27 H :   -0.014856
  28 H :   -0.057716
  29 H :   -0.063381
  30 H :   -0.003482
  31 H :   -0.022772
  32 H :   -0.019036
  33 H :   -0.034771
  34 H :   -0.152945
  35 H :   -0.025096

  Mayer bond orders larger than 0.100000
B(  0-C ,  1-C ) :   0.9818 B(  0-C , 20-H ) :   0.9681 B(  0-C , 21-H ) :   0.9793
B(  0-C , 22-H ) :   0.9756 B(  1-C ,  2-O ) :   0.8943 B(  1-C , 23-H ) :   0.9797
B(  1-C , 24-H ) :   0.9633 B(  2-O ,  3-C ) :   1.1423 B(  3-C ,  4-O ) :   2.0801
B(  3-C ,  5-C ) :   0.9545 B(  5-C ,  6-C ) :   1.6692 B(  5-C , 12-C ) :   0.9625
B(  6-C ,  7-C ) :   0.9463 B(  6-C ,  8-N ) :   1.1339 B(  7-C , 25-H ) :   0.9712
B(  7-C , 26-H ) :   0.9827 B(  7-C , 27-H ) :   0.9634 B(  8-N ,  9-C ) :   1.1856
B(  8-N , 28-H ) :   0.9501 B(  9-C , 10-S ) :   1.6135 B(  9-C , 11-N ) :   1.2963
B( 11-N , 12-C ) :   0.9977 B( 11-N , 29-H ) :   0.9512 B( 12-C , 13-C ) :   0.9413
B( 12-C , 30-H ) :   0.9975 B( 13-C , 14-C ) :   1.3860 B( 13-C , 19-C ) :   1.3578
B( 14-C , 15-C ) :   1.3921 B( 14-C , 31-H ) :   0.9624 B( 15-C , 16-C ) :   1.3630
B( 15-C , 32-H ) :   0.9711 B( 16-C , 17-C ) :   1.3308 B( 16-C , 33-H ) :   0.9847
B( 17-C , 18-O ) :   1.1079 B( 17-C , 19-C ) :   1.3712 B( 18-O , 34-H ) :   0.9791
B( 19-C , 35-H ) :   0.9575

MP2 TOTAL ENERGY:    -1274.336332002 Eh
FINAL SINGLE POINT ENERGY     -1274.336332002270

DIPOLE MOMENT
-------------
                                X             Y             Z
Electronic contribution:      9.93622       8.38062       5.53794
Nuclear contribution   :    -11.41623      -9.26006      -5.87216
                        -----------------------------------------
Total Dipole Moment    :     -1.48001      -0.87945      -0.33422
                        -----------------------------------------
Magnitude (a.u.)       :      1.75372
Magnitude (Debye)      :      4.45761

Rotational constants in cm-1:     0.012356     0.009304     0.006854
Rotational constants in MHz :   370.424713   278.929527   205.462851

                             ****ORCA TERMINATED NORMALLY****
TOTAL RUN TIME: 0 days 1 hours 38 minutes 31 seconds 689 msec
