                         Program Version 4.2.0 -  RELEASE  -
|  1> ! ri-mp2 cc-pvtz cc-pvtz/c TightSCF  NoKeepInts
|  2>
|  3> %scf
|  4>   MaxCore 4096
|  5> end
|  6> *xyz  0  1
|  7>     C       14.5024285   14.5178110   16.3883274
|  8>     C       15.6017726   15.4472894   16.9267092
|  9>     O       16.8364140   15.0481493   16.3009848
| 10>     C       18.0579656   15.5819176   16.6271489
| 11>     O       19.0535454   14.8836655   16.5787433
| 12>     C       18.0403375   16.8386383   17.4355305
| 13>     C       17.5269233   18.0011123   16.9695374
| 14>     C       16.9361961   18.2556964   15.5985835
| 15>     N       17.6047754   19.1571410   17.7490278
| 16>     C       18.2741643   19.2492417   18.9418498
| 17>     S       18.3735390   20.6748919   19.7732865
| 18>     N       18.8561594   18.0979480   19.4137565
| 19>     C       18.7283593   16.7619523   18.7975504
| 20>     C       17.9883961   15.7910154   19.7127398
| 21>     C       18.4328175   14.4618880   19.8355592
| 22>     C       17.7436975   13.5481188   20.6499634
| 23>     C       16.5969117   13.9648109   21.3467478
| 24>     C       16.1465369   15.2857572   21.2224529
| 25>     O       15.0308917   15.6877597   21.8812152
| 26>     C       16.8337351   16.1934545   20.4101746
| 27>     H       14.7380712   13.4706981   16.6172110
| 28>     H       14.4065567   14.6200219   15.3002016
| 29>     H       13.5347244   14.7592690   16.8445682
| 30>     H       15.3389954   16.4847824   16.6976233
| 31>     H       15.6719846   15.3305242   18.0161177
| 32>     H       16.9742878   17.3700351   14.9526108
| 33>     H       17.4917162   19.0472484   15.0793608
| 34>     H       15.8882688   18.5720470   15.6695868
| 35>     H       17.2021061   20.0175025   17.4114214
| 36>     H       19.3280675   18.1923585   20.3043984
| 37>     H       19.7440073   16.3708247   18.6361520
| 38>     H       19.3092579   14.1309732   19.2818317
| 39>     H       18.0963100   12.5212510   20.7319626
| 40>     H       16.0601839   13.2606826   21.9740540
| 41>     H       14.7343047   14.9459479   22.4302370
| 42>     H       16.4625905   17.2095743   20.3267739
| 43> *
| 44>
| 45>                          ****END OF INPUT****

CARTESIAN COORDINATES (ANGSTROEM)
---------------------------------
  C     14.502429   14.517811   16.388327
  C     15.601773   15.447289   16.926709
  O     16.836414   15.048149   16.300985
  C     18.057966   15.581918   16.627149
  O     19.053545   14.883665   16.578743
  C     18.040337   16.838638   17.435530
  C     17.526923   18.001112   16.969537
  C     16.936196   18.255696   15.598584
  N     17.604775   19.157141   17.749028
  C     18.274164   19.249242   18.941850
  S     18.373539   20.674892   19.773287
  N     18.856159   18.097948   19.413756
  C     18.728359   16.761952   18.797550
  C     17.988396   15.791015   19.712740
  C     18.432817   14.461888   19.835559
  C     17.743697   13.548119   20.649963
  C     16.596912   13.964811   21.346748
  C     16.146537   15.285757   21.222453
  O     15.030892   15.687760   21.881215
  C     16.833735   16.193455   20.410175
  H     14.738071   13.470698   16.617211
  H     14.406557   14.620022   15.300202
  H     13.534724   14.759269   16.844568
  H     15.338995   16.484782   16.697623
  H     15.671985   15.330524   18.016118
  H     16.974288   17.370035   14.952611
  H     17.491716   19.047248   15.079361
  H     15.888269   18.572047   15.669587
  H     17.202106   20.017502   17.411421
  H     19.328067   18.192359   20.304398
  H     19.744007   16.370825   18.636152
  H     19.309258   14.130973   19.281832
  H     18.096310   12.521251   20.731963
  H     16.060184   13.260683   21.974054
  H     14.734305   14.945948   22.430237
  H     16.462591   17.209574   20.326774

 Total Charge           Charge          ....    0
 Multiplicity           Mult            ....    1
 Number of Electrons    NEL             ....  154
 Basis Dimension        Dim             ....  828

ORBITAL ENERGIES
----------------

  NO   OCC          E(Eh)            E(eV)
   0   2.0000     -91.890520     -2500.4682
   1   2.0000     -20.600079      -560.5566
   2   2.0000     -20.599497      -560.5408
   3   2.0000     -20.550874      -559.2177
   4   2.0000     -15.627793      -425.2539
   5   2.0000     -15.611820      -424.8192
   6   2.0000     -11.397454      -310.1405
   7   2.0000     -11.387228      -309.8622
   8   2.0000     -11.331153      -308.3364
   9   2.0000     -11.317043      -307.9524
  10   2.0000     -11.314705      -307.8888
  11   2.0000     -11.302535      -307.5576
  12   2.0000     -11.269493      -306.6585
  13   2.0000     -11.264931      -306.5344
  14   2.0000     -11.263761      -306.5025
  15   2.0000     -11.257146      -306.3225
  16   2.0000     -11.246393      -306.0299
  17   2.0000     -11.242302      -305.9186
  18   2.0000     -11.239374      -305.8389
  19   2.0000     -11.232891      -305.6625
  20   2.0000      -8.895629      -242.0624
  21   2.0000      -6.577215      -178.9751
  22   2.0000      -6.575191      -178.9200
  23   2.0000      -6.574614      -178.9043
  24   2.0000      -1.448487       -39.4153
  25   2.0000      -1.419911       -38.6377
  26   2.0000      -1.360023       -37.0081
  27   2.0000      -1.340933       -36.4886
  28   2.0000      -1.240463       -33.7547
  29   2.0000      -1.161668       -31.6106
  30   2.0000      -1.125908       -30.6375
  31   2.0000      -1.049305       -28.5530
  32   2.0000      -1.039977       -28.2992
  33   2.0000      -1.019264       -27.7356
  34   2.0000      -1.005553       -27.3625
  35   2.0000      -0.989704       -26.9312
  36   2.0000      -0.928199       -25.2576
  37   2.0000      -0.879704       -23.9380
  38   2.0000      -0.856133       -23.2966
  39   2.0000      -0.842690       -22.9308
  40   2.0000      -0.837608       -22.7925
  41   2.0000      -0.836638       -22.7661
  42   2.0000      -0.757191       -20.6042
  43   2.0000      -0.740109       -20.1394
  44   2.0000      -0.732218       -19.9247
  45   2.0000      -0.697652       -18.9841
  46   2.0000      -0.688496       -18.7349
  47   2.0000      -0.681985       -18.5578
  48   2.0000      -0.677279       -18.4297
  49   2.0000      -0.664170       -18.0730
  50   2.0000      -0.655070       -17.8253
  51   2.0000      -0.650990       -17.7143
  52   2.0000      -0.640315       -17.4239
  53   2.0000      -0.612085       -16.6557
  54   2.0000      -0.608034       -16.5454
  55   2.0000      -0.603998       -16.4356
  56   2.0000      -0.596405       -16.2290
  57   2.0000      -0.586426       -15.9575
  58   2.0000      -0.578249       -15.7350
  59   2.0000      -0.569372       -15.4934
  60   2.0000      -0.563318       -15.3287
  61   2.0000      -0.557775       -15.1778
  62   2.0000      -0.550400       -14.9771
  63   2.0000      -0.526474       -14.3261
  64   2.0000      -0.521413       -14.1884
  65   2.0000      -0.515910       -14.0386
  66   2.0000      -0.503668       -13.7055
  67   2.0000      -0.502699       -13.6791
  68   2.0000      -0.489763       -13.3271
  69   2.0000      -0.469529       -12.7765
  70   2.0000      -0.455749       -12.4016
  71   2.0000      -0.450677       -12.2635
  72   2.0000      -0.357984        -9.7412
  73   2.0000      -0.351926        -9.5764
  74   2.0000      -0.330141        -8.9836
  75   2.0000      -0.325022        -8.8443
  76   2.0000      -0.319117        -8.6836
  77   0.0000       0.083293         2.2665
  78   0.0000       0.104587         2.8460
  79   0.0000       0.113428         3.0865
  80   0.0000       0.128630         3.5002
  81   0.0000       0.130859         3.5609

MULLIKEN ATOMIC CHARGES
-----------------------
   0 C :   -0.260679
   1 C :    0.019231
   2 O :   -0.310870
   3 C :    0.399121
   4 O :   -0.381225
   5 C :   -0.185865
   6 C :    0.132411
   7 C :   -0.323901
   8 N :   -0.135969
   9 C :    0.202191
  10 S :   -0.439933
  11 N :   -0.215234
  12 C :    0.073452
  13 C :    0.020124
  14 C :   -0.195537
  15 C :   -0.132972
  16 C :   -0.274764
  17 C :    0.323857
  18 O :   -0.358637
  19 C :   -0.284656
  20 H :    0.107562
  21 H :    0.098419
  22 H :    0.089711
  23 H :    0.084053
  24 H :    0.117236
  25 H :    0.128507
  26 H :    0.141444
  27 H :    0.118252
  28 H :    0.195960
  29 H :    0.198767
  30 H :    0.164730
  31 H :    0.170564
  32 H :    0.164205
  33 H :    0.132818
  34 H :    0.241574
  35 H :    0.176052
Sum of atomic charges:   -0.0000000

LOEWDIN ATOMIC CHARGES
----------------------
   0 C :    0.112041
   1 C :   -0.024363
   2 O :    0.303514
   3 C :   -0.415265
   4 O :    0.124739
   5 C :   -0.082566
   6 C :   -0.099823
   7 C :    0.123460
   8 N :    0.401988
   9 C :   -0.456313
  10 S :   -0.036899
  11 N :    0.397261
  12 C :   -0.044185
  13 C :   -0.044633
  14 C :    0.021672
  15 C :    0.045483
  16 C :   -0.000348
  17 C :   -0.194801
  18 O :    0.394874
  19 C :    0.026417
  20 H :   -0.022460
  21 H :   -0.026994
  22 H :   -0.024862
  23 H :   -0.038681
  24 H :   -0.029008
  25 H :   -0.008075
  26 H :   -0.009359
  27 H :   -0.018025
  28 H :   -0.057297
  29 H :   -0.063640
  30 H :   -0.002317
  31 H :   -0.021603
  32 H :   -0.018265
  33 H :   -0.034519
  34 H :   -0.152872
  35 H :   -0.024275

  Mayer bond orders larger than 0.100000
B(  0-C ,  1-C ) :   0.9852 B(  0-C , 20-H ) :   0.9785 B(  0-C , 21-H ) :   0.9790
B(  0-C , 22-H ) :   0.9769 B(  1-C ,  2-O ) :   0.9074 B(  1-C , 23-H ) :   0.9682
B(  1-C , 24-H ) :   0.9657 B(  2-O ,  3-C ) :   1.1887 B(  3-C ,  4-O ) :   2.0953
B(  3-C ,  5-C ) :   0.9229 B(  5-C ,  6-C ) :   1.6835 B(  5-C , 12-C ) :   0.9591
B(  6-C ,  7-C ) :   0.9422 B(  6-C ,  8-N ) :   1.1198 B(  7-C , 25-H ) :   0.9797
B(  7-C , 26-H ) :   0.9678 B(  7-C , 27-H ) :   0.9671 B(  8-N ,  9-C ) :   1.1940
B(  8-N , 28-H ) :   0.9522 B(  9-C , 10-S ) :   1.6118 B(  9-C , 11-N ) :   1.2890
B( 11-N , 12-C ) :   0.9953 B( 11-N , 29-H ) :   0.9490 B( 12-C , 13-C ) :   0.9416
B( 12-C , 30-H ) :   0.9974 B( 13-C , 14-C ) :   1.3881 B( 13-C , 19-C ) :   1.3471
B( 14-C , 15-C ) :   1.3966 B( 14-C , 31-H ) :   0.9598 B( 15-C , 16-C ) :   1.3639
B( 15-C , 32-H ) :   0.9698 B( 16-C , 17-C ) :   1.3291 B( 16-C , 33-H ) :   0.9843
B( 17-C , 18-O ) :   1.1092 B( 17-C , 19-C ) :   1.3642 B( 18-O , 34-H ) :   0.9791
B( 19-C , 35-H ) :   0.9592

MP2 TOTAL ENERGY:    -1274.334738565 Eh
FINAL SINGLE POINT ENERGY     -1274.334738564939

DIPOLE MOMENT
-------------
                                X             Y             Z
Electronic contribution:     10.81897       8.31566       7.53383
Nuclear contribution   :    -12.32780      -9.34594      -7.88155
                        -----------------------------------------
Total Dipole Moment    :     -1.50883      -1.03028      -0.34772
                        -----------------------------------------
Magnitude (a.u.)       :      1.85983
Magnitude (Debye)      :      4.72731

Rotational constants in cm-1:     0.011563     0.009146     0.006708
Rotational constants in MHz :   346.653044   274.201560   201.091912

                             ****ORCA TERMINATED NORMALLY****
TOTAL RUN TIME: 0 days 1 hours 48 minutes 43 seconds 390 msec
