                         Program Version 4.2.0 -  RELEASE  -
|  1> ! ri-mp2 cc-pvtz cc-pvtz/c TightSCF  NoKeepInts
|  2>
|  3> %scf
|  4>   MaxCore 4096
|  5> end
|  6> *xyz  0  1
|  7>     C       15.3096789   13.8666249   15.3138473
|  8>     C       15.6834895   14.2829344   16.7489253
|  9>     O       16.8040232   15.1831655   16.6905726
| 10>     C       16.5772808   16.5291694   16.6164851
| 11>     O       15.5896220   16.9886854   16.0688526
| 12>     C       17.4748778   17.3156694   17.5323650
| 13>     C       17.4144075   18.6687166   17.6226059
| 14>     C       16.4900566   19.5975606   16.8646434
| 15>     N       18.2983590   19.3560964   18.4597168
| 16>     C       19.3340473   18.7815050   19.1468249
| 17>     S       20.3971989   19.6803870   20.0398968
| 18>     N       19.4489185   17.4180748   19.0531085
| 19>     C       18.4792360   16.5273069   18.3901094
| 20>     C       17.7829122   15.6595896   19.4350794
| 21>     C       18.0493418   14.2792160   19.5065945
| 22>     C       17.4044853   13.4749815   20.4612938
| 23>     C       16.4883230   14.0559550   21.3546096
| 24>     C       16.2253035   15.4312200   21.2903420
| 25>     O       15.3424560   15.9953244   22.1524239
| 26>     C       16.8677131   16.2287535   20.3383521
| 27>     H       14.9753684   14.7332112   14.7296639
| 28>     H       14.4954853   13.1321804   15.3272131
| 29>     H       16.1705374   13.4170257   14.8039745
| 30>     H       14.8271300   14.7479104   17.2567958
| 31>     H       15.9693998   13.3874279   17.3154762
| 32>     H       15.4444581   19.4062661   17.1383089
| 33>     H       16.5794787   19.4348903   15.7830503
| 34>     H       16.6951896   20.6573442   17.0559682
| 35>     H       18.2299750   20.3581357   18.5393457
| 36>     H       20.2005203   17.0198377   19.6011438
| 37>     H       19.0466434   15.8702121   17.7160069
| 38>     H       18.7541740   13.8269633   18.8138990
| 39>     H       17.6165422   12.4081665   20.5080778
| 40>     H       15.9887565   13.4394784   22.0947562
| 41>     H       15.0364868   15.2999898   22.7539011
| 42>     H       16.6551238   17.2920238   20.3097696
| 43> *
| 44>
| 45>                          ****END OF INPUT****

CARTESIAN COORDINATES (ANGSTROEM)
---------------------------------
  C     15.309679   13.866625   15.313847
  C     15.683490   14.282934   16.748925
  O     16.804023   15.183165   16.690573
  C     16.577281   16.529169   16.616485
  O     15.589622   16.988685   16.068853
  C     17.474878   17.315669   17.532365
  C     17.414407   18.668717   17.622606
  C     16.490057   19.597561   16.864643
  N     18.298359   19.356096   18.459717
  C     19.334047   18.781505   19.146825
  S     20.397199   19.680387   20.039897
  N     19.448918   17.418075   19.053108
  C     18.479236   16.527307   18.390109
  C     17.782912   15.659590   19.435079
  C     18.049342   14.279216   19.506594
  C     17.404485   13.474982   20.461294
  C     16.488323   14.055955   21.354610
  C     16.225303   15.431220   21.290342
  O     15.342456   15.995324   22.152424
  C     16.867713   16.228753   20.338352
  H     14.975368   14.733211   14.729664
  H     14.495485   13.132180   15.327213
  H     16.170537   13.417026   14.803974
  H     14.827130   14.747910   17.256796
  H     15.969400   13.387428   17.315476
  H     15.444458   19.406266   17.138309
  H     16.579479   19.434890   15.783050
  H     16.695190   20.657344   17.055968
  H     18.229975   20.358136   18.539346
  H     20.200520   17.019838   19.601144
  H     19.046643   15.870212   17.716007
  H     18.754174   13.826963   18.813899
  H     17.616542   12.408166   20.508078
  H     15.988756   13.439478   22.094756
  H     15.036487   15.299990   22.753901
  H     16.655124   17.292024   20.309770

 Total Charge           Charge          ....    0
 Multiplicity           Mult            ....    1
 Number of Electrons    NEL             ....  154
 Basis Dimension        Dim             ....  828

ORBITAL ENERGIES
----------------

  NO   OCC          E(Eh)            E(eV)
   0   2.0000     -91.889269     -2500.4341
   1   2.0000     -20.597748      -560.4932
   2   2.0000     -20.594739      -560.4113
   3   2.0000     -20.544570      -559.0462
   4   2.0000     -15.629530      -425.3011
   5   2.0000     -15.608653      -424.7331
   6   2.0000     -11.395374      -310.0839
   7   2.0000     -11.384387      -309.7849
   8   2.0000     -11.336151      -308.4723
   9   2.0000     -11.315107      -307.8997
  10   2.0000     -11.309718      -307.7531
  11   2.0000     -11.296346      -307.3892
  12   2.0000     -11.260871      -306.4239
  13   2.0000     -11.259136      -306.3767
  14   2.0000     -11.256581      -306.3071
  15   2.0000     -11.252711      -306.2018
  16   2.0000     -11.244170      -305.9694
  17   2.0000     -11.239473      -305.8416
  18   2.0000     -11.239216      -305.8346
  19   2.0000     -11.219715      -305.3040
  20   2.0000      -8.894329      -242.0270
  21   2.0000      -6.575902      -178.9394
  22   2.0000      -6.573898      -178.8849
  23   2.0000      -6.573311      -178.8689
  24   2.0000      -1.450651       -39.4742
  25   2.0000      -1.417394       -38.5692
  26   2.0000      -1.354794       -36.8658
  27   2.0000      -1.340495       -36.4767
  28   2.0000      -1.239007       -33.7151
  29   2.0000      -1.158629       -31.5279
  30   2.0000      -1.120693       -30.4956
  31   2.0000      -1.043433       -28.3933
  32   2.0000      -1.034314       -28.1451
  33   2.0000      -1.016325       -27.6556
  34   2.0000      -0.995511       -27.0892
  35   2.0000      -0.984158       -26.7803
  36   2.0000      -0.923206       -25.1217
  37   2.0000      -0.888339       -24.1729
  38   2.0000      -0.847733       -23.0680
  39   2.0000      -0.838894       -22.8275
  40   2.0000      -0.835139       -22.7253
  41   2.0000      -0.821216       -22.3464
  42   2.0000      -0.757610       -20.6156
  43   2.0000      -0.732851       -19.9419
  44   2.0000      -0.723115       -19.6770
  45   2.0000      -0.696731       -18.9590
  46   2.0000      -0.689034       -18.7496
  47   2.0000      -0.680174       -18.5085
  48   2.0000      -0.671024       -18.2595
  49   2.0000      -0.654106       -17.7991
  50   2.0000      -0.647156       -17.6100
  51   2.0000      -0.645616       -17.5681
  52   2.0000      -0.631225       -17.1765
  53   2.0000      -0.608560       -16.5597
  54   2.0000      -0.607288       -16.5251
  55   2.0000      -0.599967       -16.3259
  56   2.0000      -0.599552       -16.3146
  57   2.0000      -0.580651       -15.8003
  58   2.0000      -0.573429       -15.6038
  59   2.0000      -0.570623       -15.5274
  60   2.0000      -0.564305       -15.3555
  61   2.0000      -0.539214       -14.6728
  62   2.0000      -0.535170       -14.5627
  63   2.0000      -0.525951       -14.3118
  64   2.0000      -0.518232       -14.1018
  65   2.0000      -0.513860       -13.9828
  66   2.0000      -0.501554       -13.6480
  67   2.0000      -0.497608       -13.5406
  68   2.0000      -0.487422       -13.2634
  69   2.0000      -0.464154       -12.6303
  70   2.0000      -0.454856       -12.3773
  71   2.0000      -0.445940       -12.1346
  72   2.0000      -0.354489        -9.6461
  73   2.0000      -0.350506        -9.5377
  74   2.0000      -0.328722        -8.9450
  75   2.0000      -0.322639        -8.7795
  76   2.0000      -0.316538        -8.6134
  77   0.0000       0.073858         2.0098
  78   0.0000       0.104788         2.8514
  79   0.0000       0.124801         3.3960
  80   0.0000       0.131844         3.5877
  81   0.0000       0.137566         3.7433

MULLIKEN ATOMIC CHARGES
-----------------------
   0 C :   -0.278167
   1 C :    0.042663
   2 O :   -0.366198
   3 C :    0.451475
   4 O :   -0.426349
   5 C :   -0.215853
   6 C :    0.155189
   7 C :   -0.272414
   8 N :   -0.122033
   9 C :    0.212459
  10 S :   -0.439690
  11 N :   -0.205854
  12 C :    0.063897
  13 C :    0.062661
  14 C :   -0.197365
  15 C :   -0.126617
  16 C :   -0.280889
  17 C :    0.315956
  18 O :   -0.356102
  19 C :   -0.267566
  20 H :    0.116186
  21 H :    0.090310
  22 H :    0.090113
  23 H :    0.094940
  24 H :    0.107282
  25 H :    0.132657
  26 H :    0.129641
  27 H :    0.095596
  28 H :    0.197476
  29 H :    0.194862
  30 H :    0.150106
  31 H :    0.151423
  32 H :    0.162763
  33 H :    0.130894
  34 H :    0.240958
  35 H :    0.165592
Sum of atomic charges:   -0.0000000

LOEWDIN ATOMIC CHARGES
----------------------
   0 C :    0.104634
   1 C :   -0.016087
   2 O :    0.302557
   3 C :   -0.414756
   4 O :    0.104111
   5 C :   -0.095502
   6 C :   -0.059048
   7 C :    0.131435
   8 N :    0.406646
   9 C :   -0.456218
  10 S :   -0.035141
  11 N :    0.396262
  12 C :   -0.052211
  13 C :   -0.037794
  14 C :    0.014670
  15 C :    0.038781
  16 C :   -0.002320
  17 C :   -0.189519
  18 O :    0.395527
  19 C :    0.031013
  20 H :   -0.024683
  21 H :   -0.029348
  22 H :   -0.029754
  23 H :   -0.028106
  24 H :   -0.026879
  25 H :   -0.004628
  26 H :   -0.004151
  27 H :   -0.023207
  28 H :   -0.057502
  29 H :   -0.064668
  30 H :   -0.010165
  31 H :   -0.029912
  32 H :   -0.021206
  33 H :   -0.035459
  34 H :   -0.153658
  35 H :   -0.023716

  Mayer bond orders larger than 0.100000
B(  0-C ,  1-C ) :   0.9783 B(  0-C , 20-H ) :   0.9750 B(  0-C , 21-H ) :   0.9779
B(  0-C , 22-H ) :   0.9768 B(  1-C ,  2-O ) :   0.8828 B(  1-C , 23-H ) :   0.9719
B(  1-C , 24-H ) :   0.9786 B(  2-O ,  3-C ) :   1.1338 B(  3-C ,  4-O ) :   1.9706
B(  3-C ,  5-C ) :   1.0656 B(  5-C ,  6-C ) :   1.6519 B(  5-C , 12-C ) :   0.9720
B(  6-C ,  7-C ) :   0.9669 B(  6-C ,  8-N ) :   1.1615 B(  7-C , 25-H ) :   0.9594
B(  7-C , 26-H ) :   0.9612 B(  7-C , 27-H ) :   0.9907 B(  8-N ,  9-C ) :   1.1828
B(  8-N , 28-H ) :   0.9477 B(  9-C , 10-S ) :   1.6071 B(  9-C , 11-N ) :   1.3059
B( 11-N , 12-C ) :   0.9820 B( 11-N , 29-H ) :   0.9516 B( 12-C , 13-C ) :   0.9355
B( 12-C , 30-H ) :   1.0023 B( 13-C , 14-C ) :   1.3510 B( 13-C , 19-C ) :   1.3824
B( 14-C , 15-C ) :   1.3878 B( 14-C , 31-H ) :   0.9727 B( 15-C , 16-C ) :   1.3638
B( 15-C , 32-H ) :   0.9700 B( 16-C , 17-C ) :   1.3309 B( 16-C , 33-H ) :   0.9847
B( 17-C , 18-O ) :   1.1109 B( 17-C , 19-C ) :   1.3714 B( 18-O , 34-H ) :   0.9796
B( 19-C , 35-H ) :   0.9583

MP2 TOTAL ENERGY:    -1274.342744332 Eh
FINAL SINGLE POINT ENERGY     -1274.342744332344

DIPOLE MOMENT
-------------
                                X             Y             Z
Electronic contribution:     10.36021       9.96150       8.83311
Nuclear contribution   :    -11.42927     -11.54649      -9.01925
                        -----------------------------------------
Total Dipole Moment    :     -1.06906      -1.58499      -0.18614
                        -----------------------------------------
Magnitude (a.u.)       :      1.92087
Magnitude (Debye)      :      4.88245

Rotational constants in cm-1:     0.011734     0.008661     0.006124
Rotational constants in MHz :   351.775173   259.660874   183.607783

                             ****ORCA TERMINATED NORMALLY****
TOTAL RUN TIME: 0 days 1 hours 41 minutes 5 seconds 704 msec
