                         Program Version 5.0.0 -  RELEASE  -
|  1> ! ri-mp2 cc-pvtz cc-pvtz/c TightSCF NoKeepInts
|  2>
|  3> %scf
|  4>   MaxCore 4096
|  5> end
|  6> *xyz  0  1
|  7>     C       15.0109917   15.8245986   17.3934253
|  8>     C       15.5681485   15.1839655   16.1045091
|  9>     O       16.9861300   14.8828684   16.1250452
| 10>     C       18.0925953   15.6252479   16.4749914
| 11>     O       19.1774132   15.0765361   16.4145140
| 12>     C       17.9261742   16.7799545   17.4033515
| 13>     C       17.4243726   17.9599420   16.9714648
| 14>     C       16.9101060   18.2746653   15.5819661
| 15>     N       17.4188963   19.0686512   17.8203678
| 16>     C       18.0410096   19.1160298   19.0405583
| 17>     S       18.0594072   20.4952679   19.9524760
| 18>     N       18.6529133   17.9624236   19.4659505
| 19>     C       18.5809930   16.6546321   18.7822338
| 20>     C       17.8886832   15.6005881   19.6437677
| 21>     C       18.2991174   14.2567596   19.5656256
| 22>     C       17.6714457   13.2673303   20.3401615
| 23>     C       16.6221393   13.6223182   21.2041664
| 24>     C       16.2078265   14.9582460   21.2858041
| 25>     O       15.1874481   15.3025499   22.1109668
| 26>     C       16.8338450   15.9417936   20.5131562
| 27>     H       15.4265966   15.3294451   18.2773010
| 28>     H       13.9238477   15.6836696   17.4291254
| 29>     H       15.1840013   16.8997626   17.4610047
| 30>     H       15.0311104   14.2426328   15.9288765
| 31>     H       15.3429235   15.8405824   15.2548490
| 32>     H       17.1905723   17.5078458   14.8498433
| 33>     H       17.3279212   19.2213163   15.2158152
| 34>     H       15.8173258   18.3658295   15.5748448
| 35>     H       16.9948460   19.9312673   17.5171644
| 36>     H       19.0958798   18.0237260   20.3740213
| 37>     H       19.6150797   16.3144751   18.6225860
| 38>     H       19.1049234   13.9758533   18.8902946
| 39>     H       17.9978811   12.2314411   20.2649257
| 40>     H       16.1334186   12.8606010   21.8025719
| 41>     H       14.9159352   14.5029277   22.5863950
| 42>     H       16.4850812   16.9662557   20.5898793
| 43> *
| 44>
| 45>                          ****END OF INPUT****

CARTESIAN COORDINATES (ANGSTROEM)
---------------------------------
  C     15.010992   15.824599   17.393425
  C     15.568148   15.183965   16.104509
  O     16.986130   14.882868   16.125045
  C     18.092595   15.625248   16.474991
  O     19.177413   15.076536   16.414514
  C     17.926174   16.779954   17.403351
  C     17.424373   17.959942   16.971465
  C     16.910106   18.274665   15.581966
  N     17.418896   19.068651   17.820368
  C     18.041010   19.116030   19.040558
  S     18.059407   20.495268   19.952476
  N     18.652913   17.962424   19.465950
  C     18.580993   16.654632   18.782234
  C     17.888683   15.600588   19.643768
  C     18.299117   14.256760   19.565626
  C     17.671446   13.267330   20.340162
  C     16.622139   13.622318   21.204166
  C     16.207826   14.958246   21.285804
  O     15.187448   15.302550   22.110967
  C     16.833845   15.941794   20.513156
  H     15.426597   15.329445   18.277301
  H     13.923848   15.683670   17.429125
  H     15.184001   16.899763   17.461005
  H     15.031110   14.242633   15.928876
  H     15.342923   15.840582   15.254849
  H     17.190572   17.507846   14.849843
  H     17.327921   19.221316   15.215815
  H     15.817326   18.365830   15.574845
  H     16.994846   19.931267   17.517164
  H     19.095880   18.023726   20.374021
  H     19.615080   16.314475   18.622586
  H     19.104923   13.975853   18.890295
  H     17.997881   12.231441   20.264926
  H     16.133419   12.860601   21.802572
  H     14.915935   14.502928   22.586395
  H     16.485081   16.966256   20.589879

 Total Charge           Charge          ....    0
 Multiplicity           Mult            ....    1
 Number of Electrons    NEL             ....  154
 Basis Dimension        Dim             ....  828

ORBITAL ENERGIES
----------------

  NO   OCC          E(Eh)            E(eV)
   0   2.0000     -91.889881     -2500.4508
   1   2.0000     -20.598461      -560.5126
   2   2.0000     -20.597549      -560.4878
   3   2.0000     -20.548616      -559.1563
   4   2.0000     -15.627088      -425.2347
   5   2.0000     -15.611066      -424.7987
   6   2.0000     -11.400034      -310.2107
   7   2.0000     -11.386531      -309.8433
   8   2.0000     -11.328170      -308.2552
   9   2.0000     -11.314475      -307.8825
  10   2.0000     -11.314335      -307.8787
  11   2.0000     -11.312284      -307.8229
  12   2.0000     -11.271685      -306.7181
  13   2.0000     -11.264905      -306.5336
  14   2.0000     -11.262249      -306.4614
  15   2.0000     -11.254782      -306.2582
  16   2.0000     -11.243642      -305.9551
  17   2.0000     -11.239399      -305.8396
  18   2.0000     -11.236218      -305.7530
  19   2.0000     -11.232370      -305.6483
  20   2.0000      -8.894987      -242.0449
  21   2.0000      -6.576577      -178.9578
  22   2.0000      -6.574550      -178.9026
  23   2.0000      -6.573976      -178.8870
  24   2.0000      -1.444343       -39.3026
  25   2.0000      -1.417371       -38.5686
  26   2.0000      -1.355053       -36.8729
  27   2.0000      -1.340189       -36.4684
  28   2.0000      -1.239635       -33.7322
  29   2.0000      -1.158951       -31.5367
  30   2.0000      -1.125199       -30.6182
  31   2.0000      -1.047911       -28.5151
  32   2.0000      -1.040614       -28.3165
  33   2.0000      -1.017318       -27.6826
  34   2.0000      -1.005143       -27.3513
  35   2.0000      -0.990194       -26.9445
  36   2.0000      -0.927781       -25.2462
  37   2.0000      -0.900206       -24.4958
  38   2.0000      -0.853980       -23.2380
  39   2.0000      -0.840340       -22.8668
  40   2.0000      -0.834171       -22.6989
  41   2.0000      -0.828875       -22.5548
  42   2.0000      -0.746422       -20.3112
  43   2.0000      -0.737065       -20.0565
  44   2.0000      -0.730524       -19.8786
  45   2.0000      -0.694668       -18.9029
  46   2.0000      -0.686794       -18.6886
  47   2.0000      -0.677911       -18.4469
  48   2.0000      -0.674361       -18.3503
  49   2.0000      -0.663455       -18.0535
  50   2.0000      -0.653642       -17.7865
  51   2.0000      -0.651989       -17.7415
  52   2.0000      -0.641105       -17.4454
  53   2.0000      -0.613934       -16.7060
  54   2.0000      -0.608206       -16.5501
  55   2.0000      -0.604251       -16.4425
  56   2.0000      -0.601743       -16.3743
  57   2.0000      -0.592998       -16.1363
  58   2.0000      -0.580899       -15.8071
  59   2.0000      -0.574342       -15.6286
  60   2.0000      -0.565464       -15.3871
  61   2.0000      -0.558360       -15.1937
  62   2.0000      -0.542346       -14.7580
  63   2.0000      -0.528950       -14.3934
  64   2.0000      -0.517077       -14.0704
  65   2.0000      -0.513484       -13.9726
  66   2.0000      -0.501660       -13.6509
  67   2.0000      -0.501044       -13.6341
  68   2.0000      -0.484267       -13.1776
  69   2.0000      -0.464677       -12.6445
  70   2.0000      -0.453751       -12.3472
  71   2.0000      -0.450658       -12.2630
  72   2.0000      -0.355820        -9.6824
  73   2.0000      -0.348484        -9.4827
  74   2.0000      -0.329530        -8.9670
  75   2.0000      -0.322802        -8.7839
  76   2.0000      -0.318112        -8.6563
  77   0.0000       0.086965         2.3664
  78   0.0000       0.106356         2.8941
  79   0.0000       0.112626         3.0647
  80   0.0000       0.128911         3.5079
  81   0.0000       0.131259         3.5717

MULLIKEN ATOMIC CHARGES
-----------------------
   0 C :   -0.340083
   1 C :    0.036088
   2 O :   -0.327684
   3 C :    0.403063
   4 O :   -0.379876
   5 C :   -0.171391
   6 C :    0.127582
   7 C :   -0.330134
   8 N :   -0.140154
   9 C :    0.206367
  10 S :   -0.441739
  11 N :   -0.230375
  12 C :    0.088227
  13 C :    0.018515
  14 C :   -0.211654
  15 C :   -0.136293
  16 C :   -0.275450
  17 C :    0.319946
  18 O :   -0.358165
  19 C :   -0.274228
  20 H :    0.134270
  21 H :    0.117329
  22 H :    0.105135
  23 H :    0.131203
  24 H :    0.085199
  25 H :    0.124845
  26 H :    0.138794
  27 H :    0.123495
  28 H :    0.196395
  29 H :    0.203291
  30 H :    0.168932
  31 H :    0.174296
  32 H :    0.163805
  33 H :    0.131968
  34 H :    0.240988
  35 H :    0.177492
Sum of atomic charges:   -0.0000000

LOEWDIN ATOMIC CHARGES
----------------------
   0 C :    0.105016
   1 C :   -0.016944
   2 O :    0.298683
   3 C :   -0.418291
   4 O :    0.124948
   5 C :   -0.077907
   6 C :   -0.103572
   7 C :    0.125437
   8 N :    0.401929
   9 C :   -0.456275
  10 S :   -0.038237
  11 N :    0.398436
  12 C :   -0.041486
  13 C :   -0.042339
  14 C :    0.021083
  15 C :    0.044608
  16 C :   -0.001865
  17 C :   -0.194025
  18 O :    0.395389
  19 C :    0.026690
  20 H :   -0.022039
  21 H :   -0.023110
  22 H :   -0.037744
  23 H :   -0.016129
  24 H :   -0.038069
  25 H :   -0.009335
  26 H :   -0.009325
  27 H :   -0.017674
  28 H :   -0.058407
  29 H :   -0.063742
  30 H :   -0.001664
  31 H :   -0.021553
  32 H :   -0.018499
  33 H :   -0.035114
  34 H :   -0.153583
  35 H :   -0.025293

  Mayer bond orders larger than 0.100000
B(  0-C ,  1-C ) :   0.9518 B(  0-C , 20-H ) :   0.9649 B(  0-C , 21-H ) :   0.9793
B(  0-C , 22-H ) :   0.9757 B(  1-C ,  2-O ) :   0.9150 B(  1-C , 23-H ) :   0.9800
B(  1-C , 24-H ) :   0.9769 B(  2-O ,  3-C ) :   1.1505 B(  3-C ,  4-O ) :   2.0774
B(  3-C ,  5-C ) :   0.9225 B(  5-C ,  6-C ) :   1.7077 B(  5-C , 12-C ) :   0.9552
B(  6-C ,  7-C ) :   0.9421 B(  6-C ,  8-N ) :   1.0937 B(  7-C , 25-H ) :   0.9800
B(  7-C , 26-H ) :   0.9733 B(  7-C , 27-H ) :   0.9643 B(  8-N ,  9-C ) :   1.1985
B(  8-N , 28-H ) :   0.9524 B(  9-C , 10-S ) :   1.6070 B(  9-C , 11-N ) :   1.2879
B( 11-N , 12-C ) :   0.9835 B( 11-N , 29-H ) :   0.9469 B( 12-C , 13-C ) :   0.9503
B( 12-C , 30-H ) :   0.9935 B( 13-C , 14-C ) :   1.3895 B( 13-C , 19-C ) :   1.3428
B( 14-C , 15-C ) :   1.4025 B( 14-C , 31-H ) :   0.9589 B( 15-C , 16-C ) :   1.3586
B( 15-C , 32-H ) :   0.9700 B( 16-C , 17-C ) :   1.3312 B( 16-C , 33-H ) :   0.9848
B( 17-C , 18-O ) :   1.1091 B( 17-C , 19-C ) :   1.3661 B( 18-O , 34-H ) :   0.9796
B( 19-C , 35-H ) :   0.9582

MP2 TOTAL ENERGY:    -1274.320601257 Eh
FINAL SINGLE POINT ENERGY     -1274.320601257212

DIPOLE MOMENT
-------------
                                X             Y             Z
Electronic contribution:      9.50577       5.58121       6.77360
Nuclear contribution   :    -11.12747      -6.66827      -7.51292
                        -----------------------------------------
Total Dipole Moment    :     -1.62170      -1.08707      -0.73933
                        -----------------------------------------
Magnitude (a.u.)       :      2.08764
Magnitude (Debye)      :      5.30635

Rotational constants in cm-1:     0.011713     0.009572     0.006781
Rotational constants in MHz :   351.150923   286.949046   203.285354

                             ****ORCA TERMINATED NORMALLY****
TOTAL RUN TIME: 0 days 2 hours 14 minutes 53 seconds 194 msec
