                         Program Version 4.2.0 -  RELEASE  -
|  1> ! ri-mp2 cc-pvtz cc-pvtz/c TightSCF  NoKeepInts
|  2>
|  3> %scf
|  4>   MaxCore 4096
|  5> end
|  6> *xyz  0  1
|  7>     C       14.2679851   14.8625071   15.6859408
|  8>     C       15.7674566   14.6749843   15.3996763
|  9>     O       16.4425655   15.8490667   15.8871909
| 10>     C       17.5292218   15.7257063   16.7039952
| 11>     O       18.1444645   14.6780406   16.8180203
| 12>     C       17.7938883   16.9154513   17.5837252
| 13>     C       17.2557045   18.1527699   17.4154680
| 14>     C       16.2995847   18.6210929   16.3372398
| 15>     N       17.6317520   19.1948173   18.2700470
| 16>     C       18.6345238   19.1237375   19.2004555
| 17>     S       19.1056748   20.4444677   20.0775845
| 18>     N       19.2274733   17.8982469   19.3658719
| 19>     C       18.7580050   16.6456188   18.7451426
| 20>     C       18.1157126   15.7396183   19.7926608
| 21>     C       18.5743828   14.4214421   19.9720366
| 22>     C       17.9853094   13.5820015   20.9323882
| 23>     C       16.9272671   14.0636977   21.7217550
| 24>     C       16.4647596   15.3746186   21.5439437
| 25>     O       15.4390417   15.8407382   22.3002843
| 26>     C       17.0528775   16.2076588   20.5870648
| 27>     H       14.0909181   14.9664612   16.7638804
| 28>     H       13.6972566   13.9974056   15.3269173
| 29>     H       13.8861795   15.7592893   15.1825084
| 30>     H       16.1119513   13.7629269   15.9062401
| 31>     H       15.9412421   14.5589479   14.3221092
| 32>     H       16.6859122   18.3746879   15.3403646
| 33>     H       16.1334752   19.7049239   16.3585290
| 34>     H       15.3216141   18.1367907   16.4506118
| 35>     H       17.2083955   20.1027872   18.1640459
| 36>     H       19.9423923   17.8636696   20.0811272
| 37>     H       19.6382604   16.1284972   18.3365257
| 38>     H       19.3809652   14.0407104   19.3501859
| 39>     H       18.3455618   12.5623876   21.0564400
| 40>     H       16.4681550   13.4181269   22.4629244
| 41>     H       15.1953389   15.1383220   22.9215465
| 42>     H       16.6817312   17.2197832   20.4695522
| 43> *
| 44>
| 45>                          ****END OF INPUT****

CARTESIAN COORDINATES (ANGSTROEM)
---------------------------------
  C     14.267985   14.862507   15.685941
  C     15.767457   14.674984   15.399676
  O     16.442566   15.849067   15.887191
  C     17.529222   15.725706   16.703995
  O     18.144464   14.678041   16.818020
  C     17.793888   16.915451   17.583725
  C     17.255705   18.152770   17.415468
  C     16.299585   18.621093   16.337240
  N     17.631752   19.194817   18.270047
  C     18.634524   19.123737   19.200455
  S     19.105675   20.444468   20.077585
  N     19.227473   17.898247   19.365872
  C     18.758005   16.645619   18.745143
  C     18.115713   15.739618   19.792661
  C     18.574383   14.421442   19.972037
  C     17.985309   13.582002   20.932388
  C     16.927267   14.063698   21.721755
  C     16.464760   15.374619   21.543944
  O     15.439042   15.840738   22.300284
  C     17.052878   16.207659   20.587065
  H     14.090918   14.966461   16.763880
  H     13.697257   13.997406   15.326917
  H     13.886180   15.759289   15.182508
  H     16.111951   13.762927   15.906240
  H     15.941242   14.558948   14.322109
  H     16.685912   18.374688   15.340365
  H     16.133475   19.704924   16.358529
  H     15.321614   18.136791   16.450612
  H     17.208395   20.102787   18.164046
  H     19.942392   17.863670   20.081127
  H     19.638260   16.128497   18.336526
  H     19.380965   14.040710   19.350186
  H     18.345562   12.562388   21.056440
  H     16.468155   13.418127   22.462924
  H     15.195339   15.138322   22.921546
  H     16.681731   17.219783   20.469552

 Total Charge           Charge          ....    0
 Multiplicity           Mult            ....    1
 Number of Electrons    NEL             ....  154
 Basis Dimension        Dim             ....  828

ORBITAL ENERGIES
----------------

  NO   OCC          E(Eh)            E(eV)
   0   2.0000     -91.888123     -2500.4030
   1   2.0000     -20.603236      -560.6426
   2   2.0000     -20.591672      -560.3279
   3   2.0000     -20.545133      -559.0615
   4   2.0000     -15.628609      -425.2761
   5   2.0000     -15.606671      -424.6791
   6   2.0000     -11.396004      -310.1010
   7   2.0000     -11.382939      -309.7455
   8   2.0000     -11.336836      -308.4910
   9   2.0000     -11.307433      -307.6909
  10   2.0000     -11.305348      -307.6342
  11   2.0000     -11.299124      -307.4648
  12   2.0000     -11.260772      -306.4212
  13   2.0000     -11.259010      -306.3732
  14   2.0000     -11.253284      -306.2174
  15   2.0000     -11.247491      -306.0598
  16   2.0000     -11.237165      -305.7788
  17   2.0000     -11.233604      -305.6819
  18   2.0000     -11.233345      -305.6748
  19   2.0000     -11.230203      -305.5893
  20   2.0000      -8.893185      -241.9959
  21   2.0000      -6.574762      -178.9084
  22   2.0000      -6.572756      -178.8538
  23   2.0000      -6.572169      -178.8378
  24   2.0000      -1.453933       -39.5635
  25   2.0000      -1.411410       -38.4064
  26   2.0000      -1.357189       -36.9310
  27   2.0000      -1.339495       -36.4495
  28   2.0000      -1.237027       -33.6612
  29   2.0000      -1.152008       -31.3477
  30   2.0000      -1.119441       -30.4615
  31   2.0000      -1.044432       -28.4204
  32   2.0000      -1.036870       -28.2147
  33   2.0000      -1.009400       -27.4672
  34   2.0000      -0.997784       -27.1511
  35   2.0000      -0.983335       -26.7579
  36   2.0000      -0.921077       -25.0638
  37   2.0000      -0.890518       -24.2322
  38   2.0000      -0.847189       -23.0532
  39   2.0000      -0.834898       -22.7187
  40   2.0000      -0.827703       -22.5229
  41   2.0000      -0.816515       -22.2185
  42   2.0000      -0.761956       -20.7339
  43   2.0000      -0.736112       -20.0306
  44   2.0000      -0.724717       -19.7206
  45   2.0000      -0.691130       -18.8066
  46   2.0000      -0.684957       -18.6386
  47   2.0000      -0.679217       -18.4824
  48   2.0000      -0.674491       -18.3538
  49   2.0000      -0.659960       -17.9584
  50   2.0000      -0.648837       -17.6557
  51   2.0000      -0.643871       -17.5206
  52   2.0000      -0.634593       -17.2682
  53   2.0000      -0.601714       -16.3735
  54   2.0000      -0.600034       -16.3278
  55   2.0000      -0.595530       -16.2052
  56   2.0000      -0.590913       -16.0796
  57   2.0000      -0.585465       -15.9313
  58   2.0000      -0.573441       -15.6041
  59   2.0000      -0.562869       -15.3165
  60   2.0000      -0.561096       -15.2682
  61   2.0000      -0.557991       -15.1837
  62   2.0000      -0.538411       -14.6509
  63   2.0000      -0.525778       -14.3071
  64   2.0000      -0.517263       -14.0754
  65   2.0000      -0.510065       -13.8796
  66   2.0000      -0.499755       -13.5990
  67   2.0000      -0.495469       -13.4824
  68   2.0000      -0.480794       -13.0831
  69   2.0000      -0.464261       -12.6332
  70   2.0000      -0.457075       -12.4376
  71   2.0000      -0.456394       -12.4191
  72   2.0000      -0.354379        -9.6431
  73   2.0000      -0.343926        -9.3587
  74   2.0000      -0.327230        -8.9044
  75   2.0000      -0.315676        -8.5900
  76   2.0000      -0.313634        -8.5344
  77   0.0000       0.075745         2.0611
  78   0.0000       0.112920         3.0727
  79   0.0000       0.120512         3.2793
  80   0.0000       0.136115         3.7039
  81   0.0000       0.139533         3.7969

MULLIKEN ATOMIC CHARGES
-----------------------
   0 C :   -0.274907
   1 C :    0.024125
   2 O :   -0.341273
   3 C :    0.448149
   4 O :   -0.429065
   5 C :   -0.179606
   6 C :    0.143692
   7 C :   -0.285809
   8 N :   -0.121735
   9 C :    0.201456
  10 S :   -0.439065
  11 N :   -0.196841
  12 C :    0.036411
  13 C :    0.057382
  14 C :   -0.159984
  15 C :   -0.134125
  16 C :   -0.279190
  17 C :    0.311258
  18 O :   -0.359283
  19 C :   -0.273765
  20 H :    0.100968
  21 H :    0.101141
  22 H :    0.090679
  23 H :    0.113704
  24 H :    0.098903
  25 H :    0.127660
  26 H :    0.103600
  27 H :    0.126575
  28 H :    0.196773
  29 H :    0.193592
  30 H :    0.153617
  31 H :    0.153212
  32 H :    0.159071
  33 H :    0.128002
  34 H :    0.240100
  35 H :    0.164578
Sum of atomic charges:    0.0000000

LOEWDIN ATOMIC CHARGES
----------------------
   0 C :    0.103897
   1 C :   -0.011978
   2 O :    0.307719
   3 C :   -0.415449
   4 O :    0.103162
   5 C :   -0.091701
   6 C :   -0.065278
   7 C :    0.124843
   8 N :    0.404899
   9 C :   -0.459004
  10 S :   -0.035820
  11 N :    0.397948
  12 C :   -0.046591
  13 C :   -0.038728
  14 C :    0.022372
  15 C :    0.040889
  16 C :   -0.002460
  17 C :   -0.192879
  18 O :    0.392856
  19 C :    0.028003
  20 H :   -0.025450
  21 H :   -0.024045
  22 H :   -0.030571
  23 H :   -0.025861
  24 H :   -0.030359
  25 H :   -0.008200
  26 H :   -0.021112
  27 H :   -0.010193
  28 H :   -0.059209
  29 H :   -0.063634
  30 H :   -0.004974
  31 H :   -0.025248
  32 H :   -0.021243
  33 H :   -0.036449
  34 H :   -0.154921
  35 H :   -0.025230

  Mayer bond orders larger than 0.100000
B(  0-C ,  1-C ) :   0.9720 B(  0-C , 20-H ) :   0.9759 B(  0-C , 21-H ) :   0.9780
B(  0-C , 22-H ) :   0.9791 B(  1-C ,  2-O ) :   0.8914 B(  1-C , 23-H ) :   0.9730
B(  1-C , 24-H ) :   0.9827 B(  2-O ,  3-C ) :   1.1696 B(  3-C ,  4-O ) :   1.9833
B(  3-C ,  5-C ) :   1.0501 B(  5-C ,  6-C ) :   1.6468 B(  5-C , 12-C ) :   0.9659
B(  6-C ,  7-C ) :   0.9554 B(  6-C ,  8-N ) :   1.1497 B(  7-C , 25-H ) :   0.9653
B(  7-C , 26-H ) :   0.9912 B(  7-C , 27-H ) :   0.9645 B(  8-N ,  9-C ) :   1.1779
B(  8-N , 28-H ) :   0.9487 B(  9-C , 10-S ) :   1.6109 B(  9-C , 11-N ) :   1.3047
B( 11-N , 12-C ) :   0.9920 B( 11-N , 29-H ) :   0.9521 B( 12-C , 13-C ) :   0.9473
B( 12-C , 30-H ) :   0.9999 B( 13-C , 14-C ) :   1.3760 B( 13-C , 19-C ) :   1.3688
B( 14-C , 15-C ) :   1.3945 B( 14-C , 31-H ) :   0.9649 B( 15-C , 16-C ) :   1.3624
B( 15-C , 32-H ) :   0.9714 B( 16-C , 17-C ) :   1.3316 B( 16-C , 33-H ) :   0.9860
B( 17-C , 18-O ) :   1.1079 B( 17-C , 19-C ) :   1.3792 B( 18-O , 34-H ) :   0.9806
B( 19-C , 35-H ) :   0.9585

MP2 TOTAL ENERGY:    -1274.346908357 Eh
FINAL SINGLE POINT ENERGY     -1274.346908356943

DIPOLE MOMENT
-------------
                                X             Y             Z
Electronic contribution:     11.87482       8.76348       9.96858
Nuclear contribution   :    -13.35154     -10.08270     -10.97491
                        -----------------------------------------
Total Dipole Moment    :     -1.47672      -1.31922      -1.00633
                        -----------------------------------------
Magnitude (a.u.)       :      2.22121
Magnitude (Debye)      :      5.64586

Rotational constants in cm-1:     0.010348     0.009091     0.006050
Rotational constants in MHz :   310.226240   272.537830   181.382977

                             ****ORCA TERMINATED NORMALLY****
TOTAL RUN TIME: 0 days 1 hours 42 minutes 25 seconds 744 msec
