                         Program Version 5.0.0 -  RELEASE  -
|  1> ! ri-mp2 cc-pvtz cc-pvtz/c TightSCF NoKeepInts
|  2>
|  3> %scf
|  4>   MaxCore 4096
|  5> end
|  6> *xyz  0  1
|  7>     C       15.5805135   13.6481175   17.2537019
|  8>     C       16.3703850   14.1277383   16.0239038
|  9>     O       17.3176846   15.1240194   16.4564907
| 10>     C       17.0377547   16.4502155   16.2713192
| 11>     O       16.2559798   16.8345743   15.4181964
| 12>     C       17.6109399   17.3265069   17.3517517
| 13>     C       17.4051999   18.6684338   17.3851515
| 14>     C       16.5874454   19.4976172   16.4178001
| 15>     N       18.0139874   19.4467524   18.3742413
| 16>     C       18.9415506   18.9874644   19.2704428
| 17>     S       19.7099793   19.9978162   20.3310917
| 18>     N       19.2106964   17.6433241   19.2358400
| 19>     C       18.4710613   16.6518065   18.4343712
| 20>     C       17.6595506   15.7595877   19.3689522
| 21>     C       18.1520671   14.4938772   19.7387535
| 22>     C       17.4249586   13.6712193   20.6157241
| 23>     C       16.1947076   14.1174951   21.1275506
| 24>     C       15.7049788   15.3804444   20.7676941
| 25>     O       14.5193080   15.8156974   21.2631569
| 26>     C       16.4328504   16.1990714   19.8987456
| 27>     H       16.2517856   13.1991992   17.9947269
| 28>     H       14.8389784   12.8941341   16.9638531
| 29>     H       15.0509615   14.4851914   17.7256394
| 30>     H       16.9134363   13.2737578   15.5993754
| 31>     H       15.6879828   14.5072091   15.2513833
| 32>     H       15.5410249   19.1665117   16.4159971
| 33>     H       16.9679601   19.3844824   15.3946638
| 34>     H       16.5951241   20.5676110   16.6562831
| 35>     H       17.8322387   20.4370493   18.4097875
| 36>     H       19.8731241   17.3290679   19.9329737
| 37>     H       19.2133413   16.0242778   17.9211457
| 38>     H       19.1023092   14.1456932   19.3429754
| 39>     H       17.8143775   12.6937182   20.8950105
| 40>     H       15.6286422   13.4854854   21.8038841
| 41>     H       14.1927483   15.1384552   21.8744486
| 42>     H       16.0413660   17.1783772   19.6469730
| 43> *
| 44>
| 45>                          ****END OF INPUT****

CARTESIAN COORDINATES (ANGSTROEM)
---------------------------------
  C     15.580513   13.648117   17.253702
  C     16.370385   14.127738   16.023904
  O     17.317685   15.124019   16.456491
  C     17.037755   16.450215   16.271319
  O     16.255980   16.834574   15.418196
  C     17.610940   17.326507   17.351752
  C     17.405200   18.668434   17.385151
  C     16.587445   19.497617   16.417800
  N     18.013987   19.446752   18.374241
  C     18.941551   18.987464   19.270443
  S     19.709979   19.997816   20.331092
  N     19.210696   17.643324   19.235840
  C     18.471061   16.651806   18.434371
  C     17.659551   15.759588   19.368952
  C     18.152067   14.493877   19.738754
  C     17.424959   13.671219   20.615724
  C     16.194708   14.117495   21.127551
  C     15.704979   15.380444   20.767694
  O     14.519308   15.815697   21.263157
  C     16.432850   16.199071   19.898746
  H     16.251786   13.199199   17.994727
  H     14.838978   12.894134   16.963853
  H     15.050961   14.485191   17.725639
  H     16.913436   13.273758   15.599375
  H     15.687983   14.507209   15.251383
  H     15.541025   19.166512   16.415997
  H     16.967960   19.384482   15.394664
  H     16.595124   20.567611   16.656283
  H     17.832239   20.437049   18.409788
  H     19.873124   17.329068   19.932974
  H     19.213341   16.024278   17.921146
  H     19.102309   14.145693   19.342975
  H     17.814377   12.693718   20.895011
  H     15.628642   13.485485   21.803884
  H     14.192748   15.138455   21.874449
  H     16.041366   17.178377   19.646973

 Total Charge           Charge          ....    0
 Multiplicity           Mult            ....    1
 Number of Electrons    NEL             ....  154
 Basis Dimension        Dim             ....  828

ORBITAL ENERGIES
----------------

  NO   OCC          E(Eh)            E(eV)
   0   2.0000     -91.889027     -2500.4275
   1   2.0000     -20.598794      -560.5217
   2   2.0000     -20.597930      -560.4982
   3   2.0000     -20.541735      -558.9690
   4   2.0000     -15.629519      -425.3008
   5   2.0000     -15.608374      -424.7255
   6   2.0000     -11.394820      -310.0688
   7   2.0000     -11.384049      -309.7757
   8   2.0000     -11.336721      -308.4879
   9   2.0000     -11.315781      -307.9181
  10   2.0000     -11.309612      -307.7502
  11   2.0000     -11.292897      -307.2954
  12   2.0000     -11.261515      -306.4414
  13   2.0000     -11.259388      -306.3835
  14   2.0000     -11.257163      -306.3230
  15   2.0000     -11.252353      -306.1921
  16   2.0000     -11.244493      -305.9782
  17   2.0000     -11.239382      -305.8391
  18   2.0000     -11.239215      -305.8346
  19   2.0000     -11.220612      -305.3284
  20   2.0000      -8.894081      -242.0202
  21   2.0000      -6.575654      -178.9326
  22   2.0000      -6.573651      -178.8781
  23   2.0000      -6.573064      -178.8622
  24   2.0000      -1.449411       -39.4405
  25   2.0000      -1.418414       -38.5970
  26   2.0000      -1.353441       -36.8290
  27   2.0000      -1.340580       -36.4790
  28   2.0000      -1.239102       -33.7177
  29   2.0000      -1.158968       -31.5371
  30   2.0000      -1.120682       -30.4953
  31   2.0000      -1.043510       -28.3954
  32   2.0000      -1.034786       -28.1580
  33   2.0000      -1.016957       -27.6728
  34   2.0000      -0.996149       -27.1066
  35   2.0000      -0.984438       -26.7879
  36   2.0000      -0.923357       -25.1258
  37   2.0000      -0.890072       -24.2201
  38   2.0000      -0.847515       -23.0621
  39   2.0000      -0.839240       -22.8369
  40   2.0000      -0.834999       -22.7215
  41   2.0000      -0.814374       -22.1603
  42   2.0000      -0.759788       -20.6749
  43   2.0000      -0.733536       -19.9605
  44   2.0000      -0.722348       -19.6561
  45   2.0000      -0.697559       -18.9816
  46   2.0000      -0.688839       -18.7443
  47   2.0000      -0.678600       -18.4656
  48   2.0000      -0.669207       -18.2101
  49   2.0000      -0.666139       -18.1266
  50   2.0000      -0.648223       -17.6390
  51   2.0000      -0.643432       -17.5087
  52   2.0000      -0.635164       -17.2837
  53   2.0000      -0.609639       -16.5891
  54   2.0000      -0.602120       -16.3845
  55   2.0000      -0.599819       -16.3219
  56   2.0000      -0.594531       -16.1780
  57   2.0000      -0.579199       -15.7608
  58   2.0000      -0.570894       -15.5348
  59   2.0000      -0.566370       -15.4117
  60   2.0000      -0.560839       -15.2612
  61   2.0000      -0.548275       -14.9193
  62   2.0000      -0.536163       -14.5897
  63   2.0000      -0.527090       -14.3428
  64   2.0000      -0.526433       -14.3250
  65   2.0000      -0.512955       -13.9582
  66   2.0000      -0.502671       -13.6784
  67   2.0000      -0.497077       -13.5261
  68   2.0000      -0.481514       -13.1027
  69   2.0000      -0.463369       -12.6089
  70   2.0000      -0.451561       -12.2876
  71   2.0000      -0.447228       -12.1697
  72   2.0000      -0.355058        -9.6616
  73   2.0000      -0.351217        -9.5571
  74   2.0000      -0.328683        -8.9439
  75   2.0000      -0.323243        -8.7959
  76   2.0000      -0.316634        -8.6161
  77   0.0000       0.075700         2.0599
  78   0.0000       0.104128         2.8335
  79   0.0000       0.123409         3.3581
  80   0.0000       0.131739         3.5848
  81   0.0000       0.135378         3.6838

MULLIKEN ATOMIC CHARGES
-----------------------
   0 C :   -0.302995
   1 C :    0.024597
   2 O :   -0.361294
   3 C :    0.466822
   4 O :   -0.429990
   5 C :   -0.248480
   6 C :    0.157810
   7 C :   -0.269851
   8 N :   -0.123016
   9 C :    0.217284
  10 S :   -0.441438
  11 N :   -0.210057
  12 C :    0.065734
  13 C :    0.093836
  14 C :   -0.202796
  15 C :   -0.138913
  16 C :   -0.270780
  17 C :    0.318471
  18 O :   -0.359040
  19 C :   -0.275889
  20 H :    0.101419
  21 H :    0.109156
  22 H :    0.105676
  23 H :    0.102291
  24 H :    0.119555
  25 H :    0.130719
  26 H :    0.132221
  27 H :    0.095063
  28 H :    0.197449
  29 H :    0.194998
  30 H :    0.148876
  31 H :    0.147573
  32 H :    0.163943
  33 H :    0.131633
  34 H :    0.241492
  35 H :    0.167924
Sum of atomic charges:    0.0000000

LOEWDIN ATOMIC CHARGES
----------------------
   0 C :    0.103684
   1 C :   -0.013452
   2 O :    0.302316
   3 C :   -0.415109
   4 O :    0.098468
   5 C :   -0.095478
   6 C :   -0.058310
   7 C :    0.131284
   8 N :    0.407243
   9 C :   -0.454837
  10 S :   -0.035709
  11 N :    0.396282
  12 C :   -0.052441
  13 C :   -0.034771
  14 C :    0.011668
  15 C :    0.042055
  16 C :   -0.001568
  17 C :   -0.188598
  18 O :    0.396041
  19 C :    0.031377
  20 H :   -0.027984
  21 H :   -0.027411
  22 H :   -0.026982
  23 H :   -0.028221
  24 H :   -0.029017
  25 H :   -0.004995
  26 H :   -0.003591
  27 H :   -0.023396
  28 H :   -0.057480
  29 H :   -0.065387
  30 H :   -0.009664
  31 H :   -0.030811
  32 H :   -0.020895
  33 H :   -0.035381
  34 H :   -0.153248
  35 H :   -0.025682

  Mayer bond orders larger than 0.100000
B(  0-C ,  1-C ) :   0.9666 B(  0-C , 20-H ) :   0.9726 B(  0-C , 21-H ) :   0.9781
B(  0-C , 22-H ) :   0.9745 B(  1-C ,  2-O ) :   0.8855 B(  1-C , 23-H ) :   0.9859
B(  1-C , 24-H ) :   0.9751 B(  2-O ,  3-C ) :   1.1612 B(  3-C ,  4-O ) :   1.9817
B(  3-C ,  5-C ) :   1.0538 B(  5-C ,  6-C ) :   1.6515 B(  5-C , 12-C ) :   0.9759
B(  6-C ,  7-C ) :   0.9675 B(  6-C ,  8-N ) :   1.1639 B(  7-C , 25-H ) :   0.9605
B(  7-C , 26-H ) :   0.9596 B(  7-C , 27-H ) :   0.9904 B(  8-N ,  9-C ) :   1.1834
B(  8-N , 28-H ) :   0.9478 B(  9-C , 10-S ) :   1.6021 B(  9-C , 11-N ) :   1.3088
B( 11-N , 12-C ) :   0.9676 B( 11-N , 29-H ) :   0.9520 B( 12-C , 13-C ) :   0.9423
B( 12-C , 30-H ) :   1.0019 B( 13-C , 14-C ) :   1.3479 B( 13-C , 19-C ) :   1.3674
B( 14-C , 15-C ) :   1.3893 B( 14-C , 31-H ) :   0.9746 B( 15-C , 16-C ) :   1.3601
B( 15-C , 32-H ) :   0.9708 B( 16-C , 17-C ) :   1.3309 B( 16-C , 33-H ) :   0.9847
B( 17-C , 18-O ) :   1.1093 B( 17-C , 19-C ) :   1.3692 B( 18-O , 34-H ) :   0.9793
B( 19-C , 35-H ) :   0.9588

MP2 TOTAL ENERGY:    -1274.348406299 Eh
FINAL SINGLE POINT ENERGY     -1274.348406299380

DIPOLE MOMENT
-------------
                                X             Y             Z
Electronic contribution:      8.54934      10.91364       5.64077
Nuclear contribution   :     -9.42411     -12.62234      -5.86853
                        -----------------------------------------
Total Dipole Moment    :     -0.87477      -1.70871      -0.22776
                        -----------------------------------------
Magnitude (a.u.)       :      1.93307
Magnitude (Debye)      :      4.91348

Rotational constants in cm-1:     0.012516     0.008790     0.006414
Rotational constants in MHz :   375.233151   263.529346   192.292184

                             ****ORCA TERMINATED NORMALLY****
TOTAL RUN TIME: 0 days 2 hours 23 minutes 30 seconds 402 msec
