                         Program Version 4.2.0 -  RELEASE  -
|  1> ! ri-mp2 cc-pvtz cc-pvtz/c TightSCF  NoKeepInts
|  2>
|  3> %scf
|  4>   MaxCore 4096
|  5> end
|  6> *xyz  0  1
|  7>     C       15.4007179   14.2874336   17.1129047
|  8>     C       15.4070668   15.4520494   16.1002437
|  9>     O       16.7367822   15.7325130   15.6060181
| 10>     C       17.8199399   15.7261449   16.4380841
| 11>     O       18.4950759   14.7218442   16.5795716
| 12>     C       17.9158841   16.9004978   17.3695481
| 13>     C       17.4410030   18.1417212   17.0886572
| 14>     C       16.7729641   18.6185372   15.8144853
| 15>     N       17.6464870   19.1857297   17.9959471
| 16>     C       18.4555895   19.1158103   19.0990701
| 17>     S       18.7482360   20.4371586   20.0492941
| 18>     N       19.0108657   17.8916977   19.3730129
| 19>     C       18.6691909   16.6357349   18.6785464
| 20>     C       17.8739577   15.7154547   19.5993471
| 21>     C       18.2646872   14.3749775   19.7734517
| 22>     C       17.5293185   13.5169305   20.6080581
| 23>     C       16.3922210   14.0023199   21.2758505
| 24>     C       15.9979584   15.3359704   21.1036439
| 25>     O       14.8942887   15.8049661   21.7381873
| 26>     C       16.7311049   16.1877198   20.2713877
| 27>     H       15.9087847   13.4079137   16.6968555
| 28>     H       14.3711609   14.0003172   17.3578137
| 29>     H       15.8979575   14.5632279   18.0478934
| 30>     H       14.7542517   15.2052115   15.2530037
| 31>     H       14.9938429   16.3406014   16.5934275
| 32>     H       17.2137422   18.1397234   14.9310143
| 33>     H       16.8888681   19.6997305   15.6682988
| 34>     H       15.6995332   18.3993736   15.8217107
| 35>     H       17.2550810   20.0949890   17.8074149
| 36>     H       19.5846714   17.8605136   20.2061505
| 37>     H       19.6128489   16.1311691   18.4241003
| 38>     H       19.1329026   13.9915239   19.2420821
| 39>     H       17.8389278   12.4801722   20.7282914
| 40>     H       15.8201522   13.3418557   21.9190342
| 41>     H       14.5629533   15.0940591   22.3074900
| 42>     H       16.4079824   17.2164068   20.1541093
| 43> *
| 44>
| 45>                          ****END OF INPUT****

CARTESIAN COORDINATES (ANGSTROEM)
---------------------------------
  C     15.400718   14.287434   17.112905
  C     15.407067   15.452049   16.100244
  O     16.736782   15.732513   15.606018
  C     17.819940   15.726145   16.438084
  O     18.495076   14.721844   16.579572
  C     17.915884   16.900498   17.369548
  C     17.441003   18.141721   17.088657
  C     16.772964   18.618537   15.814485
  N     17.646487   19.185730   17.995947
  C     18.455589   19.115810   19.099070
  S     18.748236   20.437159   20.049294
  N     19.010866   17.891698   19.373013
  C     18.669191   16.635735   18.678546
  C     17.873958   15.715455   19.599347
  C     18.264687   14.374977   19.773452
  C     17.529318   13.516931   20.608058
  C     16.392221   14.002320   21.275851
  C     15.997958   15.335970   21.103644
  O     14.894289   15.804966   21.738187
  C     16.731105   16.187720   20.271388
  H     15.908785   13.407914   16.696856
  H     14.371161   14.000317   17.357814
  H     15.897958   14.563228   18.047893
  H     14.754252   15.205211   15.253004
  H     14.993843   16.340601   16.593428
  H     17.213742   18.139723   14.931014
  H     16.888868   19.699731   15.668299
  H     15.699533   18.399374   15.821711
  H     17.255081   20.094989   17.807415
  H     19.584671   17.860514   20.206150
  H     19.612849   16.131169   18.424100
  H     19.132903   13.991524   19.242082
  H     17.838928   12.480172   20.728291
  H     15.820152   13.341856   21.919034
  H     14.562953   15.094059   22.307490
  H     16.407982   17.216407   20.154109

 Total Charge           Charge          ....    0
 Multiplicity           Mult            ....    1
 Number of Electrons    NEL             ....  154
 Basis Dimension        Dim             ....  828

ORBITAL ENERGIES
----------------

  NO   OCC          E(Eh)            E(eV)
   0   2.0000     -91.890777     -2500.4752
   1   2.0000     -20.597065      -560.4746
   2   2.0000     -20.584851      -560.1423
   3   2.0000     -20.553583      -559.2914
   4   2.0000     -15.630990      -425.3409
   5   2.0000     -15.609618      -424.7593
   6   2.0000     -11.395740      -310.0939
   7   2.0000     -11.385998      -309.8287
   8   2.0000     -11.338923      -308.5478
   9   2.0000     -11.313688      -307.8611
  10   2.0000     -11.309220      -307.7395
  11   2.0000     -11.307265      -307.6863
  12   2.0000     -11.263267      -306.4891
  13   2.0000     -11.263201      -306.4873
  14   2.0000     -11.259059      -306.3746
  15   2.0000     -11.253626      -306.2267
  16   2.0000     -11.243327      -305.9465
  17   2.0000     -11.239190      -305.8339
  18   2.0000     -11.235741      -305.7400
  19   2.0000     -11.223871      -305.4171
  20   2.0000      -8.895841      -242.0681
  21   2.0000      -6.577416      -178.9806
  22   2.0000      -6.575408      -178.9259
  23   2.0000      -6.574819      -178.9099
  24   2.0000      -1.446714       -39.3671
  25   2.0000      -1.416871       -38.5550
  26   2.0000      -1.356728       -36.9185
  27   2.0000      -1.342422       -36.5291
  28   2.0000      -1.240173       -33.7468
  29   2.0000      -1.157796       -31.5052
  30   2.0000      -1.122572       -30.5467
  31   2.0000      -1.045394       -28.4466
  32   2.0000      -1.032292       -28.0901
  33   2.0000      -1.015475       -27.6325
  34   2.0000      -1.002620       -27.2827
  35   2.0000      -0.987458       -26.8701
  36   2.0000      -0.925847       -25.1936
  37   2.0000      -0.892667       -24.2907
  38   2.0000      -0.852769       -23.2050
  39   2.0000      -0.840865       -22.8811
  40   2.0000      -0.833679       -22.6856
  41   2.0000      -0.826219       -22.4826
  42   2.0000      -0.744731       -20.2652
  43   2.0000      -0.730636       -19.8816
  44   2.0000      -0.728884       -19.8339
  45   2.0000      -0.695103       -18.9147
  46   2.0000      -0.686473       -18.6799
  47   2.0000      -0.680811       -18.5258
  48   2.0000      -0.675897       -18.3921
  49   2.0000      -0.664446       -18.0805
  50   2.0000      -0.651630       -17.7318
  51   2.0000      -0.648809       -17.6550
  52   2.0000      -0.638111       -17.3639
  53   2.0000      -0.622114       -16.9286
  54   2.0000      -0.606190       -16.4953
  55   2.0000      -0.604606       -16.4522
  56   2.0000      -0.600686       -16.3455
  57   2.0000      -0.580524       -15.7969
  58   2.0000      -0.575056       -15.6481
  59   2.0000      -0.566222       -15.4077
  60   2.0000      -0.554757       -15.0957
  61   2.0000      -0.547801       -14.9064
  62   2.0000      -0.539074       -14.6689
  63   2.0000      -0.530368       -14.4320
  64   2.0000      -0.520247       -14.1566
  65   2.0000      -0.512432       -13.9440
  66   2.0000      -0.500701       -13.6248
  67   2.0000      -0.489314       -13.3149
  68   2.0000      -0.486397       -13.2355
  69   2.0000      -0.467577       -12.7234
  70   2.0000      -0.457957       -12.4616
  71   2.0000      -0.449052       -12.2193
  72   2.0000      -0.358132        -9.7453
  73   2.0000      -0.349433        -9.5086
  74   2.0000      -0.330011        -8.9801
  75   2.0000      -0.321281        -8.7425
  76   2.0000      -0.318496        -8.6667
  77   0.0000       0.070599         1.9211
  78   0.0000       0.105325         2.8660
  79   0.0000       0.119028         3.2389
  80   0.0000       0.131353         3.5743
  81   0.0000       0.137251         3.7348

MULLIKEN ATOMIC CHARGES
-----------------------
   0 C :   -0.296145
   1 C :    0.033399
   2 O :   -0.376349
   3 C :    0.467862
   4 O :   -0.389863
   5 C :   -0.218333
   6 C :    0.146381
   7 C :   -0.303141
   8 N :   -0.125355
   9 C :    0.194879
  10 S :   -0.436646
  11 N :   -0.199652
  12 C :    0.052369
  13 C :    0.003144
  14 C :   -0.156445
  15 C :   -0.141095
  16 C :   -0.267968
  17 C :    0.299059
  18 O :   -0.359592
  19 C :   -0.239109
  20 H :    0.116248
  21 H :    0.101711
  22 H :    0.109707
  23 H :    0.116700
  24 H :    0.079038
  25 H :    0.139380
  26 H :    0.113796
  27 H :    0.121286
  28 H :    0.197477
  29 H :    0.194511
  30 H :    0.157918
  31 H :    0.161807
  32 H :    0.161355
  33 H :    0.131772
  34 H :    0.241003
  35 H :    0.168892
Sum of atomic charges:   -0.0000000

LOEWDIN ATOMIC CHARGES
----------------------
   0 C :    0.110687
   1 C :   -0.018964
   2 O :    0.284146
   3 C :   -0.420270
   4 O :    0.128994
   5 C :   -0.093388
   6 C :   -0.071739
   7 C :    0.127405
   8 N :    0.404812
   9 C :   -0.459828
  10 S :   -0.034019
  11 N :    0.397658
  12 C :   -0.045972
  13 C :   -0.044194
  14 C :    0.021695
  15 C :    0.042926
  16 C :   -0.001114
  17 C :   -0.193714
  18 O :    0.394460
  19 C :    0.026551
  20 H :   -0.020942
  21 H :   -0.025360
  22 H :   -0.027366
  23 H :   -0.021478
  24 H :   -0.040431
  25 H :   -0.006127
  26 H :   -0.017238
  27 H :   -0.015533
  28 H :   -0.058043
  29 H :   -0.063436
  30 H :   -0.003522
  31 H :   -0.023498
  32 H :   -0.019624
  33 H :   -0.035162
  34 H :   -0.153685
  35 H :   -0.024689

  Mayer bond orders larger than 0.100000
B(  0-C ,  1-C ) :   0.9749 B(  0-C , 20-H ) :   0.9727 B(  0-C , 21-H ) :   0.9766
B(  0-C , 22-H ) :   0.9657 B(  1-C ,  2-O ) :   0.8982 B(  1-C , 23-H ) :   0.9788
B(  1-C , 24-H ) :   0.9729 B(  2-O ,  3-C ) :   1.0985 B(  3-C ,  4-O ) :   2.0551
B(  3-C ,  5-C ) :   1.0038 B(  5-C ,  6-C ) :   1.6648 B(  5-C , 12-C ) :   0.9599
B(  6-C ,  7-C ) :   0.9468 B(  6-C ,  8-N ) :   1.1417 B(  7-C , 25-H ) :   0.9664
B(  7-C , 26-H ) :   0.9871 B(  7-C , 27-H ) :   0.9666 B(  8-N ,  9-C ) :   1.1813
B(  8-N , 28-H ) :   0.9497 B(  9-C , 10-S ) :   1.6146 B(  9-C , 11-N ) :   1.3002
B( 11-N , 12-C ) :   0.9926 B( 11-N , 29-H ) :   0.9520 B( 12-C , 13-C ) :   0.9453
B( 12-C , 30-H ) :   0.9984 B( 13-C , 14-C ) :   1.3882 B( 13-C , 19-C ) :   1.3666
B( 14-C , 15-C ) :   1.3932 B( 14-C , 31-H ) :   0.9613 B( 15-C , 16-C ) :   1.3628
B( 15-C , 32-H ) :   0.9713 B( 16-C , 17-C ) :   1.3318 B( 16-C , 33-H ) :   0.9845
B( 17-C , 18-O ) :   1.1120 B( 17-C , 19-C ) :   1.3724 B( 18-O , 34-H ) :   0.9797
B( 19-C , 35-H ) :   0.9578

MP2 TOTAL ENERGY:    -1274.331905775 Eh
FINAL SINGLE POINT ENERGY     -1274.331905775224

DIPOLE MOMENT
-------------
                                X             Y             Z
Electronic contribution:      9.64738       8.71187       6.20174
Nuclear contribution   :    -11.14556      -9.70522      -6.70434
                        -----------------------------------------
Total Dipole Moment    :     -1.49818      -0.99335      -0.50260
                        -----------------------------------------
Magnitude (a.u.)       :      1.86652
Magnitude (Debye)      :      4.74432

Rotational constants in cm-1:     0.011718     0.009597     0.006683
Rotational constants in MHz :   351.282523   287.712346   200.342501

                             ****ORCA TERMINATED NORMALLY****
TOTAL RUN TIME: 0 days 1 hours 46 minutes 29 seconds 486 msec
