                         Program Version 4.2.0 -  RELEASE  -
|  1> ! ri-mp2 cc-pvtz cc-pvtz/c TightSCF  NoKeepInts
|  2>
|  3> %scf
|  4>   MaxCore 4096
|  5> end
|  6> *xyz  0  1
|  7>     C       14.1988018   15.3968147   16.2172975
|  8>     C       15.4042432   15.5026393   17.1657813
|  9>     O       16.5766596   15.1407920   16.4063137
| 10>     C       17.8151312   15.7262057   16.5101034
| 11>     O       18.8034524   15.0867919   16.2014125
| 12>     C       17.9304075   16.8911245   17.4357831
| 13>     C       17.3618768   18.0889987   17.1689982
| 14>     C       16.5512720   18.4545876   15.9441055
| 15>     N       17.5465688   19.1573789   18.0487465
| 16>     C       18.3529977   19.1223344   19.1572326
| 17>     S       18.5524458   20.4469095   20.1265107
| 18>     N       18.9807784   17.9303943   19.4283023
| 19>     C       18.7915258   16.6732378   18.6765229
| 20>     C       18.1792036   15.5841759   19.5509367
| 21>     C       18.6859754   14.2727984   19.5039853
| 22>     C       18.1068364   13.2534636   20.2778706
| 23>     C       17.0074818   13.5457571   21.1028506
| 24>     C       16.4940765   14.8488052   21.1456241
| 25>     O       15.4219128   15.1313461   21.9272332
| 26>     C       17.0722887   15.8619107   20.3743313
| 27>     H       13.2682640   15.6305909   16.7487935
| 28>     H       14.1160747   14.3799170   15.8130107
| 29>     H       14.3011925   16.0944508   15.3771365
| 30>     H       15.4387488   16.5178365   17.5704409
| 31>     H       15.2848875   14.8101519   18.0098909
| 32>     H       16.5870270   17.6748299   15.1732430
| 33>     H       16.9343008   19.3730637   15.4812543
| 34>     H       15.4981055   18.6198378   16.2023608
| 35>     H       17.1063201   20.0446188   17.8607992
| 36>     H       19.5515393   17.9292580   20.2643842
| 37>     H       19.7811871   16.3297563   18.3403593
| 38>     H       19.5224472   14.0389842   18.8485814
| 39>     H       18.5057205   12.2415688   20.2284982
| 40>     H       16.5549740   12.7597152   21.6984611
| 41>     H       15.2060853   14.3282150   22.4254349
| 42>     H       16.6561895   16.8627389   20.4214094
| 43> *
| 44>
| 45>                          ****END OF INPUT****

CARTESIAN COORDINATES (ANGSTROEM)
---------------------------------
  C     14.198802   15.396815   16.217298
  C     15.404243   15.502639   17.165781
  O     16.576660   15.140792   16.406314
  C     17.815131   15.726206   16.510103
  O     18.803452   15.086792   16.201412
  C     17.930407   16.891125   17.435783
  C     17.361877   18.088999   17.168998
  C     16.551272   18.454588   15.944105
  N     17.546569   19.157379   18.048746
  C     18.352998   19.122334   19.157233
  S     18.552446   20.446909   20.126511
  N     18.980778   17.930394   19.428302
  C     18.791526   16.673238   18.676523
  C     18.179204   15.584176   19.550937
  C     18.685975   14.272798   19.503985
  C     18.106836   13.253464   20.277871
  C     17.007482   13.545757   21.102851
  C     16.494076   14.848805   21.145624
  O     15.421913   15.131346   21.927233
  C     17.072289   15.861911   20.374331
  H     13.268264   15.630591   16.748794
  H     14.116075   14.379917   15.813011
  H     14.301193   16.094451   15.377136
  H     15.438749   16.517837   17.570441
  H     15.284887   14.810152   18.009891
  H     16.587027   17.674830   15.173243
  H     16.934301   19.373064   15.481254
  H     15.498105   18.619838   16.202361
  H     17.106320   20.044619   17.860799
  H     19.551539   17.929258   20.264384
  H     19.781187   16.329756   18.340359
  H     19.522447   14.038984   18.848581
  H     18.505720   12.241569   20.228498
  H     16.554974   12.759715   21.698461
  H     15.206085   14.328215   22.425435
  H     16.656189   16.862739   20.421409

 Total Charge           Charge          ....    0
 Multiplicity           Mult            ....    1
 Number of Electrons    NEL             ....  154
 Basis Dimension        Dim             ....  828

ORBITAL ENERGIES
----------------

  NO   OCC          E(Eh)            E(eV)
   0   2.0000     -91.890184     -2500.4590
   1   2.0000     -20.600822      -560.5769
   2   2.0000     -20.600300      -560.5627
   3   2.0000     -20.550013      -559.1943
   4   2.0000     -15.627279      -425.2399
   5   2.0000     -15.611928      -424.8222
   6   2.0000     -11.397952      -310.1540
   7   2.0000     -11.387144      -309.8599
   8   2.0000     -11.328819      -308.2728
   9   2.0000     -11.316886      -307.9481
  10   2.0000     -11.315097      -307.8994
  11   2.0000     -11.303339      -307.5795
  12   2.0000     -11.270201      -306.6777
  13   2.0000     -11.264546      -306.5239
  14   2.0000     -11.263516      -306.4958
  15   2.0000     -11.256941      -306.3169
  16   2.0000     -11.246432      -306.0310
  17   2.0000     -11.242475      -305.9233
  18   2.0000     -11.239728      -305.8486
  19   2.0000     -11.234985      -305.7195
  20   2.0000      -8.895299      -242.0534
  21   2.0000      -6.576887      -178.9662
  22   2.0000      -6.574861      -178.9111
  23   2.0000      -6.574286      -178.8954
  24   2.0000      -1.447478       -39.3879
  25   2.0000      -1.420110       -38.6432
  26   2.0000      -1.358949       -36.9789
  27   2.0000      -1.340408       -36.4744
  28   2.0000      -1.240169       -33.7467
  29   2.0000      -1.161815       -31.6146
  30   2.0000      -1.126300       -30.6482
  31   2.0000      -1.049604       -28.5612
  32   2.0000      -1.041650       -28.3447
  33   2.0000      -1.019074       -27.7304
  34   2.0000      -1.005511       -27.3613
  35   2.0000      -0.989930       -26.9374
  36   2.0000      -0.928248       -25.2589
  37   2.0000      -0.884605       -24.0713
  38   2.0000      -0.854934       -23.2639
  39   2.0000      -0.842288       -22.9198
  40   2.0000      -0.837420       -22.7873
  41   2.0000      -0.836695       -22.7676
  42   2.0000      -0.757787       -20.6204
  43   2.0000      -0.739638       -20.1266
  44   2.0000      -0.732382       -19.9291
  45   2.0000      -0.697836       -18.9891
  46   2.0000      -0.688541       -18.7362
  47   2.0000      -0.680851       -18.5269
  48   2.0000      -0.676839       -18.4177
  49   2.0000      -0.666564       -18.1381
  50   2.0000      -0.652995       -17.7689
  51   2.0000      -0.645690       -17.5701
  52   2.0000      -0.640303       -17.4235
  53   2.0000      -0.613185       -16.6856
  54   2.0000      -0.608559       -16.5597
  55   2.0000      -0.604337       -16.4449
  56   2.0000      -0.602237       -16.3877
  57   2.0000      -0.588486       -16.0135
  58   2.0000      -0.578810       -15.7502
  59   2.0000      -0.569321       -15.4920
  60   2.0000      -0.563392       -15.3307
  61   2.0000      -0.560923       -15.2635
  62   2.0000      -0.543759       -14.7964
  63   2.0000      -0.532279       -14.4840
  64   2.0000      -0.523964       -14.2578
  65   2.0000      -0.516176       -14.0459
  66   2.0000      -0.503308       -13.6957
  67   2.0000      -0.502630       -13.6773
  68   2.0000      -0.489237       -13.3128
  69   2.0000      -0.470698       -12.8083
  70   2.0000      -0.454263       -12.3611
  71   2.0000      -0.448768       -12.2116
  72   2.0000      -0.357056        -9.7160
  73   2.0000      -0.352235        -9.5848
  74   2.0000      -0.329866        -8.9761
  75   2.0000      -0.324784        -8.8378
  76   2.0000      -0.318410        -8.6644
  77   0.0000       0.085020         2.3135
  78   0.0000       0.104598         2.8462
  79   0.0000       0.112863         3.0711
  80   0.0000       0.127833         3.4785
  81   0.0000       0.130889         3.5617

MULLIKEN ATOMIC CHARGES
-----------------------
   0 C :   -0.260938
   1 C :    0.011749
   2 O :   -0.315529
   3 C :    0.395313
   4 O :   -0.381676
   5 C :   -0.187524
   6 C :    0.132165
   7 C :   -0.325825
   8 N :   -0.136011
   9 C :    0.205604
  10 S :   -0.440853
  11 N :   -0.212105
  12 C :    0.065406
  13 C :    0.031194
  14 C :   -0.190535
  15 C :   -0.129577
  16 C :   -0.276230
  17 C :    0.314428
  18 O :   -0.359174
  19 C :   -0.280445
  20 H :    0.091407
  21 H :    0.110518
  22 H :    0.089038
  23 H :    0.094144
  24 H :    0.130034
  25 H :    0.126734
  26 H :    0.140571
  27 H :    0.122350
  28 H :    0.196346
  29 H :    0.197927
  30 H :    0.163746
  31 H :    0.166124
  32 H :    0.163538
  33 H :    0.132818
  34 H :    0.241983
  35 H :    0.173286
Sum of atomic charges:   -0.0000000

LOEWDIN ATOMIC CHARGES
----------------------
   0 C :    0.106841
   1 C :   -0.018150
   2 O :    0.308612
   3 C :   -0.417290
   4 O :    0.124817
   5 C :   -0.083183
   6 C :   -0.105575
   7 C :    0.125728
   8 N :    0.400965
   9 C :   -0.455430
  10 S :   -0.037640
  11 N :    0.397191
  12 C :   -0.044491
  13 C :   -0.043618
  14 C :    0.023332
  15 C :    0.045997
  16 C :   -0.000269
  17 C :   -0.194634
  18 O :    0.394254
  19 C :    0.028439
  20 H :   -0.025052
  21 H :   -0.022967
  22 H :   -0.031260
  23 H :   -0.040745
  24 H :   -0.024811
  25 H :   -0.008365
  26 H :   -0.009854
  27 H :   -0.016437
  28 H :   -0.057927
  29 H :   -0.063647
  30 H :   -0.002538
  31 H :   -0.021939
  32 H :   -0.018387
  33 H :   -0.034520
  34 H :   -0.152808
  35 H :   -0.024641

  Mayer bond orders larger than 0.100000
B(  0-C ,  1-C ) :   0.9755 B(  0-C , 20-H ) :   0.9760 B(  0-C , 21-H ) :   0.9792
B(  0-C , 22-H ) :   0.9782 B(  1-C ,  2-O ) :   0.9025 B(  1-C , 23-H ) :   0.9644
B(  1-C , 24-H ) :   0.9736 B(  2-O ,  3-C ) :   1.1859 B(  3-C ,  4-O ) :   2.0982
B(  3-C ,  5-C ) :   0.9269 B(  5-C ,  6-C ) :   1.6908 B(  5-C , 12-C ) :   0.9596
B(  6-C ,  7-C ) :   0.9441 B(  6-C ,  8-N ) :   1.1138 B(  7-C , 25-H ) :   0.9795
B(  7-C , 26-H ) :   0.9722 B(  7-C , 27-H ) :   0.9650 B(  8-N ,  9-C ) :   1.1942
B(  8-N , 28-H ) :   0.9519 B(  9-C , 10-S ) :   1.6116 B(  9-C , 11-N ) :   1.2878
B( 11-N , 12-C ) :   1.0006 B( 11-N , 29-H ) :   0.9490 B( 12-C , 13-C ) :   0.9461
B( 12-C , 30-H ) :   0.9971 B( 13-C , 14-C ) :   1.3857 B( 13-C , 19-C ) :   1.3470
B( 14-C , 15-C ) :   1.3954 B( 14-C , 31-H ) :   0.9617 B( 15-C , 16-C ) :   1.3649
B( 15-C , 32-H ) :   0.9701 B( 16-C , 17-C ) :   1.3276 B( 16-C , 33-H ) :   0.9842
B( 17-C , 18-O ) :   1.1090 B( 17-C , 19-C ) :   1.3706 B( 18-O , 34-H ) :   0.9789
B( 19-C , 35-H ) :   0.9590

MP2 TOTAL ENERGY:    -1274.331691708 Eh
FINAL SINGLE POINT ENERGY     -1274.331691708366

DIPOLE MOMENT
-------------
                                X             Y             Z
Electronic contribution:     11.93915       6.03910       7.69745
Nuclear contribution   :    -13.50661      -7.03520      -7.95785
                        -----------------------------------------
Total Dipole Moment    :     -1.56746      -0.99610      -0.26040
                        -----------------------------------------
Magnitude (a.u.)       :      1.87536
Magnitude (Debye)      :      4.76678

Rotational constants in cm-1:     0.011425     0.009200     0.006818
Rotational constants in MHz :   342.510379   275.807885   204.383649

                             ****ORCA TERMINATED NORMALLY****
TOTAL RUN TIME: 0 days 1 hours 50 minutes 4 seconds 881 msec
