                         Program Version 4.2.0 -  RELEASE  -
|  1> ! ri-mp2 cc-pvtz cc-pvtz/c TightSCF  NoKeepInts
|  2>
|  3> %scf
|  4>   MaxCore 4096
|  5> end
|  6> *xyz  0  1
|  7>     C       15.0066516   15.6681621   17.2199156
|  8>     C       15.7229299   14.9106014   16.0843025
|  9>     O       16.9235576   15.5420272   15.5753006
| 10>     C       18.0259394   15.7966567   16.3485616
| 11>     O       18.8633065   14.9221922   16.4773972
| 12>     C       17.8869060   16.8851014   17.3691905
| 13>     C       17.2928071   18.0704043   17.0841751
| 14>     C       16.7198758   18.5104879   15.7506305
| 15>     N       17.3030739   19.0979791   18.0311741
| 16>     C       18.0635625   19.0962147   19.1710397
| 17>     S       18.1387035   20.4120917   20.1696164
| 18>     N       18.7656137   17.9470098   19.4379425
| 19>     C       18.6091895   16.6726506   18.7083856
| 20>     C       17.9255222   15.6206393   19.5828047
| 21>     C       18.3535905   14.2805031   19.5388039
| 22>     C       17.7344376   13.3003633   20.3319594
| 23>     C       16.6770338   13.6607681   21.1835264
| 24>     C       16.2485151   14.9934968   21.2364944
| 25>     O       15.2229473   15.3442305   22.0524596
| 26>     C       16.8669041   15.9672655   20.4457595
| 27>     H       15.6159733   15.7074871   18.1240246
| 28>     H       14.0804100   15.1436548   17.4845772
| 29>     H       14.7307178   16.6839165   16.9240453
| 30>     H       15.9790013   13.9044385   16.4432935
| 31>     H       15.0183296   14.7853003   15.2520901
| 32>     H       15.6634791   18.2414555   15.6515652
| 33>     H       17.2604066   18.0527191   14.9128318
| 34>     H       16.7995141   19.5959218   15.6119260
| 35>     H       16.8066857   19.9548803   17.8444345
| 36>     H       19.3073399   17.9672609   20.2926879
| 37>     H       19.6201221   16.3031461   18.4815565
| 38>     H       19.1682922   13.9940731   18.8773607
| 39>     H       18.0751525   12.2675662   20.2821459
| 40>     H       16.1951327   12.9065636   21.7968206
| 41>     H       14.9643915   14.5543371   22.5507225
| 42>     H       16.5109839   16.9904333   20.5044778
| 43> *
| 44>
| 45>                          ****END OF INPUT****

CARTESIAN COORDINATES (ANGSTROEM)
---------------------------------
  C     15.006652   15.668162   17.219916
  C     15.722930   14.910601   16.084302
  O     16.923558   15.542027   15.575301
  C     18.025939   15.796657   16.348562
  O     18.863307   14.922192   16.477397
  C     17.886906   16.885101   17.369190
  C     17.292807   18.070404   17.084175
  C     16.719876   18.510488   15.750630
  N     17.303074   19.097979   18.031174
  C     18.063562   19.096215   19.171040
  S     18.138703   20.412092   20.169616
  N     18.765614   17.947010   19.437942
  C     18.609189   16.672651   18.708386
  C     17.925522   15.620639   19.582805
  C     18.353590   14.280503   19.538804
  C     17.734438   13.300363   20.331959
  C     16.677034   13.660768   21.183526
  C     16.248515   14.993497   21.236494
  O     15.222947   15.344230   22.052460
  C     16.866904   15.967265   20.445760
  H     15.615973   15.707487   18.124025
  H     14.080410   15.143655   17.484577
  H     14.730718   16.683916   16.924045
  H     15.979001   13.904438   16.443293
  H     15.018330   14.785300   15.252090
  H     15.663479   18.241456   15.651565
  H     17.260407   18.052719   14.912832
  H     16.799514   19.595922   15.611926
  H     16.806686   19.954880   17.844434
  H     19.307340   17.967261   20.292688
  H     19.620122   16.303146   18.481556
  H     19.168292   13.994073   18.877361
  H     18.075152   12.267566   20.282146
  H     16.195133   12.906564   21.796821
  H     14.964391   14.554337   22.550722
  H     16.510984   16.990433   20.504478

 Total Charge           Charge          ....    0
 Multiplicity           Mult            ....    1
 Number of Electrons    NEL             ....  154
 Basis Dimension        Dim             ....  828

ORBITAL ENERGIES
----------------

  NO   OCC          E(Eh)            E(eV)
   0   2.0000     -91.891172     -2500.4859
   1   2.0000     -20.596730      -560.4655
   2   2.0000     -20.581591      -560.0536
   3   2.0000     -20.554446      -559.3149
   4   2.0000     -15.630339      -425.3232
   5   2.0000     -15.610246      -424.7764
   6   2.0000     -11.395679      -310.0922
   7   2.0000     -11.386648      -309.8464
   8   2.0000     -11.335455      -308.4534
   9   2.0000     -11.313471      -307.8552
  10   2.0000     -11.312028      -307.8159
  11   2.0000     -11.306707      -307.6711
  12   2.0000     -11.263255      -306.4888
  13   2.0000     -11.262862      -306.4780
  14   2.0000     -11.260894      -306.4245
  15   2.0000     -11.253708      -306.2290
  16   2.0000     -11.242995      -305.9374
  17   2.0000     -11.238974      -305.8280
  18   2.0000     -11.235131      -305.7235
  19   2.0000     -11.229939      -305.5822
  20   2.0000      -8.896237      -242.0789
  21   2.0000      -6.577815      -178.9914
  22   2.0000      -6.575803      -178.9367
  23   2.0000      -6.575216      -178.9207
  24   2.0000      -1.445553       -39.3355
  25   2.0000      -1.416565       -38.5467
  26   2.0000      -1.353086       -36.8193
  27   2.0000      -1.341950       -36.5163
  28   2.0000      -1.240064       -33.7439
  29   2.0000      -1.157312       -31.4921
  30   2.0000      -1.123055       -30.5599
  31   2.0000      -1.045544       -28.4507
  32   2.0000      -1.035326       -28.1727
  33   2.0000      -1.015716       -27.6390
  34   2.0000      -1.002462       -27.2784
  35   2.0000      -0.989379       -26.9224
  36   2.0000      -0.926172       -25.2024
  37   2.0000      -0.894283       -24.3347
  38   2.0000      -0.851475       -23.1698
  39   2.0000      -0.840650       -22.8753
  40   2.0000      -0.833478       -22.6801
  41   2.0000      -0.823357       -22.4047
  42   2.0000      -0.749773       -20.4024
  43   2.0000      -0.733727       -19.9657
  44   2.0000      -0.728917       -19.8348
  45   2.0000      -0.695067       -18.9137
  46   2.0000      -0.687558       -18.7094
  47   2.0000      -0.675090       -18.3701
  48   2.0000      -0.673611       -18.3299
  49   2.0000      -0.662514       -18.0279
  50   2.0000      -0.652979       -17.7684
  51   2.0000      -0.647912       -17.6306
  52   2.0000      -0.641115       -17.4456
  53   2.0000      -0.612997       -16.6805
  54   2.0000      -0.604274       -16.4431
  55   2.0000      -0.601254       -16.3610
  56   2.0000      -0.599829       -16.3222
  57   2.0000      -0.588364       -16.0102
  58   2.0000      -0.574814       -15.6415
  59   2.0000      -0.568800       -15.4778
  60   2.0000      -0.563288       -15.3279
  61   2.0000      -0.554335       -15.0842
  62   2.0000      -0.545132       -14.8338
  63   2.0000      -0.527707       -14.3596
  64   2.0000      -0.520643       -14.1674
  65   2.0000      -0.513456       -13.9719
  66   2.0000      -0.500762       -13.6264
  67   2.0000      -0.487406       -13.2630
  68   2.0000      -0.484222       -13.1763
  69   2.0000      -0.466410       -12.6917
  70   2.0000      -0.456910       -12.4332
  71   2.0000      -0.450386       -12.2556
  72   2.0000      -0.357256        -9.7214
  73   2.0000      -0.347698        -9.4613
  74   2.0000      -0.330444        -8.9918
  75   2.0000      -0.321935        -8.7603
  76   2.0000      -0.318734        -8.6732
  77   0.0000       0.071211         1.9377
  78   0.0000       0.105690         2.8760
  79   0.0000       0.118980         3.2376
  80   0.0000       0.129122         3.5136
  81   0.0000       0.132069         3.5938

MULLIKEN ATOMIC CHARGES
-----------------------
   0 C :   -0.339414
   1 C :    0.051324
   2 O :   -0.380026
   3 C :    0.461834
   4 O :   -0.386695
   5 C :   -0.250405
   6 C :    0.177784
   7 C :   -0.289126
   8 N :   -0.134069
   9 C :    0.191890
  10 S :   -0.435330
  11 N :   -0.217289
  12 C :    0.082129
  13 C :    0.021076
  14 C :   -0.204363
  15 C :   -0.138530
  16 C :   -0.274547
  17 C :    0.318908
  18 O :   -0.357239
  19 C :   -0.270331
  20 H :    0.127379
  21 H :    0.124236
  22 H :    0.094643
  23 H :    0.101392
  24 H :    0.113050
  25 H :    0.119730
  26 H :    0.131843
  27 H :    0.113433
  28 H :    0.198096
  29 H :    0.198897
  30 H :    0.163039
  31 H :    0.175007
  32 H :    0.163491
  33 H :    0.131614
  34 H :    0.240566
  35 H :    0.176004
Sum of atomic charges:    0.0000000

LOEWDIN ATOMIC CHARGES
----------------------
   0 C :    0.106709
   1 C :   -0.013050
   2 O :    0.273266
   3 C :   -0.416170
   4 O :    0.132072
   5 C :   -0.090237
   6 C :   -0.074261
   7 C :    0.127724
   8 N :    0.405311
   9 C :   -0.459115
  10 S :   -0.034293
  11 N :    0.397008
  12 C :   -0.043021
  13 C :   -0.042297
  14 C :    0.019481
  15 C :    0.042003
  16 C :   -0.001838
  17 C :   -0.193751
  18 O :    0.395186
  19 C :    0.026779
  20 H :   -0.032771
  21 H :   -0.020496
  22 H :   -0.035480
  23 H :   -0.026633
  24 H :   -0.020740
  25 H :   -0.017651
  26 H :   -0.006755
  27 H :   -0.016225
  28 H :   -0.057926
  29 H :   -0.063790
  30 H :   -0.002424
  31 H :   -0.023184
  32 H :   -0.019367
  33 H :   -0.035312
  34 H :   -0.153830
  35 H :   -0.024921

  Mayer bond orders larger than 0.100000
B(  0-C ,  1-C ) :   0.9633 B(  0-C , 20-H ) :   0.9656 B(  0-C , 21-H ) :   0.9787
B(  0-C , 22-H ) :   0.9751 B(  1-C ,  2-O ) :   0.8990 B(  1-C , 23-H ) :   0.9793
B(  1-C , 24-H ) :   0.9822 B(  2-O ,  3-C ) :   1.1002 B(  3-C ,  4-O ) :   2.0482
B(  3-C ,  5-C ) :   0.9996 B(  5-C ,  6-C ) :   1.6580 B(  5-C , 12-C ) :   0.9468
B(  6-C ,  7-C ) :   0.9496 B(  6-C ,  8-N ) :   1.1273 B(  7-C , 25-H ) :   0.9640
B(  7-C , 26-H ) :   0.9694 B(  7-C , 27-H ) :   0.9853 B(  8-N ,  9-C ) :   1.1862
B(  8-N , 28-H ) :   0.9506 B(  9-C , 10-S ) :   1.6145 B(  9-C , 11-N ) :   1.2918
B( 11-N , 12-C ) :   0.9797 B( 11-N , 29-H ) :   0.9502 B( 12-C , 13-C ) :   0.9555
B( 12-C , 30-H ) :   0.9957 B( 13-C , 14-C ) :   1.3890 B( 13-C , 19-C ) :   1.3409
B( 14-C , 15-C ) :   1.4009 B( 14-C , 31-H ) :   0.9570 B( 15-C , 16-C ) :   1.3601
B( 15-C , 32-H ) :   0.9703 B( 16-C , 17-C ) :   1.3315 B( 16-C , 33-H ) :   0.9846
B( 17-C , 18-O ) :   1.1106 B( 17-C , 19-C ) :   1.3711 B( 18-O , 34-H ) :   0.9799
B( 19-C , 35-H ) :   0.9603

MP2 TOTAL ENERGY:    -1274.320532474 Eh
FINAL SINGLE POINT ENERGY     -1274.320532474158

DIPOLE MOMENT
-------------
                                X             Y             Z
Electronic contribution:      9.47320       6.78388       6.47195
Nuclear contribution   :    -10.83255      -7.95565      -7.06287
                        -----------------------------------------
Total Dipole Moment    :     -1.35935      -1.17177      -0.59092
                        -----------------------------------------
Magnitude (a.u.)       :      1.88946
Magnitude (Debye)      :      4.80264

Rotational constants in cm-1:     0.011344     0.009884     0.006747
Rotational constants in MHz :   340.077926   296.319941   202.269563

                             ****ORCA TERMINATED NORMALLY****
TOTAL RUN TIME: 0 days 1 hours 57 minutes 35 seconds 693 msec
