                         Program Version 5.0.0 -  RELEASE  -
|  1> ! ri-mp2 cc-pvtz cc-pvtz/c TightSCF NoKeepInts
|  2>
|  3> %scf
|  4>   MaxCore 4096
|  5> end
|  6> *xyz  0  1
|  7>     C       14.2103885   14.9816320   15.6824037
|  8>     C       15.7062346   14.6278218   15.6324672
|  9>     O       16.4390069   15.8303513   15.9231546
| 10>     C       17.5795748   15.7506132   16.6672199
| 11>     O       18.2087883   14.7105516   16.7749625
| 12>     C       17.8186186   16.9318250   17.5639867
| 13>     C       17.2617081   18.1608656   17.4004931
| 14>     C       16.3168415   18.6211289   16.3091170
| 15>     N       17.6078750   19.2006939   18.2699649
| 16>     C       18.5987644   19.1367896   19.2136835
| 17>     S       19.0332578   20.4555239   20.1124472
| 18>     N       19.2123137   17.9204886   19.3734673
| 19>     C       18.7767993   16.6664625   18.7308600
| 20>     C       18.1428498   15.7327708   19.7588793
| 21>     C       18.6290813   14.4230725   19.9273379
| 22>     C       18.0470895   13.5581183   20.8691886
| 23>     C       16.9683624   14.0054732   21.6507451
| 24>     C       16.4784157   15.3078095   21.4836161
| 25>     O       15.4326769   15.7406992   22.2322335
| 26>     C       17.0595402   16.1662822   20.5451308
| 27>     H       13.9354060   15.3588511   16.6753863
| 28>     H       13.5990651   14.0958920   15.4707599
| 29>     H       13.9695286   15.7512162   14.9386173
| 30>     H       15.9058297   13.8517803   16.3848299
| 31>     H       15.9861778   14.2370796   14.6454880
| 32>     H       16.7019285   18.3475272   15.3188521
| 33>     H       16.1694638   19.7078902   16.3066588
| 34>     H       15.3310906   18.1544804   16.4288683
| 35>     H       17.1691731   20.1018679   18.1681276
| 36>     H       19.9178528   17.8910973   20.0982241
| 37>     H       19.6717562   16.1737076   18.3240854
| 38>     H       19.4519614   14.0688162   19.3112193
| 39>     H       18.4289831   12.5454310   20.9850885
| 40>     H       16.5147327   13.3401369   22.3776894
| 41>     H       15.1988525   15.0260317   22.8432570
| 42>     H       16.6670107   17.1712208   20.4354892
| 43> *
| 44>
| 45>                          ****END OF INPUT****

CARTESIAN COORDINATES (ANGSTROEM)
---------------------------------
  C     14.210388   14.981632   15.682404
  C     15.706235   14.627822   15.632467
  O     16.439007   15.830351   15.923155
  C     17.579575   15.750613   16.667220
  O     18.208788   14.710552   16.774963
  C     17.818619   16.931825   17.563987
  C     17.261708   18.160866   17.400493
  C     16.316841   18.621129   16.309117
  N     17.607875   19.200694   18.269965
  C     18.598764   19.136790   19.213683
  S     19.033258   20.455524   20.112447
  N     19.212314   17.920489   19.373467
  C     18.776799   16.666463   18.730860
  C     18.142850   15.732771   19.758879
  C     18.629081   14.423072   19.927338
  C     18.047089   13.558118   20.869189
  C     16.968362   14.005473   21.650745
  C     16.478416   15.307809   21.483616
  O     15.432677   15.740699   22.232233
  C     17.059540   16.166282   20.545131
  H     13.935406   15.358851   16.675386
  H     13.599065   14.095892   15.470760
  H     13.969529   15.751216   14.938617
  H     15.905830   13.851780   16.384830
  H     15.986178   14.237080   14.645488
  H     16.701929   18.347527   15.318852
  H     16.169464   19.707890   16.306659
  H     15.331091   18.154480   16.428868
  H     17.169173   20.101868   18.168128
  H     19.917853   17.891097   20.098224
  H     19.671756   16.173708   18.324085
  H     19.451961   14.068816   19.311219
  H     18.428983   12.545431   20.985088
  H     16.514733   13.340137   22.377689
  H     15.198852   15.026032   22.843257
  H     16.667011   17.171221   20.435489

 Total Charge           Charge          ....    0
 Multiplicity           Mult            ....    1
 Number of Electrons    NEL             ....  154
 Basis Dimension        Dim             ....  828

ORBITAL ENERGIES
----------------

  NO   OCC          E(Eh)            E(eV)
   0   2.0000     -91.888168     -2500.4042
   1   2.0000     -20.601166      -560.5862
   2   2.0000     -20.592229      -560.3430
   3   2.0000     -20.546552      -559.1001
   4   2.0000     -15.628505      -425.2732
   5   2.0000     -15.606871      -424.6845
   6   2.0000     -11.395235      -310.0801
   7   2.0000     -11.383104      -309.7500
   8   2.0000     -11.336157      -308.4725
   9   2.0000     -11.308028      -307.7071
  10   2.0000     -11.305864      -307.6482
  11   2.0000     -11.299452      -307.4737
  12   2.0000     -11.260614      -306.4169
  13   2.0000     -11.259083      -306.3752
  14   2.0000     -11.253862      -306.2331
  15   2.0000     -11.248110      -306.0766
  16   2.0000     -11.237764      -305.7951
  17   2.0000     -11.234470      -305.7055
  18   2.0000     -11.233909      -305.6902
  19   2.0000     -11.230838      -305.6066
  20   2.0000      -8.893232      -241.9972
  21   2.0000      -6.574810      -178.9097
  22   2.0000      -6.572803      -178.8551
  23   2.0000      -6.572217      -178.8391
  24   2.0000      -1.454594       -39.5815
  25   2.0000      -1.411968       -38.4216
  26   2.0000      -1.357107       -36.9288
  27   2.0000      -1.339439       -36.4480
  28   2.0000      -1.237096       -33.6631
  29   2.0000      -1.152543       -31.3623
  30   2.0000      -1.119742       -30.4697
  31   2.0000      -1.044595       -28.4249
  32   2.0000      -1.037142       -28.2221
  33   2.0000      -1.009935       -27.4817
  34   2.0000      -0.997984       -27.1565
  35   2.0000      -0.983602       -26.7652
  36   2.0000      -0.921331       -25.0707
  37   2.0000      -0.889185       -24.1959
  38   2.0000      -0.847125       -23.0514
  39   2.0000      -0.835289       -22.7294
  40   2.0000      -0.828288       -22.5389
  41   2.0000      -0.817757       -22.2523
  42   2.0000      -0.761715       -20.7273
  43   2.0000      -0.736004       -20.0277
  44   2.0000      -0.725178       -19.7331
  45   2.0000      -0.691361       -18.8129
  46   2.0000      -0.684508       -18.6264
  47   2.0000      -0.680532       -18.5182
  48   2.0000      -0.675971       -18.3941
  49   2.0000      -0.660179       -17.9644
  50   2.0000      -0.649618       -17.6770
  51   2.0000      -0.643899       -17.5214
  52   2.0000      -0.635163       -17.2837
  53   2.0000      -0.601504       -16.3678
  54   2.0000      -0.600476       -16.3398
  55   2.0000      -0.595877       -16.2146
  56   2.0000      -0.592912       -16.1340
  57   2.0000      -0.581221       -15.8158
  58   2.0000      -0.573719       -15.6117
  59   2.0000      -0.565304       -15.3827
  60   2.0000      -0.561083       -15.2678
  61   2.0000      -0.557482       -15.1699
  62   2.0000      -0.540185       -14.6992
  63   2.0000      -0.521202       -14.1826
  64   2.0000      -0.517831       -14.0909
  65   2.0000      -0.510786       -13.8992
  66   2.0000      -0.501605       -13.6494
  67   2.0000      -0.495918       -13.4946
  68   2.0000      -0.480896       -13.0858
  69   2.0000      -0.463397       -12.6097
  70   2.0000      -0.459538       -12.5047
  71   2.0000      -0.456373       -12.4185
  72   2.0000      -0.354245        -9.6395
  73   2.0000      -0.344416        -9.3720
  74   2.0000      -0.327310        -8.9065
  75   2.0000      -0.315849        -8.5947
  76   2.0000      -0.314165        -8.5489
  77   0.0000       0.075495         2.0543
  78   0.0000       0.111784         3.0418
  79   0.0000       0.120206         3.2710
  80   0.0000       0.135672         3.6918
  81   0.0000       0.139241         3.7889

MULLIKEN ATOMIC CHARGES
-----------------------
   0 C :   -0.279854
   1 C :    0.042156
   2 O :   -0.342741
   3 C :    0.435846
   4 O :   -0.421849
   5 C :   -0.174028
   6 C :    0.143311
   7 C :   -0.287061
   8 N :   -0.122708
   9 C :    0.201735
  10 S :   -0.439304
  11 N :   -0.197614
  12 C :    0.039006
  13 C :    0.056148
  14 C :   -0.160818
  15 C :   -0.134057
  16 C :   -0.279455
  17 C :    0.311203
  18 O :   -0.359209
  19 C :   -0.273785
  20 H :    0.099134
  21 H :    0.103880
  22 H :    0.093452
  23 H :    0.100520
  24 H :    0.097420
  25 H :    0.127457
  26 H :    0.104561
  27 H :    0.126160
  28 H :    0.196878
  29 H :    0.193728
  30 H :    0.153630
  31 H :    0.153601
  32 H :    0.159404
  33 H :    0.128253
  34 H :    0.240179
  35 H :    0.164823
Sum of atomic charges:    0.0000000

LOEWDIN ATOMIC CHARGES
----------------------
   0 C :    0.104923
   1 C :   -0.014172
   2 O :    0.305638
   3 C :   -0.415913
   4 O :    0.106499
   5 C :   -0.092018
   6 C :   -0.066869
   7 C :    0.125056
   8 N :    0.404738
   9 C :   -0.458744
  10 S :   -0.035995
  11 N :    0.397770
  12 C :   -0.046329
  13 C :   -0.038898
  14 C :    0.022156
  15 C :    0.040852
  16 C :   -0.002469
  17 C :   -0.192923
  18 O :    0.392890
  19 C :    0.027994
  20 H :   -0.026505
  21 H :   -0.023200
  22 H :   -0.029658
  23 H :   -0.025307
  24 H :   -0.029973
  25 H :   -0.008205
  26 H :   -0.020825
  27 H :   -0.010181
  28 H :   -0.059124
  29 H :   -0.063714
  30 H :   -0.004842
  31 H :   -0.025169
  32 H :   -0.021138
  33 H :   -0.036380
  34 H :   -0.154852
  35 H :   -0.025112

  Mayer bond orders larger than 0.100000
B(  0-C ,  1-C ) :   0.9710 B(  0-C , 20-H ) :   0.9764 B(  0-C , 21-H ) :   0.9787
B(  0-C , 22-H ) :   0.9779 B(  1-C ,  2-O ) :   0.9004 B(  1-C , 23-H ) :   0.9728
B(  1-C , 24-H ) :   0.9825 B(  2-O ,  3-C ) :   1.1552 B(  3-C ,  4-O ) :   1.9958
B(  3-C ,  5-C ) :   1.0475 B(  5-C ,  6-C ) :   1.6505 B(  5-C , 12-C ) :   0.9658
B(  6-C ,  7-C ) :   0.9543 B(  6-C ,  8-N ) :   1.1460 B(  7-C , 25-H ) :   0.9662
B(  7-C , 26-H ) :   0.9910 B(  7-C , 27-H ) :   0.9642 B(  8-N ,  9-C ) :   1.1794
B(  8-N , 28-H ) :   0.9489 B(  9-C , 10-S ) :   1.6107 B(  9-C , 11-N ) :   1.3039
B( 11-N , 12-C ) :   0.9916 B( 11-N , 29-H ) :   0.9520 B( 12-C , 13-C ) :   0.9469
B( 12-C , 30-H ) :   0.9993 B( 13-C , 14-C ) :   1.3761 B( 13-C , 19-C ) :   1.3692
B( 14-C , 15-C ) :   1.3944 B( 14-C , 31-H ) :   0.9648 B( 15-C , 16-C ) :   1.3625
B( 15-C , 32-H ) :   0.9713 B( 16-C , 17-C ) :   1.3315 B( 16-C , 33-H ) :   0.9859
B( 17-C , 18-O ) :   1.1081 B( 17-C , 19-C ) :   1.3788 B( 18-O , 34-H ) :   0.9805
B( 19-C , 35-H ) :   0.9585

MP2 TOTAL ENERGY:    -1274.344614641 Eh
FINAL SINGLE POINT ENERGY     -1274.344614640804

DIPOLE MOMENT
-------------
                                X             Y             Z
Electronic contribution:     11.98071       8.61698       9.73264
Nuclear contribution   :    -13.44759      -9.94942     -10.66870
                        -----------------------------------------
Total Dipole Moment    :     -1.46688      -1.33244      -0.93606
                        -----------------------------------------
Magnitude (a.u.)       :      2.19166
Magnitude (Debye)      :      5.57075

Rotational constants in cm-1:     0.010375     0.009147     0.006125
Rotational constants in MHz :   311.023899   274.233066   183.611954

                             ****ORCA TERMINATED NORMALLY****
TOTAL RUN TIME: 0 days 1 hours 48 minutes 4 seconds 119 msec
