                         Program Version 4.2.0 -  RELEASE  -
|  1> ! ri-mp2 cc-pvtz cc-pvtz/c TightSCF  NoKeepInts
|  2>
|  3> %scf
|  4>   MaxCore 4096
|  5> end
|  6> *xyz  0  1
|  7>     C       15.1916739   15.3614574   17.4089825
|  8>     C       15.5245468   15.3234932   15.9018531
|  9>     O       16.9373009   15.4007698   15.5783101
| 10>     C       17.9754646   15.6025507   16.4517639
| 11>     O       18.8481025   14.7595300   16.5535731
| 12>     C       17.9205471   16.7913652   17.3692072
| 13>     C       17.3666281   17.9864717   17.0398269
| 14>     C       16.7299228   18.3925741   15.7271074
| 15>     N       17.4435795   19.0585249   17.9335743
| 16>     C       18.2060923   19.0750345   19.0712356
| 17>     S       18.3415097   20.4305351   20.0085076
| 18>     N       18.8515489   17.9077422   19.3915763
| 19>     C       18.6504546   16.6157416   18.7073553
| 20>     C       17.9234254   15.6259204   19.6148386
| 21>     C       18.3549901   14.2887365   19.6912402
| 22>     C       17.6852737   13.3638045   20.5093146
| 23>     C       16.5723428   13.7776769   21.2603514
| 24>     C       16.1377707   15.1077402   21.1879019
| 25>     O       15.0568947   15.5085375   21.9032159
| 26>     C       16.8064889   16.0264746   20.3728503
| 27>     H       15.7995773   14.6360262   17.9641591
| 28>     H       14.1403238   15.0900641   17.5636509
| 29>     H       15.3297847   16.3582498   17.8399354
| 30>     H       15.1414840   14.3785908   15.4945591
| 31>     H       14.9815565   16.1267374   15.3895762
| 32>     H       17.1141741   17.8039815   14.8854476
| 33>     H       16.9445794   19.4413107   15.4854434
| 34>     H       15.6408072   18.2785470   15.7642390
| 35>     H       16.9871969   19.9286560   17.7094573
| 36>     H       19.3929227   17.9396719   20.2461907
| 37>     H       19.6468427   16.2028296   18.4908643
| 38>     H       19.2072240   13.9608244   19.0996718
| 39>     H       18.0276682   12.3312893   20.5535876
| 40>     H       16.0506995   13.0655511   21.8911781
| 41>     H       14.7691013   14.7553513   22.4408952
| 42>     H       16.4484994   17.0496380   20.3325581
| 43> *
| 44>
| 45>                          ****END OF INPUT****

CARTESIAN COORDINATES (ANGSTROEM)
---------------------------------
  C     15.191674   15.361457   17.408983
  C     15.524547   15.323493   15.901853
  O     16.937301   15.400770   15.578310
  C     17.975465   15.602551   16.451764
  O     18.848102   14.759530   16.553573
  C     17.920547   16.791365   17.369207
  C     17.366628   17.986472   17.039827
  C     16.729923   18.392574   15.727107
  N     17.443579   19.058525   17.933574
  C     18.206092   19.075035   19.071236
  S     18.341510   20.430535   20.008508
  N     18.851549   17.907742   19.391576
  C     18.650455   16.615742   18.707355
  C     17.923425   15.625920   19.614839
  C     18.354990   14.288737   19.691240
  C     17.685274   13.363805   20.509315
  C     16.572343   13.777677   21.260351
  C     16.137771   15.107740   21.187902
  O     15.056895   15.508537   21.903216
  C     16.806489   16.026475   20.372850
  H     15.799577   14.636026   17.964159
  H     14.140324   15.090064   17.563651
  H     15.329785   16.358250   17.839935
  H     15.141484   14.378591   15.494559
  H     14.981556   16.126737   15.389576
  H     17.114174   17.803981   14.885448
  H     16.944579   19.441311   15.485443
  H     15.640807   18.278547   15.764239
  H     16.987197   19.928656   17.709457
  H     19.392923   17.939672   20.246191
  H     19.646843   16.202830   18.490864
  H     19.207224   13.960824   19.099672
  H     18.027668   12.331289   20.553588
  H     16.050700   13.065551   21.891178
  H     14.769101   14.755351   22.440895
  H     16.448499   17.049638   20.332558

 Total Charge           Charge          ....    0
 Multiplicity           Mult            ....    1
 Number of Electrons    NEL             ....  154
 Basis Dimension        Dim             ....  828

ORBITAL ENERGIES
----------------

  NO   OCC          E(Eh)            E(eV)
   0   2.0000     -91.891055     -2500.4827
   1   2.0000     -20.596910      -560.4704
   2   2.0000     -20.590497      -560.2959
   3   2.0000     -20.549428      -559.1784
   4   2.0000     -15.630644      -425.3314
   5   2.0000     -15.610071      -424.7716
   6   2.0000     -11.397963      -310.1543
   7   2.0000     -11.386472      -309.8417
   8   2.0000     -11.337163      -308.4999
   9   2.0000     -11.313165      -307.8469
  10   2.0000     -11.311039      -307.7890
  11   2.0000     -11.310159      -307.7651
  12   2.0000     -11.266161      -306.5678
  13   2.0000     -11.265316      -306.5448
  14   2.0000     -11.259291      -306.3809
  15   2.0000     -11.253436      -306.2216
  16   2.0000     -11.243124      -305.9410
  17   2.0000     -11.238492      -305.8149
  18   2.0000     -11.235110      -305.7229
  19   2.0000     -11.234481      -305.7058
  20   2.0000      -8.896125      -242.0759
  21   2.0000      -6.577705      -178.9885
  22   2.0000      -6.575691      -178.9336
  23   2.0000      -6.575106      -178.9177
  24   2.0000      -1.443328       -39.2750
  25   2.0000      -1.416730       -38.5512
  26   2.0000      -1.355055       -36.8729
  27   2.0000      -1.342696       -36.5366
  28   2.0000      -1.240549       -33.7570
  29   2.0000      -1.157666       -31.5017
  30   2.0000      -1.123274       -30.5658
  31   2.0000      -1.045787       -28.4573
  32   2.0000      -1.038583       -28.2613
  33   2.0000      -1.015720       -27.6391
  34   2.0000      -1.004801       -27.3420
  35   2.0000      -0.989196       -26.9174
  36   2.0000      -0.927089       -25.2274
  37   2.0000      -0.900087       -24.4926
  38   2.0000      -0.853689       -23.2301
  39   2.0000      -0.840700       -22.8766
  40   2.0000      -0.833566       -22.6825
  41   2.0000      -0.824689       -22.4409
  42   2.0000      -0.744934       -20.2707
  43   2.0000      -0.731978       -19.9181
  44   2.0000      -0.729792       -19.8586
  45   2.0000      -0.694501       -18.8983
  46   2.0000      -0.687078       -18.6963
  47   2.0000      -0.679733       -18.4965
  48   2.0000      -0.674469       -18.3532
  49   2.0000      -0.662849       -18.0370
  50   2.0000      -0.654846       -17.8193
  51   2.0000      -0.651451       -17.7269
  52   2.0000      -0.641837       -17.4653
  53   2.0000      -0.622495       -16.9389
  54   2.0000      -0.607436       -16.5292
  55   2.0000      -0.604815       -16.4579
  56   2.0000      -0.601218       -16.3600
  57   2.0000      -0.585734       -15.9386
  58   2.0000      -0.575734       -15.6665
  59   2.0000      -0.564798       -15.3689
  60   2.0000      -0.561584       -15.2815
  61   2.0000      -0.551468       -15.0062
  62   2.0000      -0.543895       -14.8001
  63   2.0000      -0.534314       -14.5394
  64   2.0000      -0.521931       -14.2025
  65   2.0000      -0.513098       -13.9621
  66   2.0000      -0.500468       -13.6184
  67   2.0000      -0.489126       -13.3098
  68   2.0000      -0.485860       -13.2209
  69   2.0000      -0.472038       -12.8448
  70   2.0000      -0.456936       -12.4339
  71   2.0000      -0.447871       -12.1872
  72   2.0000      -0.357159        -9.7188
  73   2.0000      -0.348072        -9.4715
  74   2.0000      -0.330346        -8.9892
  75   2.0000      -0.321819        -8.7571
  76   2.0000      -0.318769        -8.6742
  77   0.0000       0.073728         2.0062
  78   0.0000       0.107929         2.9369
  79   0.0000       0.116244         3.1632
  80   0.0000       0.131383         3.5751
  81   0.0000       0.134329         3.6553

MULLIKEN ATOMIC CHARGES
-----------------------
   0 C :   -0.347568
   1 C :    0.036797
   2 O :   -0.356631
   3 C :    0.456860
   4 O :   -0.386225
   5 C :   -0.223525
   6 C :    0.154142
   7 C :   -0.335197
   8 N :   -0.130075
   9 C :    0.191372
  10 S :   -0.436913
  11 N :   -0.207493
  12 C :    0.058527
  13 C :    0.029074
  14 C :   -0.190986
  15 C :   -0.134572
  16 C :   -0.279482
  17 C :    0.316683
  18 O :   -0.359228
  19 C :   -0.272549
  20 H :    0.131805
  21 H :    0.123876
  22 H :    0.110263
  23 H :    0.126771
  24 H :    0.092176
  25 H :    0.147045
  26 H :    0.126937
  27 H :    0.119357
  28 H :    0.197917
  29 H :    0.196985
  30 H :    0.162877
  31 H :    0.170700
  32 H :    0.163021
  33 H :    0.131508
  34 H :    0.240969
  35 H :    0.174782
Sum of atomic charges:   -0.0000000

LOEWDIN ATOMIC CHARGES
----------------------
   0 C :    0.104529
   1 C :   -0.015063
   2 O :    0.285428
   3 C :   -0.419125
   4 O :    0.124287
   5 C :   -0.087625
   6 C :   -0.079955
   7 C :    0.127219
   8 N :    0.404323
   9 C :   -0.460257
  10 S :   -0.034789
  11 N :    0.398002
  12 C :   -0.044768
  13 C :   -0.043068
  14 C :    0.020031
  15 C :    0.041696
  16 C :   -0.002031
  17 C :   -0.194115
  18 O :    0.394509
  19 C :    0.029630
  20 H :   -0.018669
  21 H :   -0.020928
  22 H :   -0.034980
  23 H :   -0.021061
  24 H :   -0.035518
  25 H :   -0.006483
  26 H :   -0.013263
  27 H :   -0.018077
  28 H :   -0.057586
  29 H :   -0.063146
  30 H :   -0.002603
  31 H :   -0.022540
  32 H :   -0.019334
  33 H :   -0.035253
  34 H :   -0.153798
  35 H :   -0.025619

  Mayer bond orders larger than 0.100000
B(  0-C ,  1-C ) :   0.9627 B(  0-C , 20-H ) :   0.9661 B(  0-C , 21-H ) :   0.9756
B(  0-C , 22-H ) :   0.9702 B(  1-C ,  2-O ) :   0.8974 B(  1-C , 23-H ) :   0.9815
B(  1-C , 24-H ) :   0.9767 B(  2-O ,  3-C ) :   1.1431 B(  3-C ,  4-O ) :   2.0683
B(  3-C ,  5-C ) :   0.9601 B(  5-C ,  6-C ) :   1.6735 B(  5-C , 12-C ) :   0.9617
B(  6-C ,  7-C ) :   0.9431 B(  6-C ,  8-N ) :   1.1233 B(  7-C , 25-H ) :   0.9699
B(  7-C , 26-H ) :   0.9826 B(  7-C , 27-H ) :   0.9649 B(  8-N ,  9-C ) :   1.1842
B(  8-N , 28-H ) :   0.9504 B(  9-C , 10-S ) :   1.6144 B(  9-C , 11-N ) :   1.2957
B( 11-N , 12-C ) :   0.9883 B( 11-N , 29-H ) :   0.9511 B( 12-C , 13-C ) :   0.9462
B( 12-C , 30-H ) :   0.9980 B( 13-C , 14-C ) :   1.3894 B( 13-C , 19-C ) :   1.3451
B( 14-C , 15-C ) :   1.3967 B( 14-C , 31-H ) :   0.9586 B( 15-C , 16-C ) :   1.3610
B( 15-C , 32-H ) :   0.9706 B( 16-C , 17-C ) :   1.3299 B( 16-C , 33-H ) :   0.9849
B( 17-C , 18-O ) :   1.1102 B( 17-C , 19-C ) :   1.3734 B( 18-O , 34-H ) :   0.9799
B( 19-C , 35-H ) :   0.9577

MP2 TOTAL ENERGY:    -1274.329740064 Eh
FINAL SINGLE POINT ENERGY     -1274.329740063535

DIPOLE MOMENT
-------------
                                X             Y             Z
Electronic contribution:      9.68657       6.50197       6.14835
Nuclear contribution   :    -11.29863      -7.49853      -6.68898
                        -----------------------------------------
Total Dipole Moment    :     -1.61206      -0.99656      -0.54063
                        -----------------------------------------
Magnitude (a.u.)       :      1.97082
Magnitude (Debye)      :      5.00943

Rotational constants in cm-1:     0.011419     0.009833     0.006827
Rotational constants in MHz :   342.346282   294.797942   204.655853

                             ****ORCA TERMINATED NORMALLY****
TOTAL RUN TIME: 0 days 2 hours 2 minutes 1 seconds 617 msec
