                         Program Version 4.2.0 -  RELEASE  -
|  1> ! ri-mp2 cc-pvtz cc-pvtz/c TightSCF  NoKeepInts
|  2>
|  3> %scf
|  4>   MaxCore 4096
|  5> end
|  6> *xyz  0  1
|  7>     C       14.9177354   14.0369006   15.8854374
|  8>     C       15.7207431   15.0086436   14.9929972
|  9>     O       16.3206500   16.0505567   15.7900800
| 10>     C       17.2530507   15.7677150   16.7482412
| 11>     O       17.7743885   14.6688282   16.8483617
| 12>     C       17.6805494   16.9374995   17.5921824
| 13>     C       17.2725170   18.2251025   17.4301676
| 14>     C       16.3087010   18.7862652   16.4042757
| 15>     N       17.8012515   19.2285855   18.2497674
| 16>     C       18.8294723   19.0572725   19.1381881
| 17>     S       19.4843939   20.3279431   19.9701697
| 18>     N       19.2858948   17.7747818   19.3020755
| 19>     C       18.6514133   16.5761397   18.7233352
| 20>     C       17.9508728   15.7645192   19.8103381
| 21>     C       18.2523436   14.4014010   19.9870281
| 22>     C       17.6085251   13.6480139   20.9829145
| 23>     C       16.6538014   14.2620450   21.8111643
| 24>     C       16.3477442   15.6184522   21.6364909
| 25>     O       15.4217639   16.2128502   22.4306298
| 26>     C       16.9898440   16.3655764   20.6440076
| 27>     H       15.5741581   13.4420735   16.5320433
| 28>     H       14.3444176   13.3380480   15.2645548
| 29>     H       14.2116686   14.5865884   16.5199704
| 30>     H       16.4963530   14.4549591   14.4466354
| 31>     H       15.0457848   15.4628853   14.2564101
| 32>     H       16.6676966   18.5903164   15.3862432
| 33>     H       16.1729658   19.8705817   16.4967197
| 34>     H       15.3185354   18.3257230   16.5103622
| 35>     H       17.4797306   20.1774505   18.1445691
| 36>     H       20.0227855   17.6684236   19.9873009
| 37>     H       19.4509206   15.9557762   18.2929595
| 38>     H       18.9776164   13.9196913   19.3356759
| 39>     H       17.8464453   12.5928376   21.1044277
| 40>     H       16.1527413   13.6834602   22.5799616
| 41>     H       15.1194465   15.5494931   23.0688232
| 42>     H       16.7400779   17.4146004   20.5294906
| 43> *
| 44>
| 45>                          ****END OF INPUT****

CARTESIAN COORDINATES (ANGSTROEM)
---------------------------------
  C     14.917735   14.036901   15.885437
  C     15.720743   15.008644   14.992997
  O     16.320650   16.050557   15.790080
  C     17.253051   15.767715   16.748241
  O     17.774388   14.668828   16.848362
  C     17.680549   16.937499   17.592182
  C     17.272517   18.225102   17.430168
  C     16.308701   18.786265   16.404276
  N     17.801251   19.228585   18.249767
  C     18.829472   19.057272   19.138188
  S     19.484394   20.327943   19.970170
  N     19.285895   17.774782   19.302076
  C     18.651413   16.576140   18.723335
  C     17.950873   15.764519   19.810338
  C     18.252344   14.401401   19.987028
  C     17.608525   13.648014   20.982914
  C     16.653801   14.262045   21.811164
  C     16.347744   15.618452   21.636491
  O     15.421764   16.212850   22.430630
  C     16.989844   16.365576   20.644008
  H     15.574158   13.442073   16.532043
  H     14.344418   13.338048   15.264555
  H     14.211669   14.586588   16.519970
  H     16.496353   14.454959   14.446635
  H     15.045785   15.462885   14.256410
  H     16.667697   18.590316   15.386243
  H     16.172966   19.870582   16.496720
  H     15.318535   18.325723   16.510362
  H     17.479731   20.177450   18.144569
  H     20.022786   17.668424   19.987301
  H     19.450921   15.955776   18.292959
  H     18.977616   13.919691   19.335676
  H     17.846445   12.592838   21.104428
  H     16.152741   13.683460   22.579962
  H     15.119447   15.549493   23.068823
  H     16.740078   17.414600   20.529491

 Total Charge           Charge          ....    0
 Multiplicity           Mult            ....    1
 Number of Electrons    NEL             ....  154
 Basis Dimension        Dim             ....  828

ORBITAL ENERGIES
----------------

  NO   OCC          E(Eh)            E(eV)
   0   2.0000     -91.888071     -2500.4015
   1   2.0000     -20.603687      -560.6548
   2   2.0000     -20.591043      -560.3108
   3   2.0000     -20.544276      -559.0382
   4   2.0000     -15.628647      -425.2771
   5   2.0000     -15.606514      -424.6748
   6   2.0000     -11.397014      -310.1285
   7   2.0000     -11.382717      -309.7395
   8   2.0000     -11.337472      -308.5083
   9   2.0000     -11.306815      -307.6741
  10   2.0000     -11.304758      -307.6181
  11   2.0000     -11.302776      -307.5642
  12   2.0000     -11.261032      -306.4283
  13   2.0000     -11.258589      -306.3618
  14   2.0000     -11.252760      -306.2032
  15   2.0000     -11.246929      -306.0445
  16   2.0000     -11.236599      -305.7634
  17   2.0000     -11.232807      -305.6602
  18   2.0000     -11.229619      -305.5735
  19   2.0000     -11.225693      -305.4666
  20   2.0000      -8.893128      -241.9943
  21   2.0000      -6.574704      -178.9068
  22   2.0000      -6.572699      -178.8522
  23   2.0000      -6.572112      -178.8363
  24   2.0000      -1.452640       -39.5283
  25   2.0000      -1.410781       -38.3893
  26   2.0000      -1.356657       -36.9165
  27   2.0000      -1.339507       -36.4498
  28   2.0000      -1.236929       -33.6586
  29   2.0000      -1.151496       -31.3338
  30   2.0000      -1.118935       -30.4478
  31   2.0000      -1.041528       -28.3414
  32   2.0000      -1.033959       -28.1354
  33   2.0000      -1.008853       -27.4523
  34   2.0000      -0.997045       -27.1310
  35   2.0000      -0.982491       -26.7349
  36   2.0000      -0.921059       -25.0633
  37   2.0000      -0.895697       -24.3732
  38   2.0000      -0.847773       -23.0691
  39   2.0000      -0.835072       -22.7235
  40   2.0000      -0.827182       -22.5088
  41   2.0000      -0.815919       -22.2023
  42   2.0000      -0.750693       -20.4274
  43   2.0000      -0.734725       -19.9929
  44   2.0000      -0.724258       -19.7080
  45   2.0000      -0.690227       -18.7820
  46   2.0000      -0.685387       -18.6503
  47   2.0000      -0.678876       -18.4732
  48   2.0000      -0.670887       -18.2558
  49   2.0000      -0.654839       -17.8191
  50   2.0000      -0.651109       -17.7176
  51   2.0000      -0.643989       -17.5238
  52   2.0000      -0.630722       -17.1628
  53   2.0000      -0.613701       -16.6997
  54   2.0000      -0.599897       -16.3240
  55   2.0000      -0.598942       -16.2980
  56   2.0000      -0.594488       -16.1769
  57   2.0000      -0.582270       -15.8444
  58   2.0000      -0.573010       -15.5924
  59   2.0000      -0.564968       -15.3736
  60   2.0000      -0.558420       -15.1954
  61   2.0000      -0.543274       -14.7832
  62   2.0000      -0.538458       -14.6522
  63   2.0000      -0.525594       -14.3021
  64   2.0000      -0.516121       -14.0444
  65   2.0000      -0.509430       -13.8623
  66   2.0000      -0.500272       -13.6131
  67   2.0000      -0.494977       -13.4690
  68   2.0000      -0.480387       -13.0720
  69   2.0000      -0.463595       -12.6151
  70   2.0000      -0.457526       -12.4499
  71   2.0000      -0.451432       -12.2841
  72   2.0000      -0.354247        -9.6395
  73   2.0000      -0.343493        -9.3469
  74   2.0000      -0.327142        -8.9020
  75   2.0000      -0.315495        -8.5851
  76   2.0000      -0.312991        -8.5169
  77   0.0000       0.075408         2.0520
  78   0.0000       0.114171         3.1068
  79   0.0000       0.121723         3.3123
  80   0.0000       0.136587         3.7167
  81   0.0000       0.141098         3.8395

MULLIKEN ATOMIC CHARGES
-----------------------
   0 C :   -0.304501
   1 C :    0.035800
   2 O :   -0.347510
   3 C :    0.459808
   4 O :   -0.440174
   5 C :   -0.178250
   6 C :    0.144117
   7 C :   -0.281423
   8 N :   -0.119697
   9 C :    0.201080
  10 S :   -0.438758
  11 N :   -0.196824
  12 C :    0.033349
  13 C :    0.060364
  14 C :   -0.162392
  15 C :   -0.134066
  16 C :   -0.278657
  17 C :    0.311722
  18 O :   -0.359283
  19 C :   -0.274268
  20 H :    0.127611
  21 H :    0.096015
  22 H :    0.093514
  23 H :    0.101493
  24 H :    0.107570
  25 H :    0.128169
  26 H :    0.100954
  27 H :    0.125592
  28 H :    0.196633
  29 H :    0.193520
  30 H :    0.153800
  31 H :    0.153580
  32 H :    0.158890
  33 H :    0.127792
  34 H :    0.240015
  35 H :    0.164417
Sum of atomic charges:    0.0000000

LOEWDIN ATOMIC CHARGES
----------------------
   0 C :    0.105746
   1 C :   -0.015248
   2 O :    0.302848
   3 C :   -0.413314
   4 O :    0.102864
   5 C :   -0.090649
   6 C :   -0.063134
   7 C :    0.124902
   8 N :    0.405097
   9 C :   -0.459333
  10 S :   -0.035630
  11 N :    0.398239
  12 C :   -0.046865
  13 C :   -0.038765
  14 C :    0.022229
  15 C :    0.040555
  16 C :   -0.002293
  17 C :   -0.192640
  18 O :    0.392905
  19 C :    0.028150
  20 H :   -0.024303
  21 H :   -0.026895
  22 H :   -0.029788
  23 H :   -0.028125
  24 H :   -0.025217
  25 H :   -0.008182
  26 H :   -0.021564
  27 H :   -0.009937
  28 H :   -0.059295
  29 H :   -0.063504
  30 H :   -0.005453
  31 H :   -0.025331
  32 H :   -0.021346
  33 H :   -0.036468
  34 H :   -0.154953
  35 H :   -0.025303

  Mayer bond orders larger than 0.100000
B(  0-C ,  1-C ) :   0.9627 B(  0-C , 20-H ) :   0.9718 B(  0-C , 21-H ) :   0.9765
B(  0-C , 22-H ) :   0.9761 B(  1-C ,  2-O ) :   0.8997 B(  1-C , 23-H ) :   0.9794
B(  1-C , 24-H ) :   0.9845 B(  2-O ,  3-C ) :   1.1611 B(  3-C ,  4-O ) :   1.9520
B(  3-C ,  5-C ) :   1.0727 B(  5-C ,  6-C ) :   1.6384 B(  5-C , 12-C ) :   0.9677
B(  6-C ,  7-C ) :   0.9576 B(  6-C ,  8-N ) :   1.1550 B(  7-C , 25-H ) :   0.9633
B(  7-C , 26-H ) :   0.9916 B(  7-C , 27-H ) :   0.9649 B(  8-N ,  9-C ) :   1.1760
B(  8-N , 28-H ) :   0.9485 B(  9-C , 10-S ) :   1.6113 B(  9-C , 11-N ) :   1.3057
B( 11-N , 12-C ) :   0.9924 B( 11-N , 29-H ) :   0.9519 B( 12-C , 13-C ) :   0.9458
B( 12-C , 30-H ) :   1.0014 B( 13-C , 14-C ) :   1.3747 B( 13-C , 19-C ) :   1.3689
B( 14-C , 15-C ) :   1.3945 B( 14-C , 31-H ) :   0.9649 B( 15-C , 16-C ) :   1.3621
B( 15-C , 32-H ) :   0.9715 B( 16-C , 17-C ) :   1.3319 B( 16-C , 33-H ) :   0.9861
B( 17-C , 18-O ) :   1.1078 B( 17-C , 19-C ) :   1.3793 B( 18-O , 34-H ) :   0.9806
B( 19-C , 35-H ) :   0.9584

MP2 TOTAL ENERGY:    -1274.347985464 Eh
FINAL SINGLE POINT ENERGY     -1274.347985464267

DIPOLE MOMENT
-------------
                                X             Y             Z
Electronic contribution:     10.77397       9.93291       9.84608
Nuclear contribution   :    -12.33660     -11.11498     -10.92116
                        -----------------------------------------
Total Dipole Moment    :     -1.56263      -1.18207      -1.07508
                        -----------------------------------------
Magnitude (a.u.)       :      2.23493
Magnitude (Debye)      :      5.68074

Rotational constants in cm-1:     0.010575     0.009086     0.005898
Rotational constants in MHz :   317.030094   272.388419   176.829851

                             ****ORCA TERMINATED NORMALLY****
TOTAL RUN TIME: 0 days 1 hours 42 minutes 17 seconds 647 msec
