                         Program Version 5.0.0 -  RELEASE  -
|  1> ! ri-mp2 cc-pvtz cc-pvtz/c TightSCF NoKeepInts
|  2>
|  3> %scf
|  4>   MaxCore 4096
|  5> end
|  6> *xyz  0  1
|  7>     C       14.3125612   15.2632460   16.4346375
|  8>     C       15.7729808   14.8431095   16.6691118
|  9>     O       16.6158219   15.7430046   15.9298652
| 10>     C       17.8812760   15.9186251   16.4024399
| 11>     O       18.6386879   14.9660402   16.4707039
| 12>     C       17.9406503   17.0216763   17.4141219
| 13>     C       17.2977912   18.2049415   17.2586675
| 14>     C       16.4670208   18.6443691   16.0714193
| 15>     N       17.4402838   19.2055608   18.2243524
| 16>     C       18.3120664   19.1513010   19.2806635
| 17>     S       18.5070767   20.4270219   20.3147619
| 18>     N       19.0145251   17.9820426   19.4374663
| 19>     C       18.7884272   16.7485185   18.6593173
| 20>     C       18.1346610   15.6757693   19.5263936
| 21>     C       18.6852747   14.3829410   19.5958842
| 22>     C       18.0748776   13.3847451   20.3734740
| 23>     C       16.9016132   13.6800466   21.0881275
| 24>     C       16.3472323   14.9651028   21.0187657
| 25>     O       15.2076543   15.2505763   21.6973395
| 26>     C       16.9564685   15.9562728   20.2430572
| 27>     H       14.1304078   16.2714128   16.8252753
| 28>     H       13.6297220   14.5722660   16.9438807
| 29>     H       14.0744032   15.2542399   15.3636709
| 30>     H       15.9910065   14.8954494   17.7444448
| 31>     H       15.9392243   13.8104633   16.3344806
| 32>     H       15.4463595   18.2506755   16.1439757
| 33>     H       16.8985301   18.2808652   15.1303616
| 34>     H       16.4016730   19.7363301   15.9904964
| 35>     H       16.9354038   20.0719668   18.1247666
| 36>     H       19.6303102   17.9596452   20.2402852
| 37>     H       19.7683976   16.3766269   18.3263803
| 38>     H       19.5816410   14.1461719   19.0272039
| 39>     H       18.5088514   12.3871141   20.4139286
| 40>     H       16.4258887   12.9111060   21.6878599
| 41>     H       14.9784237   14.4687962   22.2223133
| 42>     H       16.5098061   16.9439598   20.2041056
| 43> *
| 44>
| 45>                          ****END OF INPUT****

CARTESIAN COORDINATES (ANGSTROEM)
---------------------------------
  C     14.312561   15.263246   16.434638
  C     15.772981   14.843110   16.669112
  O     16.615822   15.743005   15.929865
  C     17.881276   15.918625   16.402440
  O     18.638688   14.966040   16.470704
  C     17.940650   17.021676   17.414122
  C     17.297791   18.204941   17.258668
  C     16.467021   18.644369   16.071419
  N     17.440284   19.205561   18.224352
  C     18.312066   19.151301   19.280663
  S     18.507077   20.427022   20.314762
  N     19.014525   17.982043   19.437466
  C     18.788427   16.748518   18.659317
  C     18.134661   15.675769   19.526394
  C     18.685275   14.382941   19.595884
  C     18.074878   13.384745   20.373474
  C     16.901613   13.680047   21.088127
  C     16.347232   14.965103   21.018766
  O     15.207654   15.250576   21.697339
  C     16.956468   15.956273   20.243057
  H     14.130408   16.271413   16.825275
  H     13.629722   14.572266   16.943881
  H     14.074403   15.254240   15.363671
  H     15.991006   14.895449   17.744445
  H     15.939224   13.810463   16.334481
  H     15.446359   18.250675   16.143976
  H     16.898530   18.280865   15.130362
  H     16.401673   19.736330   15.990496
  H     16.935404   20.071967   18.124767
  H     19.630310   17.959645   20.240285
  H     19.768398   16.376627   18.326380
  H     19.581641   14.146172   19.027204
  H     18.508851   12.387114   20.413929
  H     16.425889   12.911106   21.687860
  H     14.978424   14.468796   22.222313
  H     16.509806   16.943960   20.204106

 Total Charge           Charge          ....    0
 Multiplicity           Mult            ....    1
 Number of Electrons    NEL             ....  154
 Basis Dimension        Dim             ....  828

ORBITAL ENERGIES
----------------

  NO   OCC          E(Eh)            E(eV)
   0   2.0000     -91.889785     -2500.4482
   1   2.0000     -20.597539      -560.4875
   2   2.0000     -20.580709      -560.0296
   3   2.0000     -20.557317      -559.3930
   4   2.0000     -15.629210      -425.2924
   5   2.0000     -15.609369      -424.7525
   6   2.0000     -11.393579      -310.0350
   7   2.0000     -11.385368      -309.8116
   8   2.0000     -11.333468      -308.3993
   9   2.0000     -11.314053      -307.8710
  10   2.0000     -11.310152      -307.7649
  11   2.0000     -11.297530      -307.4214
  12   2.0000     -11.261256      -306.4344
  13   2.0000     -11.260303      -306.4084
  14   2.0000     -11.259431      -306.3847
  15   2.0000     -11.254061      -306.2386
  16   2.0000     -11.243741      -305.9578
  17   2.0000     -11.239457      -305.8412
  18   2.0000     -11.236504      -305.7608
  19   2.0000     -11.232810      -305.6603
  20   2.0000      -8.894858      -242.0414
  21   2.0000      -6.576435      -178.9539
  22   2.0000      -6.574426      -178.8992
  23   2.0000      -6.573840      -178.8833
  24   2.0000      -1.452996       -39.5380
  25   2.0000      -1.417373       -38.5687
  26   2.0000      -1.356280       -36.9063
  27   2.0000      -1.340449       -36.4755
  28   2.0000      -1.238787       -33.7091
  29   2.0000      -1.158012       -31.5111
  30   2.0000      -1.122369       -30.5412
  31   2.0000      -1.046006       -28.4633
  32   2.0000      -1.035134       -28.1674
  33   2.0000      -1.015587       -27.6355
  34   2.0000      -1.000534       -27.2259
  35   2.0000      -0.986511       -26.8443
  36   2.0000      -0.924630       -25.1605
  37   2.0000      -0.881185       -23.9783
  38   2.0000      -0.849187       -23.1075
  39   2.0000      -0.840242       -22.8641
  40   2.0000      -0.834016       -22.6947
  41   2.0000      -0.828424       -22.5426
  42   2.0000      -0.756988       -20.5987
  43   2.0000      -0.735762       -20.0211
  44   2.0000      -0.729525       -19.8514
  45   2.0000      -0.695653       -18.9297
  46   2.0000      -0.686516       -18.6811
  47   2.0000      -0.681755       -18.5515
  48   2.0000      -0.675788       -18.3891
  49   2.0000      -0.656130       -17.8542
  50   2.0000      -0.653586       -17.7850
  51   2.0000      -0.643196       -17.5022
  52   2.0000      -0.635060       -17.2809
  53   2.0000      -0.614605       -16.7243
  54   2.0000      -0.606214       -16.4959
  55   2.0000      -0.604072       -16.4376
  56   2.0000      -0.601133       -16.3576
  57   2.0000      -0.579018       -15.7559
  58   2.0000      -0.575685       -15.6652
  59   2.0000      -0.566418       -15.4130
  60   2.0000      -0.558871       -15.2077
  61   2.0000      -0.548479       -14.9249
  62   2.0000      -0.546200       -14.8629
  63   2.0000      -0.523329       -14.2405
  64   2.0000      -0.516422       -14.0525
  65   2.0000      -0.513132       -13.9630
  66   2.0000      -0.504172       -13.7192
  67   2.0000      -0.498956       -13.5773
  68   2.0000      -0.481781       -13.1099
  69   2.0000      -0.466631       -12.6977
  70   2.0000      -0.455791       -12.4027
  71   2.0000      -0.453395       -12.3375
  72   2.0000      -0.355716        -9.6795
  73   2.0000      -0.349429        -9.5084
  74   2.0000      -0.329111        -8.9556
  75   2.0000      -0.321373        -8.7450
  76   2.0000      -0.316864        -8.6223
  77   0.0000       0.069390         1.8882
  78   0.0000       0.102554         2.7906
  79   0.0000       0.118406         3.2220
  80   0.0000       0.130708         3.5567
  81   0.0000       0.134041         3.6474

MULLIKEN ATOMIC CHARGES
-----------------------
   0 C :   -0.282068
   1 C :    0.044485
   2 O :   -0.374005
   3 C :    0.459073
   4 O :   -0.390622
   5 C :   -0.203973
   6 C :    0.130578
   7 C :   -0.283813
   8 N :   -0.124491
   9 C :    0.198539
  10 S :   -0.438142
  11 N :   -0.201560
  12 C :    0.059242
  13 C :    0.020931
  14 C :   -0.156498
  15 C :   -0.137080
  16 C :   -0.276469
  17 C :    0.314236
  18 O :   -0.359571
  19 C :   -0.273692
  20 H :    0.088585
  21 H :    0.104289
  22 H :    0.103150
  23 H :    0.095317
  24 H :    0.111870
  25 H :    0.123245
  26 H :    0.124471
  27 H :    0.108632
  28 H :    0.197563
  29 H :    0.194288
  30 H :    0.157413
  31 H :    0.160600
  32 H :    0.161957
  33 H :    0.132065
  34 H :    0.241089
  35 H :    0.170364
Sum of atomic charges:   -0.0000000

LOEWDIN ATOMIC CHARGES
----------------------
   0 C :    0.108758
   1 C :   -0.015074
   2 O :    0.285331
   3 C :   -0.419788
   4 O :    0.134743
   5 C :   -0.094559
   6 C :   -0.076509
   7 C :    0.127254
   8 N :    0.404129
   9 C :   -0.457853
  10 S :   -0.035417
  11 N :    0.396939
  12 C :   -0.044965
  13 C :   -0.042751
  14 C :    0.021582
  15 C :    0.042873
  16 C :   -0.001773
  17 C :   -0.195280
  18 O :    0.394154
  19 C :    0.026776
  20 H :   -0.031600
  21 H :   -0.022574
  22 H :   -0.025720
  23 H :   -0.029453
  24 H :   -0.027654
  25 H :   -0.012306
  26 H :   -0.007391
  27 H :   -0.018573
  28 H :   -0.058483
  29 H :   -0.064093
  30 H :   -0.003981
  31 H :   -0.023723
  32 H :   -0.019664
  33 H :   -0.035182
  34 H :   -0.153662
  35 H :   -0.024513

  Mayer bond orders larger than 0.100000
B(  0-C ,  1-C ) :   0.9752 B(  0-C , 20-H ) :   0.9782 B(  0-C , 21-H ) :   0.9775
B(  0-C , 22-H ) :   0.9769 B(  1-C ,  2-O ) :   0.8929 B(  1-C , 23-H ) :   0.9626
B(  1-C , 24-H ) :   0.9841 B(  2-O ,  3-C ) :   1.0887 B(  3-C ,  4-O ) :   2.0389
B(  3-C ,  5-C ) :   1.0144 B(  5-C ,  6-C ) :   1.6719 B(  5-C , 12-C ) :   0.9587
B(  6-C ,  7-C ) :   0.9525 B(  6-C ,  8-N ) :   1.1350 B(  7-C , 25-H ) :   0.9632
B(  7-C , 26-H ) :   0.9710 B(  7-C , 27-H ) :   0.9874 B(  8-N ,  9-C ) :   1.1848
B(  8-N , 28-H ) :   0.9502 B(  9-C , 10-S ) :   1.6133 B(  9-C , 11-N ) :   1.2974
B( 11-N , 12-C ) :   0.9932 B( 11-N , 29-H ) :   0.9518 B( 12-C , 13-C ) :   0.9458
B( 12-C , 30-H ) :   0.9980 B( 13-C , 14-C ) :   1.3830 B( 13-C , 19-C ) :   1.3597
B( 14-C , 15-C ) :   1.3952 B( 14-C , 31-H ) :   0.9617 B( 15-C , 16-C ) :   1.3644
B( 15-C , 32-H ) :   0.9707 B( 16-C , 17-C ) :   1.3296 B( 16-C , 33-H ) :   0.9844
B( 17-C , 18-O ) :   1.1110 B( 17-C , 19-C ) :   1.3721 B( 18-O , 34-H ) :   0.9796
B( 19-C , 35-H ) :   0.9594

MP2 TOTAL ENERGY:    -1274.321329957 Eh
FINAL SINGLE POINT ENERGY     -1274.321329957075

DIPOLE MOMENT
-------------
                                X             Y             Z
Electronic contribution:     11.34604       7.83270       7.17554
Nuclear contribution   :    -12.57909      -9.09116      -7.70207
                        -----------------------------------------
Total Dipole Moment    :     -1.23305      -1.25846      -0.52653
                        -----------------------------------------
Magnitude (a.u.)       :      1.83885
Magnitude (Debye)      :      4.67398

Rotational constants in cm-1:     0.011509     0.009333     0.006843
Rotational constants in MHz :   345.016304   279.782036   205.152178

                             ****ORCA TERMINATED NORMALLY****
TOTAL RUN TIME: 0 days 2 hours 4 minutes 7 seconds 454 msec
