                         Program Version 4.2.0 -  RELEASE  -
|  1> ! ri-mp2 cc-pvtz cc-pvtz/c TightSCF  NoKeepInts
|  2>
|  3> %scf
|  4>   MaxCore 4096
|  5> end
|  6> *xyz  0  1
|  7>     C       15.9545686   12.9616750   16.3415696
|  8>     C       15.6386792   14.4026017   15.9067712
|  9>     O       16.4766081   15.2744566   16.6814717
| 10>     C       16.1913013   16.6103346   16.7244447
| 11>     O       15.2556306   17.0945915   16.1099145
| 12>     C       17.2158526   17.3966701   17.4947113
| 13>     C       17.1980541   18.7522911   17.5585245
| 14>     C       16.2001480   19.6875255   16.9097651
| 15>     N       18.1970358   19.4344818   18.2595166
| 16>     C       19.2910711   18.8468969   18.8364433
| 17>     S       20.4759448   19.7365338   19.5716391
| 18>     N       19.3559679   17.4784161   18.7727533
| 19>     C       18.2952422   16.6001031   18.2459375
| 20>     C       17.7008139   15.7686861   19.3791536
| 21>     C       17.8584011   14.3700561   19.3970585
| 22>     C       17.3092664   13.6017124   20.4373245
| 23>     C       16.5993438   14.2369921   21.4704561
| 24>     C       16.4439801   15.6299739   21.4579635
| 25>     O       15.7595258   16.2462527   22.4543575
| 26>     C       16.9912187   16.3919040   20.4210518
| 27>     H       17.0064415   12.7200521   16.1456327
| 28>     H       15.3289924   12.2481108   15.7916890
| 29>     H       15.7623844   12.8323415   17.4142542
| 30>     H       15.8287505   14.5376853   14.8337762
| 31>     H       14.5784521   14.6125625   16.1050907
| 32>     H       16.2004953   19.5567846   15.8201528
| 33>     H       16.4051724   20.7444116   17.1165195
| 34>     H       15.1840432   19.4724582   17.2646538
| 35>     H       18.1665874   20.4399385   18.3158118
| 36>     H       20.1545493   17.0714097   19.2422981
| 37>     H       18.7680078   15.9176547   17.5257506
| 38>     H       18.4006162   13.8758583   18.5954551
| 39>     H       17.4336029   12.5203237   20.4402097
| 40>     H       16.1732467   13.6480992   22.2759605
| 41>     H       15.4814918   15.5629485   23.0824705
| 42>     H       16.8655121   17.4692057   20.4334469
| 43> *
| 44>
| 45>                          ****END OF INPUT****

CARTESIAN COORDINATES (ANGSTROEM)
---------------------------------
  C     15.954569   12.961675   16.341570
  C     15.638679   14.402602   15.906771
  O     16.476608   15.274457   16.681472
  C     16.191301   16.610335   16.724445
  O     15.255631   17.094591   16.109914
  C     17.215853   17.396670   17.494711
  C     17.198054   18.752291   17.558525
  C     16.200148   19.687525   16.909765
  N     18.197036   19.434482   18.259517
  C     19.291071   18.846897   18.836443
  S     20.475945   19.736534   19.571639
  N     19.355968   17.478416   18.772753
  C     18.295242   16.600103   18.245938
  C     17.700814   15.768686   19.379154
  C     17.858401   14.370056   19.397058
  C     17.309266   13.601712   20.437324
  C     16.599344   14.236992   21.470456
  C     16.443980   15.629974   21.457964
  O     15.759526   16.246253   22.454358
  C     16.991219   16.391904   20.421052
  H     17.006441   12.720052   16.145633
  H     15.328992   12.248111   15.791689
  H     15.762384   12.832342   17.414254
  H     15.828750   14.537685   14.833776
  H     14.578452   14.612562   16.105091
  H     16.200495   19.556785   15.820153
  H     16.405172   20.744412   17.116519
  H     15.184043   19.472458   17.264654
  H     18.166587   20.439939   18.315812
  H     20.154549   17.071410   19.242298
  H     18.768008   15.917655   17.525751
  H     18.400616   13.875858   18.595455
  H     17.433603   12.520324   20.440210
  H     16.173247   13.648099   22.275961
  H     15.481492   15.562948   23.082470
  H     16.865512   17.469206   20.433447

 Total Charge           Charge          ....    0
 Multiplicity           Mult            ....    1
 Number of Electrons    NEL             ....  154
 Basis Dimension        Dim             ....  828

ORBITAL ENERGIES
----------------

  NO   OCC          E(Eh)            E(eV)
   0   2.0000     -91.888557     -2500.4148
   1   2.0000     -20.603323      -560.6449
   2   2.0000     -20.595459      -560.4309
   3   2.0000     -20.541659      -558.9670
   4   2.0000     -15.628648      -425.2771
   5   2.0000     -15.607943      -424.7137
   6   2.0000     -11.394334      -310.0556
   7   2.0000     -11.383671      -309.7654
   8   2.0000     -11.335580      -308.4568
   9   2.0000     -11.312513      -307.8291
  10   2.0000     -11.308422      -307.7178
  11   2.0000     -11.296743      -307.4000
  12   2.0000     -11.258752      -306.3662
  13   2.0000     -11.258473      -306.3586
  14   2.0000     -11.253949      -306.2355
  15   2.0000     -11.251628      -306.1724
  16   2.0000     -11.242262      -305.9175
  17   2.0000     -11.237723      -305.7940
  18   2.0000     -11.237214      -305.7801
  19   2.0000     -11.231379      -305.6213
  20   2.0000      -8.893622      -242.0077
  21   2.0000      -6.575197      -178.9202
  22   2.0000      -6.573192      -178.8656
  23   2.0000      -6.572606      -178.8497
  24   2.0000      -1.453239       -39.5446
  25   2.0000      -1.415136       -38.5078
  26   2.0000      -1.355031       -36.8723
  27   2.0000      -1.339639       -36.4534
  28   2.0000      -1.238099       -33.6904
  29   2.0000      -1.156782       -31.4776
  30   2.0000      -1.120088       -30.4791
  31   2.0000      -1.043590       -28.3975
  32   2.0000      -1.040004       -28.2999
  33   2.0000      -1.014137       -27.5961
  34   2.0000      -0.995406       -27.0864
  35   2.0000      -0.984158       -26.7803
  36   2.0000      -0.921963       -25.0879
  37   2.0000      -0.889200       -24.1964
  38   2.0000      -0.846272       -23.0282
  39   2.0000      -0.836584       -22.7646
  40   2.0000      -0.833033       -22.6680
  41   2.0000      -0.817236       -22.2381
  42   2.0000      -0.765843       -20.8396
  43   2.0000      -0.731209       -19.8972
  44   2.0000      -0.720486       -19.6054
  45   2.0000      -0.695186       -18.9170
  46   2.0000      -0.687612       -18.7109
  47   2.0000      -0.679329       -18.4855
  48   2.0000      -0.676381       -18.4053
  49   2.0000      -0.666005       -18.1229
  50   2.0000      -0.645748       -17.5717
  51   2.0000      -0.644843       -17.5471
  52   2.0000      -0.635454       -17.2916
  53   2.0000      -0.605703       -16.4820
  54   2.0000      -0.599795       -16.3212
  55   2.0000      -0.598027       -16.2731
  56   2.0000      -0.587916       -15.9980
  57   2.0000      -0.578472       -15.7410
  58   2.0000      -0.571088       -15.5401
  59   2.0000      -0.570277       -15.5180
  60   2.0000      -0.562266       -15.3000
  61   2.0000      -0.552455       -15.0331
  62   2.0000      -0.539084       -14.6692
  63   2.0000      -0.524108       -14.2617
  64   2.0000      -0.520982       -14.1766
  65   2.0000      -0.512976       -13.9588
  66   2.0000      -0.504946       -13.7403
  67   2.0000      -0.498765       -13.5721
  68   2.0000      -0.485004       -13.1976
  69   2.0000      -0.463591       -12.6150
  70   2.0000      -0.459963       -12.5162
  71   2.0000      -0.448310       -12.1991
  72   2.0000      -0.353940        -9.6312
  73   2.0000      -0.348685        -9.4882
  74   2.0000      -0.327874        -8.9219
  75   2.0000      -0.320089        -8.7101
  76   2.0000      -0.315590        -8.5877
  77   0.0000       0.076810         2.0901
  78   0.0000       0.106731         2.9043
  79   0.0000       0.124826         3.3967
  80   0.0000       0.132984         3.6187
  81   0.0000       0.136919         3.7258

MULLIKEN ATOMIC CHARGES
-----------------------
   0 C :   -0.287657
   1 C :    0.047030
   2 O :   -0.338565
   3 C :    0.457326
   4 O :   -0.433953
   5 C :   -0.214218
   6 C :    0.150257
   7 C :   -0.274303
   8 N :   -0.120285
   9 C :    0.210269
  10 S :   -0.440212
  11 N :   -0.202922
  12 C :    0.045446
  13 C :    0.063860
  14 C :   -0.180025
  15 C :   -0.133293
  16 C :   -0.279516
  17 C :    0.315758
  18 O :   -0.356918
  19 C :   -0.267627
  20 H :    0.093132
  21 H :    0.105686
  22 H :    0.104358
  23 H :    0.091363
  24 H :    0.097108
  25 H :    0.131317
  26 H :    0.094814
  27 H :    0.131690
  28 H :    0.197219
  29 H :    0.194443
  30 H :    0.149369
  31 H :    0.152469
  32 H :    0.161444
  33 H :    0.129767
  34 H :    0.240474
  35 H :    0.164895
Sum of atomic charges:   -0.0000000

LOEWDIN ATOMIC CHARGES
----------------------
   0 C :    0.105893
   1 C :   -0.016877
   2 O :    0.310541
   3 C :   -0.412676
   4 O :    0.095200
   5 C :   -0.094481
   6 C :   -0.059255
   7 C :    0.131519
   8 N :    0.406436
   9 C :   -0.456756
  10 S :   -0.035809
  11 N :    0.396611
  12 C :   -0.053003
  13 C :   -0.039690
  14 C :    0.016244
  15 C :    0.038790
  16 C :   -0.001192
  17 C :   -0.189685
  18 O :    0.394967
  19 C :    0.031914
  20 H :   -0.030147
  21 H :   -0.024098
  22 H :   -0.025508
  23 H :   -0.030013
  24 H :   -0.027049
  25 H :   -0.003987
  26 H :   -0.023485
  27 H :   -0.004492
  28 H :   -0.057623
  29 H :   -0.064496
  30 H :   -0.012061
  31 H :   -0.030562
  32 H :   -0.021839
  33 H :   -0.035598
  34 H :   -0.154110
  35 H :   -0.023625

  Mayer bond orders larger than 0.100000
B(  0-C ,  1-C ) :   0.9718 B(  0-C , 20-H ) :   0.9779 B(  0-C , 21-H ) :   0.9798
B(  0-C , 22-H ) :   0.9730 B(  1-C ,  2-O ) :   0.9063 B(  1-C , 23-H ) :   0.9798
B(  1-C , 24-H ) :   0.9762 B(  2-O ,  3-C ) :   1.1819 B(  3-C ,  4-O ) :   1.9649
B(  3-C ,  5-C ) :   1.0624 B(  5-C ,  6-C ) :   1.6574 B(  5-C , 12-C ) :   0.9717
B(  6-C ,  7-C ) :   0.9675 B(  6-C ,  8-N ) :   1.1642 B(  7-C , 25-H ) :   0.9595
B(  7-C , 26-H ) :   0.9902 B(  7-C , 27-H ) :   0.9613 B(  8-N ,  9-C ) :   1.1831
B(  8-N , 28-H ) :   0.9479 B(  9-C , 10-S ) :   1.6076 B(  9-C , 11-N ) :   1.3045
B( 11-N , 12-C ) :   0.9897 B( 11-N , 29-H ) :   0.9514 B( 12-C , 13-C ) :   0.9367
B( 12-C , 30-H ) :   1.0035 B( 13-C , 14-C ) :   1.3585 B( 13-C , 19-C ) :   1.3812
B( 14-C , 15-C ) :   1.3906 B( 14-C , 31-H ) :   0.9699 B( 15-C , 16-C ) :   1.3640
B( 15-C , 32-H ) :   0.9701 B( 16-C , 17-C ) :   1.3309 B( 16-C , 33-H ) :   0.9851
B( 17-C , 18-O ) :   1.1093 B( 17-C , 19-C ) :   1.3739 B( 18-O , 34-H ) :   0.9801
B( 19-C , 35-H ) :   0.9582

MP2 TOTAL ENERGY:    -1274.352184038 Eh
FINAL SINGLE POINT ENERGY     -1274.352184038015

DIPOLE MOMENT
-------------
                                X             Y             Z
Electronic contribution:      8.76917      11.82079       7.21220
Nuclear contribution   :     -9.86342     -13.51156      -7.55324
                        -----------------------------------------
Total Dipole Moment    :     -1.09425      -1.69077      -0.34104
                        -----------------------------------------
Magnitude (a.u.)       :      2.04264
Magnitude (Debye)      :      5.19199

Rotational constants in cm-1:     0.011495     0.008532     0.006122
Rotational constants in MHz :   344.602573   255.780564   183.536048

                             ****ORCA TERMINATED NORMALLY****
TOTAL RUN TIME: 0 days 1 hours 38 minutes 20 seconds 303 msec
