                         Program Version 5.0.0 -  RELEASE  -
|  1> ! ri-mp2 cc-pvtz cc-pvtz/c TightSCF NoKeepInts
|  2>
|  3> %scf
|  4>   MaxCore 4096
|  5> end
|  6> *xyz  0  1
|  7>     C       15.4370550   13.3976711   16.1027369
|  8>     C       16.2652645   14.4644790   16.8366318
|  9>     O       16.7218908   15.3953009   15.8457198
| 10>     C       16.7684341   16.7515734   16.0366950
| 11>     O       16.3667813   17.4646094   15.1367752
| 12>     C       17.4212877   17.3029397   17.2871092
| 13>     C       17.3507150   18.6293074   17.5860581
| 14>     C       16.5288847   19.6949704   16.8918825
| 15>     N       18.1493942   19.1611036   18.6050636
| 16>     C       19.2383967   18.5195905   19.1343964
| 17>     S       20.3227665   19.2850796   20.1212397
| 18>     N       19.3943257   17.2060442   18.7711618
| 19>     C       18.3222604   16.4035872   18.1570256
| 20>     C       17.5911966   15.6776371   19.2879507
| 21>     C       18.0842768   14.4407652   19.7472323
| 22>     C       17.4372248   13.7495374   20.7848934
| 23>     C       16.2915655   14.3032860   21.3797470
| 24>     C       15.8068703   15.5421839   20.9408322
| 25>     O       14.7048911   16.0843649   21.5167390
| 26>     C       16.4500383   16.2262704   19.9045623
| 27>     H       15.0551921   12.6515812   16.8101560
| 28>     H       16.0488938   12.8805731   15.3529698
| 29>     H       14.5813682   13.8571892   15.5919010
| 30>     H       15.6256871   14.9600461   17.5787626
| 31>     H       17.1121883   13.9798068   17.3342206
| 32>     H       15.5013850   19.3485035   16.7233792
| 33>     H       16.9586052   19.9317406   15.9097573
| 34>     H       16.4674975   20.6275606   17.4648954
| 35>     H       18.0564429   20.1331007   18.8539001
| 36>     H       20.2006465   16.7506752   19.1784492
| 37>     H       18.7939743   15.6570999   17.5023734
| 38>     H       18.9757233   14.0119236   19.2966755
| 39>     H       17.8273688   12.7932743   21.1303083
| 40>     H       15.7901193   13.7750385   22.1843935
| 41>     H       14.4420100   15.5050965   22.2483430
| 42>     H       16.0563775   17.1884888   19.5990627
| 43> *
| 44>
| 45>                          ****END OF INPUT****

CARTESIAN COORDINATES (ANGSTROEM)
---------------------------------
  C     15.437055   13.397671   16.102737
  C     16.265265   14.464479   16.836632
  O     16.721891   15.395301   15.845720
  C     16.768434   16.751573   16.036695
  O     16.366781   17.464609   15.136775
  C     17.421288   17.302940   17.287109
  C     17.350715   18.629307   17.586058
  C     16.528885   19.694970   16.891883
  N     18.149394   19.161104   18.605064
  C     19.238397   18.519590   19.134396
  S     20.322766   19.285080   20.121240
  N     19.394326   17.206044   18.771162
  C     18.322260   16.403587   18.157026
  C     17.591197   15.677637   19.287951
  C     18.084277   14.440765   19.747232
  C     17.437225   13.749537   20.784893
  C     16.291566   14.303286   21.379747
  C     15.806870   15.542184   20.940832
  O     14.704891   16.084365   21.516739
  C     16.450038   16.226270   19.904562
  H     15.055192   12.651581   16.810156
  H     16.048894   12.880573   15.352970
  H     14.581368   13.857189   15.591901
  H     15.625687   14.960046   17.578763
  H     17.112188   13.979807   17.334221
  H     15.501385   19.348503   16.723379
  H     16.958605   19.931741   15.909757
  H     16.467498   20.627561   17.464895
  H     18.056443   20.133101   18.853900
  H     20.200646   16.750675   19.178449
  H     18.793974   15.657100   17.502373
  H     18.975723   14.011924   19.296675
  H     17.827369   12.793274   21.130308
  H     15.790119   13.775038   22.184393
  H     14.442010   15.505096   22.248343
  H     16.056377   17.188489   19.599063

 Total Charge           Charge          ....    0
 Multiplicity           Mult            ....    1
 Number of Electrons    NEL             ....  154
 Basis Dimension        Dim             ....  828

ORBITAL ENERGIES
----------------

  NO   OCC          E(Eh)            E(eV)
   0   2.0000     -91.892683     -2500.5270
   1   2.0000     -20.604914      -560.6882
   2   2.0000     -20.591383      -560.3200
   3   2.0000     -20.539429      -558.9063
   4   2.0000     -15.632982      -425.3951
   5   2.0000     -15.612242      -424.8307
   6   2.0000     -11.393285      -310.0271
   7   2.0000     -11.386688      -309.8475
   8   2.0000     -11.339143      -308.5538
   9   2.0000     -11.322746      -308.1076
  10   2.0000     -11.319009      -308.0059
  11   2.0000     -11.298276      -307.4417
  12   2.0000     -11.269924      -306.6702
  13   2.0000     -11.264905      -306.5337
  14   2.0000     -11.262907      -306.4793
  15   2.0000     -11.253301      -306.2179
  16   2.0000     -11.250324      -306.1369
  17   2.0000     -11.246828      -306.0418
  18   2.0000     -11.245663      -306.0100
  19   2.0000     -11.227278      -305.5098
  20   2.0000      -8.897651      -242.1174
  21   2.0000      -6.579205      -179.0293
  22   2.0000      -6.577223      -178.9753
  23   2.0000      -6.576619      -178.9589
  24   2.0000      -1.444318       -39.3019
  25   2.0000      -1.424483       -38.7622
  26   2.0000      -1.352702       -36.8089
  27   2.0000      -1.345076       -36.6014
  28   2.0000      -1.243572       -33.8393
  29   2.0000      -1.165436       -31.7131
  30   2.0000      -1.122238       -30.5376
  31   2.0000      -1.048876       -28.5414
  32   2.0000      -1.035921       -28.1888
  33   2.0000      -1.024284       -27.8722
  34   2.0000      -1.000956       -27.2374
  35   2.0000      -0.987400       -26.8685
  36   2.0000      -0.928412       -25.2634
  37   2.0000      -0.879343       -23.9281
  38   2.0000      -0.852725       -23.2038
  39   2.0000      -0.850000       -23.1297
  40   2.0000      -0.841919       -22.9098
  41   2.0000      -0.833673       -22.6854
  42   2.0000      -0.763955       -20.7883
  43   2.0000      -0.738774       -20.1030
  44   2.0000      -0.718115       -19.5409
  45   2.0000      -0.704951       -19.1827
  46   2.0000      -0.697347       -18.9758
  47   2.0000      -0.677191       -18.4273
  48   2.0000      -0.671381       -18.2692
  49   2.0000      -0.668904       -18.2018
  50   2.0000      -0.653583       -17.7849
  51   2.0000      -0.646703       -17.5977
  52   2.0000      -0.643058       -17.4985
  53   2.0000      -0.617495       -16.8029
  54   2.0000      -0.607869       -16.5410
  55   2.0000      -0.603282       -16.4161
  56   2.0000      -0.590135       -16.0584
  57   2.0000      -0.584892       -15.9157
  58   2.0000      -0.573572       -15.6077
  59   2.0000      -0.569075       -15.4853
  60   2.0000      -0.565892       -15.3987
  61   2.0000      -0.548748       -14.9322
  62   2.0000      -0.539678       -14.6854
  63   2.0000      -0.534751       -14.5513
  64   2.0000      -0.520685       -14.1686
  65   2.0000      -0.515998       -14.0410
  66   2.0000      -0.511213       -13.9108
  67   2.0000      -0.503301       -13.6955
  68   2.0000      -0.483279       -13.1507
  69   2.0000      -0.465562       -12.6686
  70   2.0000      -0.452236       -12.3060
  71   2.0000      -0.443430       -12.0663
  72   2.0000      -0.362803        -9.8724
  73   2.0000      -0.357217        -9.7204
  74   2.0000      -0.333530        -9.0758
  75   2.0000      -0.328207        -8.9310
  76   2.0000      -0.319092        -8.6829
  77   0.0000       0.072497         1.9727
  78   0.0000       0.098143         2.6706
  79   0.0000       0.115036         3.1303
  80   0.0000       0.123330         3.3560
  81   0.0000       0.129306         3.5186

MULLIKEN ATOMIC CHARGES
-----------------------
   0 C :   -0.255994
   1 C :    0.019270
   2 O :   -0.320315
   3 C :    0.452628
   4 O :   -0.389332
   5 C :   -0.268499
   6 C :    0.137984
   7 C :   -0.268935
   8 N :   -0.122707
   9 C :    0.217385
  10 S :   -0.435657
  11 N :   -0.206414
  12 C :    0.051830
  13 C :    0.059576
  14 C :   -0.227391
  15 C :   -0.129380
  16 C :   -0.275934
  17 C :    0.317957
  18 O :   -0.355743
  19 C :   -0.257773
  20 H :    0.087391
  21 H :    0.099299
  22 H :    0.103863
  23 H :    0.101245
  24 H :    0.085480
  25 H :    0.125480
  26 H :    0.142483
  27 H :    0.093495
  28 H :    0.199579
  29 H :    0.189840
  30 H :    0.160440
  31 H :    0.156216
  32 H :    0.163090
  33 H :    0.132911
  34 H :    0.243163
  35 H :    0.173468
Sum of atomic charges:   -0.0000000

LOEWDIN ATOMIC CHARGES
----------------------
   0 C :    0.110857
   1 C :   -0.031904
   2 O :    0.304468
   3 C :   -0.423836
   4 O :    0.116872
   5 C :   -0.097806
   6 C :   -0.055839
   7 C :    0.129484
   8 N :    0.409540
   9 C :   -0.453718
  10 S :   -0.029777
  11 N :    0.396183
  12 C :   -0.053152
  13 C :   -0.036500
  14 C :    0.005669
  15 C :    0.043987
  16 C :   -0.000814
  17 C :   -0.189077
  18 O :    0.396618
  19 C :    0.027193
  20 H :   -0.026795
  21 H :   -0.025707
  22 H :   -0.023518
  23 H :   -0.030377
  24 H :   -0.036515
  25 H :   -0.006259
  26 H :   -0.001476
  27 H :   -0.023291
  28 H :   -0.056539
  29 H :   -0.067918
  30 H :   -0.005348
  31 H :   -0.032054
  32 H :   -0.018552
  33 H :   -0.034039
  34 H :   -0.151351
  35 H :   -0.028708

  Mayer bond orders larger than 0.100000
B(  0-C ,  1-C ) :   0.9846 B(  0-C , 20-H ) :   0.9777 B(  0-C , 21-H ) :   0.9801
B(  0-C , 22-H ) :   0.9793 B(  1-C ,  2-O ) :   0.8955 B(  1-C , 23-H ) :   0.9648
B(  1-C , 24-H ) :   0.9716 B(  2-O ,  3-C ) :   1.1691 B(  3-C ,  4-O ) :   2.0640
B(  3-C ,  5-C ) :   1.0064 B(  5-C ,  6-C ) :   1.6434 B(  5-C , 12-C ) :   0.9613
B(  6-C ,  7-C ) :   0.9772 B(  6-C ,  8-N ) :   1.1496 B(  7-C , 25-H ) :   0.9659
B(  7-C , 26-H ) :   0.9526 B(  7-C , 27-H ) :   0.9867 B(  8-N ,  9-C ) :   1.1873
B(  8-N , 28-H ) :   0.9486 B(  9-C , 10-S ) :   1.6122 B(  9-C , 11-N ) :   1.2951
B( 11-N , 12-C ) :   0.9522 B( 11-N , 29-H ) :   0.9536 B( 12-C , 13-C ) :   0.9598
B( 12-C , 30-H ) :   0.9985 B( 13-C , 14-C ) :   1.3367 B( 13-C , 19-C ) :   1.3685
B( 14-C , 15-C ) :   1.4075 B( 14-C , 31-H ) :   0.9723 B( 15-C , 16-C ) :   1.3618
B( 15-C , 32-H ) :   0.9694 B( 16-C , 17-C ) :   1.3362 B( 16-C , 33-H ) :   0.9839
B( 17-C , 18-O ) :   1.1171 B( 17-C , 19-C ) :   1.3624 B( 18-O , 34-H ) :   0.9782
B( 19-C , 35-H ) :   0.9518

MP2 TOTAL ENERGY:    -1274.331840662 Eh
FINAL SINGLE POINT ENERGY     -1274.331840661979

DIPOLE MOMENT
-------------
                                X             Y             Z
Electronic contribution:      9.03176      10.23092       5.01950
Nuclear contribution   :    -10.12588     -11.80637      -4.10231
                        -----------------------------------------
Total Dipole Moment    :     -1.09411      -1.57545       0.91719
                        -----------------------------------------
Magnitude (a.u.)       :      2.12611
Magnitude (Debye)      :      5.40415

Rotational constants in cm-1:     0.011105     0.009318     0.006475
Rotational constants in MHz :   332.917177   279.360794   194.119696

                             ****ORCA TERMINATED NORMALLY****
TOTAL RUN TIME: 0 days 1 hours 51 minutes 6 seconds 73 msec
