                         Program Version 4.2.0 -  RELEASE  -
|  1> ! ri-mp2 cc-pvtz cc-pvtz/c TightSCF  NoKeepInts
|  2>
|  3> %scf
|  4>   MaxCore 4096
|  5> end
|  6> *xyz  0  1
|  7>     C       15.0893176   14.9476609   16.8499536
|  8>     C       16.4030338   14.1340181   16.7715406
|  9>     O       17.5608835   14.9109133   16.3679062
| 10>     C       17.4885829   16.2482239   16.0997105
| 11>     O       16.9879911   16.6381537   15.0599590
| 12>     C       17.7547718   17.1257574   17.2941411
| 13>     C       17.3936314   18.4344385   17.3267473
| 14>     C       16.5989298   19.1957266   16.2875182
| 15>     N       17.8012800   19.2456275   18.3903787
| 16>     C       18.7348644   18.8866212   19.3262798
| 17>     S       19.3098291   19.9578963   20.4475457
| 18>     N       19.1813398   17.5904280   19.2743310
| 19>     C       18.5724137   16.5280005   18.4535579
| 20>     C       17.7690777   15.6070074   19.3651993
| 21>     C       18.2630153   14.3298880   19.6925787
| 22>     C       17.5357320   13.4778523   20.5407636
| 23>     C       16.3088765   13.9090463   21.0733683
| 24>     C       15.8235224   15.1870692   20.7649212
| 25>     O       14.6415222   15.6086716   21.2799836
| 26>     C       16.5502274   16.0332911   19.9221139
| 27>     H       15.1702837   15.7876623   17.5484100
| 28>     H       14.2708824   14.3057491   17.1974110
| 29>     H       14.8084280   15.3369015   15.8630284
| 30>     H       16.5924526   13.6696399   17.7459505
| 31>     H       16.2630514   13.3170112   16.0520257
| 32>     H       15.6616316   18.6732745   16.0576191
| 33>     H       17.1665641   19.2746554   15.3513430
| 34>     H       16.3386008   20.2117391   16.6064374
| 35>     H       17.4962063   20.2051313   18.4296956
| 36>     H       19.8522005   17.3476751   19.9919040
| 37>     H       19.3895954   15.9418696   18.0096673
| 38>     H       19.2115066   13.9932101   19.2820428
| 39>     H       17.9240266   12.4902214   20.7846777
| 40>     H       15.7435289   13.2546016   21.7289504
| 41>     H       14.3260919   14.9228959   21.8879763
| 42>     H       16.1631069   17.0234701   19.7083624
| 43> *
| 44>
| 45>                          ****END OF INPUT****

CARTESIAN COORDINATES (ANGSTROEM)
---------------------------------
  C     15.089318   14.947661   16.849954
  C     16.403034   14.134018   16.771541
  O     17.560883   14.910913   16.367906
  C     17.488583   16.248224   16.099711
  O     16.987991   16.638154   15.059959
  C     17.754772   17.125757   17.294141
  C     17.393631   18.434438   17.326747
  C     16.598930   19.195727   16.287518
  N     17.801280   19.245628   18.390379
  C     18.734864   18.886621   19.326280
  S     19.309829   19.957896   20.447546
  N     19.181340   17.590428   19.274331
  C     18.572414   16.528001   18.453558
  C     17.769078   15.607007   19.365199
  C     18.263015   14.329888   19.692579
  C     17.535732   13.477852   20.540764
  C     16.308877   13.909046   21.073368
  C     15.823522   15.187069   20.764921
  O     14.641522   15.608672   21.279984
  C     16.550227   16.033291   19.922114
  H     15.170284   15.787662   17.548410
  H     14.270882   14.305749   17.197411
  H     14.808428   15.336901   15.863028
  H     16.592453   13.669640   17.745950
  H     16.263051   13.317011   16.052026
  H     15.661632   18.673275   16.057619
  H     17.166564   19.274655   15.351343
  H     16.338601   20.211739   16.606437
  H     17.496206   20.205131   18.429696
  H     19.852200   17.347675   19.991904
  H     19.389595   15.941870   18.009667
  H     19.211507   13.993210   19.282043
  H     17.924027   12.490221   20.784678
  H     15.743529   13.254602   21.728950
  H     14.326092   14.922896   21.887976
  H     16.163107   17.023470   19.708362

 Total Charge           Charge          ....    0
 Multiplicity           Mult            ....    1
 Number of Electrons    NEL             ....  154
 Basis Dimension        Dim             ....  828

ORBITAL ENERGIES
----------------

  NO   OCC          E(Eh)            E(eV)
   0   2.0000     -91.891016     -2500.4817
   1   2.0000     -20.602672      -560.6272
   2   2.0000     -20.578594      -559.9720
   3   2.0000     -20.547518      -559.1264
   4   2.0000     -15.631287      -425.3489
   5   2.0000     -15.609978      -424.7691
   6   2.0000     -11.393257      -310.0263
   7   2.0000     -11.385639      -309.8190
   8   2.0000     -11.337310      -308.5039
   9   2.0000     -11.320170      -308.0375
  10   2.0000     -11.312647      -307.8328
  11   2.0000     -11.298103      -307.4370
  12   2.0000     -11.264855      -306.5323
  13   2.0000     -11.261206      -306.4330
  14   2.0000     -11.259431      -306.3847
  15   2.0000     -11.253859      -306.2331
  16   2.0000     -11.249255      -306.1078
  17   2.0000     -11.244010      -305.9651
  18   2.0000     -11.243588      -305.9536
  19   2.0000     -11.226004      -305.4751
  20   2.0000      -8.896042      -242.0736
  21   2.0000      -6.577607      -178.9858
  22   2.0000      -6.575613      -178.9315
  23   2.0000      -6.575017      -178.9153
  24   2.0000      -1.441936       -39.2371
  25   2.0000      -1.422323       -38.7034
  26   2.0000      -1.349343       -36.7175
  27   2.0000      -1.342512       -36.5316
  28   2.0000      -1.241030       -33.7702
  29   2.0000      -1.162870       -31.6433
  30   2.0000      -1.121645       -30.5215
  31   2.0000      -1.046809       -28.4851
  32   2.0000      -1.030218       -28.0336
  33   2.0000      -1.021342       -27.7921
  34   2.0000      -0.999740       -27.2043
  35   2.0000      -0.986897       -26.8548
  36   2.0000      -0.925998       -25.1977
  37   2.0000      -0.895712       -24.3736
  38   2.0000      -0.849538       -23.1171
  39   2.0000      -0.844264       -22.9736
  40   2.0000      -0.839555       -22.8454
  41   2.0000      -0.821161       -22.3449
  42   2.0000      -0.745048       -20.2738
  43   2.0000      -0.735744       -20.0206
  44   2.0000      -0.718782       -19.5591
  45   2.0000      -0.701420       -19.0866
  46   2.0000      -0.691828       -18.8256
  47   2.0000      -0.673102       -18.3160
  48   2.0000      -0.671109       -18.2618
  49   2.0000      -0.659120       -17.9356
  50   2.0000      -0.655787       -17.8449
  51   2.0000      -0.646446       -17.5907
  52   2.0000      -0.636916       -17.3314
  53   2.0000      -0.627883       -17.0856
  54   2.0000      -0.613035       -16.6815
  55   2.0000      -0.604601       -16.4520
  56   2.0000      -0.601847       -16.3771
  57   2.0000      -0.582381       -15.8474
  58   2.0000      -0.572934       -15.5903
  59   2.0000      -0.566668       -15.4198
  60   2.0000      -0.544393       -14.8137
  61   2.0000      -0.543189       -14.7809
  62   2.0000      -0.535729       -14.5779
  63   2.0000      -0.530952       -14.4479
  64   2.0000      -0.529352       -14.4044
  65   2.0000      -0.516219       -14.0470
  66   2.0000      -0.505708       -13.7610
  67   2.0000      -0.493048       -13.4165
  68   2.0000      -0.484560       -13.1855
  69   2.0000      -0.465473       -12.6662
  70   2.0000      -0.453036       -12.3277
  71   2.0000      -0.442234       -12.0338
  72   2.0000      -0.357395        -9.7252
  73   2.0000      -0.354971        -9.6592
  74   2.0000      -0.331146        -9.0109
  75   2.0000      -0.327186        -8.9032
  76   2.0000      -0.318153        -8.6574
  77   0.0000       0.068788         1.8718
  78   0.0000       0.101848         2.7714
  79   0.0000       0.120930         3.2907
  80   0.0000       0.127456         3.4683
  81   0.0000       0.132089         3.5943

MULLIKEN ATOMIC CHARGES
-----------------------
   0 C :   -0.337835
   1 C :    0.039725
   2 O :   -0.400099
   3 C :    0.524283
   4 O :   -0.408007
   5 C :   -0.295362
   6 C :    0.162672
   7 C :   -0.272054
   8 N :   -0.124144
   9 C :    0.211506
  10 S :   -0.436175
  11 N :   -0.200206
  12 C :    0.052726
  13 C :    0.067458
  14 C :   -0.179012
  15 C :   -0.132487
  16 C :   -0.274509
  17 C :    0.324215
  18 O :   -0.358007
  19 C :   -0.305710
  20 H :    0.101328
  21 H :    0.112454
  22 H :    0.127428
  23 H :    0.111836
  24 H :    0.119542
  25 H :    0.127511
  26 H :    0.137710
  27 H :    0.094730
  28 H :    0.198228
  29 H :    0.192897
  30 H :    0.150107
  31 H :    0.149815
  32 H :    0.164323
  33 H :    0.133710
  34 H :    0.242258
  35 H :    0.177144
Sum of atomic charges:   -0.0000000

LOEWDIN ATOMIC CHARGES
----------------------
   0 C :    0.105212
   1 C :   -0.006821
   2 O :    0.276241
   3 C :   -0.422534
   4 O :    0.121665
   5 C :   -0.099548
   6 C :   -0.060713
   7 C :    0.130914
   8 N :    0.407041
   9 C :   -0.456405
  10 S :   -0.032447
  11 N :    0.396438
  12 C :   -0.052941
  13 C :   -0.037690
  14 C :    0.014414
  15 C :    0.040754
  16 C :   -0.001625
  17 C :   -0.189708
  18 O :    0.396505
  19 C :    0.033856
  20 H :   -0.034466
  21 H :   -0.022227
  22 H :   -0.025802
  23 H :   -0.031139
  24 H :   -0.026777
  25 H :   -0.006370
  26 H :   -0.002678
  27 H :   -0.023145
  28 H :   -0.057473
  29 H :   -0.065337
  30 H :   -0.006516
  31 H :   -0.028896
  32 H :   -0.019815
  33 H :   -0.034280
  34 H :   -0.152361
  35 H :   -0.025324

  Mayer bond orders larger than 0.100000
B(  0-C ,  1-C ) :   0.9640 B(  0-C , 20-H ) :   0.9705 B(  0-C , 21-H ) :   0.9753
B(  0-C , 22-H ) :   0.9712 B(  1-C ,  2-O ) :   0.8833 B(  1-C , 23-H ) :   0.9701
B(  1-C , 24-H ) :   0.9853 B(  2-O ,  3-C ) :   1.0975 B(  3-C ,  4-O ) :   2.0203
B(  3-C ,  5-C ) :   1.0504 B(  5-C ,  6-C ) :   1.6501 B(  5-C , 12-C ) :   0.9732
B(  6-C ,  7-C ) :   0.9689 B(  6-C ,  8-N ) :   1.1564 B(  7-C , 25-H ) :   0.9647
B(  7-C , 26-H ) :   0.9568 B(  7-C , 27-H ) :   0.9883 B(  8-N ,  9-C ) :   1.1792
B(  8-N , 28-H ) :   0.9483 B(  9-C , 10-S ) :   1.6129 B(  9-C , 11-N ) :   1.3031
B( 11-N , 12-C ) :   0.9729 B( 11-N , 29-H ) :   0.9536 B( 12-C , 13-C ) :   0.9449
B( 12-C , 30-H ) :   1.0028 B( 13-C , 14-C ) :   1.3476 B( 13-C , 19-C ) :   1.3580
B( 14-C , 15-C ) :   1.3922 B( 14-C , 31-H ) :   0.9749 B( 15-C , 16-C ) :   1.3629
B( 15-C , 32-H ) :   0.9699 B( 16-C , 17-C ) :   1.3296 B( 16-C , 33-H ) :   0.9836
B( 17-C , 18-O ) :   1.1131 B( 17-C , 19-C ) :   1.3672 B( 18-O , 34-H ) :   0.9791
B( 19-C , 35-H ) :   0.9548

MP2 TOTAL ENERGY:    -1274.328050789 Eh
FINAL SINGLE POINT ENERGY     -1274.328050788851

DIPOLE MOMENT
-------------
                                X             Y             Z
Electronic contribution:      9.85969       8.07359       5.55272
Nuclear contribution   :    -10.94091      -9.66216      -5.28917
                        -----------------------------------------
Total Dipole Moment    :     -1.08122      -1.58856       0.26355
                        -----------------------------------------
Magnitude (a.u.)       :      1.93959
Magnitude (Debye)      :      4.93006

Rotational constants in cm-1:     0.012090     0.009568     0.006733
Rotational constants in MHz :   362.456089   286.848801   201.841988

                             ****ORCA TERMINATED NORMALLY****
TOTAL RUN TIME: 0 days 2 hours 12 minutes 58 seconds 402 msec
