                         Program Version 5.0.0 -  RELEASE  -
|  1> ! ri-mp2 cc-pvtz cc-pvtz/c TightSCF NoKeepInts
|  2>
|  3> %scf
|  4>   MaxCore 4096
|  5> end
|  6> *xyz  0  1
|  7>     C       15.1309352   15.0626830   17.2115661
|  8>     C       15.7164788   14.8969584   15.7946771
|  9>     O       16.7782723   15.8435209   15.5603978
| 10>     C       17.8785220   15.8372127   16.3672186
| 11>     O       18.5037457   14.8053813   16.5425468
| 12>     C       17.8994166   16.9489193   17.3786468
| 13>     C       17.3137486   18.1605779   17.1937585
| 14>     C       16.5447416   18.6454028   15.9817483
| 15>     N       17.4711026   19.1619440   18.1576484
| 16>     C       18.3412079   19.0979990   19.2142039
| 17>     S       18.5876271   20.3872379   20.2202538
| 18>     N       18.9969485   17.9060800   19.3931455
| 19>     C       18.6904368   16.6622672   18.6611915
| 20>     C       17.9471495   15.6801344   19.5635274
| 21>     C       18.3837991   14.3470268   19.6742741
| 22>     C       17.6983191   13.4330497   20.4918138
| 23>     C       16.5646675   13.8542041   21.2071509
| 24>     C       16.1245768   15.1801626   21.0990872
| 25>     O       15.0240713   15.5875914   21.7800760
| 26>     C       16.8087189   16.0875941   20.2843274
| 27>     H       15.8370975   14.7015170   17.9680309
| 28>     H       14.2112347   14.4742028   17.3137367
| 29>     H       14.8899887   16.1112948   17.4235512
| 30>     H       16.0902972   13.8716452   15.6681416
| 31>     H       14.9230006   15.0598895   15.0541777
| 32>     H       15.5523944   18.1803590   15.9387623
| 33>     H       17.0754858   18.3926817   15.0552153
| 34>     H       16.4019460   19.7328914   15.9803167
| 35>     H       17.0008771   20.0452966   18.0404647
| 36>     H       19.6129219   17.8744374   20.1954227
| 37>     H       19.6469430   16.2036417   18.3711109
| 38>     H       19.2496929   14.0134025   19.1070237
| 39>     H       18.0438406   12.4031891   20.5625960
| 40>     H       16.0308578   13.1507815   21.8374580
| 41>     H       14.7272820   14.8425741   22.3239984
| 42>     H       16.4486537   17.1082484   20.2167333
| 43> *
| 44>
| 45>                          ****END OF INPUT****

CARTESIAN COORDINATES (ANGSTROEM)
---------------------------------
  C     15.130935   15.062683   17.211566
  C     15.716479   14.896958   15.794677
  O     16.778272   15.843521   15.560398
  C     17.878522   15.837213   16.367219
  O     18.503746   14.805381   16.542547
  C     17.899417   16.948919   17.378647
  C     17.313749   18.160578   17.193758
  C     16.544742   18.645403   15.981748
  N     17.471103   19.161944   18.157648
  C     18.341208   19.097999   19.214204
  S     18.587627   20.387238   20.220254
  N     18.996948   17.906080   19.393145
  C     18.690437   16.662267   18.661192
  C     17.947149   15.680134   19.563527
  C     18.383799   14.347027   19.674274
  C     17.698319   13.433050   20.491814
  C     16.564667   13.854204   21.207151
  C     16.124577   15.180163   21.099087
  O     15.024071   15.587591   21.780076
  C     16.808719   16.087594   20.284327
  H     15.837098   14.701517   17.968031
  H     14.211235   14.474203   17.313737
  H     14.889989   16.111295   17.423551
  H     16.090297   13.871645   15.668142
  H     14.923001   15.059890   15.054178
  H     15.552394   18.180359   15.938762
  H     17.075486   18.392682   15.055215
  H     16.401946   19.732891   15.980317
  H     17.000877   20.045297   18.040465
  H     19.612922   17.874437   20.195423
  H     19.646943   16.203642   18.371111
  H     19.249693   14.013402   19.107024
  H     18.043841   12.403189   20.562596
  H     16.030858   13.150781   21.837458
  H     14.727282   14.842574   22.323998
  H     16.448654   17.108248   20.216733

 Total Charge           Charge          ....    0
 Multiplicity           Mult            ....    1
 Number of Electrons    NEL             ....  154
 Basis Dimension        Dim             ....  828

ORBITAL ENERGIES
----------------

  NO   OCC          E(Eh)            E(eV)
   0   2.0000     -91.890109     -2500.4570
   1   2.0000     -20.594904      -560.4158
   2   2.0000     -20.584645      -560.1367
   3   2.0000     -20.552431      -559.2601
   4   2.0000     -15.630594      -425.3301
   5   2.0000     -15.608557      -424.7304
   6   2.0000     -11.395212      -310.0795
   7   2.0000     -11.384978      -309.8010
   8   2.0000     -11.337255      -308.5024
   9   2.0000     -11.311032      -307.7888
  10   2.0000     -11.308297      -307.7144
  11   2.0000     -11.301728      -307.5356
  12   2.0000     -11.261788      -306.4488
  13   2.0000     -11.260959      -306.4263
  14   2.0000     -11.256841      -306.3142
  15   2.0000     -11.251489      -306.1686
  16   2.0000     -11.241154      -305.8874
  17   2.0000     -11.236520      -305.7613
  18   2.0000     -11.233715      -305.6849
  19   2.0000     -11.226537      -305.4896
  20   2.0000      -8.895157      -242.0495
  21   2.0000      -6.576730      -178.9619
  22   2.0000      -6.574726      -178.9074
  23   2.0000      -6.574136      -178.8913
  24   2.0000      -1.450404       -39.4675
  25   2.0000      -1.414714       -38.4963
  26   2.0000      -1.354766       -36.8651
  27   2.0000      -1.341430       -36.5022
  28   2.0000      -1.238902       -33.7122
  29   2.0000      -1.155406       -31.4402
  30   2.0000      -1.121156       -30.5082
  31   2.0000      -1.043720       -28.4011
  32   2.0000      -1.032021       -28.0827
  33   2.0000      -1.013085       -27.5675
  34   2.0000      -1.000420       -27.2228
  35   2.0000      -0.986535       -26.8450
  36   2.0000      -0.924080       -25.1455
  37   2.0000      -0.894040       -24.3281
  38   2.0000      -0.849367       -23.1124
  39   2.0000      -0.838689       -22.8219
  40   2.0000      -0.831410       -22.6238
  41   2.0000      -0.816862       -22.2279
  42   2.0000      -0.750130       -20.4121
  43   2.0000      -0.734253       -19.9800
  44   2.0000      -0.727629       -19.7998
  45   2.0000      -0.693613       -18.8742
  46   2.0000      -0.687071       -18.6962
  47   2.0000      -0.676872       -18.4186
  48   2.0000      -0.672497       -18.2996
  49   2.0000      -0.660440       -17.9715
  50   2.0000      -0.653917       -17.7940
  51   2.0000      -0.646150       -17.5826
  52   2.0000      -0.637150       -17.3377
  53   2.0000      -0.613259       -16.6876
  54   2.0000      -0.602656       -16.3991
  55   2.0000      -0.601910       -16.3788
  56   2.0000      -0.598832       -16.2950
  57   2.0000      -0.581667       -15.8280
  58   2.0000      -0.575298       -15.6546
  59   2.0000      -0.562487       -15.3060
  60   2.0000      -0.555838       -15.1251
  61   2.0000      -0.548921       -14.9369
  62   2.0000      -0.542673       -14.7669
  63   2.0000      -0.528609       -14.3842
  64   2.0000      -0.520557       -14.1651
  65   2.0000      -0.512369       -13.9423
  66   2.0000      -0.499376       -13.5887
  67   2.0000      -0.492250       -13.3948
  68   2.0000      -0.480806       -13.0834
  69   2.0000      -0.463921       -12.6239
  70   2.0000      -0.457243       -12.4422
  71   2.0000      -0.449799       -12.2396
  72   2.0000      -0.356184        -9.6922
  73   2.0000      -0.346694        -9.4340
  74   2.0000      -0.329186        -8.9576
  75   2.0000      -0.319224        -8.6865
  76   2.0000      -0.316868        -8.6224
  77   0.0000       0.069056         1.8791
  78   0.0000       0.107768         2.9325
  79   0.0000       0.119352         3.2477
  80   0.0000       0.133055         3.6206
  81   0.0000       0.137451         3.7402

MULLIKEN ATOMIC CHARGES
-----------------------
   0 C :   -0.334337
   1 C :    0.039978
   2 O :   -0.381340
   3 C :    0.464823
   4 O :   -0.405729
   5 C :   -0.190822
   6 C :    0.139882
   7 C :   -0.283502
   8 N :   -0.122968
   9 C :    0.192064
  10 S :   -0.435617
  11 N :   -0.197409
  12 C :    0.044796
  13 C :    0.027573
  14 C :   -0.162710
  15 C :   -0.138216
  16 C :   -0.276877
  17 C :    0.309719
  18 O :   -0.359783
  19 C :   -0.259152
  20 H :    0.125992
  21 H :    0.115896
  22 H :    0.099471
  23 H :    0.112622
  24 H :    0.110657
  25 H :    0.119896
  26 H :    0.130780
  27 H :    0.105628
  28 H :    0.197407
  29 H :    0.193247
  30 H :    0.156489
  31 H :    0.160531
  32 H :    0.160981
  33 H :    0.130661
  34 H :    0.240651
  35 H :    0.168718
Sum of atomic charges:   -0.0000000

LOEWDIN ATOMIC CHARGES
----------------------
   0 C :    0.105087
   1 C :   -0.018454
   2 O :    0.286294
   3 C :   -0.417153
   4 O :    0.121791
   5 C :   -0.093415
   6 C :   -0.068230
   7 C :    0.125830
   8 N :    0.405696
   9 C :   -0.459838
  10 S :   -0.033834
  11 N :    0.397589
  12 C :   -0.045509
  13 C :   -0.041977
  14 C :    0.020216
  15 C :    0.040807
  16 C :   -0.002358
  17 C :   -0.194000
  18 O :    0.394293
  19 C :    0.030271
  20 H :   -0.022892
  21 H :   -0.023976
  22 H :   -0.031289
  23 H :   -0.026152
  24 H :   -0.024139
  25 H :   -0.012586
  26 H :   -0.006396
  27 H :   -0.019966
  28 H :   -0.058765
  29 H :   -0.063859
  30 H :   -0.003431
  31 H :   -0.024131
  32 H :   -0.020244
  33 H :   -0.035653
  34 H :   -0.154266
  35 H :   -0.025360

  Mayer bond orders larger than 0.100000
B(  0-C ,  1-C ) :   0.9588 B(  0-C , 20-H ) :   0.9661 B(  0-C , 21-H ) :   0.9779
B(  0-C , 22-H ) :   0.9728 B(  1-C ,  2-O ) :   0.8927 B(  1-C , 23-H ) :   0.9837
B(  1-C , 24-H ) :   0.9835 B(  2-O ,  3-C ) :   1.0907 B(  3-C ,  4-O ) :   2.0152
B(  3-C ,  5-C ) :   1.0373 B(  5-C ,  6-C ) :   1.6601 B(  5-C , 12-C ) :   0.9628
B(  6-C ,  7-C ) :   0.9555 B(  6-C ,  8-N ) :   1.1382 B(  7-C , 25-H ) :   0.9641
B(  7-C , 26-H ) :   0.9663 B(  7-C , 27-H ) :   0.9901 B(  8-N ,  9-C ) :   1.1784
B(  8-N , 28-H ) :   0.9490 B(  9-C , 10-S ) :   1.6160 B(  9-C , 11-N ) :   1.3009
B( 11-N , 12-C ) :   0.9873 B( 11-N , 29-H ) :   0.9525 B( 12-C , 13-C ) :   0.9452
B( 12-C , 30-H ) :   0.9991 B( 13-C , 14-C ) :   1.3854 B( 13-C , 19-C ) :   1.3624
B( 14-C , 15-C ) :   1.3946 B( 14-C , 31-H ) :   0.9615 B( 15-C , 16-C ) :   1.3625
B( 15-C , 32-H ) :   0.9713 B( 16-C , 17-C ) :   1.3305 B( 16-C , 33-H ) :   0.9851
B( 17-C , 18-O ) :   1.1105 B( 17-C , 19-C ) :   1.3769 B( 18-O , 34-H ) :   0.9802
B( 19-C , 35-H ) :   0.9580

MP2 TOTAL ENERGY:    -1274.330205906 Eh
FINAL SINGLE POINT ENERGY     -1274.330205906172

DIPOLE MOMENT
-------------
                                X             Y             Z
Electronic contribution:      9.92256       8.14635       6.32536
Nuclear contribution   :    -11.29369      -9.34732      -7.04885
                        -----------------------------------------
Total Dipole Moment    :     -1.37114      -1.20097      -0.72349
                        -----------------------------------------
Magnitude (a.u.)       :      1.96107
Magnitude (Debye)      :      4.98464

Rotational constants in cm-1:     0.011458     0.009824     0.006761
Rotational constants in MHz :   343.510522   294.506875   202.691151

                             ****ORCA TERMINATED NORMALLY****
TOTAL RUN TIME: 0 days 2 hours 24 minutes 5 seconds 922 msec
