                         Program Version 4.2.0 -  RELEASE  -
|  1> ! ri-mp2 cc-pvtz cc-pvtz/c TightSCF  NoKeepInts
|  2>
|  3> %scf
|  4>   MaxCore 4096
|  5> end
|  6> *xyz  0  1
|  7>     C       15.2408616   13.9447706   16.9725412
|  8>     C       16.4916711   14.0169564   16.0728484
|  9>     O       17.3546300   15.0680151   16.5450203
| 10>     C       16.9826944   16.3757696   16.3959537
| 11>     O       16.1514194   16.7259595   15.5750821
| 12>     C       17.6310564   17.2846592   17.4031403
| 13>     C       17.4460067   18.6291798   17.3950351
| 14>     C       16.6035403   19.4324656   16.4273614
| 15>     N       18.0976718   19.4325413   18.3354522
| 16>     C       19.0165443   18.9851822   19.2466867
| 17>     S       19.8087227   20.0166308   20.2687369
| 18>     N       19.2506282   17.6340239   19.2673967
| 19>     C       18.5114238   16.6300810   18.4806503
| 20>     C       17.7021861   15.7382340   19.4180483
| 21>     C       18.0826809   14.4000885   19.6323698
| 22>     C       17.3389172   13.5740702   20.4918959
| 23>     C       16.2060648   14.0903348   21.1438635
| 24>     C       15.8272025   15.4237721   20.9363930
| 25>     O       14.7343636   15.9252613   21.5648972
| 26>     C       16.5700476   16.2437518   20.0815403
| 27>     H       15.5258737   13.8149459   18.0238132
| 28>     H       14.6097121   13.0964611   16.6821342
| 29>     H       14.6381826   14.8576272   16.8877196
| 30>     H       17.0258676   13.0597032   16.1237748
| 31>     H       16.2012072   14.1910151   15.0276841
| 32>     H       16.9278906   19.2559412   15.3939230
| 33>     H       16.6534271   20.5124454   16.6088766
| 34>     H       15.5497587   19.1329600   16.4947486
| 35>     H       17.9391951   20.4274896   18.3343857
| 36>     H       19.9045234   17.3302700   19.9772831
| 37>     H       19.2557177   16.0063623   17.9658667
| 38>     H       18.9547290   13.9969079   19.1246054
| 39>     H       17.6403578   12.5400058   20.6497795
| 40>     H       15.6281990   13.4564506   21.8083706
| 41>     H       14.3794704   15.2267243   22.1349248
| 42>     H       16.2645546   17.2749428   19.9411968
| 43> *
| 44>
| 45>                          ****END OF INPUT****

CARTESIAN COORDINATES (ANGSTROEM)
---------------------------------
  C     15.240862   13.944771   16.972541
  C     16.491671   14.016956   16.072848
  O     17.354630   15.068015   16.545020
  C     16.982694   16.375770   16.395954
  O     16.151419   16.725959   15.575082
  C     17.631056   17.284659   17.403140
  C     17.446007   18.629180   17.395035
  C     16.603540   19.432466   16.427361
  N     18.097672   19.432541   18.335452
  C     19.016544   18.985182   19.246687
  S     19.808723   20.016631   20.268737
  N     19.250628   17.634024   19.267397
  C     18.511424   16.630081   18.480650
  C     17.702186   15.738234   19.418048
  C     18.082681   14.400089   19.632370
  C     17.338917   13.574070   20.491896
  C     16.206065   14.090335   21.143863
  C     15.827203   15.423772   20.936393
  O     14.734364   15.925261   21.564897
  C     16.570048   16.243752   20.081540
  H     15.525874   13.814946   18.023813
  H     14.609712   13.096461   16.682134
  H     14.638183   14.857627   16.887720
  H     17.025868   13.059703   16.123775
  H     16.201207   14.191015   15.027684
  H     16.927891   19.255941   15.393923
  H     16.653427   20.512445   16.608877
  H     15.549759   19.132960   16.494749
  H     17.939195   20.427490   18.334386
  H     19.904523   17.330270   19.977283
  H     19.255718   16.006362   17.965867
  H     18.954729   13.996908   19.124605
  H     17.640358   12.540006   20.649779
  H     15.628199   13.456451   21.808371
  H     14.379470   15.226724   22.134925
  H     16.264555   17.274943   19.941197

 Total Charge           Charge          ....    0
 Multiplicity           Mult            ....    1
 Number of Electrons    NEL             ....  154
 Basis Dimension        Dim             ....  828

ORBITAL ENERGIES
----------------

  NO   OCC          E(Eh)            E(eV)
   0   2.0000     -91.889062     -2500.4285
   1   2.0000     -20.598504      -560.5138
   2   2.0000     -20.597798      -560.4946
   3   2.0000     -20.541637      -558.9664
   4   2.0000     -15.629313      -425.2952
   5   2.0000     -15.608551      -424.7303
   6   2.0000     -11.394798      -310.0682
   7   2.0000     -11.384248      -309.7811
   8   2.0000     -11.336313      -308.4768
   9   2.0000     -11.315233      -307.9032
  10   2.0000     -11.309350      -307.7430
  11   2.0000     -11.296031      -307.3806
  12   2.0000     -11.260805      -306.4221
  13   2.0000     -11.259069      -306.3748
  14   2.0000     -11.256531      -306.3058
  15   2.0000     -11.252310      -306.1909
  16   2.0000     -11.244391      -305.9754
  17   2.0000     -11.239513      -305.8427
  18   2.0000     -11.239153      -305.8329
  19   2.0000     -11.220738      -305.3318
  20   2.0000      -8.894122      -242.0214
  21   2.0000      -6.575696      -178.9338
  22   2.0000      -6.573691      -178.8792
  23   2.0000      -6.573105      -178.8633
  24   2.0000      -1.450025       -39.4572
  25   2.0000      -1.417477       -38.5715
  26   2.0000      -1.353657       -36.8349
  27   2.0000      -1.340296       -36.4713
  28   2.0000      -1.238859       -33.7111
  29   2.0000      -1.158822       -31.5331
  30   2.0000      -1.120888       -30.5009
  31   2.0000      -1.043482       -28.3946
  32   2.0000      -1.033853       -28.1326
  33   2.0000      -1.016341       -27.6560
  34   2.0000      -0.995717       -27.0948
  35   2.0000      -0.984498       -26.7896
  36   2.0000      -0.923118       -25.1193
  37   2.0000      -0.894231       -24.3333
  38   2.0000      -0.847367       -23.0580
  39   2.0000      -0.838703       -22.8223
  40   2.0000      -0.835055       -22.7230
  41   2.0000      -0.815172       -22.1820
  42   2.0000      -0.754102       -20.5202
  43   2.0000      -0.733327       -19.9548
  44   2.0000      -0.723414       -19.6851
  45   2.0000      -0.696902       -18.9637
  46   2.0000      -0.689031       -18.7495
  47   2.0000      -0.678031       -18.4502
  48   2.0000      -0.670750       -18.2520
  49   2.0000      -0.662097       -18.0166
  50   2.0000      -0.648835       -17.6557
  51   2.0000      -0.641467       -17.4552
  52   2.0000      -0.632783       -17.2189
  53   2.0000      -0.610711       -16.6183
  54   2.0000      -0.608220       -16.5505
  55   2.0000      -0.600821       -16.3492
  56   2.0000      -0.599452       -16.3119
  57   2.0000      -0.578512       -15.7421
  58   2.0000      -0.570949       -15.5363
  59   2.0000      -0.567353       -15.4385
  60   2.0000      -0.557997       -15.1839
  61   2.0000      -0.543395       -14.7865
  62   2.0000      -0.532783       -14.4978
  63   2.0000      -0.529822       -14.4172
  64   2.0000      -0.525987       -14.3128
  65   2.0000      -0.513494       -13.9729
  66   2.0000      -0.502052       -13.6615
  67   2.0000      -0.500007       -13.6059
  68   2.0000      -0.479838       -13.0571
  69   2.0000      -0.464836       -12.6488
  70   2.0000      -0.454124       -12.3574
  71   2.0000      -0.446029       -12.1371
  72   2.0000      -0.354579        -9.6486
  73   2.0000      -0.350819        -9.5463
  74   2.0000      -0.328578        -8.9411
  75   2.0000      -0.322780        -8.7833
  76   2.0000      -0.316535        -8.6133
  77   0.0000       0.075696         2.0598
  78   0.0000       0.105417         2.8685
  79   0.0000       0.124500         3.3878
  80   0.0000       0.131947         3.5905
  81   0.0000       0.137684         3.7466

MULLIKEN ATOMIC CHARGES
-----------------------
   0 C :   -0.310752
   1 C :    0.021127
   2 O :   -0.361949
   3 C :    0.462988
   4 O :   -0.433528
   5 C :   -0.231025
   6 C :    0.155452
   7 C :   -0.271812
   8 N :   -0.121983
   9 C :    0.213211
  10 S :   -0.440236
  11 N :   -0.206690
  12 C :    0.065456
  13 C :    0.054893
  14 C :   -0.187123
  15 C :   -0.134947
  16 C :   -0.278862
  17 C :    0.312032
  18 O :   -0.357131
  19 C :   -0.254351
  20 H :    0.109227
  21 H :    0.101682
  22 H :    0.112132
  23 H :    0.112741
  24 H :    0.118344
  25 H :    0.131290
  26 H :    0.095375
  27 H :    0.131921
  28 H :    0.197316
  29 H :    0.195169
  30 H :    0.150295
  31 H :    0.150716
  32 H :    0.160636
  33 H :    0.131008
  34 H :    0.240950
  35 H :    0.166425
Sum of atomic charges:   -0.0000000

LOEWDIN ATOMIC CHARGES
----------------------
   0 C :    0.105120
   1 C :   -0.017611
   2 O :    0.304614
   3 C :   -0.414712
   4 O :    0.096883
   5 C :   -0.094657
   6 C :   -0.058968
   7 C :    0.131674
   8 N :    0.406722
   9 C :   -0.455831
  10 S :   -0.035489
  11 N :    0.396456
  12 C :   -0.051764
  13 C :   -0.038517
  14 C :    0.013145
  15 C :    0.039018
  16 C :   -0.002519
  17 C :   -0.189755
  18 O :    0.396030
  19 C :    0.031890
  20 H :   -0.026080
  21 H :   -0.027531
  22 H :   -0.026215
  23 H :   -0.025359
  24 H :   -0.028023
  25 H :   -0.003775
  26 H :   -0.023347
  27 H :   -0.004714
  28 H :   -0.057512
  29 H :   -0.064651
  30 H :   -0.010642
  31 H :   -0.029917
  32 H :   -0.021114
  33 H :   -0.035405
  34 H :   -0.153612
  35 H :   -0.023832

  Mayer bond orders larger than 0.100000
B(  0-C ,  1-C ) :   0.9588 B(  0-C , 20-H ) :   0.9699 B(  0-C , 21-H ) :   0.9780
B(  0-C , 22-H ) :   0.9757 B(  1-C ,  2-O ) :   0.8911 B(  1-C , 23-H ) :   0.9844
B(  1-C , 24-H ) :   0.9816 B(  2-O ,  3-C ) :   1.1584 B(  3-C ,  4-O ) :   1.9716
B(  3-C ,  5-C ) :   1.0606 B(  5-C ,  6-C ) :   1.6540 B(  5-C , 12-C ) :   0.9722
B(  6-C ,  7-C ) :   0.9661 B(  6-C ,  8-N ) :   1.1650 B(  7-C , 25-H ) :   0.9605
B(  7-C , 26-H ) :   0.9903 B(  7-C , 27-H ) :   0.9602 B(  8-N ,  9-C ) :   1.1832
B(  8-N , 28-H ) :   0.9477 B(  9-C , 10-S ) :   1.6060 B(  9-C , 11-N ) :   1.3066
B( 11-N , 12-C ) :   0.9832 B( 11-N , 29-H ) :   0.9515 B( 12-C , 13-C ) :   0.9362
B( 12-C , 30-H ) :   1.0019 B( 13-C , 14-C ) :   1.3546 B( 13-C , 19-C ) :   1.3841
B( 14-C , 15-C ) :   1.3913 B( 14-C , 31-H ) :   0.9722 B( 15-C , 16-C ) :   1.3590
B( 15-C , 32-H ) :   0.9718 B( 16-C , 17-C ) :   1.3313 B( 16-C , 33-H ) :   0.9853
B( 17-C , 18-O ) :   1.1114 B( 17-C , 19-C ) :   1.3705 B( 18-O , 34-H ) :   0.9796
B( 19-C , 35-H ) :   0.9573

MP2 TOTAL ENERGY:    -1274.351119486 Eh
FINAL SINGLE POINT ENERGY     -1274.351119485817

DIPOLE MOMENT
-------------
                                X             Y             Z
Electronic contribution:      9.37064      10.47163       6.55476
Nuclear contribution   :    -10.24081     -12.22337      -6.88359
                        -----------------------------------------
Total Dipole Moment    :     -0.87017      -1.75174      -0.32884
                        -----------------------------------------
Magnitude (a.u.)       :      1.98341
Magnitude (Debye)      :      5.04142

Rotational constants in cm-1:     0.012499     0.008747     0.006372
Rotational constants in MHz :   374.706090   262.213987   191.038939

                             ****ORCA TERMINATED NORMALLY****
TOTAL RUN TIME: 0 days 1 hours 43 minutes 30 seconds 136 msec
