                         Program Version 4.2.0 -  RELEASE  -
|  1> ! ri-mp2 cc-pvtz cc-pvtz/c TightSCF  NoKeepInts
|  2>
|  3> %scf
|  4>   MaxCore 4096
|  5> end
|  6> *xyz  0  1
|  7>     C       14.6076267   15.4357222   17.0753271
|  8>     C       15.8049019   14.7353508   16.4094861
|  9>     O       16.6576484   15.7536780   15.8555133
| 10>     C       17.9053240   15.8857665   16.3880596
| 11>     O       18.6423676   14.9188697   16.4837049
| 12>     C       17.9629796   17.0064483   17.3794630
| 13>     C       17.3479142   18.2003243   17.1941790
| 14>     C       16.5554514   18.6431067   15.9822863
| 15>     N       17.4783420   19.2059500   18.1563806
| 16>     C       18.3026517   19.1387159   19.2493319
| 17>     S       18.4806276   20.4156921   20.2850627
| 18>     N       18.9718091   17.9555153   19.4421356
| 19>     C       18.7602179   16.7250273   18.6554438
| 20>     C       18.0584169   15.6609796   19.4953545
| 21>     C       18.6020097   14.3682375   19.6086891
| 22>     C       17.9447323   13.3776013   20.3572872
| 23>     C       16.7309024   13.6802709   20.9972958
| 24>     C       16.1841723   14.9655298   20.8841649
| 25>     O       15.0057252   15.2581348   21.4894679
| 26>     C       16.8416838   15.9497456   20.1399902
| 27>     H       14.9437665   16.1005539   17.8802662
| 28>     H       13.9246350   14.6955493   17.5096286
| 29>     H       14.0486711   16.0298862   16.3421274
| 30>     H       16.3349480   14.1206516   17.1514082
| 31>     H       15.4488614   14.0745694   15.6086571
| 32>     H       15.5332307   18.2475481   16.0222575
| 33>     H       17.0174122   18.2810437   15.0552743
| 34>     H       16.4911270   19.7350829   15.9016352
| 35>     H       16.9964200   20.0820987   18.0319604
| 36>     H       19.5503517   17.9238121   20.2718277
| 37>     H       19.7471053   16.3405073   18.3595707
| 38>     H       19.5294040   14.1252462   19.0953108
| 39>     H       18.3734973   12.3797344   20.4317901
| 40>     H       16.2181861   12.9168720   21.5730528
| 41>     H       14.7428611   14.4801271   22.0041074
| 42>     H       16.4010180   16.9380503   20.0665020
| 43> *
| 44>
| 45>                          ****END OF INPUT****

CARTESIAN COORDINATES (ANGSTROEM)
---------------------------------
  C     14.607627   15.435722   17.075327
  C     15.804902   14.735351   16.409486
  O     16.657648   15.753678   15.855513
  C     17.905324   15.885767   16.388060
  O     18.642368   14.918870   16.483705
  C     17.962980   17.006448   17.379463
  C     17.347914   18.200324   17.194179
  C     16.555451   18.643107   15.982286
  N     17.478342   19.205950   18.156381
  C     18.302652   19.138716   19.249332
  S     18.480628   20.415692   20.285063
  N     18.971809   17.955515   19.442136
  C     18.760218   16.725027   18.655444
  C     18.058417   15.660980   19.495355
  C     18.602010   14.368237   19.608689
  C     17.944732   13.377601   20.357287
  C     16.730902   13.680271   20.997296
  C     16.184172   14.965530   20.884165
  O     15.005725   15.258135   21.489468
  C     16.841684   15.949746   20.139990
  H     14.943766   16.100554   17.880266
  H     13.924635   14.695549   17.509629
  H     14.048671   16.029886   16.342127
  H     16.334948   14.120652   17.151408
  H     15.448861   14.074569   15.608657
  H     15.533231   18.247548   16.022257
  H     17.017412   18.281044   15.055274
  H     16.491127   19.735083   15.901635
  H     16.996420   20.082099   18.031960
  H     19.550352   17.923812   20.271828
  H     19.747105   16.340507   18.359571
  H     19.529404   14.125246   19.095311
  H     18.373497   12.379734   20.431790
  H     16.218186   12.916872   21.573053
  H     14.742861   14.480127   22.004107
  H     16.401018   16.938050   20.066502

 Total Charge           Charge          ....    0
 Multiplicity           Mult            ....    1
 Number of Electrons    NEL             ....  154
 Basis Dimension        Dim             ....  828

ORBITAL ENERGIES
----------------

  NO   OCC          E(Eh)            E(eV)
   0   2.0000     -91.889420     -2500.4382
   1   2.0000     -20.597569      -560.4884
   2   2.0000     -20.583794      -560.1135
   3   2.0000     -20.555410      -559.3411
   4   2.0000     -15.628737      -425.2796
   5   2.0000     -15.609175      -424.7473
   6   2.0000     -11.394473      -310.0594
   7   2.0000     -11.385019      -309.8021
   8   2.0000     -11.332748      -308.3797
   9   2.0000     -11.313697      -307.8613
  10   2.0000     -11.309950      -307.7594
  11   2.0000     -11.298472      -307.4470
  12   2.0000     -11.260292      -306.4081
  13   2.0000     -11.259941      -306.3986
  14   2.0000     -11.259294      -306.3810
  15   2.0000     -11.253812      -306.2318
  16   2.0000     -11.243529      -305.9520
  17   2.0000     -11.239390      -305.8394
  18   2.0000     -11.236432      -305.7589
  19   2.0000     -11.228619      -305.5463
  20   2.0000      -8.894494      -242.0315
  21   2.0000      -6.576072      -178.9440
  22   2.0000      -6.574062      -178.8893
  23   2.0000      -6.573477      -178.8734
  24   2.0000      -1.452677       -39.5294
  25   2.0000      -1.417321       -38.5673
  26   2.0000      -1.356346       -36.9080
  27   2.0000      -1.340025       -36.4639
  28   2.0000      -1.238479       -33.7007
  29   2.0000      -1.157887       -31.5077
  30   2.0000      -1.122152       -30.5353
  31   2.0000      -1.045615       -28.4526
  32   2.0000      -1.034002       -28.1366
  33   2.0000      -1.015396       -27.6303
  34   2.0000      -1.000154       -27.2156
  35   2.0000      -0.986355       -26.8401
  36   2.0000      -0.924468       -25.1561
  37   2.0000      -0.885861       -24.1055
  38   2.0000      -0.848340       -23.0845
  39   2.0000      -0.839418       -22.8417
  40   2.0000      -0.834025       -22.6950
  41   2.0000      -0.822619       -22.3846
  42   2.0000      -0.757148       -20.6030
  43   2.0000      -0.736315       -20.0362
  44   2.0000      -0.729148       -19.8411
  45   2.0000      -0.695890       -18.9361
  46   2.0000      -0.686290       -18.6749
  47   2.0000      -0.679587       -18.4925
  48   2.0000      -0.676252       -18.4018
  49   2.0000      -0.659694       -17.9512
  50   2.0000      -0.654128       -17.7997
  51   2.0000      -0.645452       -17.5636
  52   2.0000      -0.637268       -17.3409
  53   2.0000      -0.606931       -16.5154
  54   2.0000      -0.604106       -16.4386
  55   2.0000      -0.601261       -16.3611
  56   2.0000      -0.593353       -16.1460
  57   2.0000      -0.579336       -15.7645
  58   2.0000      -0.577015       -15.7014
  59   2.0000      -0.571869       -15.5613
  60   2.0000      -0.562275       -15.3003
  61   2.0000      -0.551198       -14.9989
  62   2.0000      -0.544588       -14.8190
  63   2.0000      -0.522712       -14.2237
  64   2.0000      -0.515236       -14.0203
  65   2.0000      -0.510903       -13.9024
  66   2.0000      -0.503088       -13.6897
  67   2.0000      -0.499143       -13.5824
  68   2.0000      -0.483688       -13.1618
  69   2.0000      -0.465017       -12.6538
  70   2.0000      -0.457111       -12.4386
  71   2.0000      -0.452556       -12.3147
  72   2.0000      -0.354347        -9.6423
  73   2.0000      -0.349419        -9.5082
  74   2.0000      -0.328756        -8.9459
  75   2.0000      -0.321044        -8.7360
  76   2.0000      -0.316350        -8.6083
  77   0.0000       0.070523         1.9190
  78   0.0000       0.103468         2.8155
  79   0.0000       0.119614         3.2548
  80   0.0000       0.130186         3.5425
  81   0.0000       0.136334         3.7098

MULLIKEN ATOMIC CHARGES
-----------------------
   0 C :   -0.306387
   1 C :    0.041662
   2 O :   -0.377290
   3 C :    0.458850
   4 O :   -0.398468
   5 C :   -0.199064
   6 C :    0.138676
   7 C :   -0.282349
   8 N :   -0.124091
   9 C :    0.198825
  10 S :   -0.438825
  11 N :   -0.202127
  12 C :    0.054052
  13 C :    0.047764
  14 C :   -0.166004
  15 C :   -0.133877
  16 C :   -0.280119
  17 C :    0.325560
  18 O :   -0.361105
  19 C :   -0.309212
  20 H :    0.104723
  21 H :    0.111981
  22 H :    0.099862
  23 H :    0.106829
  24 H :    0.110775
  25 H :    0.126396
  26 H :    0.124045
  27 H :    0.107141
  28 H :    0.197491
  29 H :    0.194328
  30 H :    0.156641
  31 H :    0.159229
  32 H :    0.162113
  33 H :    0.131655
  34 H :    0.241301
  35 H :    0.179022
Sum of atomic charges:   -0.0000000

LOEWDIN ATOMIC CHARGES
----------------------
   0 C :    0.103219
   1 C :   -0.011233
   2 O :    0.289910
   3 C :   -0.418582
   4 O :    0.128721
   5 C :   -0.094138
   6 C :   -0.076383
   7 C :    0.126946
   8 N :    0.404326
   9 C :   -0.457571
  10 S :   -0.035885
  11 N :    0.397007
  12 C :   -0.045223
  13 C :   -0.042045
  14 C :    0.021391
  15 C :    0.041335
  16 C :   -0.002237
  17 C :   -0.193983
  18 O :    0.394071
  19 C :    0.029258
  20 H :   -0.030158
  21 H :   -0.023253
  22 H :   -0.031507
  23 H :   -0.024326
  24 H :   -0.027029
  25 H :   -0.010836
  26 H :   -0.007743
  27 H :   -0.019054
  28 H :   -0.058595
  29 H :   -0.064100
  30 H :   -0.004268
  31 H :   -0.024068
  32 H :   -0.019980
  33 H :   -0.035337
  34 H :   -0.153612
  35 H :   -0.025039

  Mayer bond orders larger than 0.100000
B(  0-C ,  1-C ) :   0.9669 B(  0-C , 20-H ) :   0.9727 B(  0-C , 21-H ) :   0.9786
B(  0-C , 22-H ) :   0.9779 B(  1-C ,  2-O ) :   0.8847 B(  1-C , 23-H ) :   0.9680
B(  1-C , 24-H ) :   0.9861 B(  2-O ,  3-C ) :   1.0960 B(  3-C ,  4-O ) :   2.0340
B(  3-C ,  5-C ) :   1.0147 B(  5-C ,  6-C ) :   1.6715 B(  5-C , 12-C ) :   0.9633
B(  6-C ,  7-C ) :   0.9539 B(  6-C ,  8-N ) :   1.1364 B(  7-C , 25-H ) :   0.9624
B(  7-C , 26-H ) :   0.9709 B(  7-C , 27-H ) :   0.9874 B(  8-N ,  9-C ) :   1.1851
B(  8-N , 28-H ) :   0.9498 B(  9-C , 10-S ) :   1.6130 B(  9-C , 11-N ) :   1.2973
B( 11-N , 12-C ) :   0.9930 B( 11-N , 29-H ) :   0.9516 B( 12-C , 13-C ) :   0.9451
B( 12-C , 30-H ) :   0.9982 B( 13-C , 14-C ) :   1.3802 B( 13-C , 19-C ) :   1.3518
B( 14-C , 15-C ) :   1.3950 B( 14-C , 31-H ) :   0.9627 B( 15-C , 16-C ) :   1.3634
B( 15-C , 32-H ) :   0.9708 B( 16-C , 17-C ) :   1.3310 B( 16-C , 33-H ) :   0.9845
B( 17-C , 18-O ) :   1.1069 B( 17-C , 19-C ) :   1.3676 B( 18-O , 34-H ) :   0.9801
B( 19-C , 35-H ) :   0.9547

MP2 TOTAL ENERGY:    -1274.324986766 Eh
FINAL SINGLE POINT ENERGY     -1274.324986766141

DIPOLE MOMENT
-------------
                                X             Y             Z
Electronic contribution:     10.62038       7.56012       6.13235
Nuclear contribution   :    -11.84180      -8.86918      -6.73787
                        -----------------------------------------
Total Dipole Moment    :     -1.22142      -1.30906      -0.60552
                        -----------------------------------------
Magnitude (a.u.)       :      1.89002
Magnitude (Debye)      :      4.80404

Rotational constants in cm-1:     0.012059     0.009357     0.007005
Rotational constants in MHz :   361.512626   280.513230   210.015518

                             ****ORCA TERMINATED NORMALLY****
TOTAL RUN TIME: 0 days 1 hours 48 minutes 40 seconds 936 msec
