                         Program Version 4.2.0 -  RELEASE  -
|  1> ! ri-mp2 cc-pvtz cc-pvtz/c TightSCF  NoKeepInts
|  2>
|  3> %scf
|  4>   MaxCore 4096
|  5> end
|  6> *xyz  0  1
|  7>     C       14.9577924   14.2270899   16.2368188
|  8>     C       16.4596934   13.9299571   16.4411965
|  9>     O       17.3106387   15.0958935   16.5906712
| 10>     C       16.9148722   16.4050359   16.4922734
| 11>     O       16.0959387   16.7976384   15.6800452
| 12>     C       17.6307632   17.2931371   17.4736129
| 13>     C       17.4786893   18.6422201   17.4817686
| 14>     C       16.6181514   19.4749290   16.5555181
| 15>     N       18.1818261   19.4225799   18.4042608
| 16>     C       19.1058779   18.9451291   19.2943506
| 17>     S       19.9448716   19.9481455   20.3073147
| 18>     N       19.3026584   17.5882039   19.3040329
| 19>     C       18.5344283   16.6093160   18.5139302
| 20>     C       17.7448463   15.6999048   19.4512722
| 21>     C       18.1429964   14.3642857   19.6485754
| 22>     C       17.4134203   13.5194109   20.5018184
| 23>     C       16.2783069   14.0147519   21.1659408
| 24>     C       15.8833353   15.3463377   20.9773680
| 25>     O       14.7891234   15.8280747   21.6187745
| 26>     C       16.6113756   16.1847547   20.1276750
| 27>     H       14.5753419   14.8921283   17.0214401
| 28>     H       14.3802363   13.2958206   16.2755829
| 29>     H       14.7733747   14.6875889   15.2581943
| 30>     H       16.5699742   13.3067055   17.3380512
| 31>     H       16.8172526   13.3363293   15.5900668
| 32>     H       15.5620381   19.1929311   16.6541214
| 33>     H       16.9042623   19.3081807   15.5091754
| 34>     H       16.6932413   20.5510465   16.7506302
| 35>     H       18.0509869   20.4214975   18.4116479
| 36>     H       19.9611999   17.2628129   19.9998805
| 37>     H       19.2606682   15.9937544   17.9646008
| 38>     H       19.0183498   13.9782329   19.1330199
| 39>     H       17.7287240   12.4876461   20.6477565
| 40>     H       15.7119357   13.3666741   21.8267363
| 41>     H       14.4466678   15.1198452   22.1845000
| 42>     H       16.2931404   17.2140101   20.0013777
| 43> *
| 44>
| 45>                          ****END OF INPUT****

CARTESIAN COORDINATES (ANGSTROEM)
---------------------------------
  C     14.957792   14.227090   16.236819
  C     16.459693   13.929957   16.441197
  O     17.310639   15.095894   16.590671
  C     16.914872   16.405036   16.492273
  O     16.095939   16.797638   15.680045
  C     17.630763   17.293137   17.473613
  C     17.478689   18.642220   17.481769
  C     16.618151   19.474929   16.555518
  N     18.181826   19.422580   18.404261
  C     19.105878   18.945129   19.294351
  S     19.944872   19.948145   20.307315
  N     19.302658   17.588204   19.304033
  C     18.534428   16.609316   18.513930
  C     17.744846   15.699905   19.451272
  C     18.142996   14.364286   19.648575
  C     17.413420   13.519411   20.501818
  C     16.278307   14.014752   21.165941
  C     15.883335   15.346338   20.977368
  O     14.789123   15.828075   21.618775
  C     16.611376   16.184755   20.127675
  H     14.575342   14.892128   17.021440
  H     14.380236   13.295821   16.275583
  H     14.773375   14.687589   15.258194
  H     16.569974   13.306705   17.338051
  H     16.817253   13.336329   15.590067
  H     15.562038   19.192931   16.654121
  H     16.904262   19.308181   15.509175
  H     16.693241   20.551047   16.750630
  H     18.050987   20.421498   18.411648
  H     19.961200   17.262813   19.999880
  H     19.260668   15.993754   17.964601
  H     19.018350   13.978233   19.133020
  H     17.728724   12.487646   20.647756
  H     15.711936   13.366674   21.826736
  H     14.446668   15.119845   22.184500
  H     16.293140   17.214010   20.001378

 Total Charge           Charge          ....    0
 Multiplicity           Mult            ....    1
 Number of Electrons    NEL             ....  154
 Basis Dimension        Dim             ....  828

ORBITAL ENERGIES
----------------

  NO   OCC          E(Eh)            E(eV)
   0   2.0000     -91.888466     -2500.4123
   1   2.0000     -20.598812      -560.5222
   2   2.0000     -20.593014      -560.3644
   3   2.0000     -20.540855      -558.9451
   4   2.0000     -15.628461      -425.2721
   5   2.0000     -15.607955      -424.7140
   6   2.0000     -11.395667      -310.0919
   7   2.0000     -11.383619      -309.7640
   8   2.0000     -11.335278      -308.4486
   9   2.0000     -11.316260      -307.9311
  10   2.0000     -11.308500      -307.7199
  11   2.0000     -11.300512      -307.5026
  12   2.0000     -11.261823      -306.4498
  13   2.0000     -11.257792      -306.3401
  14   2.0000     -11.257735      -306.3385
  15   2.0000     -11.251595      -306.1715
  16   2.0000     -11.245276      -305.9995
  17   2.0000     -11.240313      -305.8645
  18   2.0000     -11.240250      -305.8627
  19   2.0000     -11.223182      -305.3983
  20   2.0000      -8.893539      -242.0055
  21   2.0000      -6.575117      -178.9180
  22   2.0000      -6.573109      -178.8634
  23   2.0000      -6.572525      -178.8475
  24   2.0000      -1.441846       -39.2346
  25   2.0000      -1.418462       -38.5983
  26   2.0000      -1.352130       -36.7933
  27   2.0000      -1.339589       -36.4521
  28   2.0000      -1.238298       -33.6958
  29   2.0000      -1.159439       -31.5499
  30   2.0000      -1.119873       -30.4733
  31   2.0000      -1.043600       -28.3978
  32   2.0000      -1.034369       -28.1466
  33   2.0000      -1.017380       -27.6843
  34   2.0000      -0.995653       -27.0931
  35   2.0000      -0.983850       -26.7719
  36   2.0000      -0.922832       -25.1115
  37   2.0000      -0.897165       -24.4131
  38   2.0000      -0.847361       -23.0579
  39   2.0000      -0.839313       -22.8389
  40   2.0000      -0.835991       -22.7485
  41   2.0000      -0.818204       -22.2645
  42   2.0000      -0.743901       -20.2426
  43   2.0000      -0.732035       -19.9197
  44   2.0000      -0.718700       -19.5568
  45   2.0000      -0.697435       -18.9782
  46   2.0000      -0.687905       -18.7189
  47   2.0000      -0.673708       -18.3325
  48   2.0000      -0.671024       -18.2595
  49   2.0000      -0.660269       -17.9668
  50   2.0000      -0.652106       -17.7447
  51   2.0000      -0.643780       -17.5182
  52   2.0000      -0.636349       -17.3159
  53   2.0000      -0.612398       -16.6642
  54   2.0000      -0.608930       -16.5698
  55   2.0000      -0.601761       -16.3748
  56   2.0000      -0.599307       -16.3080
  57   2.0000      -0.578893       -15.7525
  58   2.0000      -0.570803       -15.5323
  59   2.0000      -0.567913       -15.4537
  60   2.0000      -0.557697       -15.1757
  61   2.0000      -0.539923       -14.6921
  62   2.0000      -0.534997       -14.5580
  63   2.0000      -0.526785       -14.3346
  64   2.0000      -0.521561       -14.1924
  65   2.0000      -0.513695       -13.9783
  66   2.0000      -0.501647       -13.6505
  67   2.0000      -0.496718       -13.5164
  68   2.0000      -0.487631       -13.2691
  69   2.0000      -0.463209       -12.6046
  70   2.0000      -0.452665       -12.3177
  71   2.0000      -0.440621       -11.9899
  72   2.0000      -0.353460        -9.6181
  73   2.0000      -0.351179        -9.5561
  74   2.0000      -0.328304        -8.9336
  75   2.0000      -0.323644        -8.8068
  76   2.0000      -0.316112        -8.6019
  77   0.0000       0.076403         2.0790
  78   0.0000       0.103136         2.8065
  79   0.0000       0.124214         3.3800
  80   0.0000       0.132086         3.5942
  81   0.0000       0.137376         3.7382

MULLIKEN ATOMIC CHARGES
-----------------------
   0 C :   -0.301603
   1 C :    0.046405
   2 O :   -0.372606
   3 C :    0.458398
   4 O :   -0.421597
   5 C :   -0.236815
   6 C :    0.160375
   7 C :   -0.270402
   8 N :   -0.122181
   9 C :    0.214198
  10 S :   -0.441950
  11 N :   -0.208987
  12 C :    0.076400
  13 C :    0.066903
  14 C :   -0.211843
  15 C :   -0.122942
  16 C :   -0.281880
  17 C :    0.318725
  18 O :   -0.356251
  19 C :   -0.271930
  20 H :    0.101737
  21 H :    0.097876
  22 H :    0.122595
  23 H :    0.099075
  24 H :    0.102977
  25 H :    0.130363
  26 H :    0.131930
  27 H :    0.095031
  28 H :    0.196962
  29 H :    0.195738
  30 H :    0.149053
  31 H :    0.152957
  32 H :    0.163814
  33 H :    0.131464
  34 H :    0.241158
  35 H :    0.166855
Sum of atomic charges:   -0.0000000

LOEWDIN ATOMIC CHARGES
----------------------
   0 C :    0.104025
   1 C :   -0.009404
   2 O :    0.293713
   3 C :   -0.415420
   4 O :    0.107828
   5 C :   -0.095690
   6 C :   -0.059356
   7 C :    0.131152
   8 N :    0.406573
   9 C :   -0.455740
  10 S :   -0.036714
  11 N :    0.396150
  12 C :   -0.052317
  13 C :   -0.037459
  14 C :    0.014762
  15 C :    0.038925
  16 C :   -0.002445
  17 C :   -0.189529
  18 O :    0.395732
  19 C :    0.030771
  20 H :   -0.027192
  21 H :   -0.026711
  22 H :   -0.024599
  23 H :   -0.029224
  24 H :   -0.028335
  25 H :   -0.005113
  26 H :   -0.003768
  27 H :   -0.023591
  28 H :   -0.057678
  29 H :   -0.064854
  30 H :   -0.011253
  31 H :   -0.029717
  32 H :   -0.020998
  33 H :   -0.035303
  34 H :   -0.153483
  35 H :   -0.023739

  Mayer bond orders larger than 0.100000
B(  0-C ,  1-C ) :   0.9726 B(  0-C , 20-H ) :   0.9750 B(  0-C , 21-H ) :   0.9740
B(  0-C , 22-H ) :   0.9721 B(  1-C ,  2-O ) :   0.8950 B(  1-C , 23-H ) :   0.9730
B(  1-C , 24-H ) :   0.9822 B(  2-O ,  3-C ) :   1.1430 B(  3-C ,  4-O ) :   1.9935
B(  3-C ,  5-C ) :   1.0476 B(  5-C ,  6-C ) :   1.6509 B(  5-C , 12-C ) :   0.9716
B(  6-C ,  7-C ) :   0.9659 B(  6-C ,  8-N ) :   1.1623 B(  7-C , 25-H ) :   0.9605
B(  7-C , 26-H ) :   0.9602 B(  7-C , 27-H ) :   0.9906 B(  8-N ,  9-C ) :   1.1852
B(  8-N , 28-H ) :   0.9478 B(  9-C , 10-S ) :   1.6036 B(  9-C , 11-N ) :   1.3078
B( 11-N , 12-C ) :   0.9814 B( 11-N , 29-H ) :   0.9512 B( 12-C , 13-C ) :   0.9371
B( 12-C , 30-H ) :   1.0018 B( 13-C , 14-C ) :   1.3469 B( 13-C , 19-C ) :   1.3800
B( 14-C , 15-C ) :   1.3859 B( 14-C , 31-H ) :   0.9729 B( 15-C , 16-C ) :   1.3629
B( 15-C , 32-H ) :   0.9697 B( 16-C , 17-C ) :   1.3308 B( 16-C , 33-H ) :   0.9846
B( 17-C , 18-O ) :   1.1105 B( 17-C , 19-C ) :   1.3674 B( 18-O , 34-H ) :   0.9794
B( 19-C , 35-H ) :   0.9586

MP2 TOTAL ENERGY:    -1274.339049789 Eh
FINAL SINGLE POINT ENERGY     -1274.339049789030

DIPOLE MOMENT
-------------
                                X             Y             Z
Electronic contribution:      9.94055       9.99321       7.65185
Nuclear contribution   :    -10.91823     -11.79240      -7.89464
                        -----------------------------------------
Total Dipole Moment    :     -0.97768      -1.79919      -0.24278
                        -----------------------------------------
Magnitude (a.u.)       :      2.06201
Magnitude (Debye)      :      5.24121

Rotational constants in cm-1:     0.012322     0.008640     0.006290
Rotational constants in MHz :   369.411224   259.020665   188.562057

                             ****ORCA TERMINATED NORMALLY****
TOTAL RUN TIME: 0 days 2 hours 6 minutes 8 seconds 48 msec
