                         Program Version 4.2.0 -  RELEASE  -
|  1> ! ri-mp2 cc-pvtz cc-pvtz/c TightSCF  NoKeepInts
|  2>
|  3> %scf
|  4>   MaxCore 4096
|  5> end
|  6> *xyz  0  1
|  7>     C       14.6088201   14.4318301   17.0022055
|  8>     C       15.6000232   15.5906698   16.8116563
|  9>     O       16.8761313   15.0025271   16.4997868
| 10>     C       18.0789549   15.6608735   16.5631175
| 11>     O       19.1050773   15.0195064   16.4349421
| 12>     C       18.0781727   16.8978472   17.3978002
| 13>     C       17.5827417   18.0741071   16.9520929
| 14>     C       16.9941383   18.3520073   15.5861306
| 15>     N       17.6484365   19.2078216   17.7645695
| 16>     C       18.2691723   19.2554248   18.9863303
| 17>     S       18.3429416   20.6528389   19.8669661
| 18>     N       18.8203421   18.0838877   19.4465278
| 19>     C       18.7209729   16.7709238   18.7772778
| 20>     C       17.9577233   15.7602070   19.6283954
| 21>     C       18.4048482   14.4287564   19.7093804
| 22>     C       17.6913180   13.4773017   20.4568806
| 23>     C       16.5166868   13.8581207   21.1272806
| 24>     C       16.0637872   15.1814148   21.0438246
| 25>     O       14.9212308   15.5491422   21.6761166
| 26>     C       16.7766080   16.1272966   20.3002889
| 27>     H       14.9354601   13.7800686   17.8228276
| 28>     H       14.5377526   13.8279830   16.0888923
| 29>     H       13.6092803   14.8129693   17.2437920
| 30>     H       15.2612089   16.2427704   15.9976938
| 31>     H       15.6391894   16.1667493   17.7447469
| 32>     H       17.1121593   17.5044043   14.8997893
| 33>     H       17.4934819   19.2086358   15.1152250
| 34>     H       15.9242332   18.5836138   15.6561490
| 35>     H       17.2636832   20.0813721   17.4402462
| 36>     H       19.2532943   18.1453066   20.3595418
| 37>     H       19.7435481   16.3916811   18.6326981
| 38>     H       19.3005721   14.1253274   19.1712694
| 39>     H       18.0454160   12.4489129   20.5051764
| 40>     H       15.9602030   13.1245935   21.7012602
| 41>     H       14.6065051   14.7807776   22.1762384
| 42>     H       16.4028855   17.1443297   20.2468830
| 43> *
| 44>
| 45>                          ****END OF INPUT****

CARTESIAN COORDINATES (ANGSTROEM)
---------------------------------
  C     14.608820   14.431830   17.002205
  C     15.600023   15.590670   16.811656
  O     16.876131   15.002527   16.499787
  C     18.078955   15.660873   16.563118
  O     19.105077   15.019506   16.434942
  C     18.078173   16.897847   17.397800
  C     17.582742   18.074107   16.952093
  C     16.994138   18.352007   15.586131
  N     17.648436   19.207822   17.764570
  C     18.269172   19.255425   18.986330
  S     18.342942   20.652839   19.866966
  N     18.820342   18.083888   19.446528
  C     18.720973   16.770924   18.777278
  C     17.957723   15.760207   19.628395
  C     18.404848   14.428756   19.709380
  C     17.691318   13.477302   20.456881
  C     16.516687   13.858121   21.127281
  C     16.063787   15.181415   21.043825
  O     14.921231   15.549142   21.676117
  C     16.776608   16.127297   20.300289
  H     14.935460   13.780069   17.822828
  H     14.537753   13.827983   16.088892
  H     13.609280   14.812969   17.243792
  H     15.261209   16.242770   15.997694
  H     15.639189   16.166749   17.744747
  H     17.112159   17.504404   14.899789
  H     17.493482   19.208636   15.115225
  H     15.924233   18.583614   15.656149
  H     17.263683   20.081372   17.440246
  H     19.253294   18.145307   20.359542
  H     19.743548   16.391681   18.632698
  H     19.300572   14.125327   19.171269
  H     18.045416   12.448913   20.505176
  H     15.960203   13.124593   21.701260
  H     14.606505   14.780778   22.176238
  H     16.402886   17.144330   20.246883

 Total Charge           Charge          ....    0
 Multiplicity           Mult            ....    1
 Number of Electrons    NEL             ....  154
 Basis Dimension        Dim             ....  828

ORBITAL ENERGIES
----------------

  NO   OCC          E(Eh)            E(eV)
   0   2.0000     -91.889617     -2500.4436
   1   2.0000     -20.602649      -560.6266
   2   2.0000     -20.599941      -560.5529
   3   2.0000     -20.551196      -559.2265
   4   2.0000     -15.625886      -425.2020
   5   2.0000     -15.611812      -424.8190
   6   2.0000     -11.397197      -310.1335
   7   2.0000     -11.386615      -309.8455
   8   2.0000     -11.326857      -308.2195
   9   2.0000     -11.316746      -307.9443
  10   2.0000     -11.315976      -307.9234
  11   2.0000     -11.302934      -307.5685
  12   2.0000     -11.270775      -306.6934
  13   2.0000     -11.264663      -306.5271
  14   2.0000     -11.263717      -306.5013
  15   2.0000     -11.256522      -306.3055
  16   2.0000     -11.245833      -306.0147
  17   2.0000     -11.242261      -305.9175
  18   2.0000     -11.238946      -305.8273
  19   2.0000     -11.231296      -305.6191
  20   2.0000      -8.894743      -242.0383
  21   2.0000      -6.576334      -178.9512
  22   2.0000      -6.574305      -178.8959
  23   2.0000      -6.573733      -178.8804
  24   2.0000      -1.450139       -39.4603
  25   2.0000      -1.419753       -38.6335
  26   2.0000      -1.360367       -37.0175
  27   2.0000      -1.339580       -36.4518
  28   2.0000      -1.239690       -33.7337
  29   2.0000      -1.161307       -31.6008
  30   2.0000      -1.125691       -30.6316
  31   2.0000      -1.049288       -28.5526
  32   2.0000      -1.040088       -28.3022
  33   2.0000      -1.018895       -27.7255
  34   2.0000      -1.005278       -27.3550
  35   2.0000      -0.989272       -26.9195
  36   2.0000      -0.928044       -25.2534
  37   2.0000      -0.880771       -23.9670
  38   2.0000      -0.855556       -23.2809
  39   2.0000      -0.841667       -22.9029
  40   2.0000      -0.837051       -22.7773
  41   2.0000      -0.836687       -22.7674
  42   2.0000      -0.757206       -20.6046
  43   2.0000      -0.739754       -20.1297
  44   2.0000      -0.731529       -19.9059
  45   2.0000      -0.698179       -18.9984
  46   2.0000      -0.688756       -18.7420
  47   2.0000      -0.682007       -18.5584
  48   2.0000      -0.677426       -18.4337
  49   2.0000      -0.660651       -17.9772
  50   2.0000      -0.658750       -17.9255
  51   2.0000      -0.650089       -17.6898
  52   2.0000      -0.639902       -17.4126
  53   2.0000      -0.612264       -16.6605
  54   2.0000      -0.608222       -16.5506
  55   2.0000      -0.603732       -16.4284
  56   2.0000      -0.597608       -16.2617
  57   2.0000      -0.584416       -15.9028
  58   2.0000      -0.577667       -15.7191
  59   2.0000      -0.569953       -15.5092
  60   2.0000      -0.562952       -15.3187
  61   2.0000      -0.556520       -15.1437
  62   2.0000      -0.551967       -15.0198
  63   2.0000      -0.527885       -14.3645
  64   2.0000      -0.518173       -14.1002
  65   2.0000      -0.515455       -14.0262
  66   2.0000      -0.506013       -13.7693
  67   2.0000      -0.502286       -13.6679
  68   2.0000      -0.488055       -13.2806
  69   2.0000      -0.470301       -12.7975
  70   2.0000      -0.453378       -12.3370
  71   2.0000      -0.451193       -12.2776
  72   2.0000      -0.356494        -9.7007
  73   2.0000      -0.351663        -9.5692
  74   2.0000      -0.329367        -8.9625
  75   2.0000      -0.324281        -8.8241
  76   2.0000      -0.318080        -8.6554
  77   0.0000       0.088168         2.3992
  78   0.0000       0.104129         2.8335
  79   0.0000       0.110186         2.9983
  80   0.0000       0.127387         3.4664
  81   0.0000       0.132071         3.5938

MULLIKEN ATOMIC CHARGES
-----------------------
   0 C :   -0.259714
   1 C :    0.006398
   2 O :   -0.301785
   3 C :    0.391093
   4 O :   -0.379116
   5 C :   -0.181196
   6 C :    0.140088
   7 C :   -0.331374
   8 N :   -0.137581
   9 C :    0.206299
  10 S :   -0.441956
  11 N :   -0.217683
  12 C :    0.072515
  13 C :    0.033453
  14 C :   -0.192176
  15 C :   -0.129817
  16 C :   -0.278583
  17 C :    0.321040
  18 O :   -0.358041
  19 C :   -0.295012
  20 H :    0.108767
  21 H :    0.103660
  22 H :    0.087919
  23 H :    0.095976
  24 H :    0.105039
  25 H :    0.123191
  26 H :    0.140028
  27 H :    0.122491
  28 H :    0.195792
  29 H :    0.199445
  30 H :    0.165436
  31 H :    0.165837
  32 H :    0.163607
  33 H :    0.132781
  34 H :    0.241794
  35 H :    0.181387
Sum of atomic charges:   -0.0000000

LOEWDIN ATOMIC CHARGES
----------------------
   0 C :    0.112885
   1 C :   -0.026792
   2 O :    0.315160
   3 C :   -0.418603
   4 O :    0.126412
   5 C :   -0.080599
   6 C :   -0.106559
   7 C :    0.123063
   8 N :    0.400585
   9 C :   -0.455494
  10 S :   -0.038704
  11 N :    0.397315
  12 C :   -0.043314
  13 C :   -0.042109
  14 C :    0.024578
  15 C :    0.046265
  16 C :   -0.000170
  17 C :   -0.193843
  18 O :    0.394667
  19 C :    0.026651
  20 H :   -0.022209
  21 H :   -0.025711
  22 H :   -0.025166
  23 H :   -0.038319
  24 H :   -0.036627
  25 H :   -0.009464
  26 H :   -0.009582
  27 H :   -0.017101
  28 H :   -0.058349
  29 H :   -0.063645
  30 H :   -0.002171
  31 H :   -0.021868
  32 H :   -0.018412
  33 H :   -0.034762
  34 H :   -0.152947
  35 H :   -0.025059

  Mayer bond orders larger than 0.100000
B(  0-C ,  1-C ) :   0.9842 B(  0-C , 20-H ) :   0.9768 B(  0-C , 21-H ) :   0.9797
B(  0-C , 22-H ) :   0.9767 B(  1-C ,  2-O ) :   0.9165 B(  1-C , 23-H ) :   0.9746
B(  1-C , 24-H ) :   0.9574 B(  2-O ,  3-C ) :   1.1719 B(  3-C ,  4-O ) :   2.0932
B(  3-C ,  5-C ) :   0.9177 B(  5-C ,  6-C ) :   1.6924 B(  5-C , 12-C ) :   0.9607
B(  6-C ,  7-C ) :   0.9421 B(  6-C ,  8-N ) :   1.1132 B(  7-C , 25-H ) :   0.9822
B(  7-C , 26-H ) :   0.9693 B(  7-C , 27-H ) :   0.9664 B(  8-N ,  9-C ) :   1.1975
B(  8-N , 28-H ) :   0.9529 B(  9-C , 10-S ) :   1.6099 B(  9-C , 11-N ) :   1.2859
B( 11-N , 12-C ) :   0.9961 B( 11-N , 29-H ) :   0.9484 B( 12-C , 13-C ) :   0.9436
B( 12-C , 30-H ) :   0.9972 B( 13-C , 14-C ) :   1.3881 B( 13-C , 19-C ) :   1.3389
B( 14-C , 15-C ) :   1.3980 B( 14-C , 31-H ) :   0.9622 B( 15-C , 16-C ) :   1.3623
B( 15-C , 32-H ) :   0.9700 B( 16-C , 17-C ) :   1.3298 B( 16-C , 33-H ) :   0.9843
B( 17-C , 18-O ) :   1.1094 B( 17-C , 19-C ) :   1.3651 B( 18-O , 34-H ) :   0.9792
B( 19-C , 35-H ) :   0.9559

MP2 TOTAL ENERGY:    -1274.330088808 Eh
FINAL SINGLE POINT ENERGY     -1274.330088808090

DIPOLE MOMENT
-------------
                                X             Y             Z
Electronic contribution:     10.58612       8.19218       6.64835
Nuclear contribution   :    -12.13102      -9.21800      -7.16234
                        -----------------------------------------
Total Dipole Moment    :     -1.54489      -1.02582      -0.51399
                        -----------------------------------------
Magnitude (a.u.)       :      1.92437
Magnitude (Debye)      :      4.89136

Rotational constants in cm-1:     0.012389     0.009002     0.006855
Rotational constants in MHz :   371.426876   269.871816   205.504000

                             ****ORCA TERMINATED NORMALLY****
TOTAL RUN TIME: 0 days 1 hours 47 minutes 34 seconds 16 msec
