                         Program Version 4.2.0 -  RELEASE  -
|  1> ! ri-mp2 cc-pvtz cc-pvtz/c TightSCF  NoKeepInts
|  2>
|  3> %scf
|  4>   MaxCore 4096
|  5> end
|  6> *xyz  0  1
|  7>     C       16.0889168   13.2034607   17.3332393
|  8>     C       15.8413203   14.4365949   16.4474977
|  9>     O       17.0961618   15.0904180   16.1791902
| 10>     C       17.0732853   16.4478643   16.0326483
| 11>     O       16.3237733   16.9449144   15.2108818
| 12>     C       17.6392762   17.2150804   17.1976187
| 13>     C       17.5518634   18.5689401   17.2855554
| 14>     C       16.8501445   19.5140413   16.3331629
| 15>     N       18.2193237   19.2452020   18.3120881
| 16>     C       19.1798949   18.6809738   19.1091360
| 17>     S       20.1047014   19.5799694   20.1449853
| 18>     N       19.3554387   17.3270353   18.9771683
| 19>     C       18.4130327   16.4368025   18.2750911
| 20>     C       17.5235347   15.7647124   19.3190047
| 21>     C       18.0488545   14.7068940   20.0866665
| 22>     C       17.2710581   14.0798257   21.0744967
| 23>     C       15.9555640   14.5162078   21.3032277
| 24>     C       15.4320770   15.5774144   20.5530490
| 25>     O       14.1639222   16.0052835   20.7747384
| 26>     C       16.2084333   16.2020695   19.5719874
| 27>     H       16.8335404   12.5416864   16.8740564
| 28>     H       15.1598012   12.6349775   17.4603152
| 29>     H       16.4430222   13.4864811   18.3264060
| 30>     H       15.3679424   14.1410537   15.5018412
| 31>     H       15.1560208   15.1154089   16.9740097
| 32>     H       17.2615460   19.4175064   15.3202572
| 33>     H       16.9419064   20.5661974   16.6271645
| 34>     H       15.7796264   19.2793826   16.2750727
| 35>     H       18.1091316   20.2421882   18.4059970
| 36>     H       20.0595770   16.9346894   19.5879325
| 37>     H       18.9984233   15.6529351   17.7733504
| 38>     H       19.0667693   14.3676358   19.9144081
| 39>     H       17.6885241   13.2621181   21.6597942
| 40>     H       15.3507320   14.0354962   22.0652221
| 41>     H       13.8125539   15.4991608   21.5230805
| 42>     H       15.7773061   17.0313782   19.0236590
| 43> *
| 44>
| 45>                          ****END OF INPUT****

CARTESIAN COORDINATES (ANGSTROEM)
---------------------------------
  C     16.088917   13.203461   17.333239
  C     15.841320   14.436595   16.447498
  O     17.096162   15.090418   16.179190
  C     17.073285   16.447864   16.032648
  O     16.323773   16.944914   15.210882
  C     17.639276   17.215080   17.197619
  C     17.551863   18.568940   17.285555
  C     16.850144   19.514041   16.333163
  N     18.219324   19.245202   18.312088
  C     19.179895   18.680974   19.109136
  S     20.104701   19.579969   20.144985
  N     19.355439   17.327035   18.977168
  C     18.413033   16.436802   18.275091
  C     17.523535   15.764712   19.319005
  C     18.048854   14.706894   20.086666
  C     17.271058   14.079826   21.074497
  C     15.955564   14.516208   21.303228
  C     15.432077   15.577414   20.553049
  O     14.163922   16.005284   20.774738
  C     16.208433   16.202070   19.571987
  H     16.833540   12.541686   16.874056
  H     15.159801   12.634977   17.460315
  H     16.443022   13.486481   18.326406
  H     15.367942   14.141054   15.501841
  H     15.156021   15.115409   16.974010
  H     17.261546   19.417506   15.320257
  H     16.941906   20.566197   16.627164
  H     15.779626   19.279383   16.275073
  H     18.109132   20.242188   18.405997
  H     20.059577   16.934689   19.587933
  H     18.998423   15.652935   17.773350
  H     19.066769   14.367636   19.914408
  H     17.688524   13.262118   21.659794
  H     15.350732   14.035496   22.065222
  H     13.812554   15.499161   21.523080
  H     15.777306   17.031378   19.023659

 Total Charge           Charge          ....    0
 Multiplicity           Mult            ....    1
 Number of Electrons    NEL             ....  154
 Basis Dimension        Dim             ....  828

ORBITAL ENERGIES
----------------

  NO   OCC          E(Eh)            E(eV)
   0   2.0000     -91.890680     -2500.4725
   1   2.0000     -20.602904      -560.6335
   2   2.0000     -20.584717      -560.1386
   3   2.0000     -20.544883      -559.0547
   4   2.0000     -15.631968      -425.3675
   5   2.0000     -15.609304      -424.7507
   6   2.0000     -11.392366      -310.0020
   7   2.0000     -11.385168      -309.8062
   8   2.0000     -11.338956      -308.5487
   9   2.0000     -11.320095      -308.0355
  10   2.0000     -11.312155      -307.8194
  11   2.0000     -11.295169      -307.3572
  12   2.0000     -11.266384      -306.5739
  13   2.0000     -11.261593      -306.4435
  14   2.0000     -11.260209      -306.4059
  15   2.0000     -11.253820      -306.2320
  16   2.0000     -11.247843      -306.0694
  17   2.0000     -11.243444      -305.9497
  18   2.0000     -11.243270      -305.9449
  19   2.0000     -11.221660      -305.3569
  20   2.0000      -8.895696      -242.0642
  21   2.0000      -6.577263      -178.9764
  22   2.0000      -6.575268      -178.9221
  23   2.0000      -6.574674      -178.9060
  24   2.0000      -1.448520       -39.4162
  25   2.0000      -1.422499       -38.7082
  26   2.0000      -1.350569       -36.7509
  27   2.0000      -1.342856       -36.5410
  28   2.0000      -1.241012       -33.7697
  29   2.0000      -1.162408       -31.6307
  30   2.0000      -1.121687       -30.5227
  31   2.0000      -1.046008       -28.4633
  32   2.0000      -1.032938       -28.1077
  33   2.0000      -1.021321       -27.7916
  34   2.0000      -0.998862       -27.1804
  35   2.0000      -0.985665       -26.8213
  36   2.0000      -0.925772       -25.1915
  37   2.0000      -0.881850       -23.9964
  38   2.0000      -0.850352       -23.1393
  39   2.0000      -0.843982       -22.9659
  40   2.0000      -0.836796       -22.7704
  41   2.0000      -0.823674       -22.4133
  42   2.0000      -0.761931       -20.7332
  43   2.0000      -0.736711       -20.0469
  44   2.0000      -0.721681       -19.6379
  45   2.0000      -0.701301       -19.0834
  46   2.0000      -0.691040       -18.8042
  47   2.0000      -0.677357       -18.4318
  48   2.0000      -0.671043       -18.2600
  49   2.0000      -0.664082       -18.0706
  50   2.0000      -0.649644       -17.6777
  51   2.0000      -0.645408       -17.5624
  52   2.0000      -0.640546       -17.4301
  53   2.0000      -0.615048       -16.7363
  54   2.0000      -0.606688       -16.5088
  55   2.0000      -0.602174       -16.3860
  56   2.0000      -0.598782       -16.2937
  57   2.0000      -0.583356       -15.8739
  58   2.0000      -0.573368       -15.6021
  59   2.0000      -0.566979       -15.4283
  60   2.0000      -0.553457       -15.0603
  61   2.0000      -0.547764       -14.9054
  62   2.0000      -0.538809       -14.6617
  63   2.0000      -0.531956       -14.4752
  64   2.0000      -0.515846       -14.0369
  65   2.0000      -0.510541       -13.8925
  66   2.0000      -0.506394       -13.7797
  67   2.0000      -0.498803       -13.5731
  68   2.0000      -0.485520       -13.2117
  69   2.0000      -0.462473       -12.5845
  70   2.0000      -0.455713       -12.4006
  71   2.0000      -0.442467       -12.0401
  72   2.0000      -0.359509        -9.7827
  73   2.0000      -0.355584        -9.6759
  74   2.0000      -0.331515        -9.0210
  75   2.0000      -0.326226        -8.8771
  76   2.0000      -0.318050        -8.6546
  77   0.0000       0.070681         1.9233
  78   0.0000       0.103047         2.8040
  79   0.0000       0.119211         3.2439
  80   0.0000       0.124342         3.3835
  81   0.0000       0.130595         3.5537

MULLIKEN ATOMIC CHARGES
-----------------------
   0 C :   -0.276762
   1 C :    0.029806
   2 O :   -0.380061
   3 C :    0.496210
   4 O :   -0.413379
   5 C :   -0.286492
   6 C :    0.166151
   7 C :   -0.264878
   8 N :   -0.127528
   9 C :    0.225871
  10 S :   -0.441200
  11 N :   -0.207284
  12 C :    0.055387
  13 C :    0.074655
  14 C :   -0.229262
  15 C :   -0.124853
  16 C :   -0.276440
  17 C :    0.315207
  18 O :   -0.357581
  19 C :   -0.252946
  20 H :    0.097384
  21 H :    0.094553
  22 H :    0.108328
  23 H :    0.121434
  24 H :    0.090036
  25 H :    0.133597
  26 H :    0.095424
  27 H :    0.130464
  28 H :    0.198124
  29 H :    0.189974
  30 H :    0.150998
  31 H :    0.149037
  32 H :    0.160901
  33 H :    0.132395
  34 H :    0.243096
  35 H :    0.179634
Sum of atomic charges:    0.0000000

LOEWDIN ATOMIC CHARGES
----------------------
   0 C :    0.110558
   1 C :   -0.017110
   2 O :    0.284918
   3 C :   -0.421150
   4 O :    0.114846
   5 C :   -0.097682
   6 C :   -0.053659
   7 C :    0.130983
   8 N :    0.409853
   9 C :   -0.452604
  10 S :   -0.034341
  11 N :    0.395577
  12 C :   -0.052499
  13 C :   -0.032093
  14 C :    0.009279
  15 C :    0.044862
  16 C :   -0.001466
  17 C :   -0.189392
  18 O :    0.396077
  19 C :    0.028439
  20 H :   -0.028151
  21 H :   -0.024772
  22 H :   -0.030146
  23 H :   -0.028540
  24 H :   -0.032206
  25 H :   -0.002802
  26 H :   -0.023067
  27 H :   -0.005681
  28 H :   -0.057118
  29 H :   -0.069073
  30 H :   -0.005891
  31 H :   -0.031478
  32 H :   -0.019028
  33 H :   -0.034453
  34 H :   -0.151875
  35 H :   -0.029114

  Mayer bond orders larger than 0.100000
B(  0-C ,  1-C ) :   0.9725 B(  0-C , 20-H ) :   0.9774 B(  0-C , 21-H ) :   0.9788
B(  0-C , 22-H ) :   0.9727 B(  1-C ,  2-O ) :   0.8798 B(  1-C , 23-H ) :   0.9854
B(  1-C , 24-H ) :   0.9695 B(  2-O ,  3-C ) :   1.1165 B(  3-C ,  4-O ) :   2.0027
B(  3-C ,  5-C ) :   1.0645 B(  5-C ,  6-C ) :   1.6370 B(  5-C , 12-C ) :   0.9780
B(  6-C ,  7-C ) :   0.9676 B(  6-C ,  8-N ) :   1.1625 B(  7-C , 25-H ) :   0.9579
B(  7-C , 26-H ) :   0.9900 B(  7-C , 27-H ) :   0.9608 B(  8-N ,  9-C ) :   1.1864
B(  8-N , 28-H ) :   0.9480 B(  9-C , 10-S ) :   1.5980 B(  9-C , 11-N ) :   1.3035
B( 11-N , 12-C ) :   0.9428 B( 11-N , 29-H ) :   0.9532 B( 12-C , 13-C ) :   0.9634
B( 12-C , 30-H ) :   0.9958 B( 13-C , 14-C ) :   1.3508 B( 13-C , 19-C ) :   1.3599
B( 14-C , 15-C ) :   1.4130 B( 14-C , 31-H ) :   0.9736 B( 15-C , 16-C ) :   1.3557
B( 15-C , 32-H ) :   0.9707 B( 16-C , 17-C ) :   1.3419 B( 16-C , 33-H ) :   0.9846
B( 17-C , 18-O ) :   1.1155 B( 17-C , 19-C ) :   1.3545 B( 18-O , 34-H ) :   0.9783
B( 19-C , 35-H ) :   0.9513

MP2 TOTAL ENERGY:    -1274.332580622 Eh
FINAL SINGLE POINT ENERGY     -1274.332580621514

DIPOLE MOMENT
-------------
                                X             Y             Z
Electronic contribution:      8.30231      10.41684       3.61706
Nuclear contribution   :     -9.38709     -11.73139      -3.22357
                        -----------------------------------------
Total Dipole Moment    :     -1.08477      -1.31455       0.39349
                        -----------------------------------------
Magnitude (a.u.)       :      1.74918
Magnitude (Debye)      :      4.44605

Rotational constants in cm-1:     0.012202     0.009041     0.006588
Rotational constants in MHz :   365.792467   271.050848   197.511238

                             ****ORCA TERMINATED NORMALLY****
TOTAL RUN TIME: 0 days 1 hours 52 minutes 36 seconds 707 msec
