                         Program Version 4.2.0 -  RELEASE  -
|  1> ! ri-mp2 cc-pvtz cc-pvtz/c TightSCF  NoKeepInts
|  2>
|  3> %scf
|  4>   MaxCore 4096
|  5> end
|  6> *xyz  0  1
|  7>     C       14.7017404   14.4560049   17.1963989
|  8>     C       15.5719537   15.6332405   16.7282319
|  9>     O       16.8442847   15.0789673   16.3383862
| 10>     C       18.0709712   15.6616686   16.5461903
| 11>     O       19.0737097   14.9783739   16.4531428
| 12>     C       18.0799183   16.8954120   17.3866614
| 13>     C       17.5800927   18.0757654   16.9553750
| 14>     C       16.9757676   18.3643515   15.5983486
| 15>     N       17.6523752   19.2023920   17.7771622
| 16>     C       18.2826354   19.2392902   18.9944159
| 17>     S       18.3642616   20.6291731   19.8862026
| 18>     N       18.8358548   18.0633072   19.4406033
| 19>     C       18.7294254   16.7563321   18.7610581
| 20>     C       17.9563853   15.7463926   19.6037211
| 21>     C       18.4146135   14.4208417   19.7129145
| 22>     C       17.6899809   13.4709774   20.4518141
| 23>     C       16.4928429   13.8473180   21.0839760
| 24>     C       16.0285615   15.1644982   20.9710411
| 25>     O       14.8639535   15.5273155   21.5647158
| 26>     C       16.7524759   16.1086912   20.2362400
| 27>     H       15.1732259   13.9447838   18.0457649
| 28>     H       14.5670069   13.7276532   16.3869935
| 29>     H       13.7126386   14.8075886   17.5138402
| 30>     H       15.0989088   16.1492117   15.8831727
| 31>     H       15.6590428   16.3295549   17.5706469
| 32>     H       17.1153268   17.5340746   14.8949647
| 33>     H       17.4458788   19.2447196   15.1414658
| 34>     H       15.8996973   18.5610136   15.6787093
| 35>     H       17.2651125   20.0787294   17.4634965
| 36>     H       19.2745711   18.1163652   20.3513759
| 37>     H       19.7490851   16.3712807   18.6114434
| 38>     H       19.3280011   14.1205387   19.2036139
| 39>     H       18.0530730   12.4470321   20.5228433
| 40>     H       15.9278172   13.1148230   21.6509238
| 41>     H       14.5449427   14.7630671   22.0684776
| 42>     H       16.3708671   17.1212506   20.1596679
| 43> *
| 44>
| 45>                          ****END OF INPUT****

CARTESIAN COORDINATES (ANGSTROEM)
---------------------------------
  C     14.701740   14.456005   17.196399
  C     15.571954   15.633240   16.728232
  O     16.844285   15.078967   16.338386
  C     18.070971   15.661669   16.546190
  O     19.073710   14.978374   16.453143
  C     18.079918   16.895412   17.386661
  C     17.580093   18.075765   16.955375
  C     16.975768   18.364352   15.598349
  N     17.652375   19.202392   17.777162
  C     18.282635   19.239290   18.994416
  S     18.364262   20.629173   19.886203
  N     18.835855   18.063307   19.440603
  C     18.729425   16.756332   18.761058
  C     17.956385   15.746393   19.603721
  C     18.414614   14.420842   19.712915
  C     17.689981   13.470977   20.451814
  C     16.492843   13.847318   21.083976
  C     16.028561   15.164498   20.971041
  O     14.863953   15.527315   21.564716
  C     16.752476   16.108691   20.236240
  H     15.173226   13.944784   18.045765
  H     14.567007   13.727653   16.386993
  H     13.712639   14.807589   17.513840
  H     15.098909   16.149212   15.883173
  H     15.659043   16.329555   17.570647
  H     17.115327   17.534075   14.894965
  H     17.445879   19.244720   15.141466
  H     15.899697   18.561014   15.678709
  H     17.265113   20.078729   17.463497
  H     19.274571   18.116365   20.351376
  H     19.749085   16.371281   18.611443
  H     19.328001   14.120539   19.203614
  H     18.053073   12.447032   20.522843
  H     15.927817   13.114823   21.650924
  H     14.544943   14.763067   22.068478
  H     16.370867   17.121251   20.159668

 Total Charge           Charge          ....    0
 Multiplicity           Mult            ....    1
 Number of Electrons    NEL             ....  154
 Basis Dimension        Dim             ....  828

ORBITAL ENERGIES
----------------

  NO   OCC          E(Eh)            E(eV)
   0   2.0000     -91.890299     -2500.4622
   1   2.0000     -20.602340      -560.6182
   2   2.0000     -20.600495      -560.5680
   3   2.0000     -20.549017      -559.1672
   4   2.0000     -15.627253      -425.2392
   5   2.0000     -15.612113      -424.8272
   6   2.0000     -11.397464      -310.1408
   7   2.0000     -11.387226      -309.8622
   8   2.0000     -11.328807      -308.2725
   9   2.0000     -11.317267      -307.9585
  10   2.0000     -11.315401      -307.9077
  11   2.0000     -11.303387      -307.5808
  12   2.0000     -11.270390      -306.6829
  13   2.0000     -11.264503      -306.5227
  14   2.0000     -11.264053      -306.5105
  15   2.0000     -11.257109      -306.3215
  16   2.0000     -11.246382      -306.0296
  17   2.0000     -11.242902      -305.9349
  18   2.0000     -11.239618      -305.8456
  19   2.0000     -11.229168      -305.5612
  20   2.0000      -8.895414      -242.0565
  21   2.0000      -6.577002      -178.9693
  22   2.0000      -6.574976      -178.9142
  23   2.0000      -6.574401      -178.8986
  24   2.0000      -1.448078       -39.4042
  25   2.0000      -1.420289       -38.6480
  26   2.0000      -1.359039       -36.9813
  27   2.0000      -1.340483       -36.4764
  28   2.0000      -1.240286       -33.7499
  29   2.0000      -1.161986       -31.6192
  30   2.0000      -1.126222       -30.6460
  31   2.0000      -1.049686       -28.5634
  32   2.0000      -1.039154       -28.2768
  33   2.0000      -1.019327       -27.7373
  34   2.0000      -1.005693       -27.3663
  35   2.0000      -0.989835       -26.9348
  36   2.0000      -0.928418       -25.2635
  37   2.0000      -0.881435       -23.9851
  38   2.0000      -0.855661       -23.2837
  39   2.0000      -0.842171       -22.9166
  40   2.0000      -0.837450       -22.7882
  41   2.0000      -0.836788       -22.7702
  42   2.0000      -0.756439       -20.5838
  43   2.0000      -0.740498       -20.1500
  44   2.0000      -0.731778       -19.9127
  45   2.0000      -0.698722       -19.0132
  46   2.0000      -0.689037       -18.7496
  47   2.0000      -0.681673       -18.5493
  48   2.0000      -0.677445       -18.4342
  49   2.0000      -0.660243       -17.9661
  50   2.0000      -0.657865       -17.9014
  51   2.0000      -0.648973       -17.6594
  52   2.0000      -0.640379       -17.4256
  53   2.0000      -0.612385       -16.6639
  54   2.0000      -0.608724       -16.5642
  55   2.0000      -0.604942       -16.4613
  56   2.0000      -0.598872       -16.2961
  57   2.0000      -0.584002       -15.8915
  58   2.0000      -0.578721       -15.7478
  59   2.0000      -0.570098       -15.5132
  60   2.0000      -0.561126       -15.2690
  61   2.0000      -0.558091       -15.1864
  62   2.0000      -0.549645       -14.9566
  63   2.0000      -0.528815       -14.3898
  64   2.0000      -0.518851       -14.1186
  65   2.0000      -0.515365       -14.0238
  66   2.0000      -0.503182       -13.6923
  67   2.0000      -0.502279       -13.6677
  68   2.0000      -0.489001       -13.3064
  69   2.0000      -0.471677       -12.8350
  70   2.0000      -0.452168       -12.3041
  71   2.0000      -0.450780       -12.2663
  72   2.0000      -0.356795        -9.7089
  73   2.0000      -0.352623        -9.5953
  74   2.0000      -0.329982        -8.9793
  75   2.0000      -0.324932        -8.8418
  76   2.0000      -0.318600        -8.6695
  77   0.0000       0.085290         2.3209
  78   0.0000       0.103684         2.8214
  79   0.0000       0.112072         3.0496
  80   0.0000       0.126972         3.4551
  81   0.0000       0.133733         3.6391

MULLIKEN ATOMIC CHARGES
-----------------------
   0 C :   -0.260035
   1 C :    0.002935
   2 O :   -0.307264
   3 C :    0.393406
   4 O :   -0.383383
   5 C :   -0.179461
   6 C :    0.129965
   7 C :   -0.326606
   8 N :   -0.135609
   9 C :    0.203729
  10 S :   -0.440623
  11 N :   -0.213528
  12 C :    0.071177
  13 C :    0.034808
  14 C :   -0.192791
  15 C :   -0.126671
  16 C :   -0.281601
  17 C :    0.315543
  18 O :   -0.360139
  19 C :   -0.288218
  20 H :    0.109329
  21 H :    0.105755
  22 H :    0.089053
  23 H :    0.104243
  24 H :    0.103133
  25 H :    0.126904
  26 H :    0.138691
  27 H :    0.122951
  28 H :    0.196219
  29 H :    0.198302
  30 H :    0.164317
  31 H :    0.166660
  32 H :    0.163950
  33 H :    0.132997
  34 H :    0.242086
  35 H :    0.179775
Sum of atomic charges:    0.0000000

LOEWDIN ATOMIC CHARGES
----------------------
   0 C :    0.111484
   1 C :   -0.024054
   2 O :    0.312613
   3 C :   -0.418184
   4 O :    0.122985
   5 C :   -0.083133
   6 C :   -0.103696
   7 C :    0.124976
   8 N :    0.401063
   9 C :   -0.455705
  10 S :   -0.037552
  11 N :    0.397215
  12 C :   -0.044110
  13 C :   -0.042627
  14 C :    0.024150
  15 C :    0.046011
  16 C :   -0.000266
  17 C :   -0.193770
  18 O :    0.394824
  19 C :    0.026985
  20 H :   -0.021916
  21 H :   -0.026105
  22 H :   -0.025503
  23 H :   -0.036651
  24 H :   -0.038265
  25 H :   -0.008014
  26 H :   -0.009774
  27 H :   -0.016629
  28 H :   -0.057970
  29 H :   -0.063607
  30 H :   -0.002258
  31 H :   -0.021687
  32 H :   -0.018325
  33 H :   -0.034699
  34 H :   -0.152760
  35 H :   -0.025043

  Mayer bond orders larger than 0.100000
B(  0-C ,  1-C ) :   0.9830 B(  0-C , 20-H ) :   0.9734 B(  0-C , 21-H ) :   0.9805
B(  0-C , 22-H ) :   0.9763 B(  1-C ,  2-O ) :   0.9110 B(  1-C , 23-H ) :   0.9749
B(  1-C , 24-H ) :   0.9590 B(  2-O ,  3-C ) :   1.1859 B(  3-C ,  4-O ) :   2.0906
B(  3-C ,  5-C ) :   0.9232 B(  5-C ,  6-C ) :   1.6880 B(  5-C , 12-C ) :   0.9617
B(  6-C ,  7-C ) :   0.9420 B(  6-C ,  8-N ) :   1.1158 B(  7-C , 25-H ) :   0.9813
B(  7-C , 26-H ) :   0.9708 B(  7-C , 27-H ) :   0.9657 B(  8-N ,  9-C ) :   1.1950
B(  8-N , 28-H ) :   0.9524 B(  9-C , 10-S ) :   1.6120 B(  9-C , 11-N ) :   1.2872
B( 11-N , 12-C ) :   0.9986 B( 11-N , 29-H ) :   0.9491 B( 12-C , 13-C ) :   0.9429
B( 12-C , 30-H ) :   0.9970 B( 13-C , 14-C ) :   1.3879 B( 13-C , 19-C ) :   1.3407
B( 14-C , 15-C ) :   1.3965 B( 14-C , 31-H ) :   0.9615 B( 15-C , 16-C ) :   1.3614
B( 15-C , 32-H ) :   0.9701 B( 16-C , 17-C ) :   1.3296 B( 16-C , 33-H ) :   0.9847
B( 17-C , 18-O ) :   1.1065 B( 17-C , 19-C ) :   1.3691 B( 18-O , 34-H ) :   0.9789
B( 19-C , 35-H ) :   0.9556

MP2 TOTAL ENERGY:    -1274.333176560 Eh
FINAL SINGLE POINT ENERGY     -1274.333176560151

DIPOLE MOMENT
-------------
                                X             Y             Z
Electronic contribution:     10.46018       8.13542       6.16631
Nuclear contribution   :    -11.98769      -9.09941      -6.61604
                        -----------------------------------------
Total Dipole Moment    :     -1.52751      -0.96398      -0.44973
                        -----------------------------------------
Magnitude (a.u.)       :      1.86140
Magnitude (Debye)      :      4.73130

Rotational constants in cm-1:     0.012518     0.009031     0.006919
Rotational constants in MHz :   375.282282   270.745904   207.440221

                             ****ORCA TERMINATED NORMALLY****
TOTAL RUN TIME: 0 days 1 hours 48 minutes 47 seconds 247 msec
