                         Program Version 4.2.0 -  RELEASE  -
|  1> ! ri-mp2 cc-pvtz cc-pvtz/c TightSCF  NoKeepInts
|  2>
|  3> %scf
|  4>   MaxCore 4096
|  5> end
|  6> *xyz  0  1
|  7>     C       14.6944896   14.2473303   15.3313311
|  8>     C       15.4769589   14.7181377   16.5684403
|  9>     O       16.4776421   15.6468451   16.1152348
| 10>     C       17.7006866   15.6289128   16.7179388
| 11>     O       18.2658942   14.5778764   16.9701954
| 12>     C       17.9581291   16.8684456   17.5210941
| 13>     C       17.5122313   18.1029836   17.1760822
| 14>     C       16.7255939   18.4872597   15.9400599
| 15>     N       17.8410494   19.2071390   17.9685210
| 16>     C       18.7127674   19.1797199   19.0253884
| 17>     S       19.1361127   20.5547795   19.8410754
| 18>     N       19.2166846   17.9512990   19.3724175
| 19>     C       18.7792946   16.6647317   18.7979149
| 20>     C       17.9877355   15.8608847   19.8261501
| 21>     C       18.3756522   14.5498642   20.1586132
| 22>     C       17.6434321   13.8018560   21.0957415
| 23>     C       16.5118227   14.3685441   21.7064590
| 24>     C       16.1194576   15.6724404   21.3750391
| 25>     O       15.0221975   16.2195404   21.9562555
| 26>     C       16.8498346   16.4142130   20.4413939
| 27>     H       15.3648353   13.7509498   14.6183296
| 28>     H       14.2185595   15.0971107   14.8266465
| 29>     H       13.9118979   13.5348852   15.6191539
| 30>     H       14.8079079   15.2022779   17.2917157
| 31>     H       15.9305553   13.8416787   17.0519031
| 32>     H       17.1190207   17.9789654   15.0507674
| 33>     H       16.7639861   19.5641671   15.7355962
| 34>     H       15.6711731   18.2042971   16.0487857
| 35>     H       17.4824191   20.1177991   17.7291203
| 36>     H       19.8336095   17.9553267   20.1745542
| 37>     H       19.6802846   16.0937041   18.5306487
| 38>     H       19.2396738   14.1025308   19.6730775
| 39>     H       17.9512629   12.7866232   21.3397519
| 40>     H       15.9425021   13.7935129   22.4291438
| 41>     H       14.6909925   15.5825907   22.6071474
| 42>     H       16.5306529   17.4227775   20.2023120
| 43> *
| 44>
| 45>                          ****END OF INPUT****

CARTESIAN COORDINATES (ANGSTROEM)
---------------------------------
  C     14.694490   14.247330   15.331331
  C     15.476959   14.718138   16.568440
  O     16.477642   15.646845   16.115235
  C     17.700687   15.628913   16.717939
  O     18.265894   14.577876   16.970195
  C     17.958129   16.868446   17.521094
  C     17.512231   18.102984   17.176082
  C     16.725594   18.487260   15.940060
  N     17.841049   19.207139   17.968521
  C     18.712767   19.179720   19.025388
  S     19.136113   20.554779   19.841075
  N     19.216685   17.951299   19.372418
  C     18.779295   16.664732   18.797915
  C     17.987735   15.860885   19.826150
  C     18.375652   14.549864   20.158613
  C     17.643432   13.801856   21.095741
  C     16.511823   14.368544   21.706459
  C     16.119458   15.672440   21.375039
  O     15.022197   16.219540   21.956255
  C     16.849835   16.414213   20.441394
  H     15.364835   13.750950   14.618330
  H     14.218559   15.097111   14.826647
  H     13.911898   13.534885   15.619154
  H     14.807908   15.202278   17.291716
  H     15.930555   13.841679   17.051903
  H     17.119021   17.978965   15.050767
  H     16.763986   19.564167   15.735596
  H     15.671173   18.204297   16.048786
  H     17.482419   20.117799   17.729120
  H     19.833610   17.955327   20.174554
  H     19.680285   16.093704   18.530649
  H     19.239674   14.102531   19.673078
  H     17.951263   12.786623   21.339752
  H     15.942502   13.793513   22.429144
  H     14.690993   15.582591   22.607147
  H     16.530653   17.422777   20.202312

 Total Charge           Charge          ....    0
 Multiplicity           Mult            ....    1
 Number of Electrons    NEL             ....  154
 Basis Dimension        Dim             ....  828

ORBITAL ENERGIES
----------------

  NO   OCC          E(Eh)            E(eV)
   0   2.0000     -91.888546     -2500.4145
   1   2.0000     -20.594659      -560.4092
   2   2.0000     -20.589250      -560.2620
   3   2.0000     -20.553216      -559.2815
   4   2.0000     -15.628353      -425.2691
   5   2.0000     -15.607791      -424.7096
   6   2.0000     -11.395163      -310.0782
   7   2.0000     -11.383878      -309.7711
   8   2.0000     -11.333892      -308.4109
   9   2.0000     -11.310693      -307.7796
  10   2.0000     -11.307719      -307.6987
  11   2.0000     -11.298487      -307.4475
  12   2.0000     -11.259969      -306.3993
  13   2.0000     -11.259755      -306.3935
  14   2.0000     -11.256357      -306.3010
  15   2.0000     -11.250816      -306.1503
  16   2.0000     -11.240414      -305.8672
  17   2.0000     -11.236429      -305.7588
  18   2.0000     -11.233604      -305.6819
  19   2.0000     -11.229458      -305.5691
  20   2.0000      -8.893618      -242.0076
  21   2.0000      -6.575196      -178.9202
  22   2.0000      -6.573187      -178.8655
  23   2.0000      -6.572603      -178.8496
  24   2.0000      -1.453041       -39.5393
  25   2.0000      -1.414414       -38.4881
  26   2.0000      -1.357246       -36.9325
  27   2.0000      -1.339410       -36.4472
  28   2.0000      -1.237515       -33.6745
  29   2.0000      -1.154917       -31.4269
  30   2.0000      -1.120770       -30.4977
  31   2.0000      -1.044205       -28.4143
  32   2.0000      -1.035521       -28.1780
  33   2.0000      -1.012356       -27.5476
  34   2.0000      -0.998634       -27.1742
  35   2.0000      -0.984037       -26.7770
  36   2.0000      -0.922591       -25.1050
  37   2.0000      -0.883024       -24.0283
  38   2.0000      -0.848085       -23.0776
  39   2.0000      -0.837662       -22.7939
  40   2.0000      -0.830915       -22.6103
  41   2.0000      -0.824263       -22.4293
  42   2.0000      -0.758045       -20.6275
  43   2.0000      -0.735799       -20.0221
  44   2.0000      -0.727313       -19.7912
  45   2.0000      -0.692810       -18.8523
  46   2.0000      -0.685915       -18.6647
  47   2.0000      -0.680886       -18.5279
  48   2.0000      -0.673845       -18.3363
  49   2.0000      -0.656956       -17.8767
  50   2.0000      -0.647791       -17.6273
  51   2.0000      -0.641137       -17.4462
  52   2.0000      -0.627896       -17.0859
  53   2.0000      -0.622048       -16.9268
  54   2.0000      -0.603092       -16.4110
  55   2.0000      -0.602221       -16.3873
  56   2.0000      -0.598015       -16.2728
  57   2.0000      -0.578990       -15.7551
  58   2.0000      -0.575493       -15.6600
  59   2.0000      -0.562854       -15.3160
  60   2.0000      -0.560948       -15.2642
  61   2.0000      -0.548010       -14.9121
  62   2.0000      -0.533881       -14.5276
  63   2.0000      -0.522080       -14.2065
  64   2.0000      -0.519947       -14.1485
  65   2.0000      -0.511194       -13.9103
  66   2.0000      -0.501516       -13.6470
  67   2.0000      -0.496827       -13.5193
  68   2.0000      -0.482193       -13.1211
  69   2.0000      -0.464510       -12.6400
  70   2.0000      -0.460234       -12.5236
  71   2.0000      -0.451633       -12.2896
  72   2.0000      -0.354005        -9.6330
  73   2.0000      -0.346675        -9.4335
  74   2.0000      -0.327807        -8.9201
  75   2.0000      -0.317795        -8.6477
  76   2.0000      -0.315425        -8.5832
  77   0.0000       0.072188         1.9643
  78   0.0000       0.106888         2.9086
  79   0.0000       0.119023         3.2388
  80   0.0000       0.133603         3.6355
  81   0.0000       0.136632         3.7179

MULLIKEN ATOMIC CHARGES
-----------------------
   0 C :   -0.259442
   1 C :    0.036715
   2 O :   -0.371845
   3 C :    0.458420
   4 O :   -0.405289
   5 C :   -0.195014
   6 C :    0.140433
   7 C :   -0.282221
   8 N :   -0.124781
   9 C :    0.202922
  10 S :   -0.439818
  11 N :   -0.200298
  12 C :    0.050163
  13 C :    0.052493
  14 C :   -0.164039
  15 C :   -0.133221
  16 C :   -0.280340
  17 C :    0.312886
  18 O :   -0.358908
  19 C :   -0.280387
  20 H :    0.101804
  21 H :    0.090013
  22 H :    0.088141
  23 H :    0.094320
  24 H :    0.114212
  25 H :    0.124956
  26 H :    0.104242
  27 H :    0.124829
  28 H :    0.197171
  29 H :    0.194160
  30 H :    0.154576
  31 H :    0.155540
  32 H :    0.160422
  33 H :    0.129523
  34 H :    0.240662
  35 H :    0.167001
Sum of atomic charges:   -0.0000000

LOEWDIN ATOMIC CHARGES
----------------------
   0 C :    0.106758
   1 C :   -0.013611
   2 O :    0.295496
   3 C :   -0.415531
   4 O :    0.121741
   5 C :   -0.093388
   6 C :   -0.072487
   7 C :    0.125696
   8 N :    0.404238
   9 C :   -0.457779
  10 S :   -0.036387
  11 N :    0.397200
  12 C :   -0.045674
  13 C :   -0.039822
  14 C :    0.021465
  15 C :    0.041167
  16 C :   -0.002173
  17 C :   -0.193524
  18 O :    0.393139
  19 C :    0.028115
  20 H :   -0.023616
  21 H :   -0.030063
  22 H :   -0.026098
  23 H :   -0.033047
  24 H :   -0.025683
  25 H :   -0.008004
  26 H :   -0.019828
  27 H :   -0.010164
  28 H :   -0.058806
  29 H :   -0.063996
  30 H :   -0.004773
  31 H :   -0.024903
  32 H :   -0.020684
  33 H :   -0.035953
  34 H :   -0.154336
  35 H :   -0.024683

  Mayer bond orders larger than 0.100000
B(  0-C ,  1-C ) :   0.9786 B(  0-C , 20-H ) :   0.9777 B(  0-C , 21-H ) :   0.9798
B(  0-C , 22-H ) :   0.9760 B(  1-C ,  2-O ) :   0.8839 B(  1-C , 23-H ) :   0.9743
B(  1-C , 24-H ) :   0.9723 B(  2-O ,  3-C ) :   1.0976 B(  3-C ,  4-O ) :   2.0203
B(  3-C ,  5-C ) :   1.0343 B(  5-C ,  6-C ) :   1.6653 B(  5-C , 12-C ) :   0.9646
B(  6-C ,  7-C ) :   0.9520 B(  6-C ,  8-N ) :   1.1403 B(  7-C , 25-H ) :   0.9698
B(  7-C , 26-H ) :   0.9885 B(  7-C , 27-H ) :   0.9638 B(  8-N ,  9-C ) :   1.1833
B(  8-N , 28-H ) :   0.9496 B(  9-C , 10-S ) :   1.6105 B(  9-C , 11-N ) :   1.3010
B( 11-N , 12-C ) :   0.9917 B( 11-N , 29-H ) :   0.9517 B( 12-C , 13-C ) :   0.9453
B( 12-C , 30-H ) :   0.9985 B( 13-C , 14-C ) :   1.3768 B( 13-C , 19-C ) :   1.3682
B( 14-C , 15-C ) :   1.3940 B( 14-C , 31-H ) :   0.9641 B( 15-C , 16-C ) :   1.3636
B( 15-C , 32-H ) :   0.9710 B( 16-C , 17-C ) :   1.3313 B( 16-C , 33-H ) :   0.9854
B( 17-C , 18-O ) :   1.1089 B( 17-C , 19-C ) :   1.3753 B( 18-O , 34-H ) :   0.9801
B( 19-C , 35-H ) :   0.9581

MP2 TOTAL ENERGY:    -1274.329327875 Eh
FINAL SINGLE POINT ENERGY     -1274.329327875378

DIPOLE MOMENT
-------------
                                X             Y             Z
Electronic contribution:     11.29843      10.00384       9.43209
Nuclear contribution   :    -12.73689     -11.28324     -10.04789
                        -----------------------------------------
Total Dipole Moment    :     -1.43846      -1.27940      -0.61580
                        -----------------------------------------
Magnitude (a.u.)       :      2.02120
Magnitude (Debye)      :      5.13747

Rotational constants in cm-1:     0.010946     0.009070     0.006198
Rotational constants in MHz :   328.155605   271.923474   185.819044

                             ****ORCA TERMINATED NORMALLY****
TOTAL RUN TIME: 0 days 1 hours 38 minutes 37 seconds 998 msec
