                         Program Version 4.2.0 -  RELEASE  -
|  1> ! ri-mp2 cc-pvtz cc-pvtz/c TightSCF  NoKeepInts
|  2>
|  3> %scf
|  4>   MaxCore 4096
|  5> end
|  6> *xyz  0  1
|  7>     C       15.2423519   13.8388863   15.8818057
|  8>     C       15.5697434   15.1064515   15.0596154
|  9>     O       16.3522781   16.0910475   15.7794424
| 10>     C       17.2932076   15.8076570   16.7316218
| 11>     O       17.8351828   14.7196049   16.8292015
| 12>     C       17.6916068   16.9731346   17.5962756
| 13>     C       17.2788869   18.2596811   17.4365002
| 14>     C       16.3413345   18.8261855   16.3892905
| 15>     N       17.7782668   19.2583517   18.2800742
| 16>     C       18.7836374   19.0855231   19.1938831
| 17>     S       19.4053369   20.3522394   20.0568247
| 18>     N       19.2458916   17.8050250   19.3562463
| 19>     C       18.6373997   16.6078164   18.7474709
| 20>     C       17.9168983   15.7770064   19.8066371
| 21>     C       18.2242151   14.4139085   19.9730270
| 22>     C       17.5616875   13.6427627   20.9426897
| 23>     C       16.5821190   14.2388408   21.7548851
| 24>     C       16.2701546   15.5951610   21.5902815
| 25>     O       15.3201760   16.1722169   22.3687053
| 26>     C       16.9308286   16.3599452   20.6237746
| 27>     H       16.1075322   13.1683425   15.9514266
| 28>     H       14.4341607   13.2754938   15.4002547
| 29>     H       14.9153585   14.1000561   16.8961100
| 30>     H       16.1187201   14.7991949   14.1598545
| 31>     H       14.6342527   15.5752867   14.7285947
| 32>     H       15.3447996   18.3759379   16.4773059
| 33>     H       16.7190331   18.6230285   15.3794266
| 34>     H       16.2152998   19.9122967   16.4743375
| 35>     H       17.4522440   20.2058268   18.1763528
| 36>     H       19.9654794   17.6969404   20.0593435
| 37>     H       19.4534727   15.9999762   18.3304646
| 38>     H       18.9689681   13.9461613   19.3335337
| 39>     H       17.8046456   12.5878501   21.0563086
| 40>     H       16.0666690   13.6465300   22.5034532
| 41>     H       15.0092030   15.4991056   22.9923734
| 42>     H       16.6759579   17.4085268   20.5166070
| 43> *
| 44>
| 45>                          ****END OF INPUT****

CARTESIAN COORDINATES (ANGSTROEM)
---------------------------------
  C     15.242352   13.838886   15.881806
  C     15.569743   15.106451   15.059615
  O     16.352278   16.091047   15.779442
  C     17.293208   15.807657   16.731622
  O     17.835183   14.719605   16.829201
  C     17.691607   16.973135   17.596276
  C     17.278887   18.259681   17.436500
  C     16.341334   18.826186   16.389291
  N     17.778267   19.258352   18.280074
  C     18.783637   19.085523   19.193883
  S     19.405337   20.352239   20.056825
  N     19.245892   17.805025   19.356246
  C     18.637400   16.607816   18.747471
  C     17.916898   15.777006   19.806637
  C     18.224215   14.413908   19.973027
  C     17.561687   13.642763   20.942690
  C     16.582119   14.238841   21.754885
  C     16.270155   15.595161   21.590281
  O     15.320176   16.172217   22.368705
  C     16.930829   16.359945   20.623775
  H     16.107532   13.168342   15.951427
  H     14.434161   13.275494   15.400255
  H     14.915358   14.100056   16.896110
  H     16.118720   14.799195   14.159854
  H     14.634253   15.575287   14.728595
  H     15.344800   18.375938   16.477306
  H     16.719033   18.623028   15.379427
  H     16.215300   19.912297   16.474338
  H     17.452244   20.205827   18.176353
  H     19.965479   17.696940   20.059344
  H     19.453473   15.999976   18.330465
  H     18.968968   13.946161   19.333534
  H     17.804646   12.587850   21.056309
  H     16.066669   13.646530   22.503453
  H     15.009203   15.499106   22.992373
  H     16.675958   17.408527   20.516607

 Total Charge           Charge          ....    0
 Multiplicity           Mult            ....    1
 Number of Electrons    NEL             ....  154
 Basis Dimension        Dim             ....  828

ORBITAL ENERGIES
----------------

  NO   OCC          E(Eh)            E(eV)
   0   2.0000     -91.887666     -2500.3905
   1   2.0000     -20.600818      -560.5768
   2   2.0000     -20.591223      -560.3157
   3   2.0000     -20.543595      -559.0196
   4   2.0000     -15.628060      -425.2611
   5   2.0000     -15.606137      -424.6646
   6   2.0000     -11.397535      -310.1427
   7   2.0000     -11.382287      -309.7278
   8   2.0000     -11.336615      -308.4850
   9   2.0000     -11.306967      -307.6782
  10   2.0000     -11.306033      -307.6528
  11   2.0000     -11.304338      -307.6067
  12   2.0000     -11.260364      -306.4101
  13   2.0000     -11.258190      -306.3509
  14   2.0000     -11.252780      -306.2037
  15   2.0000     -11.247042      -306.0476
  16   2.0000     -11.236747      -305.7674
  17   2.0000     -11.232888      -305.6624
  18   2.0000     -11.229645      -305.5742
  19   2.0000     -11.226033      -305.4759
  20   2.0000      -8.892729      -241.9835
  21   2.0000      -6.574308      -178.8960
  22   2.0000      -6.572301      -178.8414
  23   2.0000      -6.571715      -178.8255
  24   2.0000      -1.448049       -39.4034
  25   2.0000      -1.410965       -38.3943
  26   2.0000      -1.355975       -36.8979
  27   2.0000      -1.339018       -36.4365
  28   2.0000      -1.236505       -33.6470
  29   2.0000      -1.151422       -31.3318
  30   2.0000      -1.118288       -30.4302
  31   2.0000      -1.041451       -28.3393
  32   2.0000      -1.034138       -28.1403
  33   2.0000      -1.008894       -27.4534
  34   2.0000      -0.996808       -27.1245
  35   2.0000      -0.982135       -26.7253
  36   2.0000      -0.920985       -25.0613
  37   2.0000      -0.897610       -24.4252
  38   2.0000      -0.847661       -23.0660
  39   2.0000      -0.835233       -22.7278
  40   2.0000      -0.827277       -22.5114
  41   2.0000      -0.816424       -22.2160
  42   2.0000      -0.744505       -20.2590
  43   2.0000      -0.730517       -19.8784
  44   2.0000      -0.724072       -19.7030
  45   2.0000      -0.689645       -18.7662
  46   2.0000      -0.684555       -18.6277
  47   2.0000      -0.677932       -18.4475
  48   2.0000      -0.671678       -18.2773
  49   2.0000      -0.660501       -17.9731
  50   2.0000      -0.648878       -17.6569
  51   2.0000      -0.643578       -17.5126
  52   2.0000      -0.632408       -17.2087
  53   2.0000      -0.613690       -16.6994
  54   2.0000      -0.600054       -16.3283
  55   2.0000      -0.598941       -16.2980
  56   2.0000      -0.594710       -16.1829
  57   2.0000      -0.579624       -15.7724
  58   2.0000      -0.572889       -15.5891
  59   2.0000      -0.565667       -15.3926
  60   2.0000      -0.557338       -15.1659
  61   2.0000      -0.541649       -14.7390
  62   2.0000      -0.538509       -14.6536
  63   2.0000      -0.524002       -14.2588
  64   2.0000      -0.516000       -14.0411
  65   2.0000      -0.510896       -13.9022
  66   2.0000      -0.501506       -13.6467
  67   2.0000      -0.494884       -13.4665
  68   2.0000      -0.478644       -13.0246
  69   2.0000      -0.463262       -12.6060
  70   2.0000      -0.455159       -12.3855
  71   2.0000      -0.448605       -12.2072
  72   2.0000      -0.353653        -9.6234
  73   2.0000      -0.343499        -9.3471
  74   2.0000      -0.326792        -8.8925
  75   2.0000      -0.315236        -8.5780
  76   2.0000      -0.313013        -8.5175
  77   0.0000       0.075906         2.0655
  78   0.0000       0.113790         3.0964
  79   0.0000       0.122029         3.3206
  80   0.0000       0.136364         3.7106
  81   0.0000       0.140346         3.8190

MULLIKEN ATOMIC CHARGES
-----------------------
   0 C :   -0.305427
   1 C :    0.047677
   2 O :   -0.351862
   3 C :    0.457864
   4 O :   -0.433017
   5 C :   -0.181141
   6 C :    0.142923
   7 C :   -0.281321
   8 N :   -0.120613
   9 C :    0.201011
  10 S :   -0.439535
  11 N :   -0.197065
  12 C :    0.036595
  13 C :    0.058595
  14 C :   -0.162520
  15 C :   -0.134076
  16 C :   -0.279253
  17 C :    0.311654
  18 O :   -0.359231
  19 C :   -0.275096
  20 H :    0.128010
  21 H :    0.096414
  22 H :    0.100483
  23 H :    0.094487
  24 H :    0.099748
  25 H :    0.124443
  26 H :    0.128759
  27 H :    0.101612
  28 H :    0.196555
  29 H :    0.193583
  30 H :    0.154289
  31 H :    0.153851
  32 H :    0.158903
  33 H :    0.127929
  34 H :    0.240008
  35 H :    0.164763
Sum of atomic charges:   -0.0000000

LOEWDIN ATOMIC CHARGES
----------------------
   0 C :    0.104595
   1 C :   -0.009816
   2 O :    0.296457
   3 C :   -0.415079
   4 O :    0.108605
   5 C :   -0.090880
   6 C :   -0.063684
   7 C :    0.124581
   8 N :    0.404929
   9 C :   -0.459453
  10 S :   -0.036256
  11 N :    0.398214
  12 C :   -0.046868
  13 C :   -0.038861
  14 C :    0.022261
  15 C :    0.040511
  16 C :   -0.002620
  17 C :   -0.192936
  18 O :    0.392862
  19 C :    0.027922
  20 H :   -0.024163
  21 H :   -0.027537
  22 H :   -0.026264
  23 H :   -0.028749
  24 H :   -0.026139
  25 H :   -0.010146
  26 H :   -0.008019
  27 H :   -0.021655
  28 H :   -0.059438
  29 H :   -0.063574
  30 H :   -0.005533
  31 H :   -0.025250
  32 H :   -0.021345
  33 H :   -0.036500
  34 H :   -0.154965
  35 H :   -0.025212

  Mayer bond orders larger than 0.100000
B(  0-C ,  1-C ) :   0.9644 B(  0-C , 20-H ) :   0.9716 B(  0-C , 21-H ) :   0.9756
B(  0-C , 22-H ) :   0.9750 B(  1-C ,  2-O ) :   0.9014 B(  1-C , 23-H ) :   0.9815
B(  1-C , 24-H ) :   0.9829 B(  2-O ,  3-C ) :   1.1617 B(  3-C ,  4-O ) :   1.9682
B(  3-C ,  5-C ) :   1.0562 B(  5-C ,  6-C ) :   1.6425 B(  5-C , 12-C ) :   0.9666
B(  6-C ,  7-C ) :   0.9567 B(  6-C ,  8-N ) :   1.1521 B(  7-C , 25-H ) :   0.9651
B(  7-C , 26-H ) :   0.9634 B(  7-C , 27-H ) :   0.9922 B(  8-N ,  9-C ) :   1.1772
B(  8-N , 28-H ) :   0.9486 B(  9-C , 10-S ) :   1.6105 B(  9-C , 11-N ) :   1.3056
B( 11-N , 12-C ) :   0.9922 B( 11-N , 29-H ) :   0.9520 B( 12-C , 13-C ) :   0.9456
B( 12-C , 30-H ) :   1.0011 B( 13-C , 14-C ) :   1.3754 B( 13-C , 19-C ) :   1.3687
B( 14-C , 15-C ) :   1.3947 B( 14-C , 31-H ) :   0.9646 B( 15-C , 16-C ) :   1.3620
B( 15-C , 32-H ) :   0.9715 B( 16-C , 17-C ) :   1.3318 B( 16-C , 33-H ) :   0.9860
B( 17-C , 18-O ) :   1.1079 B( 17-C , 19-C ) :   1.3789 B( 18-O , 34-H ) :   0.9806
B( 19-C , 35-H ) :   0.9583

MP2 TOTAL ENERGY:    -1274.341270531 Eh
FINAL SINGLE POINT ENERGY     -1274.341270530866

DIPOLE MOMENT
-------------
                                X             Y             Z
Electronic contribution:     10.22902      10.25746       9.95236
Nuclear contribution   :    -11.84715     -11.47561     -11.03447
                        -----------------------------------------
Total Dipole Moment    :     -1.61814      -1.21815      -1.08210
                        -----------------------------------------
Magnitude (a.u.)       :      2.29634
Magnitude (Debye)      :      5.83684

Rotational constants in cm-1:     0.010652     0.009097     0.005917
Rotational constants in MHz :   319.331041   272.716431   177.390601

                             ****ORCA TERMINATED NORMALLY****
TOTAL RUN TIME: 0 days 1 hours 37 minutes 22 seconds 194 msec
