                         Program Version 5.0.0 -  RELEASE  -
|  1> ! ri-mp2 cc-pvtz cc-pvtz/c TightSCF NoKeepInts
|  2>
|  3> %scf
|  4>   MaxCore 4096
|  5> end
|  6> *xyz  0  1
|  7>     C       16.1678906   13.0992313   15.8873604
|  8>     C       15.5695332   14.5041257   16.0689675
|  9>     O       16.5928596   15.3351734   16.6393243
| 10>     C       16.4303540   16.6920172   16.6322915
| 11>     O       15.5469777   17.2386569   15.9933544
| 12>     C       17.3959218   17.3977258   17.5439190
| 13>     C       17.4462305   18.7502591   17.6448292
| 14>     C       16.5888276   19.7567289   16.9077733
| 15>     N       18.3922256   19.3565466   18.4768662
| 16>     C       19.3826564   18.6934285   19.1510093
| 17>     S       20.5245923   19.4954026   20.0391133
| 18>     N       19.3819527   17.3256162   19.0499205
| 19>     C       18.3365478   16.5229206   18.3890336
| 20>     C       17.5742012   15.7097633   19.4314980
| 21>     C       17.6680545   14.3053926   19.4488923
| 22>     C       16.9647283   13.5534014   20.4048809
| 23>     C       16.1634531   14.2108458   21.3539220
| 24>     C       16.0712851   15.6094431   21.3423665
| 25>     O       15.2991521   16.2470679   22.2579567
| 26>     C       16.7718982   16.3550567   20.3892991
| 27>     H       16.4750016   12.6831534   16.8548598
| 28>     H       17.0446914   13.1340318   15.2288726
| 29>     H       15.4294555   12.4221245   15.4410891
| 30>     H       15.2591032   14.8902165   15.0881798
| 31>     H       14.6914722   14.4708602   16.7275502
| 32>     H       15.5293438   19.6148695   17.1569326
| 33>     H       16.6894013   19.6288570   15.8224832
| 34>     H       16.8479951   20.7955409   17.1433679
| 35>     H       18.4088352   20.3603065   18.5619721
| 36>     H       20.1014928   16.8622867   19.5897568
| 37>     H       18.8439031   15.8252743   17.7079307
| 38>     H       18.2822854   13.7946523   18.7122100
| 39>     H       17.0415819   12.4675872   20.4082954
| 40>     H       15.6185715   13.6346971   22.0944476
| 41>     H       14.9219652   15.5720033   22.8417031
| 42>     H       16.6925583   17.4367350   20.4017713
| 43> *
| 44>
| 45>                          ****END OF INPUT****

CARTESIAN COORDINATES (ANGSTROEM)
---------------------------------
  C     16.167891   13.099231   15.887360
  C     15.569533   14.504126   16.068967
  O     16.592860   15.335173   16.639324
  C     16.430354   16.692017   16.632292
  O     15.546978   17.238657   15.993354
  C     17.395922   17.397726   17.543919
  C     17.446230   18.750259   17.644829
  C     16.588828   19.756729   16.907773
  N     18.392226   19.356547   18.476866
  C     19.382656   18.693428   19.151009
  S     20.524592   19.495403   20.039113
  N     19.381953   17.325616   19.049920
  C     18.336548   16.522921   18.389034
  C     17.574201   15.709763   19.431498
  C     17.668055   14.305393   19.448892
  C     16.964728   13.553401   20.404881
  C     16.163453   14.210846   21.353922
  C     16.071285   15.609443   21.342367
  O     15.299152   16.247068   22.257957
  C     16.771898   16.355057   20.389299
  H     16.475002   12.683153   16.854860
  H     17.044691   13.134032   15.228873
  H     15.429455   12.422124   15.441089
  H     15.259103   14.890216   15.088180
  H     14.691472   14.470860   16.727550
  H     15.529344   19.614870   17.156933
  H     16.689401   19.628857   15.822483
  H     16.847995   20.795541   17.143368
  H     18.408835   20.360306   18.561972
  H     20.101493   16.862287   19.589757
  H     18.843903   15.825274   17.707931
  H     18.282285   13.794652   18.712210
  H     17.041582   12.467587   20.408295
  H     15.618571   13.634697   22.094448
  H     14.921965   15.572003   22.841703
  H     16.692558   17.436735   20.401771

 Total Charge           Charge          ....    0
 Multiplicity           Mult            ....    1
 Number of Electrons    NEL             ....  154
 Basis Dimension        Dim             ....  828

ORBITAL ENERGIES
----------------

  NO   OCC          E(Eh)            E(eV)
   0   2.0000     -91.888777     -2500.4207
   1   2.0000     -20.602304      -560.6172
   2   2.0000     -20.595933      -560.4438
   3   2.0000     -20.541588      -558.9650
   4   2.0000     -15.628910      -425.2843
   5   2.0000     -15.608158      -424.7196
   6   2.0000     -11.394205      -310.0521
   7   2.0000     -11.383888      -309.7713
   8   2.0000     -11.335759      -308.4617
   9   2.0000     -11.313073      -307.8444
  10   2.0000     -11.308880      -307.7303
  11   2.0000     -11.295904      -307.3772
  12   2.0000     -11.259052      -306.3744
  13   2.0000     -11.258724      -306.3654
  14   2.0000     -11.254619      -306.2537
  15   2.0000     -11.251785      -306.1766
  16   2.0000     -11.242500      -305.9240
  17   2.0000     -11.237977      -305.8009
  18   2.0000     -11.237665      -305.7924
  19   2.0000     -11.231500      -305.6247
  20   2.0000      -8.893837      -242.0136
  21   2.0000      -6.575412      -178.9261
  22   2.0000      -6.573408      -178.8715
  23   2.0000      -6.572821      -178.8555
  24   2.0000      -1.452652       -39.5287
  25   2.0000      -1.415591       -38.5202
  26   2.0000      -1.354870       -36.8679
  27   2.0000      -1.339881       -36.4600
  28   2.0000      -1.238347       -33.6971
  29   2.0000      -1.157130       -31.4871
  30   2.0000      -1.120267       -30.4840
  31   2.0000      -1.043452       -28.3938
  32   2.0000      -1.040061       -28.3015
  33   2.0000      -1.014596       -27.6086
  34   2.0000      -0.995656       -27.0932
  35   2.0000      -0.984301       -26.7842
  36   2.0000      -0.922268       -25.0962
  37   2.0000      -0.888756       -24.1843
  38   2.0000      -0.846519       -23.0349
  39   2.0000      -0.837004       -22.7760
  40   2.0000      -0.833447       -22.6793
  41   2.0000      -0.817588       -22.2477
  42   2.0000      -0.765516       -20.8307
  43   2.0000      -0.731862       -19.9150
  44   2.0000      -0.720966       -19.6185
  45   2.0000      -0.695194       -18.9172
  46   2.0000      -0.685517       -18.6539
  47   2.0000      -0.679575       -18.4922
  48   2.0000      -0.678827       -18.4718
  49   2.0000      -0.663487       -18.0544
  50   2.0000      -0.645949       -17.5772
  51   2.0000      -0.645133       -17.5550
  52   2.0000      -0.635799       -17.3010
  53   2.0000      -0.606289       -16.4980
  54   2.0000      -0.600109       -16.3298
  55   2.0000      -0.598543       -16.2872
  56   2.0000      -0.592658       -16.1270
  57   2.0000      -0.577355       -15.7106
  58   2.0000      -0.570502       -15.5241
  59   2.0000      -0.569549       -15.4982
  60   2.0000      -0.561741       -15.2857
  61   2.0000      -0.550805       -14.9882
  62   2.0000      -0.539873       -14.6907
  63   2.0000      -0.524686       -14.2774
  64   2.0000      -0.520610       -14.1665
  65   2.0000      -0.513141       -13.9633
  66   2.0000      -0.505232       -13.7481
  67   2.0000      -0.499103       -13.5813
  68   2.0000      -0.485023       -13.1981
  69   2.0000      -0.465315       -12.6619
  70   2.0000      -0.458976       -12.4894
  71   2.0000      -0.447205       -12.1691
  72   2.0000      -0.354174        -9.6376
  73   2.0000      -0.348940        -9.4952
  74   2.0000      -0.328091        -8.9278
  75   2.0000      -0.320631        -8.7248
  76   2.0000      -0.315864        -8.5951
  77   0.0000       0.076412         2.0793
  78   0.0000       0.106173         2.8891
  79   0.0000       0.125138         3.4052
  80   0.0000       0.132421         3.6033
  81   0.0000       0.136577         3.7164

MULLIKEN ATOMIC CHARGES
-----------------------
   0 C :   -0.272108
   1 C :    0.036827
   2 O :   -0.342604
   3 C :    0.455259
   4 O :   -0.432531
   5 C :   -0.217468
   6 C :    0.151264
   7 C :   -0.274032
   8 N :   -0.121099
   9 C :    0.210789
  10 S :   -0.439804
  11 N :   -0.203139
  12 C :    0.049640
  13 C :    0.066365
  14 C :   -0.185538
  15 C :   -0.130527
  16 C :   -0.278252
  17 C :    0.315757
  18 O :   -0.356652
  19 C :   -0.270063
  20 H :    0.092713
  21 H :    0.096200
  22 H :    0.097856
  23 H :    0.111229
  24 H :    0.092430
  25 H :    0.132414
  26 H :    0.130659
  27 H :    0.094951
  28 H :    0.197346
  29 H :    0.194456
  30 H :    0.150471
  31 H :    0.152207
  32 H :    0.159918
  33 H :    0.129636
  34 H :    0.240595
  35 H :    0.164836
Sum of atomic charges:   -0.0000000

LOEWDIN ATOMIC CHARGES
----------------------
   0 C :    0.106594
   1 C :   -0.016075
   2 O :    0.309892
   3 C :   -0.413739
   4 O :    0.095917
   5 C :   -0.094765
   6 C :   -0.059055
   7 C :    0.131584
   8 N :    0.406519
   9 C :   -0.456561
  10 S :   -0.035424
  11 N :    0.396505
  12 C :   -0.052581
  13 C :   -0.038731
  14 C :    0.014318
  15 C :    0.038367
  16 C :   -0.001479
  17 C :   -0.189508
  18 O :    0.395131
  19 C :    0.031725
  20 H :   -0.030114
  21 H :   -0.026905
  22 H :   -0.024111
  23 H :   -0.027241
  24 H :   -0.028832
  25 H :   -0.004383
  26 H :   -0.004031
  27 H :   -0.023443
  28 H :   -0.057581
  29 H :   -0.064569
  30 H :   -0.011122
  31 H :   -0.031148
  32 H :   -0.021788
  33 H :   -0.035647
  34 H :   -0.154023
  35 H :   -0.023695

  Mayer bond orders larger than 0.100000
B(  0-C ,  1-C ) :   0.9713 B(  0-C , 20-H ) :   0.9779 B(  0-C , 21-H ) :   0.9766
B(  0-C , 22-H ) :   0.9786 B(  1-C ,  2-O ) :   0.8979 B(  1-C , 23-H ) :   0.9796
B(  1-C , 24-H ) :   0.9748 B(  2-O ,  3-C ) :   1.1787 B(  3-C ,  4-O ) :   1.9718
B(  3-C ,  5-C ) :   1.0580 B(  5-C ,  6-C ) :   1.6589 B(  5-C , 12-C ) :   0.9718
B(  6-C ,  7-C ) :   0.9675 B(  6-C ,  8-N ) :   1.1643 B(  7-C , 25-H ) :   0.9601
B(  7-C , 26-H ) :   0.9605 B(  7-C , 27-H ) :   0.9903 B(  8-N ,  9-C ) :   1.1828
B(  8-N , 28-H ) :   0.9479 B(  9-C , 10-S ) :   1.6078 B(  9-C , 11-N ) :   1.3045
B( 11-N , 12-C ) :   0.9888 B( 11-N , 29-H ) :   0.9516 B( 12-C , 13-C ) :   0.9358
B( 12-C , 30-H ) :   1.0035 B( 13-C , 14-C ) :   1.3606 B( 13-C , 19-C ) :   1.3818
B( 14-C , 15-C ) :   1.3886 B( 14-C , 31-H ) :   0.9698 B( 15-C , 16-C ) :   1.3653
B( 15-C , 32-H ) :   0.9705 B( 16-C , 17-C ) :   1.3320 B( 16-C , 33-H ) :   0.9851
B( 17-C , 18-O ) :   1.1099 B( 17-C , 19-C ) :   1.3730 B( 18-O , 34-H ) :   0.9800
B( 19-C , 35-H ) :   0.9583

MP2 TOTAL ENERGY:    -1274.351620453 Eh
FINAL SINGLE POINT ENERGY     -1274.351620453399

DIPOLE MOMENT
-------------
                                X             Y             Z
Electronic contribution:      8.54501      11.12380       8.53487
Nuclear contribution   :     -9.71690     -12.72611      -8.96449
                        -----------------------------------------
Total Dipole Moment    :     -1.17189      -1.60231      -0.42962
                        -----------------------------------------
Magnitude (a.u.)       :      2.03108
Magnitude (Debye)      :      5.16260

Rotational constants in cm-1:     0.011553     0.008495     0.006157
Rotational constants in MHz :   346.335604   254.666633   184.582812

                             ****ORCA TERMINATED NORMALLY****
TOTAL RUN TIME: 0 days 2 hours 0 minutes 52 seconds 750 msec
