                         Program Version 4.2.0 -  RELEASE  -
|  1> ! ri-mp2 cc-pvtz cc-pvtz/c TightSCF  NoKeepInts
|  2>
|  3> %scf
|  4>   MaxCore 4096
|  5> end
|  6> *xyz  0  1
|  7>     C       14.7309646   14.7536014   17.4061312
|  8>     C       15.6919298   15.2027819   16.2933101
|  9>     O       17.0262258   14.9234408   16.7389889
| 10>     C       18.0485927   15.7821711   16.4611921
| 11>     O       19.1338741   15.3017041   16.1945584
| 12>     C       18.0067962   16.9497481   17.3851296
| 13>     C       17.5084357   18.1446326   16.9984416
| 14>     C       16.9288623   18.4904439   15.6437096
| 15>     N       17.5590656   19.2345923   17.8700628
| 16>     C       18.1966550   19.2312280   19.0837430
| 17>     S       18.2704988   20.5868963   20.0279680
| 18>     N       18.7687082   18.0459842   19.4778360
| 19>     C       18.6544993   16.7609158   18.7581908
| 20>     C       17.9162841   15.7201535   19.5947770
| 21>     C       18.3856705   14.3945154   19.6414945
| 22>     C       17.7089394   13.4207176   20.3945486
| 23>     C       16.5511608   13.7741013   21.1079622
| 24>     C       16.0779824   15.0922514   21.0610025
| 25>     O       14.9520524   15.4331115   21.7370065
| 26>     C       16.7533988   16.0601431   20.3107890
| 27>     H       14.9001123   13.6997083   17.6610909
| 28>     H       13.6880622   14.8680439   17.0871338
| 29>     H       14.8790806   15.3539358   18.3113027
| 30>     H       15.4852418   14.6556905   15.3640978
| 31>     H       15.5398612   16.2712784   16.1100655
| 32>     H       17.1573245   17.7310320   14.8861695
| 33>     H       17.3443089   19.4359208   15.2716077
| 34>     H       15.8389707   18.6021140   15.6985137
| 35>     H       17.1568891   20.1169100   17.5952324
| 36>     H       19.2134348   18.0679522   20.3867078
| 37>     H       19.6749723   16.3882321   18.5858911
| 38>     H       19.2698237   14.1143891   19.0731309
| 39>     H       18.0788505   12.3971779   20.4154485
| 40>     H       16.0232760   13.0239247   21.6871554
| 41>     H       14.6611989   14.6499420   22.2280734
| 42>     H       16.3649962   17.0726142   20.2855364
| 43> *
| 44>
| 45>                          ****END OF INPUT****

CARTESIAN COORDINATES (ANGSTROEM)
---------------------------------
  C     14.730965   14.753601   17.406131
  C     15.691930   15.202782   16.293310
  O     17.026226   14.923441   16.738989
  C     18.048593   15.782171   16.461192
  O     19.133874   15.301704   16.194558
  C     18.006796   16.949748   17.385130
  C     17.508436   18.144633   16.998442
  C     16.928862   18.490444   15.643710
  N     17.559066   19.234592   17.870063
  C     18.196655   19.231228   19.083743
  S     18.270499   20.586896   20.027968
  N     18.768708   18.045984   19.477836
  C     18.654499   16.760916   18.758191
  C     17.916284   15.720153   19.594777
  C     18.385670   14.394515   19.641494
  C     17.708939   13.420718   20.394549
  C     16.551161   13.774101   21.107962
  C     16.077982   15.092251   21.061002
  O     14.952052   15.433111   21.737006
  C     16.753399   16.060143   20.310789
  H     14.900112   13.699708   17.661091
  H     13.688062   14.868044   17.087134
  H     14.879081   15.353936   18.311303
  H     15.485242   14.655691   15.364098
  H     15.539861   16.271278   16.110066
  H     17.157324   17.731032   14.886169
  H     17.344309   19.435921   15.271608
  H     15.838971   18.602114   15.698514
  H     17.156889   20.116910   17.595232
  H     19.213435   18.067952   20.386708
  H     19.674972   16.388232   18.585891
  H     19.269824   14.114389   19.073131
  H     18.078851   12.397178   20.415449
  H     16.023276   13.023925   21.687155
  H     14.661199   14.649942   22.228073
  H     16.364996   17.072614   20.285536

 Total Charge           Charge          ....    0
 Multiplicity           Mult            ....    1
 Number of Electrons    NEL             ....  154
 Basis Dimension        Dim             ....  828

ORBITAL ENERGIES
----------------

  NO   OCC          E(Eh)            E(eV)
   0   2.0000     -91.886076     -2500.3472
   1   2.0000     -20.596996      -560.4727
   2   2.0000     -20.596992      -560.4726
   3   2.0000     -20.564747      -559.5952
   4   2.0000     -15.620732      -425.0617
   5   2.0000     -15.609115      -424.7456
   6   2.0000     -11.395213      -310.0795
   7   2.0000     -11.383002      -309.7472
   8   2.0000     -11.319799      -308.0274
   9   2.0000     -11.315422      -307.9083
  10   2.0000     -11.312891      -307.8394
  11   2.0000     -11.305943      -307.6504
  12   2.0000     -11.269240      -306.6516
  13   2.0000     -11.264619      -306.5259
  14   2.0000     -11.260236      -306.4066
  15   2.0000     -11.253450      -306.2219
  16   2.0000     -11.242420      -305.9218
  17   2.0000     -11.237946      -305.8001
  18   2.0000     -11.236061      -305.7488
  19   2.0000     -11.229325      -305.5655
  20   2.0000      -8.891229      -241.9426
  21   2.0000      -6.572831      -178.8558
  22   2.0000      -6.570792      -178.8003
  23   2.0000      -6.570231      -178.7851
  24   2.0000      -1.459458       -39.7139
  25   2.0000      -1.416722       -38.5510
  26   2.0000      -1.366010       -37.1710
  27   2.0000      -1.335671       -36.3455
  28   2.0000      -1.236377       -33.6435
  29   2.0000      -1.157302       -31.4918
  30   2.0000      -1.122674       -30.5495
  31   2.0000      -1.046295       -28.4711
  32   2.0000      -1.040496       -28.3133
  33   2.0000      -1.015296       -27.6276
  34   2.0000      -1.002571       -27.2813
  35   2.0000      -0.985900       -26.8277
  36   2.0000      -0.925300       -25.1787
  37   2.0000      -0.885187       -24.0872
  38   2.0000      -0.850942       -23.1553
  39   2.0000      -0.838095       -22.8057
  40   2.0000      -0.833614       -22.6838
  41   2.0000      -0.833050       -22.6684
  42   2.0000      -0.760649       -20.6983
  43   2.0000      -0.735049       -20.0017
  44   2.0000      -0.729040       -19.8382
  45   2.0000      -0.695907       -18.9366
  46   2.0000      -0.691420       -18.8145
  47   2.0000      -0.683503       -18.5991
  48   2.0000      -0.676495       -18.4084
  49   2.0000      -0.663878       -18.0650
  50   2.0000      -0.650936       -17.7129
  51   2.0000      -0.638440       -17.3728
  52   2.0000      -0.629926       -17.1412
  53   2.0000      -0.628404       -17.0997
  54   2.0000      -0.609858       -16.5951
  55   2.0000      -0.604674       -16.4540
  56   2.0000      -0.600725       -16.3466
  57   2.0000      -0.588186       -16.0054
  58   2.0000      -0.575565       -15.6619
  59   2.0000      -0.566467       -15.4143
  60   2.0000      -0.562865       -15.3163
  61   2.0000      -0.553378       -15.0582
  62   2.0000      -0.538728       -14.6595
  63   2.0000      -0.526539       -14.3279
  64   2.0000      -0.519277       -14.1303
  65   2.0000      -0.511566       -13.9204
  66   2.0000      -0.499497       -13.5920
  67   2.0000      -0.499056       -13.5800
  68   2.0000      -0.490619       -13.3504
  69   2.0000      -0.466041       -12.6816
  70   2.0000      -0.460454       -12.5296
  71   2.0000      -0.453733       -12.3467
  72   2.0000      -0.353759        -9.6263
  73   2.0000      -0.347173        -9.4471
  74   2.0000      -0.326064        -8.8727
  75   2.0000      -0.320294        -8.7156
  76   2.0000      -0.314319        -8.5531
  77   0.0000       0.090855         2.4723
  78   0.0000       0.098821         2.6890
  79   0.0000       0.108767         2.9597
  80   0.0000       0.125994         3.4285
  81   0.0000       0.129961         3.5364

MULLIKEN ATOMIC CHARGES
-----------------------
   0 C :   -0.278574
   1 C :    0.018995
   2 O :   -0.309633
   3 C :    0.369513
   4 O :   -0.350913
   5 C :   -0.116116
   6 C :    0.118525
   7 C :   -0.332102
   8 N :   -0.135649
   9 C :    0.208243
  10 S :   -0.447679
  11 N :   -0.214645
  12 C :    0.034130
  13 C :    0.061128
  14 C :   -0.186569
  15 C :   -0.135736
  16 C :   -0.270790
  17 C :    0.320980
  18 O :   -0.362854
  19 C :   -0.293951
  20 H :    0.107260
  21 H :    0.095104
  22 H :    0.111672
  23 H :    0.113719
  24 H :    0.071084
  25 H :    0.117464
  26 H :    0.134218
  27 H :    0.123234
  28 H :    0.193621
  29 H :    0.198656
  30 H :    0.167150
  31 H :    0.157481
  32 H :    0.161613
  33 H :    0.131301
  34 H :    0.240808
  35 H :    0.179311
Sum of atomic charges:    0.0000000

LOEWDIN ATOMIC CHARGES
----------------------
   0 C :    0.110761
   1 C :   -0.030907
   2 O :    0.327496
   3 C :   -0.427167
   4 O :    0.151446
   5 C :   -0.076605
   6 C :   -0.118056
   7 C :    0.119014
   8 N :    0.398741
   9 C :   -0.455428
  10 S :   -0.043423
  11 N :    0.397778
  12 C :   -0.040147
  13 C :   -0.039944
  14 C :    0.023784
  15 C :    0.044945
  16 C :   -0.001102
  17 C :   -0.193020
  18 O :    0.394627
  19 C :    0.027880
  20 H :   -0.023054
  21 H :   -0.027557
  22 H :   -0.025542
  23 H :   -0.030015
  24 H :   -0.037661
  25 H :   -0.012633
  26 H :   -0.011035
  27 H :   -0.018223
  28 H :   -0.060206
  29 H :   -0.063787
  30 H :   -0.003005
  31 H :   -0.024363
  32 H :   -0.019649
  33 H :   -0.035564
  34 H :   -0.153629
  35 H :   -0.024749

  Mayer bond orders larger than 0.100000
B(  0-C ,  1-C ) :   0.9799 B(  0-C , 20-H ) :   0.9771 B(  0-C , 21-H ) :   0.9777
B(  0-C , 22-H ) :   0.9731 B(  1-C ,  2-O ) :   0.9297 B(  1-C , 23-H ) :   0.9814
B(  1-C , 24-H ) :   0.9665 B(  2-O ,  3-C ) :   1.0802 B(  3-C ,  4-O ) :   2.1076
B(  3-C ,  5-C ) :   0.9323 B(  5-C ,  6-C ) :   1.7280 B(  5-C , 12-C ) :   0.9710
B(  6-C ,  7-C ) :   0.9374 B(  6-C ,  8-N ) :   1.1020 B(  7-C , 25-H ) :   0.9833
B(  7-C , 26-H ) :   0.9732 B(  7-C , 27-H ) :   0.9679 B(  8-N ,  9-C ) :   1.2043
B(  8-N , 28-H ) :   0.9547 B(  9-C , 10-S ) :   1.6033 B(  9-C , 11-N ) :   1.2846
B( 11-N , 12-C ) :   0.9942 B( 11-N , 29-H ) :   0.9476 B( 12-C , 13-C ) :   0.9463
B( 12-C , 30-H ) :   0.9995 B( 13-C , 14-C ) :   1.3799 B( 13-C , 19-C ) :   1.3440
B( 14-C , 15-C ) :   1.3978 B( 14-C , 31-H ) :   0.9668 B( 15-C , 16-C ) :   1.3620
B( 15-C , 32-H ) :   0.9706 B( 16-C , 17-C ) :   1.3322 B( 16-C , 33-H ) :   0.9847
B( 17-C , 18-O ) :   1.1009 B( 17-C , 19-C ) :   1.3600 B( 18-O , 34-H ) :   0.9803
B( 19-C , 35-H ) :   0.9571

MP2 TOTAL ENERGY:    -1274.309484562 Eh
FINAL SINGLE POINT ENERGY     -1274.309484562445

DIPOLE MOMENT
-------------
                                X             Y             Z
Electronic contribution:     10.23681       7.71139       6.67243
Nuclear contribution   :    -11.79836      -9.04420      -7.59123
                        -----------------------------------------
Total Dipole Moment    :     -1.56156      -1.33281      -0.91880
                        -----------------------------------------
Magnitude (a.u.)       :      2.24923
Magnitude (Debye)      :      5.71709

Rotational constants in cm-1:     0.012295     0.009168     0.006817
Rotational constants in MHz :   368.594442   274.835227   204.376150

                             ****ORCA TERMINATED NORMALLY****
TOTAL RUN TIME: 0 days 1 hours 52 minutes 59 seconds 112 msec
