                         Program Version 4.2.0 -  RELEASE  -
|  1> ! ri-mp2 cc-pvtz cc-pvtz/c TightSCF  NoKeepInts
|  2>
|  3> %scf
|  4>   MaxCore 4096
|  5> end
|  6> *xyz  0  1
|  7>     C       14.8257778   14.5946425   14.5691420
|  8>     C       15.3548100   14.5395705   16.0121297
|  9>     O       16.2827565   15.6288647   16.1674490
| 10>     C       17.4061602   15.4675653   16.9266597
| 11>     O       17.8520728   14.3663654   17.2047173
| 12>     C       17.8379143   16.7096883   17.6529426
| 13>     C       17.5055073   17.9772601   17.2923465
| 14>     C       16.6696024   18.4229291   16.1097595
| 15>     N       18.0188793   19.0610183   18.0126812
| 16>     C       18.9761898   18.9709975   18.9883935
| 17>     S       19.6255384   20.3157057   19.6995482
| 18>     N       19.3686026   17.7056805   19.3439477
| 19>     C       18.7270141   16.4623239   18.8772292
| 20>     C       17.9342640   15.8139407   20.0093643
| 21>     C       18.1813923   14.4786741   20.3783161
| 22>     C       17.4533528   13.8757732   21.4177446
| 23>     C       16.4683359   14.6137573   22.0957701
| 24>     C       16.2162200   15.9426973   21.7291331
| 25>     O       15.2613686   16.6560786   22.3777741
| 26>     C       16.9421262   16.5398658   20.6937897
| 27>     H       14.3220863   15.5500645   14.3770714
| 28>     H       14.1072051   13.7851376   14.3920657
| 29>     H       15.6490073   14.4852633   13.8520371
| 30>     H       14.5328115   14.6329118   16.7336749
| 31>     H       15.8408365   13.5663150   16.1648488
| 32>     H       17.0031475   17.9298134   15.1881177
| 33>     H       16.7276131   19.5038604   15.9335825
| 34>     H       15.6134917   18.1693621   16.2650623
| 35>     H       17.7436082   19.9982151   17.7660143
| 36>     H       20.0527864   17.6651620   20.0883730
| 37>     H       19.5261919   15.7694885   18.5763727
| 38>     H       18.9308079   13.9002460   19.8434678
| 39>     H       17.6504181   12.8402061   21.6889908
| 40>     H       15.9025657   14.1514708   22.8977026
| 41>     H       14.9032567   16.0903702   23.0781231
| 42>     H       16.7332808   17.5707143   20.4296572
| 43> *
| 44>
| 45>                          ****END OF INPUT****

CARTESIAN COORDINATES (ANGSTROEM)
---------------------------------
  C     14.825778   14.594642   14.569142
  C     15.354810   14.539570   16.012130
  O     16.282757   15.628865   16.167449
  C     17.406160   15.467565   16.926660
  O     17.852073   14.366365   17.204717
  C     17.837914   16.709688   17.652943
  C     17.505507   17.977260   17.292347
  C     16.669602   18.422929   16.109759
  N     18.018879   19.061018   18.012681
  C     18.976190   18.970997   18.988394
  S     19.625538   20.315706   19.699548
  N     19.368603   17.705680   19.343948
  C     18.727014   16.462324   18.877229
  C     17.934264   15.813941   20.009364
  C     18.181392   14.478674   20.378316
  C     17.453353   13.875773   21.417745
  C     16.468336   14.613757   22.095770
  C     16.216220   15.942697   21.729133
  O     15.261369   16.656079   22.377774
  C     16.942126   16.539866   20.693790
  H     14.322086   15.550064   14.377071
  H     14.107205   13.785138   14.392066
  H     15.649007   14.485263   13.852037
  H     14.532811   14.632912   16.733675
  H     15.840836   13.566315   16.164849
  H     17.003148   17.929813   15.188118
  H     16.727613   19.503860   15.933582
  H     15.613492   18.169362   16.265062
  H     17.743608   19.998215   17.766014
  H     20.052786   17.665162   20.088373
  H     19.526192   15.769488   18.576373
  H     18.930808   13.900246   19.843468
  H     17.650418   12.840206   21.688991
  H     15.902566   14.151471   22.897703
  H     14.903257   16.090370   23.078123
  H     16.733281   17.570714   20.429657

 Total Charge           Charge          ....    0
 Multiplicity           Mult            ....    1
 Number of Electrons    NEL             ....  154
 Basis Dimension        Dim             ....  828

ORBITAL ENERGIES
----------------

  NO   OCC          E(Eh)            E(eV)
   0   2.0000     -91.887957     -2500.3984
   1   2.0000     -20.600815      -560.5767
   2   2.0000     -20.591696      -560.3285
   3   2.0000     -20.546927      -559.1103
   4   2.0000     -15.628242      -425.2661
   5   2.0000     -15.606626      -424.6779
   6   2.0000     -11.396081      -310.1031
   7   2.0000     -11.382900      -309.7445
   8   2.0000     -11.335798      -308.4627
   9   2.0000     -11.307496      -307.6926
  10   2.0000     -11.305642      -307.6422
  11   2.0000     -11.298448      -307.4464
  12   2.0000     -11.260336      -306.4093
  13   2.0000     -11.259044      -306.3742
  14   2.0000     -11.253409      -306.2208
  15   2.0000     -11.247613      -306.0631
  16   2.0000     -11.237264      -305.7815
  17   2.0000     -11.233381      -305.6758
  18   2.0000     -11.232635      -305.6555
  19   2.0000     -11.230375      -305.5940
  20   2.0000      -8.893023      -241.9915
  21   2.0000      -6.574601      -178.9040
  22   2.0000      -6.572594      -178.8494
  23   2.0000      -6.572009      -178.8334
  24   2.0000      -1.453507       -39.5519
  25   2.0000      -1.411430       -38.4070
  26   2.0000      -1.357446       -36.9380
  27   2.0000      -1.339183       -36.4410
  28   2.0000      -1.236832       -33.6559
  29   2.0000      -1.152063       -31.3492
  30   2.0000      -1.119475       -30.4625
  31   2.0000      -1.044217       -28.4146
  32   2.0000      -1.036613       -28.2077
  33   2.0000      -1.009447       -27.4684
  34   2.0000      -0.997480       -27.1428
  35   2.0000      -0.983045       -26.7500
  36   2.0000      -0.921014       -25.0621
  37   2.0000      -0.887890       -24.1607
  38   2.0000      -0.847089       -23.0505
  39   2.0000      -0.835079       -22.7237
  40   2.0000      -0.827817       -22.5260
  41   2.0000      -0.818897       -22.2833
  42   2.0000      -0.760991       -20.7076
  43   2.0000      -0.735881       -20.0243
  44   2.0000      -0.724895       -19.7254
  45   2.0000      -0.690298       -18.7840
  46   2.0000      -0.684458       -18.6250
  47   2.0000      -0.680051       -18.5051
  48   2.0000      -0.674290       -18.3484
  49   2.0000      -0.653347       -17.7785
  50   2.0000      -0.650865       -17.7109
  51   2.0000      -0.642373       -17.4799
  52   2.0000      -0.632576       -17.2133
  53   2.0000      -0.610988       -16.6258
  54   2.0000      -0.600634       -16.3441
  55   2.0000      -0.599852       -16.3228
  56   2.0000      -0.595023       -16.1914
  57   2.0000      -0.579685       -15.7740
  58   2.0000      -0.573228       -15.5983
  59   2.0000      -0.562504       -15.3065
  60   2.0000      -0.561818       -15.2879
  61   2.0000      -0.544815       -14.8252
  62   2.0000      -0.539836       -14.6897
  63   2.0000      -0.529160       -14.3992
  64   2.0000      -0.517183       -14.0733
  65   2.0000      -0.509394       -13.8613
  66   2.0000      -0.499413       -13.5897
  67   2.0000      -0.495085       -13.4719
  68   2.0000      -0.481234       -13.0950
  69   2.0000      -0.462991       -12.5986
  70   2.0000      -0.461563       -12.5598
  71   2.0000      -0.452450       -12.3118
  72   2.0000      -0.354029        -9.6336
  73   2.0000      -0.343933        -9.3589
  74   2.0000      -0.327098        -8.9008
  75   2.0000      -0.315518        -8.5857
  76   2.0000      -0.313814        -8.5393
  77   0.0000       0.075377         2.0511
  78   0.0000       0.112458         3.0601
  79   0.0000       0.120550         3.2803
  80   0.0000       0.135677         3.6920
  81   0.0000       0.138768         3.7761

MULLIKEN ATOMIC CHARGES
-----------------------
   0 C :   -0.264735
   1 C :    0.023212
   2 O :   -0.350958
   3 C :    0.455551
   4 O :   -0.423690
   5 C :   -0.182897
   6 C :    0.142256
   7 C :   -0.286571
   8 N :   -0.122785
   9 C :    0.201567
  10 S :   -0.439563
  11 N :   -0.197477
  12 C :    0.037351
  13 C :    0.055391
  14 C :   -0.160829
  15 C :   -0.133840
  16 C :   -0.279132
  17 C :    0.311114
  18 O :   -0.359162
  19 C :   -0.272047
  20 H :    0.090003
  21 H :    0.093980
  22 H :    0.098395
  23 H :    0.098181
  24 H :    0.120725
  25 H :    0.126204
  26 H :    0.103399
  27 H :    0.126746
  28 H :    0.196858
  29 H :    0.193681
  30 H :    0.153865
  31 H :    0.153406
  32 H :    0.159036
  33 H :    0.128017
  34 H :    0.240060
  35 H :    0.164686
Sum of atomic charges:   -0.0000000

LOEWDIN ATOMIC CHARGES
----------------------
   0 C :    0.104979
   1 C :   -0.011709
   2 O :    0.304235
   3 C :   -0.413632
   4 O :    0.106952
   5 C :   -0.091432
   6 C :   -0.067033
   7 C :    0.124912
   8 N :    0.404699
   9 C :   -0.458762
  10 S :   -0.036203
  11 N :    0.397739
  12 C :   -0.046301
  13 C :   -0.038884
  14 C :    0.022058
  15 C :    0.040937
  16 C :   -0.002385
  17 C :   -0.192739
  18 O :    0.392937
  19 C :    0.028360
  20 H :   -0.030450
  21 H :   -0.024861
  22 H :   -0.025382
  23 H :   -0.030766
  24 H :   -0.027025
  25 H :   -0.008557
  26 H :   -0.020792
  27 H :   -0.010141
  28 H :   -0.059124
  29 H :   -0.063733
  30 H :   -0.004951
  31 H :   -0.025301
  32 H :   -0.021232
  33 H :   -0.036424
  34 H :   -0.154913
  35 H :   -0.025078

  Mayer bond orders larger than 0.100000
B(  0-C ,  1-C ) :   0.9737 B(  0-C , 20-H ) :   0.9797 B(  0-C , 21-H ) :   0.9768
B(  0-C , 22-H ) :   0.9778 B(  1-C ,  2-O ) :   0.8871 B(  1-C , 23-H ) :   0.9770
B(  1-C , 24-H ) :   0.9745 B(  2-O ,  3-C ) :   1.1442 B(  3-C ,  4-O ) :   1.9965
B(  3-C ,  5-C ) :   1.0462 B(  5-C ,  6-C ) :   1.6506 B(  5-C , 12-C ) :   0.9652
B(  6-C ,  7-C ) :   0.9538 B(  6-C ,  8-N ) :   1.1451 B(  7-C , 25-H ) :   0.9668
B(  7-C , 26-H ) :   0.9914 B(  7-C , 27-H ) :   0.9634 B(  8-N ,  9-C ) :   1.1795
B(  8-N , 28-H ) :   0.9490 B(  9-C , 10-S ) :   1.6106 B(  9-C , 11-N ) :   1.3038
B( 11-N , 12-C ) :   0.9916 B( 11-N , 29-H ) :   0.9520 B( 12-C , 13-C ) :   0.9477
B( 12-C , 30-H ) :   0.9994 B( 13-C , 14-C ) :   1.3765 B( 13-C , 19-C ) :   1.3690
B( 14-C , 15-C ) :   1.3947 B( 14-C , 31-H ) :   0.9648 B( 15-C , 16-C ) :   1.3627
B( 15-C , 32-H ) :   0.9714 B( 16-C , 17-C ) :   1.3314 B( 16-C , 33-H ) :   0.9860
B( 17-C , 18-O ) :   1.1080 B( 17-C , 19-C ) :   1.3790 B( 18-O , 34-H ) :   0.9806
B( 19-C , 35-H ) :   0.9585

MP2 TOTAL ENERGY:    -1274.343032092 Eh
FINAL SINGLE POINT ENERGY     -1274.343032092143

DIPOLE MOMENT
-------------
                                X             Y             Z
Electronic contribution:     11.44619       8.93237      11.66610
Nuclear contribution   :    -13.06738     -10.15963     -12.52122
                        -----------------------------------------
Total Dipole Moment    :     -1.62119      -1.22726      -0.85512
                        -----------------------------------------
Magnitude (a.u.)       :      2.20582
Magnitude (Debye)      :      5.60676

Rotational constants in cm-1:     0.010420     0.008848     0.005814
Rotational constants in MHz :   312.374240   265.252035   174.290656

                             ****ORCA TERMINATED NORMALLY****
TOTAL RUN TIME: 0 days 1 hours 35 minutes 26 seconds 224 msec
