                         Program Version 4.2.0 -  RELEASE  -
|  1> ! ri-mp2 cc-pvtz cc-pvtz/c TightSCF  NoKeepInts
|  2>
|  3> %scf
|  4>   MaxCore 4096
|  5> end
|  6> *xyz  0  1
|  7>     C       15.0616244   15.2975268   17.5871778
|  8>     C       15.6189415   15.3723509   16.1548095
|  9>     O       16.9938452   14.9374205   16.1228960
| 10>     C       18.1189453   15.6440224   16.4793695
| 11>     O       19.1915248   15.0689563   16.4631535
| 12>     C       17.9312614   16.8327114   17.3659105
| 13>     C       17.4308110   18.0075093   16.9156433
| 14>     C       17.0176331   18.3463601   15.4991310
| 15>     N       17.3872506   19.1174722   17.7619304
| 16>     C       17.9623375   19.1742037   19.0040920
| 17>     S       17.9357452   20.5564600   19.9110655
| 18>     N       18.5694830   18.0283557   19.4541287
| 19>     C       18.5375955   16.7194223   18.7707145
| 20>     C       17.8453937   15.6538269   19.6208235
| 21>     C       18.2813135   14.3169491   19.5571998
| 22>     C       17.6568658   13.3189216   20.3232325
| 23>     C       16.5861663   13.6578122   21.1669388
| 24>     C       16.1494476   14.9869731   21.2386296
| 25>     O       15.1101252   15.3166941   22.0458518
| 26>     C       16.7730316   15.9790587   20.4750618
| 27>     H       15.4174019   14.3947692   18.1005602
| 28>     H       13.9654814   15.2688645   17.5695161
| 29>     H       15.3572883   16.1757612   18.1699063
| 30>     H       15.0395539   14.6708428   15.5404416
| 31>     H       15.4701717   16.3641573   15.7238273
| 32>     H       17.2311399   17.5334233   14.7943570
| 33>     H       17.5700333   19.2229502   15.1363138
| 34>     H       15.9475133   18.5804004   15.4410611
| 35>     H       16.9707684   19.9770210   17.4398890
| 36>     H       18.9789177   18.0960379   20.3774477
| 37>     H       19.5824193   16.3985172   18.6443757
| 38>     H       19.1054326   14.0469235   18.9000588
| 39>     H       18.0028500   12.2887510   20.2572125
| 40>     H       16.0996688   12.8893708   21.7585246
| 41>     H       14.8418965   14.5132730   22.5167601
| 42>     H       16.4071207   16.9979294   20.5459881
| 43> *
| 44>
| 45>                          ****END OF INPUT****

CARTESIAN COORDINATES (ANGSTROEM)
---------------------------------
  C     15.061624   15.297527   17.587178
  C     15.618941   15.372351   16.154809
  O     16.993845   14.937420   16.122896
  C     18.118945   15.644022   16.479370
  O     19.191525   15.068956   16.463154
  C     17.931261   16.832711   17.365910
  C     17.430811   18.007509   16.915643
  C     17.017633   18.346360   15.499131
  N     17.387251   19.117472   17.761930
  C     17.962337   19.174204   19.004092
  S     17.935745   20.556460   19.911065
  N     18.569483   18.028356   19.454129
  C     18.537595   16.719422   18.770715
  C     17.845394   15.653827   19.620823
  C     18.281313   14.316949   19.557200
  C     17.656866   13.318922   20.323232
  C     16.586166   13.657812   21.166939
  C     16.149448   14.986973   21.238630
  O     15.110125   15.316694   22.045852
  C     16.773032   15.979059   20.475062
  H     15.417402   14.394769   18.100560
  H     13.965481   15.268864   17.569516
  H     15.357288   16.175761   18.169906
  H     15.039554   14.670843   15.540442
  H     15.470172   16.364157   15.723827
  H     17.231140   17.533423   14.794357
  H     17.570033   19.222950   15.136314
  H     15.947513   18.580400   15.441061
  H     16.970768   19.977021   17.439889
  H     18.978918   18.096038   20.377448
  H     19.582419   16.398517   18.644376
  H     19.105433   14.046923   18.900059
  H     18.002850   12.288751   20.257213
  H     16.099669   12.889371   21.758525
  H     14.841897   14.513273   22.516760
  H     16.407121   16.997929   20.545988

 Total Charge           Charge          ....    0
 Multiplicity           Mult            ....    1
 Number of Electrons    NEL             ....  154
 Basis Dimension        Dim             ....  828

ORBITAL ENERGIES
----------------

  NO   OCC          E(Eh)            E(eV)
   0   2.0000     -91.890224     -2500.4601
   1   2.0000     -20.601435      -560.5935
   2   2.0000     -20.597215      -560.4787
   3   2.0000     -20.551029      -559.2219
   4   2.0000     -15.627149      -425.2364
   5   2.0000     -15.611541      -424.8116
   6   2.0000     -11.400774      -310.2308
   7   2.0000     -11.386832      -309.8515
   8   2.0000     -11.330595      -308.3212
   9   2.0000     -11.315676      -307.9152
  10   2.0000     -11.313779      -307.8636
  11   2.0000     -11.306839      -307.6747
  12   2.0000     -11.272658      -306.7446
  13   2.0000     -11.268549      -306.6328
  14   2.0000     -11.262140      -306.4584
  15   2.0000     -11.254243      -306.2435
  16   2.0000     -11.243483      -305.9507
  17   2.0000     -11.239131      -305.8323
  18   2.0000     -11.235822      -305.7422
  19   2.0000     -11.226869      -305.4986
  20   2.0000      -8.895339      -242.0545
  21   2.0000      -6.576931      -178.9674
  22   2.0000      -6.574900      -178.9121
  23   2.0000      -6.574327      -178.8965
  24   2.0000      -1.448165       -39.4066
  25   2.0000      -1.417038       -38.5596
  26   2.0000      -1.359490       -36.9936
  27   2.0000      -1.341067       -36.4923
  28   2.0000      -1.240498       -33.7557
  29   2.0000      -1.158681       -31.5293
  30   2.0000      -1.125491       -30.6262
  31   2.0000      -1.047976       -28.5169
  32   2.0000      -1.038594       -28.2616
  33   2.0000      -1.017220       -27.6800
  34   2.0000      -1.005835       -27.3702
  35   2.0000      -0.990083       -26.9415
  36   2.0000      -0.927958       -25.2510
  37   2.0000      -0.893875       -24.3236
  38   2.0000      -0.855348       -23.2752
  39   2.0000      -0.840664       -22.8756
  40   2.0000      -0.834007       -22.6945
  41   2.0000      -0.831239       -22.6192
  42   2.0000      -0.751383       -20.4462
  43   2.0000      -0.740623       -20.1534
  44   2.0000      -0.730339       -19.8735
  45   2.0000      -0.695257       -18.9189
  46   2.0000      -0.687734       -18.7142
  47   2.0000      -0.680492       -18.5171
  48   2.0000      -0.675649       -18.3853
  49   2.0000      -0.663846       -18.0642
  50   2.0000      -0.652609       -17.7584
  51   2.0000      -0.642315       -17.4783
  52   2.0000      -0.639444       -17.4002
  53   2.0000      -0.619804       -16.8657
  54   2.0000      -0.611672       -16.6445
  55   2.0000      -0.605966       -16.4892
  56   2.0000      -0.601482       -16.3672
  57   2.0000      -0.590817       -16.0769
  58   2.0000      -0.578920       -15.7532
  59   2.0000      -0.571465       -15.5504
  60   2.0000      -0.565739       -15.3945
  61   2.0000      -0.556578       -15.1453
  62   2.0000      -0.537792       -14.6341
  63   2.0000      -0.533024       -14.5043
  64   2.0000      -0.517660       -14.0862
  65   2.0000      -0.512418       -13.9436
  66   2.0000      -0.504538       -13.7292
  67   2.0000      -0.501220       -13.6389
  68   2.0000      -0.483514       -13.1571
  69   2.0000      -0.465805       -12.6752
  70   2.0000      -0.454426       -12.3656
  71   2.0000      -0.450935       -12.2706
  72   2.0000      -0.358242        -9.7483
  73   2.0000      -0.347817        -9.4646
  74   2.0000      -0.329912        -8.9773
  75   2.0000      -0.322652        -8.7798
  76   2.0000      -0.318982        -8.6799
  77   0.0000       0.086594         2.3563
  78   0.0000       0.106776         2.9055
  79   0.0000       0.111030         3.0213
  80   0.0000       0.129466         3.5230
  81   0.0000       0.131200         3.5701

MULLIKEN ATOMIC CHARGES
-----------------------
   0 C :   -0.312366
   1 C :    0.007825
   2 O :   -0.315229
   3 C :    0.411191
   4 O :   -0.382387
   5 C :   -0.214510
   6 C :    0.149754
   7 C :   -0.329860
   8 N :   -0.138708
   9 C :    0.207227
  10 S :   -0.441697
  11 N :   -0.232015
  12 C :    0.101758
  13 C :    0.019905
  14 C :   -0.212121
  15 C :   -0.137189
  16 C :   -0.278882
  17 C :    0.325430
  18 O :   -0.358342
  19 C :   -0.277121
  20 H :    0.124934
  21 H :    0.111622
  22 H :    0.104593
  23 H :    0.129231
  24 H :    0.089259
  25 H :    0.122644
  26 H :    0.143071
  27 H :    0.120665
  28 H :    0.195651
  29 H :    0.204021
  30 H :    0.168381
  31 H :    0.175446
  32 H :    0.164169
  33 H :    0.131799
  34 H :    0.241021
  35 H :    0.180826
Sum of atomic charges:   -0.0000000

LOEWDIN ATOMIC CHARGES
----------------------
   0 C :    0.104549
   1 C :   -0.022985
   2 O :    0.307659
   3 C :   -0.415713
   4 O :    0.125039
   5 C :   -0.076234
   6 C :   -0.104348
   7 C :    0.120468
   8 N :    0.401522
   9 C :   -0.457607
  10 S :   -0.038228
  11 N :    0.398480
  12 C :   -0.041311
  13 C :   -0.041191
  14 C :    0.021291
  15 C :    0.043300
  16 C :   -0.001851
  17 C :   -0.193012
  18 O :    0.395445
  19 C :    0.028086
  20 H :   -0.017865
  21 H :   -0.026160
  22 H :   -0.035347
  23 H :   -0.019928
  24 H :   -0.039854
  25 H :   -0.009575
  26 H :   -0.008056
  27 H :   -0.018173
  28 H :   -0.057929
  29 H :   -0.063324
  30 H :   -0.001627
  31 H :   -0.022092
  32 H :   -0.018639
  33 H :   -0.035088
  34 H :   -0.153572
  35 H :   -0.026129

  Mayer bond orders larger than 0.100000
B(  0-C ,  1-C ) :   0.9555 B(  0-C , 20-H ) :   0.9687 B(  0-C , 21-H ) :   0.9770
B(  0-C , 22-H ) :   0.9721 B(  1-C ,  2-O ) :   0.9092 B(  1-C , 23-H ) :   0.9860
B(  1-C , 24-H ) :   0.9740 B(  2-O ,  3-C ) :   1.1657 B(  3-C ,  4-O ) :   2.0796
B(  3-C ,  5-C ) :   0.9229 B(  5-C ,  6-C ) :   1.6982 B(  5-C , 12-C ) :   0.9431
B(  6-C ,  7-C ) :   0.9426 B(  6-C ,  8-N ) :   1.1064 B(  7-C , 25-H ) :   0.9822
B(  7-C , 26-H ) :   0.9679 B(  7-C , 27-H ) :   0.9676 B(  8-N ,  9-C ) :   1.1987
B(  8-N , 28-H ) :   0.9531 B(  9-C , 10-S ) :   1.6066 B(  9-C , 11-N ) :   1.2882
B( 11-N , 12-C ) :   0.9851 B( 11-N , 29-H ) :   0.9466 B( 12-C , 13-C ) :   0.9568
B( 12-C , 30-H ) :   0.9940 B( 13-C , 14-C ) :   1.3885 B( 13-C , 19-C ) :   1.3348
B( 14-C , 15-C ) :   1.4043 B( 14-C , 31-H ) :   0.9583 B( 15-C , 16-C ) :   1.3562
B( 15-C , 32-H ) :   0.9700 B( 16-C , 17-C ) :   1.3325 B( 16-C , 33-H ) :   0.9850
B( 17-C , 18-O ) :   1.1081 B( 17-C , 19-C ) :   1.3651 B( 18-O , 34-H ) :   0.9796
B( 19-C , 35-H ) :   0.9566

MP2 TOTAL ENERGY:    -1274.326631350 Eh
FINAL SINGLE POINT ENERGY     -1274.326631350303

DIPOLE MOMENT
-------------
                                X             Y             Z
Electronic contribution:      8.90036       6.46170       6.26350
Nuclear contribution   :    -10.37250      -7.47586      -7.04240
                        -----------------------------------------
Total Dipole Moment    :     -1.47214      -1.01416      -0.77890
                        -----------------------------------------
Magnitude (a.u.)       :      1.94997
Magnitude (Debye)      :      4.95643

Rotational constants in cm-1:     0.012010     0.009505     0.006762
Rotational constants in MHz :   360.042338   284.939205   202.729660

                             ****ORCA TERMINATED NORMALLY****
TOTAL RUN TIME: 0 days 1 hours 54 minutes 17 seconds 355 msec
