                         Program Version 4.2.0 -  RELEASE  -
|  1> ! ri-mp2 cc-pvtz cc-pvtz/c TightSCF  NoKeepInts
|  2>
|  3> %scf
|  4>   MaxCore 4096
|  5> end
|  6> *xyz  0  1
|  7>     C       14.5094591   15.5129496   16.9983765
|  8>     C       15.8235718   14.7933204   16.6512424
|  9>     O       16.6480056   15.7075479   15.9056233
| 10>     C       17.9189502   15.9028063   16.3568233
| 11>     O       18.6873281   14.9593118   16.4315286
| 12>     C       17.9620865   17.0072508   17.3664519
| 13>     C       17.3256303   18.1906640   17.1909263
| 14>     C       16.5281573   18.6253713   15.9793394
| 15>     N       17.4382104   19.1912171   18.1603417
| 16>     C       18.2663602   19.1306133   19.2509399
| 17>     S       18.4225359   20.4023343   20.2965302
| 18>     N       18.9590763   17.9589512   19.4324057
| 19>     C       18.7693525   16.7305144   18.6367620
| 20>     C       18.0887684   15.6489454   19.4705286
| 21>     C       18.6631713   14.3699361   19.5860151
| 22>     C       18.0230445   13.3617213   20.3259697
| 23>     C       16.7955473   13.6327089   20.9541457
| 24>     C       16.2177825   14.9040351   20.8378699
| 25>     O       15.0254671   15.1653276   21.4300460
| 26>     C       16.8577857   15.9057398   20.1018510
| 27>     H       14.7004985   16.3752701   17.6488591
| 28>     H       13.8304809   14.8334384   17.5278287
| 29>     H       14.0058289   15.8629613   16.0888491
| 30>     H       16.3182757   14.4662507   17.5765473
| 31>     H       15.6168715   13.9025685   16.0439693
| 32>     H       15.5028555   18.2395669   16.0293763
| 33>     H       16.9800334   18.2497372   15.0527565
| 34>     H       16.4735053   19.7170332   15.8874306
| 35>     H       16.9401181   20.0593707   18.0432704
| 36>     H       19.5409941   17.9323614   20.2599458
| 37>     H       19.7621025   16.3663756   18.3346752
| 38>     H       19.6011918   14.1511517   19.0810561
| 39>     H       18.4756089   12.3745348   20.4028316
| 40>     H       16.2962483   12.8553570   21.5230902
| 41>     H       14.7793182   14.3822076   21.9453609
| 42>     H       16.3927773   16.8825484   20.0244360
| 43> *
| 44>
| 45>                          ****END OF INPUT****

CARTESIAN COORDINATES (ANGSTROEM)
---------------------------------
  C     14.509459   15.512950   16.998376
  C     15.823572   14.793320   16.651242
  O     16.648006   15.707548   15.905623
  C     17.918950   15.902806   16.356823
  O     18.687328   14.959312   16.431529
  C     17.962087   17.007251   17.366452
  C     17.325630   18.190664   17.190926
  C     16.528157   18.625371   15.979339
  N     17.438210   19.191217   18.160342
  C     18.266360   19.130613   19.250940
  S     18.422536   20.402334   20.296530
  N     18.959076   17.958951   19.432406
  C     18.769352   16.730514   18.636762
  C     18.088768   15.648945   19.470529
  C     18.663171   14.369936   19.586015
  C     18.023044   13.361721   20.325970
  C     16.795547   13.632709   20.954146
  C     16.217782   14.904035   20.837870
  O     15.025467   15.165328   21.430046
  C     16.857786   15.905740   20.101851
  H     14.700498   16.375270   17.648859
  H     13.830481   14.833438   17.527829
  H     14.005829   15.862961   16.088849
  H     16.318276   14.466251   17.576547
  H     15.616872   13.902568   16.043969
  H     15.502855   18.239567   16.029376
  H     16.980033   18.249737   15.052756
  H     16.473505   19.717033   15.887431
  H     16.940118   20.059371   18.043270
  H     19.540994   17.932361   20.259946
  H     19.762102   16.366376   18.334675
  H     19.601192   14.151152   19.081056
  H     18.475609   12.374535   20.402832
  H     16.296248   12.855357   21.523090
  H     14.779318   14.382208   21.945361
  H     16.392777   16.882548   20.024436

 Total Charge           Charge          ....    0
 Multiplicity           Mult            ....    1
 Number of Electrons    NEL             ....  154
 Basis Dimension        Dim             ....  828

ORBITAL ENERGIES
----------------

  NO   OCC          E(Eh)            E(eV)
   0   2.0000     -91.889648     -2500.4444
   1   2.0000     -20.598906      -560.5247
   2   2.0000     -20.579471      -559.9959
   3   2.0000     -20.557512      -559.3983
   4   2.0000     -15.628777      -425.2806
   5   2.0000     -15.609626      -424.7595
   6   2.0000     -11.393748      -310.0396
   7   2.0000     -11.385377      -309.8119
   8   2.0000     -11.332076      -308.3615
   9   2.0000     -11.315304      -307.9051
  10   2.0000     -11.310830      -307.7833
  11   2.0000     -11.297358      -307.4167
  12   2.0000     -11.260760      -306.4209
  13   2.0000     -11.260476      -306.4131
  14   2.0000     -11.259959      -306.3991
  15   2.0000     -11.255487      -306.2774
  16   2.0000     -11.245210      -305.9977
  17   2.0000     -11.240640      -305.8734
  18   2.0000     -11.238059      -305.8031
  19   2.0000     -11.230238      -305.5903
  20   2.0000      -8.894726      -242.0378
  21   2.0000      -6.576304      -178.9503
  22   2.0000      -6.574294      -178.8956
  23   2.0000      -6.573709      -178.8797
  24   2.0000      -1.452217       -39.5168
  25   2.0000      -1.418672       -38.6040
  26   2.0000      -1.355650       -36.8891
  27   2.0000      -1.340201       -36.4687
  28   2.0000      -1.238827       -33.7102
  29   2.0000      -1.159362       -31.5478
  30   2.0000      -1.122664       -30.5492
  31   2.0000      -1.046682       -28.4817
  32   2.0000      -1.033825       -28.1318
  33   2.0000      -1.016805       -27.6687
  34   2.0000      -1.000688       -27.2301
  35   2.0000      -0.986862       -26.8539
  36   2.0000      -0.925193       -25.1758
  37   2.0000      -0.883073       -24.0296
  38   2.0000      -0.848835       -23.0980
  39   2.0000      -0.840584       -22.8735
  40   2.0000      -0.835400       -22.7324
  41   2.0000      -0.826413       -22.4879
  42   2.0000      -0.756547       -20.5867
  43   2.0000      -0.735894       -20.0247
  44   2.0000      -0.729990       -19.8640
  45   2.0000      -0.697021       -18.9669
  46   2.0000      -0.686986       -18.6938
  47   2.0000      -0.680767       -18.5246
  48   2.0000      -0.675851       -18.3908
  49   2.0000      -0.657069       -17.8798
  50   2.0000      -0.655750       -17.8439
  51   2.0000      -0.644561       -17.5394
  52   2.0000      -0.637203       -17.3392
  53   2.0000      -0.607954       -16.5433
  54   2.0000      -0.605989       -16.4898
  55   2.0000      -0.603156       -16.4127
  56   2.0000      -0.599644       -16.3171
  57   2.0000      -0.578999       -15.7554
  58   2.0000      -0.575859       -15.6699
  59   2.0000      -0.571827       -15.5602
  60   2.0000      -0.561881       -15.2896
  61   2.0000      -0.550368       -14.9763
  62   2.0000      -0.545063       -14.8319
  63   2.0000      -0.524364       -14.2687
  64   2.0000      -0.514941       -14.0123
  65   2.0000      -0.509149       -13.8546
  66   2.0000      -0.505917       -13.7667
  67   2.0000      -0.499788       -13.5999
  68   2.0000      -0.482790       -13.1374
  69   2.0000      -0.466670       -12.6987
  70   2.0000      -0.454989       -12.3809
  71   2.0000      -0.452526       -12.3139
  72   2.0000      -0.355153        -9.6642
  73   2.0000      -0.350670        -9.5422
  74   2.0000      -0.329086        -8.9549
  75   2.0000      -0.322916        -8.7870
  76   2.0000      -0.316539        -8.6135
  77   0.0000       0.069542         1.8923
  78   0.0000       0.101078         2.7505
  79   0.0000       0.118897         3.2354
  80   0.0000       0.128683         3.5016
  81   0.0000       0.134189         3.6515

MULLIKEN ATOMIC CHARGES
-----------------------
   0 C :   -0.302654
   1 C :    0.037635
   2 O :   -0.380478
   3 C :    0.456796
   4 O :   -0.389472
   5 C :   -0.193247
   6 C :    0.121690
   7 C :   -0.283093
   8 N :   -0.124345
   9 C :    0.199518
  10 S :   -0.438991
  11 N :   -0.200760
  12 C :    0.056823
  13 C :    0.014334
  14 C :   -0.150439
  15 C :   -0.135806
  16 C :   -0.277613
  17 C :    0.312899
  18 O :   -0.360635
  19 C :   -0.274577
  20 H :    0.095872
  21 H :    0.113677
  22 H :    0.104830
  23 H :    0.103122
  24 H :    0.116917
  25 H :    0.125960
  26 H :    0.123801
  27 H :    0.108614
  28 H :    0.197482
  29 H :    0.194129
  30 H :    0.157067
  31 H :    0.158900
  32 H :    0.162157
  33 H :    0.132630
  34 H :    0.241668
  35 H :    0.175587
Sum of atomic charges:   -0.0000000

LOEWDIN ATOMIC CHARGES
----------------------
   0 C :    0.104349
   1 C :   -0.010834
   2 O :    0.284617
   3 C :   -0.420660
   4 O :    0.134650
   5 C :   -0.093999
   6 C :   -0.079067
   7 C :    0.127382
   8 N :    0.404016
   9 C :   -0.457300
  10 S :   -0.035915
  11 N :    0.396903
  12 C :   -0.044988
  13 C :   -0.043498
  14 C :    0.020998
  15 C :    0.042619
  16 C :   -0.001669
  17 C :   -0.194875
  18 O :    0.394446
  19 C :    0.029099
  20 H :   -0.031339
  21 H :   -0.022310
  22 H :   -0.028976
  23 H :   -0.025818
  24 H :   -0.027268
  25 H :   -0.011182
  26 H :   -0.007762
  27 H :   -0.018534
  28 H :   -0.058548
  29 H :   -0.064182
  30 H :   -0.004107
  31 H :   -0.023801
  32 H :   -0.019471
  33 H :   -0.034877
  34 H :   -0.153328
  35 H :   -0.024772

  Mayer bond orders larger than 0.100000
B(  0-C ,  1-C ) :   0.9697 B(  0-C , 20-H ) :   0.9749 B(  0-C , 21-H ) :   0.9779
B(  0-C , 22-H ) :   0.9763 B(  1-C ,  2-O ) :   0.8843 B(  1-C , 23-H ) :   0.9661
B(  1-C , 24-H ) :   0.9864 B(  2-O ,  3-C ) :   1.0872 B(  3-C ,  4-O ) :   2.0432
B(  3-C ,  5-C ) :   1.0081 B(  5-C ,  6-C ) :   1.6754 B(  5-C , 12-C ) :   0.9621
B(  6-C ,  7-C ) :   0.9540 B(  6-C ,  8-N ) :   1.1325 B(  7-C , 25-H ) :   0.9620
B(  7-C , 26-H ) :   0.9717 B(  7-C , 27-H ) :   0.9872 B(  8-N ,  9-C ) :   1.1862
B(  8-N , 28-H ) :   0.9501 B(  9-C , 10-S ) :   1.6127 B(  9-C , 11-N ) :   1.2965
B( 11-N , 12-C ) :   0.9940 B( 11-N , 29-H ) :   0.9518 B( 12-C , 13-C ) :   0.9446
B( 12-C , 30-H ) :   0.9976 B( 13-C , 14-C ) :   1.3837 B( 13-C , 19-C ) :   1.3614
B( 14-C , 15-C ) :   1.3933 B( 14-C , 31-H ) :   0.9630 B( 15-C , 16-C ) :   1.3643
B( 15-C , 32-H ) :   0.9709 B( 16-C , 17-C ) :   1.3300 B( 16-C , 33-H ) :   0.9842
B( 17-C , 18-O ) :   1.1075 B( 17-C , 19-C ) :   1.3741 B( 18-O , 34-H ) :   0.9796
B( 19-C , 35-H ) :   0.9557

MP2 TOTAL ENERGY:    -1274.319970005 Eh
FINAL SINGLE POINT ENERGY     -1274.319970004764

DIPOLE MOMENT
-------------
                                X             Y             Z
Electronic contribution:     10.73469       7.28532       5.99689
Nuclear contribution   :    -11.91308      -8.56534      -6.48973
                        -----------------------------------------
Total Dipole Moment    :     -1.17839      -1.28002      -0.49284
                        -----------------------------------------
Magnitude (a.u.)       :      1.80830
Magnitude (Debye)      :      4.59633

Rotational constants in cm-1:     0.012134     0.009337     0.007099
Rotational constants in MHz :   363.754502   279.919903   212.833367

                             ****ORCA TERMINATED NORMALLY****
TOTAL RUN TIME: 0 days 1 hours 56 minutes 15 seconds 115 msec
