                         Program Version 4.2.0 -  RELEASE  -
|  1> ! ri-mp2 cc-pvtz cc-pvtz/c TightSCF  NoKeepInts
|  2>
|  3> %scf
|  4>   MaxCore 4096
|  5> end
|  6> *xyz  0  1
|  7>     C       15.1458189   15.4972200   17.4544353
|  8>     C       15.5256500   15.3427534   15.9662871
|  9>     O       16.9471580   15.2040392   15.7068546
| 10>     C       18.0264675   15.5734747   16.4762322
| 11>     O       18.9965459   14.8395714   16.5270107
| 12>     C       17.9226805   16.7675910   17.3774377
| 13>     C       17.3847621   17.9524119   16.9938395
| 14>     C       16.8202125   18.3221008   15.6387267
| 15>     N       17.4203256   19.0472379   17.8612103
| 16>     C       18.1232616   19.0905667   19.0360055
| 17>     S       18.2016593   20.4648205   19.9521493
| 18>     N       18.7615346   17.9353778   19.4112522
| 19>     C       18.6207549   16.6301081   18.7361720
| 20>     C       17.9085096   15.6196542   19.6324395
| 21>     C       18.3458500   14.2827279   19.6719078
| 22>     C       17.6920328   13.3368957   20.4787968
| 23>     C       16.5892186   13.7292381   21.2558160
| 24>     C       16.1485780   15.0587833   21.2200403
| 25>     O       15.0771384   15.4387738   21.9604248
| 26>     C       16.8011940   15.9984995   20.4158016
| 27>     H       15.6846610   14.7662474   18.0697752
| 28>     H       14.0741316   15.3032440   17.5840417
| 29>     H       15.3315389   16.5046608   17.8381722
| 30>     H       15.0273932   14.4462298   15.5746617
| 31>     H       15.1215228   16.1916096   15.4031637
| 32>     H       17.1180263   17.6135217   14.8567852
| 33>     H       17.1883719   19.3041408   15.3150730
| 34>     H       15.7254319   18.3709709   15.6658502
| 35>     H       16.9742976   19.9107474   17.5943092
| 36>     H       19.2610689   17.9894583   20.2899577
| 37>     H       19.6360089   16.2498155   18.5490947
| 38>     H       19.1916003   13.9719040   19.0618707
| 39>     H       18.0392616   12.3051388   20.4950015
| 40>     H       16.0800289   13.0009649   21.8783568
| 41>     H       14.7978181   14.6713856   22.4822735
| 42>     H       16.4364853   17.0201146   20.4027735
| 43> *
| 44>
| 45>                          ****END OF INPUT****

CARTESIAN COORDINATES (ANGSTROEM)
---------------------------------
  C     15.145819   15.497220   17.454435
  C     15.525650   15.342753   15.966287
  O     16.947158   15.204039   15.706855
  C     18.026467   15.573475   16.476232
  O     18.996546   14.839571   16.527011
  C     17.922680   16.767591   17.377438
  C     17.384762   17.952412   16.993839
  C     16.820213   18.322101   15.638727
  N     17.420326   19.047238   17.861210
  C     18.123262   19.090567   19.036006
  S     18.201659   20.464820   19.952149
  N     18.761535   17.935378   19.411252
  C     18.620755   16.630108   18.736172
  C     17.908510   15.619654   19.632440
  C     18.345850   14.282728   19.671908
  C     17.692033   13.336896   20.478797
  C     16.589219   13.729238   21.255816
  C     16.148578   15.058783   21.220040
  O     15.077138   15.438774   21.960425
  C     16.801194   15.998499   20.415802
  H     15.684661   14.766247   18.069775
  H     14.074132   15.303244   17.584042
  H     15.331539   16.504661   17.838172
  H     15.027393   14.446230   15.574662
  H     15.121523   16.191610   15.403164
  H     17.118026   17.613522   14.856785
  H     17.188372   19.304141   15.315073
  H     15.725432   18.370971   15.665850
  H     16.974298   19.910747   17.594309
  H     19.261069   17.989458   20.289958
  H     19.636009   16.249816   18.549095
  H     19.191600   13.971904   19.061871
  H     18.039262   12.305139   20.495002
  H     16.080029   13.000965   21.878357
  H     14.797818   14.671386   22.482274
  H     16.436485   17.020115   20.402773

 Total Charge           Charge          ....    0
 Multiplicity           Mult            ....    1
 Number of Electrons    NEL             ....  154
 Basis Dimension        Dim             ....  828

ORBITAL ENERGIES
----------------

  NO   OCC          E(Eh)            E(eV)
   0   2.0000     -91.891039     -2500.4823
   1   2.0000     -20.597498      -560.4864
   2   2.0000     -20.595512      -560.4324
   3   2.0000     -20.547387      -559.1228
   4   2.0000     -15.629914      -425.3116
   5   2.0000     -15.610762      -424.7904
   6   2.0000     -11.399766      -310.2034
   7   2.0000     -11.386927      -309.8540
   8   2.0000     -11.335084      -308.4433
   9   2.0000     -11.313958      -307.8685
  10   2.0000     -11.311790      -307.8094
  11   2.0000     -11.311679      -307.8064
  12   2.0000     -11.268325      -306.6267
  13   2.0000     -11.266483      -306.5766
  14   2.0000     -11.260639      -306.4176
  15   2.0000     -11.254375      -306.2471
  16   2.0000     -11.243839      -305.9604
  17   2.0000     -11.239180      -305.8336
  18   2.0000     -11.235962      -305.7461
  19   2.0000     -11.233914      -305.6903
  20   2.0000      -8.896126      -242.0759
  21   2.0000      -6.577709      -178.9886
  22   2.0000      -6.575689      -178.9336
  23   2.0000      -6.575108      -178.9178
  24   2.0000      -1.442402       -39.2497
  25   2.0000      -1.417314       -38.5671
  26   2.0000      -1.355010       -36.8717
  27   2.0000      -1.342517       -36.5317
  28   2.0000      -1.240837       -33.7649
  29   2.0000      -1.158654       -31.5286
  30   2.0000      -1.124438       -30.5975
  31   2.0000      -1.046910       -28.4879
  32   2.0000      -1.039688       -28.2914
  33   2.0000      -1.016759       -27.6674
  34   2.0000      -1.005698       -27.3664
  35   2.0000      -0.989942       -26.9377
  36   2.0000      -0.927909       -25.2497
  37   2.0000      -0.900278       -24.4978
  38   2.0000      -0.854707       -23.2578
  39   2.0000      -0.841016       -22.8852
  40   2.0000      -0.834339       -22.7035
  41   2.0000      -0.826965       -22.5029
  42   2.0000      -0.744992       -20.2723
  43   2.0000      -0.734739       -19.9933
  44   2.0000      -0.730449       -19.8765
  45   2.0000      -0.695076       -18.9140
  46   2.0000      -0.686723       -18.6867
  47   2.0000      -0.679899       -18.5010
  48   2.0000      -0.674612       -18.3571
  49   2.0000      -0.660025       -17.9602
  50   2.0000      -0.658474       -17.9180
  51   2.0000      -0.651785       -17.7360
  52   2.0000      -0.641426       -17.4541
  53   2.0000      -0.619849       -16.8670
  54   2.0000      -0.608777       -16.5657
  55   2.0000      -0.605415       -16.4742
  56   2.0000      -0.601956       -16.3801
  57   2.0000      -0.588480       -16.0133
  58   2.0000      -0.576452       -15.6861
  59   2.0000      -0.567121       -15.4321
  60   2.0000      -0.565343       -15.3838
  61   2.0000      -0.554231       -15.0814
  62   2.0000      -0.543458       -14.7882
  63   2.0000      -0.532332       -14.4855
  64   2.0000      -0.522337       -14.2135
  65   2.0000      -0.513416       -13.9708
  66   2.0000      -0.501026       -13.6336
  67   2.0000      -0.494641       -13.4599
  68   2.0000      -0.483365       -13.1530
  69   2.0000      -0.470412       -12.8006
  70   2.0000      -0.456431       -12.4201
  71   2.0000      -0.448187       -12.1958
  72   2.0000      -0.357162        -9.7189
  73   2.0000      -0.348627        -9.4866
  74   2.0000      -0.330469        -8.9925
  75   2.0000      -0.322729        -8.7819
  76   2.0000      -0.319182        -8.6854
  77   0.0000       0.077717         2.1148
  78   0.0000       0.107871         2.9353
  79   0.0000       0.114990         3.1290
  80   0.0000       0.131009         3.5649
  81   0.0000       0.132238         3.5984

MULLIKEN ATOMIC CHARGES
-----------------------
   0 C :   -0.343699
   1 C :    0.037713
   2 O :   -0.339304
   3 C :    0.438583
   4 O :   -0.386918
   5 C :   -0.218107
   6 C :    0.151168
   7 C :   -0.341249
   8 N :   -0.133962
   9 C :    0.195390
  10 S :   -0.438151
  11 N :   -0.214356
  12 C :    0.069307
  13 C :    0.022986
  14 C :   -0.202165
  15 C :   -0.134722
  16 C :   -0.278551
  17 C :    0.316996
  18 O :   -0.358574
  19 C :   -0.270564
  20 H :    0.130692
  21 H :    0.121588
  22 H :    0.110930
  23 H :    0.130653
  24 H :    0.087083
  25 H :    0.141325
  26 H :    0.135053
  27 H :    0.121213
  28 H :    0.197714
  29 H :    0.199249
  30 H :    0.165470
  31 H :    0.174615
  32 H :    0.163601
  33 H :    0.131850
  34 H :    0.241056
  35 H :    0.176088
Sum of atomic charges:    0.0000000

LOEWDIN ATOMIC CHARGES
----------------------
   0 C :    0.104058
   1 C :   -0.015380
   2 O :    0.289176
   3 C :   -0.415895
   4 O :    0.121366
   5 C :   -0.083690
   6 C :   -0.087886
   7 C :    0.125353
   8 N :    0.403610
   9 C :   -0.459480
  10 S :   -0.035711
  11 N :    0.398193
  12 C :   -0.043812
  13 C :   -0.043651
  14 C :    0.019613
  15 C :    0.042524
  16 C :   -0.001775
  17 C :   -0.194051
  18 O :    0.394938
  19 C :    0.029237
  20 H :   -0.019230
  21 H :   -0.021894
  22 H :   -0.035542
  23 H :   -0.018820
  24 H :   -0.037695
  25 H :   -0.006884
  26 H :   -0.010598
  27 H :   -0.018529
  28 H :   -0.057142
  29 H :   -0.063120
  30 H :   -0.002136
  31 H :   -0.022013
  32 H :   -0.018916
  33 H :   -0.035061
  34 H :   -0.153649
  35 H :   -0.025505

  Mayer bond orders larger than 0.100000
B(  0-C ,  1-C ) :   0.9594 B(  0-C , 20-H ) :   0.9669 B(  0-C , 21-H ) :   0.9765
B(  0-C , 22-H ) :   0.9717 B(  1-C ,  2-O ) :   0.9023 B(  1-C , 23-H ) :   0.9803
B(  1-C , 24-H ) :   0.9742 B(  2-O ,  3-C ) :   1.1717 B(  3-C ,  4-O ) :   2.0725
B(  3-C ,  5-C ) :   0.9403 B(  5-C ,  6-C ) :   1.6852 B(  5-C , 12-C ) :   0.9587
B(  6-C ,  7-C ) :   0.9430 B(  6-C ,  8-N ) :   1.1139 B(  7-C , 25-H ) :   0.9754
B(  7-C , 26-H ) :   0.9759 B(  7-C , 27-H ) :   0.9645 B(  8-N ,  9-C ) :   1.1888
B(  8-N , 28-H ) :   0.9512 B(  9-C , 10-S ) :   1.6130 B(  9-C , 11-N ) :   1.2921
B( 11-N , 12-C ) :   0.9895 B( 11-N , 29-H ) :   0.9499 B( 12-C , 13-C ) :   0.9461
B( 12-C , 30-H ) :   0.9967 B( 13-C , 14-C ) :   1.3911 B( 13-C , 19-C ) :   1.3434
B( 14-C , 15-C ) :   1.3975 B( 14-C , 31-H ) :   0.9577 B( 15-C , 16-C ) :   1.3604
B( 15-C , 32-H ) :   0.9704 B( 16-C , 17-C ) :   1.3296 B( 16-C , 33-H ) :   0.9848
B( 17-C , 18-O ) :   1.1106 B( 17-C , 19-C ) :   1.3722 B( 18-O , 34-H ) :   0.9798
B( 19-C , 35-H ) :   0.9573

MP2 TOTAL ENERGY:    -1274.329788837 Eh
FINAL SINGLE POINT ENERGY     -1274.329788837480

DIPOLE MOMENT
-------------
                                X             Y             Z
Electronic contribution:      9.45700       6.10518       6.23556
Nuclear contribution   :    -11.07526      -7.09060      -6.79016
                        -----------------------------------------
Total Dipole Moment    :     -1.61826      -0.98542      -0.55460
                        -----------------------------------------
Magnitude (a.u.)       :      1.97419
Magnitude (Debye)      :      5.01798

Rotational constants in cm-1:     0.011520     0.009732     0.006823
Rotational constants in MHz :   345.366236   291.768625   204.546534

                             ****ORCA TERMINATED NORMALLY****
TOTAL RUN TIME: 0 days 3 hours 12 minutes 48 seconds 92 msec
