                         Program Version 4.2.0 -  RELEASE  -
|  1> ! ri-mp2 cc-pvtz cc-pvtz/c TightSCF  NoKeepInts
|  2>
|  3> %scf
|  4>   MaxCore 4096
|  5> end
|  6> *xyz  0  1
|  7>     C       14.5834303   16.1517432   16.7485504
|  8>     C       15.5971070   15.0237314   17.0139067
|  9>     O       16.7375359   15.0890777   16.1283043
| 10>     C       17.9212047   15.7255342   16.4139847
| 11>     O       18.9721010   15.1555807   16.1864221
| 12>     C       17.8687906   16.8509645   17.3913665
| 13>     C       17.3232285   18.0456017   17.0683528
| 14>     C       16.7178361   18.4392611   15.7372612
| 15>     N       17.3996896   19.1121775   17.9661872
| 16>     C       18.1073650   19.0931725   19.1398287
| 17>     S       18.1964329   20.4201532   20.1222447
| 18>     N       18.7424366   17.9178488   19.4588561
| 19>     C       18.6393084   16.6557569   18.6986027
| 20>     C       18.0281562   15.5406749   19.5412106
| 21>     C       18.5130933   14.2254374   19.4203929
| 22>     C       17.9447728   13.1804042   20.1672979
| 23>     C       16.8798024   13.4507937   21.0430513
| 24>     C       16.3898065   14.7579756   21.1635967
| 25>     O       15.3524063   15.0200382   21.9973708
| 26>     C       16.9556207   15.7965532   20.4170373
| 27>     H       14.8499438   17.0649199   17.2892379
| 28>     H       13.5905545   15.8495601   17.1039286
| 29>     H       14.5038048   16.3680135   15.6761220
| 30>     H       15.8974780   15.0051555   18.0669709
| 31>     H       15.0865108   14.0723463   16.8157693
| 32>     H       16.5978546   17.5856963   15.0596548
| 33>     H       17.3611581   19.1651523   15.2237711
| 34>     H       15.7300537   18.8981279   15.8666944
| 35>     H       16.9648575   19.9921381   17.7366886
| 36>     H       19.2467295   17.9302119   20.3365283
| 37>     H       19.6616197   16.3481341   18.4323214
| 38>     H       19.3278791   14.0102799   18.7315243
| 39>     H       18.3285468   12.1668424   20.0618014
| 40>     H       16.4373492   12.6457162   21.6206657
| 41>     H       15.1404052   14.1987556   22.4665730
| 42>     H       16.5521301   16.7984694   20.5219228
| 43> *
| 44>
| 45>                          ****END OF INPUT****

CARTESIAN COORDINATES (ANGSTROEM)
---------------------------------
  C     14.583430   16.151743   16.748550
  C     15.597107   15.023731   17.013907
  O     16.737536   15.089078   16.128304
  C     17.921205   15.725534   16.413985
  O     18.972101   15.155581   16.186422
  C     17.868791   16.850964   17.391366
  C     17.323228   18.045602   17.068353
  C     16.717836   18.439261   15.737261
  N     17.399690   19.112178   17.966187
  C     18.107365   19.093173   19.139829
  S     18.196433   20.420153   20.122245
  N     18.742437   17.917849   19.458856
  C     18.639308   16.655757   18.698603
  C     18.028156   15.540675   19.541211
  C     18.513093   14.225437   19.420393
  C     17.944773   13.180404   20.167298
  C     16.879802   13.450794   21.043051
  C     16.389806   14.757976   21.163597
  O     15.352406   15.020038   21.997371
  C     16.955621   15.796553   20.417037
  H     14.849944   17.064920   17.289238
  H     13.590554   15.849560   17.103929
  H     14.503805   16.368013   15.676122
  H     15.897478   15.005156   18.066971
  H     15.086511   14.072346   16.815769
  H     16.597855   17.585696   15.059655
  H     17.361158   19.165152   15.223771
  H     15.730054   18.898128   15.866694
  H     16.964857   19.992138   17.736689
  H     19.246730   17.930212   20.336528
  H     19.661620   16.348134   18.432321
  H     19.327879   14.010280   18.731524
  H     18.328547   12.166842   20.061801
  H     16.437349   12.645716   21.620666
  H     15.140405   14.198756   22.466573
  H     16.552130   16.798469   20.521923

 Total Charge           Charge          ....    0
 Multiplicity           Mult            ....    1
 Number of Electrons    NEL             ....  154
 Basis Dimension        Dim             ....  828

ORBITAL ENERGIES
----------------

  NO   OCC          E(Eh)            E(eV)
   0   2.0000     -91.890585     -2500.4699
   1   2.0000     -20.601729      -560.6015
   2   2.0000     -20.592890      -560.3610
   3   2.0000     -20.552441      -559.2603
   4   2.0000     -15.627171      -425.2370
   5   2.0000     -15.612281      -424.8318
   6   2.0000     -11.397600      -310.1445
   7   2.0000     -11.387316      -309.8646
   8   2.0000     -11.329707      -308.2970
   9   2.0000     -11.319391      -308.0163
  10   2.0000     -11.316115      -307.9271
  11   2.0000     -11.302172      -307.5477
  12   2.0000     -11.266072      -306.5654
  13   2.0000     -11.265919      -306.5612
  14   2.0000     -11.264171      -306.5137
  15   2.0000     -11.259682      -306.3915
  16   2.0000     -11.248449      -306.0859
  17   2.0000     -11.244035      -305.9657
  18   2.0000     -11.241260      -305.8902
  19   2.0000     -11.234661      -305.7107
  20   2.0000      -8.895690      -242.0640
  21   2.0000      -6.577277      -178.9768
  22   2.0000      -6.575252      -178.9217
  23   2.0000      -6.574675      -178.9060
  24   2.0000      -1.445384       -39.3309
  25   2.0000      -1.421555       -38.6825
  26   2.0000      -1.357015       -36.9263
  27   2.0000      -1.340790       -36.4848
  28   2.0000      -1.240685       -33.7608
  29   2.0000      -1.163391       -31.6575
  30   2.0000      -1.126184       -30.6450
  31   2.0000      -1.050101       -28.5747
  32   2.0000      -1.038658       -28.2633
  33   2.0000      -1.021116       -27.7860
  34   2.0000      -1.005023       -27.3481
  35   2.0000      -0.990622       -26.9562
  36   2.0000      -0.928652       -25.2699
  37   2.0000      -0.892091       -24.2750
  38   2.0000      -0.853125       -23.2147
  39   2.0000      -0.842735       -22.9320
  40   2.0000      -0.838825       -22.8256
  41   2.0000      -0.834393       -22.7050
  42   2.0000      -0.754705       -20.5366
  43   2.0000      -0.735603       -20.0168
  44   2.0000      -0.731743       -19.9117
  45   2.0000      -0.699325       -19.0296
  46   2.0000      -0.689988       -18.7755
  47   2.0000      -0.679744       -18.4968
  48   2.0000      -0.676507       -18.4087
  49   2.0000      -0.664456       -18.0808
  50   2.0000      -0.654764       -17.8170
  51   2.0000      -0.640818       -17.4375
  52   2.0000      -0.635932       -17.3046
  53   2.0000      -0.618077       -16.8187
  54   2.0000      -0.610082       -16.6012
  55   2.0000      -0.608359       -16.5543
  56   2.0000      -0.605154       -16.4671
  57   2.0000      -0.586333       -15.9549
  58   2.0000      -0.582282       -15.8447
  59   2.0000      -0.578076       -15.7303
  60   2.0000      -0.566784       -15.4230
  61   2.0000      -0.558239       -15.1904
  62   2.0000      -0.539774       -14.6880
  63   2.0000      -0.532994       -14.5035
  64   2.0000      -0.523701       -14.2506
  65   2.0000      -0.515469       -14.0266
  66   2.0000      -0.503754       -13.7078
  67   2.0000      -0.493910       -13.4400
  68   2.0000      -0.490534       -13.3481
  69   2.0000      -0.467361       -12.7175
  70   2.0000      -0.455288       -12.3890
  71   2.0000      -0.449745       -12.2382
  72   2.0000      -0.357649        -9.7321
  73   2.0000      -0.353614        -9.6223
  74   2.0000      -0.330292        -8.9877
  75   2.0000      -0.327329        -8.9071
  76   2.0000      -0.319721        -8.7000
  77   0.0000       0.086325         2.3490
  78   0.0000       0.101840         2.7712
  79   0.0000       0.116810         3.1786
  80   0.0000       0.125746         3.4217
  81   0.0000       0.128534         3.4976

MULLIKEN ATOMIC CHARGES
-----------------------
   0 C :   -0.315074
   1 C :    0.030238
   2 O :   -0.334851
   3 C :    0.403224
   4 O :   -0.374741
   5 C :   -0.171388
   6 C :    0.107549
   7 C :   -0.326612
   8 N :   -0.134355
   9 C :    0.203380
  10 S :   -0.440455
  11 N :   -0.223010
  12 C :    0.084643
  13 C :    0.001163
  14 C :   -0.200029
  15 C :   -0.137054
  16 C :   -0.271989
  17 C :    0.312096
  18 O :   -0.356508
  19 C :   -0.257974
  20 H :    0.093162
  21 H :    0.120882
  22 H :    0.105501
  23 H :    0.108066
  24 H :    0.125054
  25 H :    0.124384
  26 H :    0.150454
  27 H :    0.118504
  28 H :    0.197094
  29 H :    0.201277
  30 H :    0.165606
  31 H :    0.174004
  32 H :    0.165293
  33 H :    0.133967
  34 H :    0.241639
  35 H :    0.176861
Sum of atomic charges:   -0.0000000

LOEWDIN ATOMIC CHARGES
----------------------
   0 C :    0.103702
   1 C :   -0.014580
   2 O :    0.291181
   3 C :   -0.416207
   4 O :    0.128465
   5 C :   -0.083106
   6 C :   -0.099874
   7 C :    0.125071
   8 N :    0.402688
   9 C :   -0.456043
  10 S :   -0.037164
  11 N :    0.397444
  12 C :   -0.043913
  13 C :   -0.045615
  14 C :    0.019956
  15 C :    0.045796
  16 C :   -0.000221
  17 C :   -0.193974
  18 O :    0.396097
  19 C :    0.025099
  20 H :   -0.034442
  21 H :   -0.021903
  22 H :   -0.026588
  23 H :   -0.032130
  24 H :   -0.020122
  25 H :   -0.010237
  26 H :   -0.009015
  27 H :   -0.016929
  28 H :   -0.057275
  29 H :   -0.063869
  30 H :   -0.002517
  31 H :   -0.021335
  32 H :   -0.017699
  33 H :   -0.034148
  34 H :   -0.152607
  35 H :   -0.023988

  Mayer bond orders larger than 0.100000
B(  0-C ,  1-C ) :   0.9561 B(  0-C , 20-H ) :   0.9769 B(  0-C , 21-H ) :   0.9789
B(  0-C , 22-H ) :   0.9744 B(  1-C ,  2-O ) :   0.8967 B(  1-C , 23-H ) :   0.9636
B(  1-C , 24-H ) :   0.9876 B(  2-O ,  3-C ) :   1.1703 B(  3-C ,  4-O ) :   2.1002
B(  3-C ,  5-C ) :   0.9078 B(  5-C ,  6-C ) :   1.7056 B(  5-C , 12-C ) :   0.9488
B(  6-C ,  7-C ) :   0.9518 B(  6-C ,  8-N ) :   1.0991 B(  7-C , 25-H ) :   0.9788
B(  7-C , 26-H ) :   0.9652 B(  7-C , 27-H ) :   0.9679 B(  8-N ,  9-C ) :   1.1980
B(  8-N , 28-H ) :   0.9511 B(  9-C , 10-S ) :   1.6109 B(  9-C , 11-N ) :   1.2868
B( 11-N , 12-C ) :   0.9919 B( 11-N , 29-H ) :   0.9475 B( 12-C , 13-C ) :   0.9502
B( 12-C , 30-H ) :   0.9968 B( 13-C , 14-C ) :   1.3933 B( 13-C , 19-C ) :   1.3416
B( 14-C , 15-C ) :   1.3972 B( 14-C , 31-H ) :   0.9590 B( 15-C , 16-C ) :   1.3625
B( 15-C , 32-H ) :   0.9695 B( 16-C , 17-C ) :   1.3292 B( 16-C , 33-H ) :   0.9839
B( 17-C , 18-O ) :   1.1116 B( 17-C , 19-C ) :   1.3667 B( 18-O , 34-H ) :   0.9789
B( 19-C , 35-H ) :   0.9593

MP2 TOTAL ENERGY:    -1274.327510444 Eh
FINAL SINGLE POINT ENERGY     -1274.327510443917

DIPOLE MOMENT
-------------
                                X             Y             Z
Electronic contribution:     10.25857       5.08269       6.84055
Nuclear contribution   :    -11.69155      -6.28539      -7.08443
                        -----------------------------------------
Total Dipole Moment    :     -1.43298      -1.20270      -0.24388
                        -----------------------------------------
Magnitude (a.u.)       :      1.88664
Magnitude (Debye)      :      4.79546

Rotational constants in cm-1:     0.011859     0.009330     0.006884
Rotational constants in MHz :   355.530932   279.703878   206.389648

                             ****ORCA TERMINATED NORMALLY****
TOTAL RUN TIME: 0 days 1 hours 48 minutes 31 seconds 442 msec
