                         Program Version 4.2.0 -  RELEASE  -
|  1> ! ri-mp2 cc-pvtz cc-pvtz/c TightSCF  NoKeepInts
|  2>
|  3> %scf
|  4>   MaxCore 4096
|  5> end
|  6> *xyz  0  1
|  7>     C       14.7221780   15.4238260   17.0859152
|  8>     C       15.8017845   14.7468255   16.2225324
|  9>     O       16.7104475   15.7606848   15.7548326
| 10>     C       17.9171957   15.8684089   16.3810138
| 11>     O       18.6419360   14.8946105   16.4969479
| 12>     C       17.9450660   16.9831401   17.3823962
| 13>     C       17.3332826   18.1787205   17.1926216
| 14>     C       16.5624488   18.6325514   15.9706512
| 15>     N       17.4564632   19.1828993   18.1575898
| 16>     C       18.2889404   19.1228501   19.2446214
| 17>     S       18.4712771   20.4045035   20.2737411
| 18>     N       18.9625556   17.9422451   19.4364800
| 19>     C       18.7342325   16.7047757   18.6654135
| 20>     C       18.0240193   15.6575029   19.5204792
| 21>     C       18.5209127   14.3431301   19.5945434
| 22>     C       17.8619700   13.3691498   20.3631600
| 23>     C       16.6936958   13.7105742   21.0651650
| 24>     C       16.1937812   15.0176091   20.9931962
| 25>     O       15.0596598   15.3484138   21.6603541
| 26>     C       16.8526109   15.9850047   20.2281857
| 27>     H       15.1701818   15.9296570   17.9489326
| 28>     H       14.0116235   14.6780686   17.4625983
| 29>     H       14.1627846   16.1628117   16.4998114
| 30>     H       16.3223955   13.9712608   16.8022012
| 31>     H       15.3218630   14.2624449   15.3624675
| 32>     H       15.5444040   18.2254149   15.9802305
| 33>     H       17.0502081   18.2923394   15.0485779
| 34>     H       16.4864317   19.7248581   15.9061582
| 35>     H       16.9718897   20.0575049   18.0327993
| 36>     H       19.5488680   17.9152906   20.2608909
| 37>     H       19.7172618   16.3052075   18.3765708
| 38>     H       19.4138648   14.0710644   19.0363919
| 39>     H       18.2547225   12.3547709   20.4063336
| 40>     H       16.1799227   12.9606032   21.6573556
| 41>     H       14.7889836   14.5730914   22.1748777
| 42>     H       16.4471372   16.9901858   20.1879626
| 43> *
| 44>
| 45>                          ****END OF INPUT****

CARTESIAN COORDINATES (ANGSTROEM)
---------------------------------
  C     14.722178   15.423826   17.085915
  C     15.801785   14.746825   16.222532
  O     16.710448   15.760685   15.754833
  C     17.917196   15.868409   16.381014
  O     18.641936   14.894611   16.496948
  C     17.945066   16.983140   17.382396
  C     17.333283   18.178721   17.192622
  C     16.562449   18.632551   15.970651
  N     17.456463   19.182899   18.157590
  C     18.288940   19.122850   19.244621
  S     18.471277   20.404504   20.273741
  N     18.962556   17.942245   19.436480
  C     18.734233   16.704776   18.665413
  C     18.024019   15.657503   19.520479
  C     18.520913   14.343130   19.594543
  C     17.861970   13.369150   20.363160
  C     16.693696   13.710574   21.065165
  C     16.193781   15.017609   20.993196
  O     15.059660   15.348414   21.660354
  C     16.852611   15.985005   20.228186
  H     15.170182   15.929657   17.948933
  H     14.011624   14.678069   17.462598
  H     14.162785   16.162812   16.499811
  H     16.322395   13.971261   16.802201
  H     15.321863   14.262445   15.362467
  H     15.544404   18.225415   15.980230
  H     17.050208   18.292339   15.048578
  H     16.486432   19.724858   15.906158
  H     16.971890   20.057505   18.032799
  H     19.548868   17.915291   20.260891
  H     19.717262   16.305208   18.376571
  H     19.413865   14.071064   19.036392
  H     18.254722   12.354771   20.406334
  H     16.179923   12.960603   21.657356
  H     14.788984   14.573091   22.174878
  H     16.447137   16.990186   20.187963

 Total Charge           Charge          ....    0
 Multiplicity           Mult            ....    1
 Number of Electrons    NEL             ....  154
 Basis Dimension        Dim             ....  828

ORBITAL ENERGIES
----------------

  NO   OCC          E(Eh)            E(eV)
   0   2.0000     -91.889814     -2500.4490
   1   2.0000     -20.596495      -560.4591
   2   2.0000     -20.584835      -560.1418
   3   2.0000     -20.554714      -559.3222
   4   2.0000     -15.629449      -425.2989
   5   2.0000     -15.609120      -424.7458
   6   2.0000     -11.395029      -310.0745
   7   2.0000     -11.385191      -309.8068
   8   2.0000     -11.334339      -308.4230
   9   2.0000     -11.312685      -307.8338
  10   2.0000     -11.309638      -307.7509
  11   2.0000     -11.299446      -307.4736
  12   2.0000     -11.260583      -306.4160
  13   2.0000     -11.260446      -306.4123
  14   2.0000     -11.258747      -306.3661
  15   2.0000     -11.252853      -306.2057
  16   2.0000     -11.242457      -305.9228
  17   2.0000     -11.238436      -305.8134
  18   2.0000     -11.235245      -305.7266
  19   2.0000     -11.227904      -305.5268
  20   2.0000      -8.894879      -242.0419
  21   2.0000      -6.576454      -178.9544
  22   2.0000      -6.574447      -178.8998
  23   2.0000      -6.573860      -178.8838
  24   2.0000      -1.452388       -39.5215
  25   2.0000      -1.416277       -38.5389
  26   2.0000      -1.356436       -36.9105
  27   2.0000      -1.340585       -36.4792
  28   2.0000      -1.238713       -33.7071
  29   2.0000      -1.156899       -31.4808
  30   2.0000      -1.121975       -30.5305
  31   2.0000      -1.044932       -28.4340
  32   2.0000      -1.033819       -28.1316
  33   2.0000      -1.014585       -27.6083
  34   2.0000      -1.000222       -27.2174
  35   2.0000      -0.986643       -26.8479
  36   2.0000      -0.924319       -25.1520
  37   2.0000      -0.888042       -24.1649
  38   2.0000      -0.848676       -23.0936
  39   2.0000      -0.839123       -22.8337
  40   2.0000      -0.833087       -22.6694
  41   2.0000      -0.821151       -22.3447
  42   2.0000      -0.756751       -20.5922
  43   2.0000      -0.736226       -20.0337
  44   2.0000      -0.728641       -19.8273
  45   2.0000      -0.695134       -18.9155
  46   2.0000      -0.686334       -18.6761
  47   2.0000      -0.678104       -18.4522
  48   2.0000      -0.676361       -18.4047
  49   2.0000      -0.660423       -17.9710
  50   2.0000      -0.653826       -17.7915
  51   2.0000      -0.645794       -17.5730
  52   2.0000      -0.637379       -17.3440
  53   2.0000      -0.606620       -16.5070
  54   2.0000      -0.603607       -16.4250
  55   2.0000      -0.600307       -16.3352
  56   2.0000      -0.590305       -16.0630
  57   2.0000      -0.584835       -15.9142
  58   2.0000      -0.576095       -15.6763
  59   2.0000      -0.570150       -15.5146
  60   2.0000      -0.562431       -15.3045
  61   2.0000      -0.551569       -15.0090
  62   2.0000      -0.544980       -14.8297
  63   2.0000      -0.521842       -14.2000
  64   2.0000      -0.517229       -14.0745
  65   2.0000      -0.512403       -13.9432
  66   2.0000      -0.501338       -13.6421
  67   2.0000      -0.498068       -13.5531
  68   2.0000      -0.483021       -13.1437
  69   2.0000      -0.464450       -12.6383
  70   2.0000      -0.457911       -12.4604
  71   2.0000      -0.451927       -12.2975
  72   2.0000      -0.354887        -9.6570
  73   2.0000      -0.348376        -9.4798
  74   2.0000      -0.329035        -8.9535
  75   2.0000      -0.320138        -8.7114
  76   2.0000      -0.316819        -8.6211
  77   0.0000       0.069940         1.9032
  78   0.0000       0.104953         2.8559
  79   0.0000       0.119898         3.2626
  80   0.0000       0.131465         3.5773
  81   0.0000       0.136226         3.7069

MULLIKEN ATOMIC CHARGES
-----------------------
   0 C :   -0.308312
   1 C :    0.043268
   2 O :   -0.377373
   3 C :    0.472607
   4 O :   -0.402836
   5 C :   -0.214507
   6 C :    0.150816
   7 C :   -0.283395
   8 N :   -0.123577
   9 C :    0.194075
  10 S :   -0.437312
  11 N :   -0.202450
  12 C :    0.053580
  13 C :    0.061318
  14 C :   -0.178859
  15 C :   -0.134768
  16 C :   -0.278779
  17 C :    0.329473
  18 O :   -0.360156
  19 C :   -0.318952
  20 H :    0.109142
  21 H :    0.112421
  22 H :    0.094843
  23 H :    0.107780
  24 H :    0.108543
  25 H :    0.125783
  26 H :    0.125540
  27 H :    0.106927
  28 H :    0.197698
  29 H :    0.194432
  30 H :    0.157909
  31 H :    0.162310
  32 H :    0.162306
  33 H :    0.131135
  34 H :    0.240769
  35 H :    0.178599
Sum of atomic charges:   -0.0000000

LOEWDIN ATOMIC CHARGES
----------------------
   0 C :    0.103875
   1 C :   -0.012589
   2 O :    0.289262
   3 C :   -0.416951
   4 O :    0.126930
   5 C :   -0.094287
   6 C :   -0.073197
   7 C :    0.126932
   8 N :    0.404944
   9 C :   -0.458499
  10 S :   -0.035018
  11 N :    0.397120
  12 C :   -0.045265
  13 C :   -0.041621
  14 C :    0.021254
  15 C :    0.041037
  16 C :   -0.002335
  17 C :   -0.193799
  18 O :    0.394190
  19 C :    0.028911
  20 H :   -0.030633
  21 H :   -0.023501
  22 H :   -0.032737
  23 H :   -0.025190
  24 H :   -0.025711
  25 H :   -0.011689
  26 H :   -0.007415
  27 H :   -0.019145
  28 H :   -0.058490
  29 H :   -0.063994
  30 H :   -0.003848
  31 H :   -0.023902
  32 H :   -0.020129
  33 H :   -0.035549
  34 H :   -0.153850
  35 H :   -0.025111

  Mayer bond orders larger than 0.100000
B(  0-C ,  1-C ) :   0.9641 B(  0-C , 20-H ) :   0.9712 B(  0-C , 21-H ) :   0.9790
B(  0-C , 22-H ) :   0.9793 B(  1-C ,  2-O ) :   0.8861 B(  1-C , 23-H ) :   0.9705
B(  1-C , 24-H ) :   0.9857 B(  2-O ,  3-C ) :   1.0993 B(  3-C ,  4-O ) :   2.0273
B(  3-C ,  5-C ) :   1.0171 B(  5-C ,  6-C ) :   1.6658 B(  5-C , 12-C ) :   0.9600
B(  6-C ,  7-C ) :   0.9548 B(  6-C ,  8-N ) :   1.1378 B(  7-C , 25-H ) :   0.9630
B(  7-C , 26-H ) :   0.9696 B(  7-C , 27-H ) :   0.9876 B(  8-N ,  9-C ) :   1.1831
B(  8-N , 28-H ) :   0.9495 B(  9-C , 10-S ) :   1.6149 B(  9-C , 11-N ) :   1.2973
B( 11-N , 12-C ) :   0.9904 B( 11-N , 29-H ) :   0.9516 B( 12-C , 13-C ) :   0.9468
B( 12-C , 30-H ) :   0.9984 B( 13-C , 14-C ) :   1.3815 B( 13-C , 19-C ) :   1.3438
B( 14-C , 15-C ) :   1.3965 B( 14-C , 31-H ) :   0.9611 B( 15-C , 16-C ) :   1.3628
B( 15-C , 32-H ) :   0.9705 B( 16-C , 17-C ) :   1.3314 B( 16-C , 33-H ) :   0.9846
B( 17-C , 18-O ) :   1.1093 B( 17-C , 19-C ) :   1.3645 B( 18-O , 34-H ) :   0.9804
B( 19-C , 35-H ) :   0.9563

MP2 TOTAL ENERGY:    -1274.326897463 Eh
FINAL SINGLE POINT ENERGY     -1274.326897462878

DIPOLE MOMENT
-------------
                                X             Y             Z
Electronic contribution:     10.45394       7.57223       6.32672
Nuclear contribution   :    -11.71215      -8.86282      -6.98381
                        -----------------------------------------
Total Dipole Moment    :     -1.25820      -1.29058      -0.65709
                        -----------------------------------------
Magnitude (a.u.)       :      1.91845
Magnitude (Debye)      :      4.87631

Rotational constants in cm-1:     0.011773     0.009527     0.006913
Rotational constants in MHz :   352.954862   285.619758   207.255962

                             ****ORCA TERMINATED NORMALLY****
TOTAL RUN TIME: 0 days 1 hours 46 minutes 39 seconds 860 msec
