                         Program Version 4.2.0 -  RELEASE  -
|  1> ! ri-mp2 cc-pvtz cc-pvtz/c TightSCF  NoKeepInts
|  2>
|  3> %scf
|  4>   MaxCore 4096
|  5> end
|  6> *xyz  0  1
|  7>     C       14.3336387   15.5666858   16.1318329
|  8>     C       15.4107558   15.4793405   17.2266812
|  9>     O       16.6369456   15.0531052   16.5987367
| 10>     C       17.7924004   15.7881781   16.4958361
| 11>     O       18.7972437   15.2400381   16.0832838
| 12>     C       17.9182114   16.9216961   17.4561016
| 13>     C       17.3606149   18.1296247   17.2196751
| 14>     C       16.5523641   18.5267490   16.0044528
| 15>     N       17.5436324   19.1701118   18.1326155
| 16>     C       18.3357561   19.0945620   19.2494947
| 17>     S       18.5310797   20.3866093   20.2625803
| 18>     N       18.9511354   17.8898726   19.4919418
| 19>     C       18.7647528   16.6580909   18.6982680
| 20>     C       18.1485297   15.5402350   19.5327467
| 21>     C       18.6441070   14.2278374   19.4285077
| 22>     C       18.0626284   13.1825059   20.1650305
| 23>     C       16.9723204   13.4497751   21.0102261
| 24>     C       16.4702443   14.7541029   21.1101972
| 25>     O       15.4066396   15.0130082   21.9114679
| 26>     C       17.0509643   15.7933022   20.3764405
| 27>     H       14.6055429   16.3042515   15.3679061
| 28>     H       13.3681261   15.8567936   16.5638884
| 29>     H       14.2087955   14.5938699   15.6394155
| 30>     H       15.4928998   16.4347948   17.7545391
| 31>     H       15.1089964   14.7240371   17.9644756
| 32>     H       16.6695524   17.8131639   15.1794533
| 33>     H       16.8719775   19.5042893   15.6213045
| 34>     H       15.4844888   18.5915625   16.2460935
| 35>     H       17.1104426   20.0653718   17.9680087
| 36>     H       19.5111438   17.8587326   20.3346676
| 37>     H       19.7566476   16.3252266   18.3581431
| 38>     H       19.4730457   14.0141866   18.7569503
| 39>     H       18.4523368   12.1702474   20.0709052
| 40>     H       16.5177930   12.6437285   21.5768033
| 41>     H       15.1879678   14.1917722   22.3778605
| 42>     H       16.6432787   16.7945410   20.4674680
| 43> *
| 44>
| 45>                          ****END OF INPUT****

CARTESIAN COORDINATES (ANGSTROEM)
---------------------------------
  C     14.333639   15.566686   16.131833
  C     15.410756   15.479340   17.226681
  O     16.636946   15.053105   16.598737
  C     17.792400   15.788178   16.495836
  O     18.797244   15.240038   16.083284
  C     17.918211   16.921696   17.456102
  C     17.360615   18.129625   17.219675
  C     16.552364   18.526749   16.004453
  N     17.543632   19.170112   18.132615
  C     18.335756   19.094562   19.249495
  S     18.531080   20.386609   20.262580
  N     18.951135   17.889873   19.491942
  C     18.764753   16.658091   18.698268
  C     18.148530   15.540235   19.532747
  C     18.644107   14.227837   19.428508
  C     18.062628   13.182506   20.165031
  C     16.972320   13.449775   21.010226
  C     16.470244   14.754103   21.110197
  O     15.406640   15.013008   21.911468
  C     17.050964   15.793302   20.376440
  H     14.605543   16.304251   15.367906
  H     13.368126   15.856794   16.563888
  H     14.208795   14.593870   15.639416
  H     15.492900   16.434795   17.754539
  H     15.108996   14.724037   17.964476
  H     16.669552   17.813164   15.179453
  H     16.871977   19.504289   15.621305
  H     15.484489   18.591562   16.246094
  H     17.110443   20.065372   17.968009
  H     19.511144   17.858733   20.334668
  H     19.756648   16.325227   18.358143
  H     19.473046   14.014187   18.756950
  H     18.452337   12.170247   20.070905
  H     16.517793   12.643728   21.576803
  H     15.187968   14.191772   22.377860
  H     16.643279   16.794541   20.467468

 Total Charge           Charge          ....    0
 Multiplicity           Mult            ....    1
 Number of Electrons    NEL             ....  154
 Basis Dimension        Dim             ....  828

ORBITAL ENERGIES
----------------

  NO   OCC          E(Eh)            E(eV)
   0   2.0000     -91.889314     -2500.4354
   1   2.0000     -20.602369      -560.6190
   2   2.0000     -20.600182      -560.5595
   3   2.0000     -20.551458      -559.2336
   4   2.0000     -15.625491      -425.1912
   5   2.0000     -15.611747      -424.8172
   6   2.0000     -11.398007      -310.1555
   7   2.0000     -11.386386      -309.8393
   8   2.0000     -11.325449      -308.1811
   9   2.0000     -11.316693      -307.9429
  10   2.0000     -11.316231      -307.9303
  11   2.0000     -11.303657      -307.5882
  12   2.0000     -11.270274      -306.6797
  13   2.0000     -11.264474      -306.5219
  14   2.0000     -11.263494      -306.4953
  15   2.0000     -11.256720      -306.3109
  16   2.0000     -11.246098      -306.0219
  17   2.0000     -11.242218      -305.9163
  18   2.0000     -11.239526      -305.8430
  19   2.0000     -11.235424      -305.7314
  20   2.0000      -8.894442      -242.0301
  21   2.0000      -6.576034      -178.9430
  22   2.0000      -6.574004      -178.8877
  23   2.0000      -6.573433      -178.8722
  24   2.0000      -1.449365       -39.4392
  25   2.0000      -1.419982       -38.6397
  26   2.0000      -1.359715       -36.9997
  27   2.0000      -1.339227       -36.4422
  28   2.0000      -1.239465       -33.7276
  29   2.0000      -1.161483       -31.6056
  30   2.0000      -1.125994       -30.6399
  31   2.0000      -1.049564       -28.5601
  32   2.0000      -1.041566       -28.3425
  33   2.0000      -1.018850       -27.7243
  34   2.0000      -1.005166       -27.3519
  35   2.0000      -0.989480       -26.9251
  36   2.0000      -0.928039       -25.2532
  37   2.0000      -0.889310       -24.1994
  38   2.0000      -0.853801       -23.2331
  39   2.0000      -0.841534       -22.8993
  40   2.0000      -0.837028       -22.7767
  41   2.0000      -0.836448       -22.7609
  42   2.0000      -0.756359       -20.5816
  43   2.0000      -0.737081       -20.0570
  44   2.0000      -0.732290       -19.9266
  45   2.0000      -0.697732       -18.9862
  46   2.0000      -0.688899       -18.7459
  47   2.0000      -0.680130       -18.5073
  48   2.0000      -0.677104       -18.4249
  49   2.0000      -0.668795       -18.1988
  50   2.0000      -0.652796       -17.7635
  51   2.0000      -0.643722       -17.5166
  52   2.0000      -0.639699       -17.4071
  53   2.0000      -0.615039       -16.7361
  54   2.0000      -0.608412       -16.5557
  55   2.0000      -0.604596       -16.4519
  56   2.0000      -0.602686       -16.3999
  57   2.0000      -0.589753       -16.0480
  58   2.0000      -0.578806       -15.7501
  59   2.0000      -0.568874       -15.4798
  60   2.0000      -0.566421       -15.4131
  61   2.0000      -0.560946       -15.2641
  62   2.0000      -0.544552       -14.8180
  63   2.0000      -0.532785       -14.4978
  64   2.0000      -0.522767       -14.2252
  65   2.0000      -0.515850       -14.0370
  66   2.0000      -0.504879       -13.7385
  67   2.0000      -0.502395       -13.6709
  68   2.0000      -0.488409       -13.2903
  69   2.0000      -0.470859       -12.8127
  70   2.0000      -0.452198       -12.3049
  71   2.0000      -0.448884       -12.2148
  72   2.0000      -0.356127        -9.6907
  73   2.0000      -0.351809        -9.5732
  74   2.0000      -0.329116        -8.9557
  75   2.0000      -0.324406        -8.8275
  76   2.0000      -0.317562        -8.6413
  77   0.0000       0.089244         2.4285
  78   0.0000       0.104693         2.8488
  79   0.0000       0.111888         3.0446
  80   0.0000       0.127170         3.4605
  81   0.0000       0.129337         3.5194

MULLIKEN ATOMIC CHARGES
-----------------------
   0 C :   -0.267491
   1 C :    0.010327
   2 O :   -0.310950
   3 C :    0.382689
   4 O :   -0.377474
   5 C :   -0.158517
   6 C :    0.120113
   7 C :   -0.332732
   8 N :   -0.137210
   9 C :    0.207645
  10 S :   -0.442641
  11 N :   -0.214231
  12 C :    0.061032
  13 C :    0.029683
  14 C :   -0.185918
  15 C :   -0.129479
  16 C :   -0.276540
  17 C :    0.308531
  18 O :   -0.358779
  19 C :   -0.272395
  20 H :    0.085034
  21 H :    0.094058
  22 H :    0.113343
  23 H :    0.097342
  24 H :    0.130243
  25 H :    0.124057
  26 H :    0.139235
  27 H :    0.125784
  28 H :    0.195792
  29 H :    0.198739
  30 H :    0.164609
  31 H :    0.163462
  32 H :    0.162991
  33 H :    0.132814
  34 H :    0.241936
  35 H :    0.174900
Sum of atomic charges:   -0.0000000

LOEWDIN ATOMIC CHARGES
----------------------
   0 C :    0.103434
   1 C :   -0.019690
   2 O :    0.316674
   3 C :   -0.419843
   4 O :    0.127617
   5 C :   -0.080859
   6 C :   -0.110886
   7 C :    0.124980
   8 N :    0.400012
   9 C :   -0.455090
  10 S :   -0.039188
  11 N :    0.397343
  12 C :   -0.043574
  13 C :   -0.042352
  14 C :    0.024474
  15 C :    0.046562
  16 C :   -0.000305
  17 C :   -0.194232
  18 O :    0.394237
  19 C :    0.028593
  20 H :   -0.033961
  21 H :   -0.025745
  22 H :   -0.022291
  23 H :   -0.040888
  24 H :   -0.021272
  25 H :   -0.009464
  26 H :   -0.010215
  27 H :   -0.015964
  28 H :   -0.058936
  29 H :   -0.063674
  30 H :   -0.002343
  31 H :   -0.022326
  32 H :   -0.018451
  33 H :   -0.034644
  34 H :   -0.152864
  35 H :   -0.024867

  Mayer bond orders larger than 0.100000
B(  0-C ,  1-C ) :   0.9740 B(  0-C , 20-H ) :   0.9773 B(  0-C , 21-H ) :   0.9758
B(  0-C , 22-H ) :   0.9788 B(  1-C ,  2-O ) :   0.9001 B(  1-C , 23-H ) :   0.9626
B(  1-C , 24-H ) :   0.9755 B(  2-O ,  3-C ) :   1.1674 B(  3-C ,  4-O ) :   2.0960
B(  3-C ,  5-C ) :   0.9225 B(  5-C ,  6-C ) :   1.7008 B(  5-C , 12-C ) :   0.9624
B(  6-C ,  7-C ) :   0.9410 B(  6-C ,  8-N ) :   1.1078 B(  7-C , 25-H ) :   0.9812
B(  7-C , 26-H ) :   0.9745 B(  7-C , 27-H ) :   0.9647 B(  8-N ,  9-C ) :   1.1979
B(  8-N , 28-H ) :   0.9526 B(  9-C , 10-S ) :   1.6094 B(  9-C , 11-N ) :   1.2854
B( 11-N , 12-C ) :   0.9982 B( 11-N , 29-H ) :   0.9483 B( 12-C , 13-C ) :   0.9472
B( 12-C , 30-H ) :   0.9969 B( 13-C , 14-C ) :   1.3859 B( 13-C , 19-C ) :   1.3434
B( 14-C , 15-C ) :   1.3969 B( 14-C , 31-H ) :   0.9632 B( 15-C , 16-C ) :   1.3644
B( 15-C , 32-H ) :   0.9702 B( 16-C , 17-C ) :   1.3285 B( 16-C , 33-H ) :   0.9842
B( 17-C , 18-O ) :   1.1092 B( 17-C , 19-C ) :   1.3725 B( 18-O , 34-H ) :   0.9789
B( 19-C , 35-H ) :   0.9589

MP2 TOTAL ENERGY:    -1274.326873701 Eh
FINAL SINGLE POINT ENERGY     -1274.326873701390

DIPOLE MOMENT
-------------
                                X             Y             Z
Electronic contribution:     11.64208       5.53252       8.10789
Nuclear contribution   :    -13.26261      -6.58094      -8.45273
                        -----------------------------------------
Total Dipole Moment    :     -1.62053      -1.04842      -0.34484
                        -----------------------------------------
Magnitude (a.u.)       :      1.96067
Magnitude (Debye)      :      4.98362

Rotational constants in cm-1:     0.011613     0.009236     0.006838
Rotational constants in MHz :   348.143507   276.885845   204.990498

                             ****ORCA TERMINATED NORMALLY****
TOTAL RUN TIME: 0 days 1 hours 47 minutes 37 seconds 634 msec
