                         Program Version 4.2.0 -  RELEASE  -
|  1> ! ri-mp2 cc-pvtz cc-pvtz/c TightSCF  NoKeepInts
|  2>
|  3> %scf
|  4>   MaxCore 4096
|  5> end
|  6> *xyz  0  1
|  7>     C       15.0712239   14.9923016   16.7748213
|  8>     C       16.4032628   14.2084050   16.7761903
|  9>     O       17.4578323   14.9202409   16.0856712
| 10>     C       17.4978154   16.2834352   15.9750703
| 11>     O       17.2241463   16.7981119   14.9065664
| 12>     C       17.7041053   17.0641461   17.2475471
| 13>     C       17.3321542   18.3665959   17.3498610
| 14>     C       16.5193042   19.1714965   16.3589827
| 15>     N       17.7610595   19.1304606   18.4403626
| 16>     C       18.7761748   18.7586995   19.2831139
| 17>     S       19.4213014   19.7985848   20.3957514
| 18>     N       19.2472244   17.4779648   19.1340944
| 19>     C       18.5482572   16.4300072   18.3685211
| 20>     C       17.7609641   15.5788692   19.3583278
| 21>     C       18.2932711   14.3544971   19.8065617
| 22>     C       17.5853452   13.5590645   20.7231497
| 23>     C       16.3394735   13.9950604   21.2048886
| 24>     C       15.8156665   15.2223743   20.7773808
| 25>     O       14.6153167   15.6495426   21.2429527
| 26>     C       16.5218703   16.0118510   19.8649771
| 27>     H       15.1338936   15.9054834   17.3771241
| 28>     H       14.2694630   14.3735222   17.1957795
| 29>     H       14.7833789   15.2667574   15.7516362
| 30>     H       16.6871794   13.9692138   17.8026990
| 31>     H       16.2473148   13.2483111   16.2675334
| 32>     H       15.6505806   18.5989090   16.0103223
| 33>     H       17.1241758   19.4156205   15.4759533
| 34>     H       16.1434383   20.1111162   16.7804606
| 35>     H       17.4434694   20.0817782   18.5380723
| 36>     H       19.9870658   17.2247406   19.7761695
| 37>     H       19.3076824   15.7930703   17.8927703
| 38>     H       19.2582226   14.0149326   19.4388200
| 39>     H       18.0038635   12.6120087   21.0604464
| 40>     H       15.7895572   13.3845133   21.9138676
| 41>     H       14.3199251   15.0159295   21.9145428
| 42>     H       16.1020205   16.9643839   19.5630108
| 43> *
| 44>
| 45>                          ****END OF INPUT****

CARTESIAN COORDINATES (ANGSTROEM)
---------------------------------
  C     15.071224   14.992302   16.774821
  C     16.403263   14.208405   16.776190
  O     17.457832   14.920241   16.085671
  C     17.497815   16.283435   15.975070
  O     17.224146   16.798112   14.906566
  C     17.704105   17.064146   17.247547
  C     17.332154   18.366596   17.349861
  C     16.519304   19.171496   16.358983
  N     17.761060   19.130461   18.440363
  C     18.776175   18.758699   19.283114
  S     19.421301   19.798585   20.395751
  N     19.247224   17.477965   19.134094
  C     18.548257   16.430007   18.368521
  C     17.760964   15.578869   19.358328
  C     18.293271   14.354497   19.806562
  C     17.585345   13.559064   20.723150
  C     16.339474   13.995060   21.204889
  C     15.815667   15.222374   20.777381
  O     14.615317   15.649543   21.242953
  C     16.521870   16.011851   19.864977
  H     15.133894   15.905483   17.377124
  H     14.269463   14.373522   17.195779
  H     14.783379   15.266757   15.751636
  H     16.687179   13.969214   17.802699
  H     16.247315   13.248311   16.267533
  H     15.650581   18.598909   16.010322
  H     17.124176   19.415620   15.475953
  H     16.143438   20.111116   16.780461
  H     17.443469   20.081778   18.538072
  H     19.987066   17.224741   19.776170
  H     19.307682   15.793070   17.892770
  H     19.258223   14.014933   19.438820
  H     18.003864   12.612009   21.060446
  H     15.789557   13.384513   21.913868
  H     14.319925   15.015930   21.914543
  H     16.102020   16.964384   19.563011

 Total Charge           Charge          ....    0
 Multiplicity           Mult            ....    1
 Number of Electrons    NEL             ....  154
 Basis Dimension        Dim             ....  828

ORBITAL ENERGIES
----------------

  NO   OCC          E(Eh)            E(eV)
   0   2.0000     -91.891812     -2500.5033
   1   2.0000     -20.604810      -560.6854
   2   2.0000     -20.581387      -560.0480
   3   2.0000     -20.546632      -559.1023
   4   2.0000     -15.631878      -425.3650
   5   2.0000     -15.610726      -424.7895
   6   2.0000     -11.392812      -310.0142
   7   2.0000     -11.386156      -309.8331
   8   2.0000     -11.337032      -308.4963
   9   2.0000     -11.322603      -308.1037
  10   2.0000     -11.315505      -307.9105
  11   2.0000     -11.297580      -307.4228
  12   2.0000     -11.267691      -306.6095
  13   2.0000     -11.264001      -306.5090
  14   2.0000     -11.259715      -306.3924
  15   2.0000     -11.254292      -306.2449
  16   2.0000     -11.251225      -306.1614
  17   2.0000     -11.246137      -306.0229
  18   2.0000     -11.245685      -306.0107
  19   2.0000     -11.228630      -305.5466
  20   2.0000      -8.896802      -242.0943
  21   2.0000      -6.578360      -179.0063
  22   2.0000      -6.576376      -178.9523
  23   2.0000      -6.575774      -178.9359
  24   2.0000      -1.441193       -39.2168
  25   2.0000      -1.424396       -38.7598
  26   2.0000      -1.350213       -36.7412
  27   2.0000      -1.343457       -36.5573
  28   2.0000      -1.242068       -33.7984
  29   2.0000      -1.165095       -31.7038
  30   2.0000      -1.122286       -30.5390
  31   2.0000      -1.048702       -28.5366
  32   2.0000      -1.030716       -28.0472
  33   2.0000      -1.023705       -27.8564
  34   2.0000      -1.001589       -27.2546
  35   2.0000      -0.987590       -26.8737
  36   2.0000      -0.927513       -25.2389
  37   2.0000      -0.895536       -24.3688
  38   2.0000      -0.850568       -23.1451
  39   2.0000      -0.847593       -23.0642
  40   2.0000      -0.841304       -22.8930
  41   2.0000      -0.825599       -22.4657
  42   2.0000      -0.748230       -20.3604
  43   2.0000      -0.737817       -20.0770
  44   2.0000      -0.715329       -19.4651
  45   2.0000      -0.703557       -19.1447
  46   2.0000      -0.693756       -18.8781
  47   2.0000      -0.675953       -18.3936
  48   2.0000      -0.672020       -18.2866
  49   2.0000      -0.661629       -18.0038
  50   2.0000      -0.655434       -17.8353
  51   2.0000      -0.650632       -17.7046
  52   2.0000      -0.637847       -17.3567
  53   2.0000      -0.626464       -17.0469
  54   2.0000      -0.615361       -16.7448
  55   2.0000      -0.606472       -16.5029
  56   2.0000      -0.602536       -16.3958
  57   2.0000      -0.584584       -15.9073
  58   2.0000      -0.574539       -15.6340
  59   2.0000      -0.566941       -15.4273
  60   2.0000      -0.544320       -14.8117
  61   2.0000      -0.543171       -14.7804
  62   2.0000      -0.540030       -14.6950
  63   2.0000      -0.534336       -14.5400
  64   2.0000      -0.532928       -14.5017
  65   2.0000      -0.517456       -14.0807
  66   2.0000      -0.508809       -13.8454
  67   2.0000      -0.496135       -13.5005
  68   2.0000      -0.479396       -13.0450
  69   2.0000      -0.468666       -12.7531
  70   2.0000      -0.450281       -12.2528
  71   2.0000      -0.443066       -12.0564
  72   2.0000      -0.360485        -9.8093
  73   2.0000      -0.357115        -9.7176
  74   2.0000      -0.333225        -9.0675
  75   2.0000      -0.328411        -8.9365
  76   2.0000      -0.318347        -8.6627
  77   0.0000       0.069316         1.8862
  78   0.0000       0.102296         2.7836
  79   0.0000       0.119847         3.2612
  80   0.0000       0.124718         3.3938
  81   0.0000       0.129855         3.5335

MULLIKEN ATOMIC CHARGES
-----------------------
   0 C :   -0.328834
   1 C :    0.031086
   2 O :   -0.372892
   3 C :    0.489156
   4 O :   -0.389738
   5 C :   -0.282001
   6 C :    0.149311
   7 C :   -0.273937
   8 N :   -0.124735
   9 C :    0.214746
  10 S :   -0.434872
  11 N :   -0.198665
  12 C :    0.047461
  13 C :    0.072924
  14 C :   -0.205764
  15 C :   -0.126939
  16 C :   -0.276671
  17 C :    0.322544
  18 O :   -0.357285
  19 C :   -0.289643
  20 H :    0.096855
  21 H :    0.111907
  22 H :    0.124432
  23 H :    0.107316
  24 H :    0.122309
  25 H :    0.125069
  26 H :    0.142295
  27 H :    0.093855
  28 H :    0.198853
  29 H :    0.190532
  30 H :    0.151716
  31 H :    0.150176
  32 H :    0.163698
  33 H :    0.134010
  34 H :    0.243041
  35 H :    0.178686
Sum of atomic charges:   -0.0000000

LOEWDIN ATOMIC CHARGES
----------------------
   0 C :    0.105035
   1 C :   -0.011677
   2 O :    0.280495
   3 C :   -0.424718
   4 O :    0.125402
   5 C :   -0.098023
   6 C :   -0.062913
   7 C :    0.129935
   8 N :    0.407753
   9 C :   -0.454507
  10 S :   -0.030737
  11 N :    0.396095
  12 C :   -0.052573
  13 C :   -0.038847
  14 C :    0.009649
  15 C :    0.043299
  16 C :   -0.000079
  17 C :   -0.189000
  18 O :    0.396853
  19 C :    0.033013
  20 H :   -0.035630
  21 H :   -0.022102
  22 H :   -0.023445
  23 H :   -0.038550
  24 H :   -0.022996
  25 H :   -0.007279
  26 H :   -0.001998
  27 H :   -0.022842
  28 H :   -0.057279
  29 H :   -0.066651
  30 H :   -0.004361
  31 H :   -0.029885
  32 H :   -0.018871
  33 H :   -0.033728
  34 H :   -0.151684
  35 H :   -0.027156

  Mayer bond orders larger than 0.100000
B(  0-C ,  1-C ) :   0.9639 B(  0-C , 20-H ) :   0.9706 B(  0-C , 21-H ) :   0.9760
B(  0-C , 22-H ) :   0.9720 B(  1-C ,  2-O ) :   0.8996 B(  1-C , 23-H ) :   0.9666
B(  1-C , 24-H ) :   0.9827 B(  2-O ,  3-C ) :   1.1251 B(  3-C ,  4-O ) :   2.0554
B(  3-C ,  5-C ) :   1.0097 B(  5-C ,  6-C ) :   1.6566 B(  5-C , 12-C ) :   0.9748
B(  6-C ,  7-C ) :   0.9717 B(  6-C ,  8-N ) :   1.1499 B(  7-C , 25-H ) :   0.9676
B(  7-C , 26-H ) :   0.9547 B(  7-C , 27-H ) :   0.9858 B(  8-N ,  9-C ) :   1.1795
B(  8-N , 28-H ) :   0.9492 B(  9-C , 10-S ) :   1.6155 B(  9-C , 11-N ) :   1.2987
B( 11-N , 12-C ) :   0.9575 B( 11-N , 29-H ) :   0.9549 B( 12-C , 13-C ) :   0.9570
B( 12-C , 30-H ) :   0.9992 B( 13-C , 14-C ) :   1.3412 B( 13-C , 19-C ) :   1.3616
B( 14-C , 15-C ) :   1.3953 B( 14-C , 31-H ) :   0.9756 B( 15-C , 16-C ) :   1.3664
B( 15-C , 32-H ) :   0.9696 B( 16-C , 17-C ) :   1.3287 B( 16-C , 33-H ) :   0.9832
B( 17-C , 18-O ) :   1.1156 B( 17-C , 19-C ) :   1.3688 B( 18-O , 34-H ) :   0.9786
B( 19-C , 35-H ) :   0.9507

MP2 TOTAL ENERGY:    -1274.328446430 Eh
FINAL SINGLE POINT ENERGY     -1274.328446429850

DIPOLE MOMENT
-------------
                                X             Y             Z
Electronic contribution:     10.03602       7.57739       4.98328
Nuclear contribution   :    -11.27284      -9.17334      -4.36285
                        -----------------------------------------
Total Dipole Moment    :     -1.23683      -1.59595       0.62043
                        -----------------------------------------
Magnitude (a.u.)       :      2.11228
Magnitude (Debye)      :      5.36899

Rotational constants in cm-1:     0.011536     0.009896     0.006787
Rotational constants in MHz :   345.842026   296.677428   203.457337

                             ****ORCA TERMINATED NORMALLY****
TOTAL RUN TIME: 0 days 1 hours 49 minutes 23 seconds 928 msec
