                         Program Version 4.2.0 -  RELEASE  -
|  1> ! ri-mp2 cc-pvtz cc-pvtz/c TightSCF  NoKeepInts
|  2>
|  3> %scf
|  4>   MaxCore 4096
|  5> end
|  6> *xyz  0  1
|  7>     C       16.0471887   13.0804876   16.3792062
|  8>     C       15.5963128   14.5488870   16.4534211
|  9>     O       16.7770261   15.3663348   16.4899838
| 10>     C       16.6203089   16.7223195   16.4541017
| 11>     O       15.6920805   17.2432511   15.8593712
| 12>     C       17.4976156   17.4373347   17.4445580
| 13>     C       17.4954852   18.7886251   17.5730398
| 14>     C       16.6629153   19.7822327   16.7912407
| 15>     N       18.3579183   19.4081020   18.4823719
| 16>     C       19.3204058   18.7641157   19.2129312
| 17>     S       20.3679045   19.5841600   20.1959102
| 18>     N       19.3766124   17.3999668   19.0834118
| 19>     C       18.4096330   16.5767365   18.3350019
| 20>     C       17.6152099   15.7120098   19.3097639
| 21>     C       17.8840109   14.3348263   19.4178470
| 22>     C       17.1530458   13.5310412   20.3087515
| 23>     C       16.1478303   14.1097810   21.1020099
| 24>     C       15.8833838   15.4826638   21.0034224
| 25>     O       14.9154908   16.0450406   21.7700399
| 26>     C       16.6119928   16.2798293   20.1153544
| 27>     H       16.6358917   12.8101375   17.2637221
| 28>     H       16.6615698   12.9096857   15.4865037
| 29>     H       15.1772934   12.4144462   16.3302571
| 30>     H       14.9881329   14.7898734   15.5706822
| 31>     H       14.9900243   14.7147978   17.3541886
| 32>     H       15.5948214   19.6337332   16.9958598
| 33>     H       16.8106507   19.6468992   15.7122669
| 34>     H       16.9048084   20.8249619   17.0280190
| 35>     H       18.3322409   20.4096362   18.5889784
| 36>     H       20.0727388   16.9501567   19.6637968
| 37>     H       18.9853601   15.9130947   17.6744236
| 38>     H       18.6583759   13.8844077   18.8026253
| 39>     H       17.3670161   12.4662238   20.3832729
| 40>     H       15.5811309   13.4935577   21.7923070
| 41>     H       14.5576840   15.3511468   22.3439990
| 42>     H       16.3968891   17.3414961   20.0613590
| 43> *
| 44>
| 45>                          ****END OF INPUT****

CARTESIAN COORDINATES (ANGSTROEM)
---------------------------------
  C     16.047189   13.080488   16.379206
  C     15.596313   14.548887   16.453421
  O     16.777026   15.366335   16.489984
  C     16.620309   16.722320   16.454102
  O     15.692080   17.243251   15.859371
  C     17.497616   17.437335   17.444558
  C     17.495485   18.788625   17.573040
  C     16.662915   19.782233   16.791241
  N     18.357918   19.408102   18.482372
  C     19.320406   18.764116   19.212931
  S     20.367905   19.584160   20.195910
  N     19.376612   17.399967   19.083412
  C     18.409633   16.576736   18.335002
  C     17.615210   15.712010   19.309764
  C     17.884011   14.334826   19.417847
  C     17.153046   13.531041   20.308751
  C     16.147830   14.109781   21.102010
  C     15.883384   15.482664   21.003422
  O     14.915491   16.045041   21.770040
  C     16.611993   16.279829   20.115354
  H     16.635892   12.810137   17.263722
  H     16.661570   12.909686   15.486504
  H     15.177293   12.414446   16.330257
  H     14.988133   14.789873   15.570682
  H     14.990024   14.714798   17.354189
  H     15.594821   19.633733   16.995860
  H     16.810651   19.646899   15.712267
  H     16.904808   20.824962   17.028019
  H     18.332241   20.409636   18.588978
  H     20.072739   16.950157   19.663797
  H     18.985360   15.913095   17.674424
  H     18.658376   13.884408   18.802625
  H     17.367016   12.466224   20.383273
  H     15.581131   13.493558   21.792307
  H     14.557684   15.351147   22.343999
  H     16.396889   17.341496   20.061359

 Total Charge           Charge          ....    0
 Multiplicity           Mult            ....    1
 Number of Electrons    NEL             ....  154
 Basis Dimension        Dim             ....  828

ORBITAL ENERGIES
----------------

  NO   OCC          E(Eh)            E(eV)
   0   2.0000     -91.889361     -2500.4366
   1   2.0000     -20.598747      -560.5204
   2   2.0000     -20.595223      -560.4245
   3   2.0000     -20.543192      -559.0087
   4   2.0000     -15.629590      -425.3028
   5   2.0000     -15.608907      -424.7400
   6   2.0000     -11.393350      -310.0288
   7   2.0000     -11.384528      -309.7888
   8   2.0000     -11.336226      -308.4744
   9   2.0000     -11.316228      -307.9302
  10   2.0000     -11.310124      -307.7641
  11   2.0000     -11.294100      -307.3281
  12   2.0000     -11.261930      -306.4527
  13   2.0000     -11.258961      -306.3719
  14   2.0000     -11.257777      -306.3397
  15   2.0000     -11.252518      -306.1966
  16   2.0000     -11.245266      -305.9992
  17   2.0000     -11.240311      -305.8644
  18   2.0000     -11.240198      -305.8613
  19   2.0000     -11.227654      -305.5200
  20   2.0000      -8.894420      -242.0295
  21   2.0000      -6.575993      -178.9419
  22   2.0000      -6.573989      -178.8873
  23   2.0000      -6.573402      -178.8714
  24   2.0000      -1.451199       -39.4891
  25   2.0000      -1.418401       -38.5967
  26   2.0000      -1.353805       -36.8389
  27   2.0000      -1.340620       -36.4801
  28   2.0000      -1.239274       -33.7224
  29   2.0000      -1.159691       -31.5568
  30   2.0000      -1.121015       -30.5044
  31   2.0000      -1.044195       -28.4140
  32   2.0000      -1.037801       -28.2400
  33   2.0000      -1.017564       -27.6893
  34   2.0000      -0.996439       -27.1145
  35   2.0000      -0.984963       -26.8022
  36   2.0000      -0.923681       -25.1346
  37   2.0000      -0.884979       -24.0815
  38   2.0000      -0.847621       -23.0649
  39   2.0000      -0.839139       -22.8341
  40   2.0000      -0.835854       -22.7447
  41   2.0000      -0.820073       -22.3153
  42   2.0000      -0.763780       -20.7835
  43   2.0000      -0.734133       -19.9768
  44   2.0000      -0.722772       -19.6676
  45   2.0000      -0.697779       -18.9875
  46   2.0000      -0.687424       -18.7057
  47   2.0000      -0.678343       -18.4586
  48   2.0000      -0.676241       -18.4015
  49   2.0000      -0.660987       -17.9864
  50   2.0000      -0.646855       -17.6018
  51   2.0000      -0.645223       -17.5574
  52   2.0000      -0.636985       -17.3333
  53   2.0000      -0.609632       -16.5889
  54   2.0000      -0.604020       -16.4362
  55   2.0000      -0.601711       -16.3734
  56   2.0000      -0.598836       -16.2952
  57   2.0000      -0.579331       -15.7644
  58   2.0000      -0.571517       -15.5518
  59   2.0000      -0.565936       -15.3999
  60   2.0000      -0.557846       -15.1798
  61   2.0000      -0.543640       -14.7932
  62   2.0000      -0.539480       -14.6800
  63   2.0000      -0.527115       -14.3435
  64   2.0000      -0.518574       -14.1111
  65   2.0000      -0.513696       -13.9784
  66   2.0000      -0.506342       -13.7783
  67   2.0000      -0.500327       -13.6146
  68   2.0000      -0.486590       -13.2408
  69   2.0000      -0.465917       -12.6782
  70   2.0000      -0.457532       -12.4501
  71   2.0000      -0.445581       -12.1249
  72   2.0000      -0.354721        -9.6524
  73   2.0000      -0.351661        -9.5692
  74   2.0000      -0.328944        -8.9510
  75   2.0000      -0.323488        -8.8025
  76   2.0000      -0.316815        -8.6210
  77   0.0000       0.074078         2.0158
  78   0.0000       0.103466         2.8154
  79   0.0000       0.124118         3.3774
  80   0.0000       0.131164         3.5692
  81   0.0000       0.136295         3.7088

MULLIKEN ATOMIC CHARGES
-----------------------
   0 C :   -0.270316
   1 C :    0.029716
   2 O :   -0.360106
   3 C :    0.459727
   4 O :   -0.421893
   5 C :   -0.245895
   6 C :    0.159079
   7 C :   -0.270425
   8 N :   -0.123353
   9 C :    0.214834
  10 S :   -0.440278
  11 N :   -0.208043
  12 C :    0.069174
  13 C :    0.063242
  14 C :   -0.207501
  15 C :   -0.122976
  16 C :   -0.281123
  17 C :    0.315686
  18 O :   -0.355914
  19 C :   -0.265808
  20 H :    0.091897
  21 H :    0.098310
  22 H :    0.093066
  23 H :    0.122250
  24 H :    0.096388
  25 H :    0.132618
  26 H :    0.130245
  27 H :    0.095348
  28 H :    0.197503
  29 H :    0.195208
  30 H :    0.148970
  31 H :    0.156358
  32 H :    0.164488
  33 H :    0.131706
  34 H :    0.241174
  35 H :    0.166643
Sum of atomic charges:   -0.0000000

LOEWDIN ATOMIC CHARGES
----------------------
   0 C :    0.108274
   1 C :   -0.017779
   2 O :    0.302596
   3 C :   -0.415334
   4 O :    0.103312
   5 C :   -0.096471
   6 C :   -0.059079
   7 C :    0.131629
   8 N :    0.406838
   9 C :   -0.455453
  10 S :   -0.035316
  11 N :    0.396081
  12 C :   -0.052261
  13 C :   -0.037253
  14 C :    0.014052
  15 C :    0.040402
  16 C :   -0.002239
  17 C :   -0.189705
  18 O :    0.395881
  19 C :    0.031018
  20 H :   -0.031545
  21 H :   -0.027001
  22 H :   -0.024823
  23 H :   -0.027731
  24 H :   -0.029840
  25 H :   -0.004514
  26 H :   -0.003932
  27 H :   -0.023248
  28 H :   -0.057435
  29 H :   -0.064916
  30 H :   -0.010070
  31 H :   -0.030583
  32 H :   -0.020961
  33 H :   -0.035169
  34 H :   -0.153463
  35 H :   -0.023963

  Mayer bond orders larger than 0.100000
B(  0-C ,  1-C ) :   0.9733 B(  0-C , 20-H ) :   0.9762 B(  0-C , 21-H ) :   0.9773
B(  0-C , 22-H ) :   0.9782 B(  1-C ,  2-O ) :   0.8848 B(  1-C , 23-H ) :   0.9818
B(  1-C , 24-H ) :   0.9694 B(  2-O ,  3-C ) :   1.1502 B(  3-C ,  4-O ) :   1.9955
B(  3-C ,  5-C ) :   1.0560 B(  5-C ,  6-C ) :   1.6515 B(  5-C , 12-C ) :   0.9735
B(  6-C ,  7-C ) :   0.9665 B(  6-C ,  8-N ) :   1.1622 B(  7-C , 25-H ) :   0.9591
B(  7-C , 26-H ) :   0.9613 B(  7-C , 27-H ) :   0.9905 B(  8-N ,  9-C ) :   1.1836
B(  8-N , 28-H ) :   0.9478 B(  9-C , 10-S ) :   1.6051 B(  9-C , 11-N ) :   1.3072
B( 11-N , 12-C ) :   0.9778 B( 11-N , 29-H ) :   0.9517 B( 12-C , 13-C ) :   0.9379
B( 12-C , 30-H ) :   1.0019 B( 13-C , 14-C ) :   1.3527 B( 13-C , 19-C ) :   1.3789
B( 14-C , 15-C ) :   1.3841 B( 14-C , 31-H ) :   0.9704 B( 15-C , 16-C ) :   1.3662
B( 15-C , 32-H ) :   0.9690 B( 16-C , 17-C ) :   1.3296 B( 16-C , 33-H ) :   0.9844
B( 17-C , 18-O ) :   1.1119 B( 17-C , 19-C ) :   1.3714 B( 18-O , 34-H ) :   0.9794
B( 19-C , 35-H ) :   0.9584

MP2 TOTAL ENERGY:    -1274.345258108 Eh
FINAL SINGLE POINT ENERGY     -1274.345258108138

DIPOLE MOMENT
-------------
                                X             Y             Z
Electronic contribution:      8.70136      11.29151       6.85531
Nuclear contribution   :     -9.78179     -12.85937      -7.07622
                        -----------------------------------------
Total Dipole Moment    :     -1.08043      -1.56786      -0.22091
                        -----------------------------------------
Magnitude (a.u.)       :      1.91685
Magnitude (Debye)      :      4.87225

Rotational constants in cm-1:     0.012456     0.008424     0.006331
Rotational constants in MHz :   373.426541   252.533613   189.798658

                             ****ORCA TERMINATED NORMALLY****
TOTAL RUN TIME: 0 days 1 hours 43 minutes 21 seconds 7 msec
