                         Program Version 5.0.0 -  RELEASE  -
|  1> ! ri-mp2 cc-pvtz cc-pvtz/c TightSCF NoKeepInts
|  2>
|  3> %scf
|  4>   MaxCore 4096
|  5> end
|  6> *xyz  0  1
|  7>     C       15.1948289   15.3233870   17.2051502
|  8>     C       16.1449715   14.3311083   16.5037543
|  9>     O       17.5469968   14.7028398   16.4748905
| 10>     C       17.9727833   15.9605917   16.1548802
| 11>     O       17.9017613   16.3030537   14.9887583
| 12>     C       17.8564859   16.9501265   17.2809584
| 13>     C       17.4054977   18.2181583   17.1030544
| 14>     C       16.7811313   18.8087676   15.8564709
| 15>     N       17.5628464   19.1615285   18.1225692
| 16>     C       18.3839300   18.9957784   19.2068260
| 17>     S       18.6879776   20.2232825   20.2722836
| 18>     N       18.9451842   17.7526370   19.3621093
| 19>     C       18.5429688   16.5524759   18.6022159
| 20>     C       17.7391179   15.6108834   19.4981365
| 21>     C       18.0045179   14.2280402   19.4860625
| 22>     C       17.2882506   13.3510445   20.3174489
| 23>     C       16.3033206   13.8598598   21.1802241
| 24>     C       16.0441707   15.2364999   21.2088517
| 25>     O       15.0925813   15.7308407   22.0397088
| 26>     C       16.7572434   16.1072309   20.3785878
| 27>     H       15.4095523   15.4042929   18.2707859
| 28>     H       14.1617143   14.9665971   17.1152261
| 29>     H       15.2323979   16.3171433   16.7482229
| 30>     H       16.0495194   13.3480806   16.9826439
| 31>     H       15.8031588   14.2174753   15.4663222
| 32>     H       17.5536904   19.0123700   15.1038002
| 33>     H       16.2454070   19.7446979   16.0534678
| 34>     H       16.0652155   18.1127053   15.4033051
| 35>     H       17.1756470   20.0848842   18.0097921
| 36>     H       19.5297588   17.6527385   20.1823774
| 37>     H       19.4687976   16.0245734   18.3329999
| 38>     H       18.7648558   13.8283142   18.8197403
| 39>     H       17.4995358   12.2832805   20.2928763
| 40>     H       15.7478144   13.1864696   21.8247809
| 41>     H       14.7487549   14.9919712   22.5639489
| 42>     H       16.5346141   17.1682711   20.4207685
| 43> *
| 44>
| 45>                          ****END OF INPUT****

CARTESIAN COORDINATES (ANGSTROEM)
---------------------------------
  C     15.194829   15.323387   17.205150
  C     16.144972   14.331108   16.503754
  O     17.546997   14.702840   16.474891
  C     17.972783   15.960592   16.154880
  O     17.901761   16.303054   14.988758
  C     17.856486   16.950126   17.280958
  C     17.405498   18.218158   17.103054
  C     16.781131   18.808768   15.856471
  N     17.562846   19.161528   18.122569
  C     18.383930   18.995778   19.206826
  S     18.687978   20.223282   20.272284
  N     18.945184   17.752637   19.362109
  C     18.542969   16.552476   18.602216
  C     17.739118   15.610883   19.498137
  C     18.004518   14.228040   19.486062
  C     17.288251   13.351044   20.317449
  C     16.303321   13.859860   21.180224
  C     16.044171   15.236500   21.208852
  O     15.092581   15.730841   22.039709
  C     16.757243   16.107231   20.378588
  H     15.409552   15.404293   18.270786
  H     14.161714   14.966597   17.115226
  H     15.232398   16.317143   16.748223
  H     16.049519   13.348081   16.982644
  H     15.803159   14.217475   15.466322
  H     17.553690   19.012370   15.103800
  H     16.245407   19.744698   16.053468
  H     16.065216   18.112705   15.403305
  H     17.175647   20.084884   18.009792
  H     19.529759   17.652739   20.182377
  H     19.468798   16.024573   18.333000
  H     18.764856   13.828314   18.819740
  H     17.499536   12.283281   20.292876
  H     15.747814   13.186470   21.824781
  H     14.748755   14.991971   22.563949
  H     16.534614   17.168271   20.420768

 Total Charge           Charge          ....    0
 Multiplicity           Mult            ....    1
 Number of Electrons    NEL             ....  154
 Basis Dimension        Dim             ....  828

ORBITAL ENERGIES
----------------

  NO   OCC          E(Eh)            E(eV)
   0   2.0000     -91.891292     -2500.4892
   1   2.0000     -20.598693      -560.5189
   2   2.0000     -20.576231      -559.9077
   3   2.0000     -20.557354      -559.3940
   4   2.0000     -15.629777      -425.3078
   5   2.0000     -15.610177      -424.7745
   6   2.0000     -11.395202      -310.0792
   7   2.0000     -11.385803      -309.8234
   8   2.0000     -11.334505      -308.4276
   9   2.0000     -11.316147      -307.9280
  10   2.0000     -11.314886      -307.8937
  11   2.0000     -11.303204      -307.5758
  12   2.0000     -11.263181      -306.4867
  13   2.0000     -11.261307      -306.4357
  14   2.0000     -11.257663      -306.3366
  15   2.0000     -11.255717      -306.2836
  16   2.0000     -11.246139      -306.0230
  17   2.0000     -11.241114      -305.8863
  18   2.0000     -11.240042      -305.8571
  19   2.0000     -11.226541      -305.4897
  20   2.0000      -8.896323      -242.0813
  21   2.0000      -6.577894      -178.9936
  22   2.0000      -6.575893      -178.9391
  23   2.0000      -6.575299      -178.9230
  24   2.0000      -1.447290       -39.3827
  25   2.0000      -1.418544       -38.6005
  26   2.0000      -1.350621       -36.7523
  27   2.0000      -1.341571       -36.5060
  28   2.0000      -1.240327       -33.7510
  29   2.0000      -1.159402       -31.5489
  30   2.0000      -1.121017       -30.5044
  31   2.0000      -1.044996       -28.4358
  32   2.0000      -1.033602       -28.1257
  33   2.0000      -1.018156       -27.7054
  34   2.0000      -1.001243       -27.2452
  35   2.0000      -0.987451       -26.8699
  36   2.0000      -0.925599       -25.1868
  37   2.0000      -0.896341       -24.3907
  38   2.0000      -0.848970       -23.1016
  39   2.0000      -0.842410       -22.9231
  40   2.0000      -0.836751       -22.7691
  41   2.0000      -0.820028       -22.3141
  42   2.0000      -0.748823       -20.3765
  43   2.0000      -0.734336       -19.9823
  44   2.0000      -0.724721       -19.7207
  45   2.0000      -0.697516       -18.9804
  46   2.0000      -0.690797       -18.7975
  47   2.0000      -0.675583       -18.3836
  48   2.0000      -0.669129       -18.2079
  49   2.0000      -0.665810       -18.1176
  50   2.0000      -0.651944       -17.7403
  51   2.0000      -0.646911       -17.6033
  52   2.0000      -0.638035       -17.3618
  53   2.0000      -0.617896       -16.8138
  54   2.0000      -0.608323       -16.5533
  55   2.0000      -0.601701       -16.3731
  56   2.0000      -0.601396       -16.3648
  57   2.0000      -0.579783       -15.7767
  58   2.0000      -0.574186       -15.6244
  59   2.0000      -0.565299       -15.3826
  60   2.0000      -0.558428       -15.1956
  61   2.0000      -0.553796       -15.0695
  62   2.0000      -0.540380       -14.7045
  63   2.0000      -0.526891       -14.3374
  64   2.0000      -0.523426       -14.2431
  65   2.0000      -0.514980       -14.0133
  66   2.0000      -0.503431       -13.6991
  67   2.0000      -0.498395       -13.5620
  68   2.0000      -0.476463       -12.9652
  69   2.0000      -0.465918       -12.6783
  70   2.0000      -0.452385       -12.3100
  71   2.0000      -0.446714       -12.1557
  72   2.0000      -0.357757        -9.7351
  73   2.0000      -0.349185        -9.5018
  74   2.0000      -0.330434        -8.9916
  75   2.0000      -0.324445        -8.8286
  76   2.0000      -0.318537        -8.6678
  77   0.0000       0.068377         1.8606
  78   0.0000       0.102966         2.8018
  79   0.0000       0.116662         3.1745
  80   0.0000       0.127918         3.4808
  81   0.0000       0.131283         3.5724

MULLIKEN ATOMIC CHARGES
-----------------------
   0 C :   -0.332883
   1 C :    0.041503
   2 O :   -0.388188
   3 C :    0.449909
   4 O :   -0.377454
   5 C :   -0.227247
   6 C :    0.168143
   7 C :   -0.281097
   8 N :   -0.126171
   9 C :    0.187556
  10 S :   -0.431711
  11 N :   -0.205634
  12 C :    0.042759
  13 C :    0.039635
  14 C :   -0.189652
  15 C :   -0.147089
  16 C :   -0.270343
  17 C :    0.301225
  18 O :   -0.356881
  19 C :   -0.241607
  20 H :    0.125653
  21 H :    0.120300
  22 H :    0.096174
  23 H :    0.114260
  24 H :    0.116564
  25 H :    0.144189
  26 H :    0.095650
  27 H :    0.122645
  28 H :    0.198188
  29 H :    0.194548
  30 H :    0.150419
  31 H :    0.154326
  32 H :    0.164643
  33 H :    0.133231
  34 H :    0.240461
  35 H :    0.173978
Sum of atomic charges:   -0.0000000

LOEWDIN ATOMIC CHARGES
----------------------
   0 C :    0.107772
   1 C :   -0.011667
   2 O :    0.273045
   3 C :   -0.421076
   4 O :    0.139346
   5 C :   -0.092699
   6 C :   -0.067327
   7 C :    0.128373
   8 N :    0.407027
   9 C :   -0.459758
  10 S :   -0.032278
  11 N :    0.396176
  12 C :   -0.051928
  13 C :   -0.040882
  14 C :    0.018820
  15 C :    0.039337
  16 C :   -0.002283
  17 C :   -0.193440
  18 O :    0.396696
  19 C :    0.029873
  20 H :   -0.031028
  21 H :   -0.021692
  22 H :   -0.033276
  23 H :   -0.021439
  24 H :   -0.028246
  25 H :   -0.003116
  26 H :   -0.022051
  27 H :   -0.012069
  28 H :   -0.057920
  29 H :   -0.064976
  30 H :   -0.007082
  31 H :   -0.028199
  32 H :   -0.020141
  33 H :   -0.034853
  34 H :   -0.153524
  35 H :   -0.023515

  Mayer bond orders larger than 0.100000
B(  0-C ,  1-C ) :   0.9631 B(  0-C , 20-H ) :   0.9666 B(  0-C , 21-H ) :   0.9781
B(  0-C , 22-H ) :   0.9730 B(  1-C ,  2-O ) :   0.8793 B(  1-C , 23-H ) :   0.9795
B(  1-C , 24-H ) :   0.9846 B(  2-O ,  3-C ) :   1.1041 B(  3-C ,  4-O ) :   2.0510
B(  3-C ,  5-C ) :   1.0074 B(  5-C ,  6-C ) :   1.6735 B(  5-C , 12-C ) :   0.9676
B(  6-C ,  7-C ) :   0.9635 B(  6-C ,  8-N ) :   1.1283 B(  7-C , 25-H ) :   0.9570
B(  7-C , 26-H ) :   0.9851 B(  7-C , 27-H ) :   0.9695 B(  8-N ,  9-C ) :   1.1837
B(  8-N , 28-H ) :   0.9494 B(  9-C , 10-S ) :   1.6202 B(  9-C , 11-N ) :   1.2893
B( 11-N , 12-C ) :   0.9854 B( 11-N , 29-H ) :   0.9513 B( 12-C , 13-C ) :   0.9343
B( 12-C , 30-H ) :   1.0101 B( 13-C , 14-C ) :   1.3748 B( 13-C , 19-C ) :   1.3542
B( 14-C , 15-C ) :   1.3954 B( 14-C , 31-H ) :   0.9679 B( 15-C , 16-C ) :   1.3595
B( 15-C , 32-H ) :   0.9695 B( 16-C , 17-C ) :   1.3320 B( 16-C , 33-H ) :   0.9840
B( 17-C , 18-O ) :   1.1126 B( 17-C , 19-C ) :   1.3730 B( 18-O , 34-H ) :   0.9798
B( 19-C , 35-H ) :   0.9586

MP2 TOTAL ENERGY:    -1274.309389403 Eh
FINAL SINGLE POINT ENERGY     -1274.309389402533

DIPOLE MOMENT
-------------
                                X             Y             Z
Electronic contribution:      9.87346       7.37354       6.17772
Nuclear contribution   :    -11.07584      -8.98631      -6.22164
                        -----------------------------------------
Total Dipole Moment    :     -1.20239      -1.61278      -0.04393
                        -----------------------------------------
Magnitude (a.u.)       :      2.01214
Magnitude (Debye)      :      5.11446

Rotational constants in cm-1:     0.011651     0.010106     0.006518
Rotational constants in MHz :   349.284704   302.973069   195.412085

                             ****ORCA TERMINATED NORMALLY****
TOTAL RUN TIME: 0 days 2 hours 23 minutes 57 seconds 810 msec
