                         Program Version 5.0.0 -  RELEASE  -
|  1> ! ri-mp2 cc-pvtz cc-pvtz/c TightSCF NoKeepInts
|  2>
|  3> %scf
|  4>   MaxCore 4096
|  5> end
|  6> *xyz  0  1
|  7>     C       15.3193033   13.5549264   16.0347695
|  8>     C       16.2117661   14.4948463   16.8611943
|  9>     O       16.8900844   15.3549694   15.9332533
| 10>     C       16.8506702   16.7146043   16.0705811
| 11>     O       16.3586394   17.3783414   15.1777715
| 12>     C       17.4633731   17.3107331   17.3167036
| 13>     C       17.3352098   18.6339365   17.6049457
| 14>     C       16.4875775   19.6604446   16.8839915
| 15>     N       18.0914463   19.2003560   18.6371986
| 16>     C       19.1832170   18.5979109   19.2056125
| 17>     S       20.2062434   19.4052557   20.2240636
| 18>     N       19.3970029   17.2882901   18.8568646
| 19>     C       18.3842676   16.4447064   18.1983417
| 20>     C       17.6583105   15.6588422   19.2894163
| 21>     C       18.1626980   14.4081265   19.6951304
| 22>     C       17.5189822   13.6658981   20.6991842
| 23>     C       16.3662386   14.1822960   21.3139556
| 24>     C       15.8712306   15.4350499   20.9288054
| 25>     O       14.7624209   15.9409984   21.5242383
| 26>     C       16.5113558   16.1701476   19.9262166
| 27>     H       14.7753167   12.8638969   16.6900324
| 28>     H       15.9231192   12.9635682   15.3350875
| 29>     H       14.5855465   14.1301273   15.4557885
| 30>     H       15.5855231   15.0690603   17.5569152
| 31>     H       16.9337620   13.8944499   17.4258238
| 32>     H       15.4674491   19.2860434   16.7310401
| 33>     H       16.9074748   19.8772909   15.8930914
| 34>     H       16.4086625   20.6084403   17.4288995
| 35>     H       17.9574822   20.1695109   18.8783353
| 36>     H       20.2031914   16.8630077   19.2958226
| 37>     H       18.9092966   15.7332838   17.5448140
| 38>     H       19.0589926   14.0079117   19.2280161
| 39>     H       17.9169776   12.6988592   21.0031285
| 40>     H       15.8673425   13.6143149   22.0926983
| 41>     H       14.5044552   15.3291314   22.2306120
| 42>     H       16.1123706   17.1424235   19.6616564
| 43> *
| 44>
| 45>                          ****END OF INPUT****

CARTESIAN COORDINATES (ANGSTROEM)
---------------------------------
  C     15.319303   13.554926   16.034769
  C     16.211766   14.494846   16.861194
  O     16.890084   15.354969   15.933253
  C     16.850670   16.714604   16.070581
  O     16.358639   17.378341   15.177772
  C     17.463373   17.310733   17.316704
  C     17.335210   18.633937   17.604946
  C     16.487578   19.660445   16.883992
  N     18.091446   19.200356   18.637199
  C     19.183217   18.597911   19.205613
  S     20.206243   19.405256   20.224064
  N     19.397003   17.288290   18.856865
  C     18.384268   16.444706   18.198342
  C     17.658310   15.658842   19.289416
  C     18.162698   14.408126   19.695130
  C     17.518982   13.665898   20.699184
  C     16.366239   14.182296   21.313956
  C     15.871231   15.435050   20.928805
  O     14.762421   15.940998   21.524238
  C     16.511356   16.170148   19.926217
  H     14.775317   12.863897   16.690032
  H     15.923119   12.963568   15.335088
  H     14.585546   14.130127   15.455788
  H     15.585523   15.069060   17.556915
  H     16.933762   13.894450   17.425824
  H     15.467449   19.286043   16.731040
  H     16.907475   19.877291   15.893091
  H     16.408662   20.608440   17.428899
  H     17.957482   20.169511   18.878335
  H     20.203191   16.863008   19.295823
  H     18.909297   15.733284   17.544814
  H     19.058993   14.007912   19.228016
  H     17.916978   12.698859   21.003128
  H     15.867342   13.614315   22.092698
  H     14.504455   15.329131   22.230612
  H     16.112371   17.142423   19.661656

 Total Charge           Charge          ....    0
 Multiplicity           Mult            ....    1
 Number of Electrons    NEL             ....  154
 Basis Dimension        Dim             ....  828

ORBITAL ENERGIES
----------------

  NO   OCC          E(Eh)            E(eV)
   0   2.0000     -91.892400     -2500.5193
   1   2.0000     -20.604746      -560.6836
   2   2.0000     -20.587293      -560.2087
   3   2.0000     -20.542653      -558.9940
   4   2.0000     -15.632970      -425.3947
   5   2.0000     -15.611643      -424.8144
   6   2.0000     -11.392470      -310.0049
   7   2.0000     -11.386580      -309.8446
   8   2.0000     -11.339250      -308.5567
   9   2.0000     -11.322548      -308.1022
  10   2.0000     -11.316922      -307.9491
  11   2.0000     -11.297009      -307.4072
  12   2.0000     -11.268826      -306.6403
  13   2.0000     -11.264498      -306.5226
  14   2.0000     -11.261458      -306.4398
  15   2.0000     -11.253853      -306.2329
  16   2.0000     -11.250503      -306.1418
  17   2.0000     -11.246383      -306.0297
  18   2.0000     -11.245404      -306.0030
  19   2.0000     -11.224710      -305.4399
  20   2.0000      -8.897379      -242.1100
  21   2.0000      -6.578935      -179.0219
  22   2.0000      -6.576951      -178.9679
  23   2.0000      -6.576348      -178.9515
  24   2.0000      -1.445301       -39.3286
  25   2.0000      -1.424327       -38.7579
  26   2.0000      -1.353470       -36.8298
  27   2.0000      -1.344645       -36.5897
  28   2.0000      -1.243042       -33.8249
  29   2.0000      -1.165151       -31.7054
  30   2.0000      -1.122356       -30.5409
  31   2.0000      -1.048640       -28.5349
  32   2.0000      -1.034155       -28.1408
  33   2.0000      -1.024003       -27.8645
  34   2.0000      -1.000574       -27.2270
  35   2.0000      -0.987301       -26.8658
  36   2.0000      -0.927928       -25.2502
  37   2.0000      -0.878858       -23.9150
  38   2.0000      -0.852354       -23.1937
  39   2.0000      -0.848754       -23.0958
  40   2.0000      -0.841532       -22.8992
  41   2.0000      -0.833598       -22.6834
  42   2.0000      -0.762171       -20.7397
  43   2.0000      -0.738323       -20.0908
  44   2.0000      -0.719166       -19.5695
  45   2.0000      -0.704574       -19.1724
  46   2.0000      -0.696210       -18.9448
  47   2.0000      -0.677133       -18.4257
  48   2.0000      -0.669627       -18.2215
  49   2.0000      -0.668483       -18.1903
  50   2.0000      -0.652801       -17.7636
  51   2.0000      -0.647657       -17.6236
  52   2.0000      -0.642483       -17.4829
  53   2.0000      -0.616920       -16.7872
  54   2.0000      -0.607850       -16.5404
  55   2.0000      -0.603192       -16.4137
  56   2.0000      -0.590404       -16.0657
  57   2.0000      -0.584598       -15.9077
  58   2.0000      -0.574257       -15.6263
  59   2.0000      -0.571196       -15.5430
  60   2.0000      -0.566014       -15.4020
  61   2.0000      -0.545169       -14.8348
  62   2.0000      -0.539621       -14.6838
  63   2.0000      -0.534149       -14.5349
  64   2.0000      -0.520056       -14.1514
  65   2.0000      -0.513047       -13.9607
  66   2.0000      -0.510083       -13.8801
  67   2.0000      -0.502692       -13.6790
  68   2.0000      -0.484931       -13.1957
  69   2.0000      -0.465367       -12.6633
  70   2.0000      -0.452210       -12.3053
  71   2.0000      -0.444112       -12.0849
  72   2.0000      -0.362058        -9.8521
  73   2.0000      -0.356971        -9.7137
  74   2.0000      -0.333303        -9.0696
  75   2.0000      -0.328077        -8.9274
  76   2.0000      -0.318976        -8.6798
  77   0.0000       0.071442         1.9440
  78   0.0000       0.098454         2.6791
  79   0.0000       0.116584         3.1724
  80   0.0000       0.123769         3.3679
  81   0.0000       0.129239         3.5168

MULLIKEN ATOMIC CHARGES
-----------------------
   0 C :   -0.255090
   1 C :    0.016849
   2 O :   -0.344641
   3 C :    0.469601
   4 O :   -0.388916
   5 C :   -0.273966
   6 C :    0.138026
   7 C :   -0.268807
   8 N :   -0.122829
   9 C :    0.217713
  10 S :   -0.435784
  11 N :   -0.206086
  12 C :    0.056049
  13 C :    0.064104
  14 C :   -0.230987
  15 C :   -0.125320
  16 C :   -0.275620
  17 C :    0.317351
  18 O :   -0.355850
  19 C :   -0.260355
  20 H :    0.086601
  21 H :    0.097999
  22 H :    0.103536
  23 H :    0.097499
  24 H :    0.099272
  25 H :    0.126000
  26 H :    0.140935
  27 H :    0.093905
  28 H :    0.199424
  29 H :    0.190491
  30 H :    0.158124
  31 H :    0.156820
  32 H :    0.163650
  33 H :    0.133165
  34 H :    0.243078
  35 H :    0.174063
Sum of atomic charges:   -0.0000000

LOEWDIN ATOMIC CHARGES
----------------------
   0 C :    0.109045
   1 C :   -0.028494
   2 O :    0.299376
   3 C :   -0.426667
   4 O :    0.118821
   5 C :   -0.099079
   6 C :   -0.056341
   7 C :    0.130203
   8 N :    0.409064
   9 C :   -0.453741
  10 S :   -0.030264
  11 N :    0.396003
  12 C :   -0.051605
  13 C :   -0.036505
  14 C :    0.007147
  15 C :    0.043579
  16 C :   -0.000434
  17 C :   -0.189302
  18 O :    0.396557
  19 C :    0.028516
  20 H :   -0.027943
  21 H :   -0.025908
  22 H :   -0.023615
  23 H :   -0.031125
  24 H :   -0.033376
  25 H :   -0.006062
  26 H :   -0.001576
  27 H :   -0.023153
  28 H :   -0.056785
  29 H :   -0.067486
  30 H :   -0.004905
  31 H :   -0.031605
  32 H :   -0.018747
  33 H :   -0.033947
  34 H :   -0.151466
  35 H :   -0.028177

  Mayer bond orders larger than 0.100000
B(  0-C ,  1-C ) :   0.9850 B(  0-C , 20-H ) :   0.9778 B(  0-C , 21-H ) :   0.9804
B(  0-C , 22-H ) :   0.9784 B(  1-C ,  2-O ) :   0.8825 B(  1-C , 23-H ) :   0.9660
B(  1-C , 24-H ) :   0.9728 B(  2-O ,  3-C ) :   1.1411 B(  3-C ,  4-O ) :   2.0591
B(  3-C ,  5-C ) :   1.0206 B(  5-C ,  6-C ) :   1.6454 B(  5-C , 12-C ) :   0.9616
B(  6-C ,  7-C ) :   0.9766 B(  6-C ,  8-N ) :   1.1524 B(  7-C , 25-H ) :   0.9651
B(  7-C , 26-H ) :   0.9533 B(  7-C , 27-H ) :   0.9873 B(  8-N ,  9-C ) :   1.1842
B(  8-N , 28-H ) :   0.9484 B(  9-C , 10-S ) :   1.6121 B(  9-C , 11-N ) :   1.2982
B( 11-N , 12-C ) :   0.9516 B( 11-N , 29-H ) :   0.9534 B( 12-C , 13-C ) :   0.9580
B( 12-C , 30-H ) :   0.9972 B( 13-C , 14-C ) :   1.3407 B( 13-C , 19-C ) :   1.3646
B( 14-C , 15-C ) :   1.3978 B( 14-C , 31-H ) :   0.9731 B( 15-C , 16-C ) :   1.3644
B( 15-C , 32-H ) :   0.9694 B( 16-C , 17-C ) :   1.3335 B( 16-C , 33-H ) :   0.9838
B( 17-C , 18-O ) :   1.1172 B( 17-C , 19-C ) :   1.3655 B( 18-O , 34-H ) :   0.9783
B( 19-C , 35-H ) :   0.9531

MP2 TOTAL ENERGY:    -1274.331852961 Eh
FINAL SINGLE POINT ENERGY     -1274.331852961087

DIPOLE MOMENT
-------------
                                X             Y             Z
Electronic contribution:      9.51059      10.04769       5.50849
Nuclear contribution   :    -10.60471     -11.59394      -4.71160
                        -----------------------------------------
Total Dipole Moment    :     -1.09412      -1.54625       0.79689
                        -----------------------------------------
Magnitude (a.u.)       :      2.05500
Magnitude (Debye)      :      5.22339

Rotational constants in cm-1:     0.011280     0.009298     0.006448
Rotational constants in MHz :   338.159464   278.740257   193.293065

                             ****ORCA TERMINATED NORMALLY****
TOTAL RUN TIME: 0 days 2 hours 5 minutes 7 seconds 292 msec
