                         Program Version 4.2.0 -  RELEASE  -
|  1> ! ri-mp2 cc-pvtz cc-pvtz/c TightSCF  NoKeepInts
|  2>
|  3> %scf
|  4>   MaxCore 4096
|  5> end
|  6> *xyz  0  1
|  7>     C       15.4404490   13.3959916   16.1015904
|  8>     C       16.2673988   14.4631962   16.8363472
|  9>     O       16.7251753   15.3936084   15.8455904
| 10>     C       16.7711139   16.7499827   16.0358978
| 11>     O       16.3700971   17.4624009   15.1352069
| 12>     C       17.4221863   17.3021675   17.2868673
| 13>     C       17.3509379   18.6286876   17.5849798
| 14>     C       16.5298708   19.6937945   16.8890294
| 15>     N       18.1480895   19.1611508   18.6048314
| 16>     C       19.2366116   18.5202001   19.1358145
| 17>     S       20.3193892   19.2863831   20.1238596
| 18>     N       19.3934951   17.2065778   18.7732096
| 19>     C       18.3223130   16.4034981   18.1583585
| 20>     C       17.5901614   15.6781724   19.2889650
| 21>     C       18.0829237   14.4416746   19.7496022
| 22>     C       17.4351501   13.7512892   20.7873701
| 23>     C       16.2889832   14.3054498   21.3808786
| 24>     C       15.8045624   15.5439688   20.9405763
| 25>     O       14.7021370   16.0865947   21.5152173
| 26>     C       16.4485273   16.2272569   19.9042859
| 27>     H       15.0576237   12.6500521   16.8086334
| 28>     H       16.0534768   12.8787572   15.3528649
| 29>     H       14.5854544   13.8552259   15.5893194
| 30>     H       15.6266801   14.9589510   17.5773520
| 31>     H       17.1137026   13.9788970   17.3353553
| 32>     H       15.5022789   19.3475573   16.7206451
| 33>     H       16.9600656   19.9289581   15.9067211
| 34>     H       16.4687916   20.6272790   17.4606291
| 35>     H       18.0544426   20.1331837   18.8532474
| 36>     H       20.1994618   16.7516546   19.1816642
| 37>     H       18.7949087   15.6566644   17.5047354
| 38>     H       18.9748053   14.0125608   19.3001646
| 39>     H       17.8251146   12.7953693   21.1339183
| 40>     H       15.7869694   13.7778545   22.1856003
| 41>     H       14.4384754   15.5076977   22.2468311
| 42>     H       16.0551764   17.1892918   19.5978402
| 43> *
| 44>
| 45>                          ****END OF INPUT****

CARTESIAN COORDINATES (ANGSTROEM)
---------------------------------
  C     15.440449   13.395992   16.101590
  C     16.267399   14.463196   16.836347
  O     16.725175   15.393608   15.845590
  C     16.771114   16.749983   16.035898
  O     16.370097   17.462401   15.135207
  C     17.422186   17.302167   17.286867
  C     17.350938   18.628688   17.584980
  C     16.529871   19.693794   16.889029
  N     18.148089   19.161151   18.604831
  C     19.236612   18.520200   19.135814
  S     20.319389   19.286383   20.123860
  N     19.393495   17.206578   18.773210
  C     18.322313   16.403498   18.158358
  C     17.590161   15.678172   19.288965
  C     18.082924   14.441675   19.749602
  C     17.435150   13.751289   20.787370
  C     16.288983   14.305450   21.380879
  C     15.804562   15.543969   20.940576
  O     14.702137   16.086595   21.515217
  C     16.448527   16.227257   19.904286
  H     15.057624   12.650052   16.808633
  H     16.053477   12.878757   15.352865
  H     14.585454   13.855226   15.589319
  H     15.626680   14.958951   17.577352
  H     17.113703   13.978897   17.335355
  H     15.502279   19.347557   16.720645
  H     16.960066   19.928958   15.906721
  H     16.468792   20.627279   17.460629
  H     18.054443   20.133184   18.853247
  H     20.199462   16.751655   19.181664
  H     18.794909   15.656664   17.504735
  H     18.974805   14.012561   19.300165
  H     17.825115   12.795369   21.133918
  H     15.786969   13.777855   22.185600
  H     14.438475   15.507698   22.246831
  H     16.055176   17.189292   19.597840

 Total Charge           Charge          ....    0
 Multiplicity           Mult            ....    1
 Number of Electrons    NEL             ....  154
 Basis Dimension        Dim             ....  828

ORBITAL ENERGIES
----------------

  NO   OCC          E(Eh)            E(eV)
   0   2.0000     -91.892686     -2500.5271
   1   2.0000     -20.604908      -560.6880
   2   2.0000     -20.591375      -560.3198
   3   2.0000     -20.539427      -558.9062
   4   2.0000     -15.632986      -425.3952
   5   2.0000     -15.612235      -424.8305
   6   2.0000     -11.393281      -310.0269
   7   2.0000     -11.386687      -309.8475
   8   2.0000     -11.339146      -308.5539
   9   2.0000     -11.322739      -308.1074
  10   2.0000     -11.319004      -308.0057
  11   2.0000     -11.298285      -307.4420
  12   2.0000     -11.269918      -306.6701
  13   2.0000     -11.264898      -306.5335
  14   2.0000     -11.262902      -306.4791
  15   2.0000     -11.253300      -306.2179
  16   2.0000     -11.250318      -306.1367
  17   2.0000     -11.246823      -306.0416
  18   2.0000     -11.245655      -306.0098
  19   2.0000     -11.227276      -305.5097
  20   2.0000      -8.897653      -242.1175
  21   2.0000      -6.579208      -179.0293
  22   2.0000      -6.577226      -178.9754
  23   2.0000      -6.576622      -178.9590
  24   2.0000      -1.444323       -39.3020
  25   2.0000      -1.424475       -38.7619
  26   2.0000      -1.352701       -36.8089
  27   2.0000      -1.345080       -36.6015
  28   2.0000      -1.243573       -33.8394
  29   2.0000      -1.165427       -31.7129
  30   2.0000      -1.122236       -30.5376
  31   2.0000      -1.048870       -28.5412
  32   2.0000      -1.035920       -28.1888
  33   2.0000      -1.024278       -27.8720
  34   2.0000      -1.000951       -27.2373
  35   2.0000      -0.987399       -26.8685
  36   2.0000      -0.928410       -25.2633
  37   2.0000      -0.879341       -23.9281
  38   2.0000      -0.852726       -23.2038
  39   2.0000      -0.850002       -23.1297
  40   2.0000      -0.841914       -22.9097
  41   2.0000      -0.833670       -22.6853
  42   2.0000      -0.763959       -20.7884
  43   2.0000      -0.738768       -20.1029
  44   2.0000      -0.718112       -19.5408
  45   2.0000      -0.704946       -19.1826
  46   2.0000      -0.697350       -18.9759
  47   2.0000      -0.677191       -18.4273
  48   2.0000      -0.671382       -18.2692
  49   2.0000      -0.668900       -18.2017
  50   2.0000      -0.653585       -17.7849
  51   2.0000      -0.646703       -17.5977
  52   2.0000      -0.643053       -17.4984
  53   2.0000      -0.617488       -16.8027
  54   2.0000      -0.607859       -16.5407
  55   2.0000      -0.603273       -16.4159
  56   2.0000      -0.590133       -16.0583
  57   2.0000      -0.584889       -15.9156
  58   2.0000      -0.573571       -15.6077
  59   2.0000      -0.569068       -15.4851
  60   2.0000      -0.565886       -15.3985
  61   2.0000      -0.548740       -14.9320
  62   2.0000      -0.539682       -14.6855
  63   2.0000      -0.534744       -14.5511
  64   2.0000      -0.520684       -14.1685
  65   2.0000      -0.515993       -14.0409
  66   2.0000      -0.511207       -13.9106
  67   2.0000      -0.503299       -13.6955
  68   2.0000      -0.483291       -13.1510
  69   2.0000      -0.465560       -12.6685
  70   2.0000      -0.452236       -12.3060
  71   2.0000      -0.443420       -12.0661
  72   2.0000      -0.362811        -9.8726
  73   2.0000      -0.357212        -9.7202
  74   2.0000      -0.333529        -9.0758
  75   2.0000      -0.328205        -8.9309
  76   2.0000      -0.319091        -8.6829
  77   0.0000       0.072490         1.9726
  78   0.0000       0.098158         2.6710
  79   0.0000       0.115042         3.1305
  80   0.0000       0.123333         3.3561
  81   0.0000       0.129311         3.5187

MULLIKEN ATOMIC CHARGES
-----------------------
   0 C :   -0.255979
   1 C :    0.019234
   2 O :   -0.320321
   3 C :    0.452647
   4 O :   -0.389346
   5 C :   -0.268377
   6 C :    0.137886
   7 C :   -0.268958
   8 N :   -0.122675
   9 C :    0.217365
  10 S :   -0.435635
  11 N :   -0.206382
  12 C :    0.051736
  13 C :    0.059562
  14 C :   -0.227384
  15 C :   -0.129371
  16 C :   -0.275944
  17 C :    0.317965
  18 O :   -0.355739
  19 C :   -0.257751
  20 H :    0.087391
  21 H :    0.099288
  22 H :    0.103865
  23 H :    0.101257
  24 H :    0.085492
  25 H :    0.125467
  26 H :    0.142516
  27 H :    0.093498
  28 H :    0.199580
  29 H :    0.189829
  30 H :    0.160450
  31 H :    0.156216
  32 H :    0.163089
  33 H :    0.132903
  34 H :    0.243160
  35 H :    0.173466
Sum of atomic charges:    0.0000000

LOEWDIN ATOMIC CHARGES
----------------------
   0 C :    0.110846
   1 C :   -0.031898
   2 O :    0.304481
   3 C :   -0.423849
   4 O :    0.116871
   5 C :   -0.097816
   6 C :   -0.055826
   7 C :    0.129490
   8 N :    0.409549
   9 C :   -0.453718
  10 S :   -0.029759
  11 N :    0.396184
  12 C :   -0.053164
  13 C :   -0.036500
  14 C :    0.005663
  15 C :    0.043989
  16 C :   -0.000809
  17 C :   -0.189068
  18 O :    0.396618
  19 C :    0.027194
  20 H :   -0.026810
  21 H :   -0.025698
  22 H :   -0.023509
  23 H :   -0.030379
  24 H :   -0.036515
  25 H :   -0.006262
  26 H :   -0.001472
  27 H :   -0.023293
  28 H :   -0.056546
  29 H :   -0.067934
  30 H :   -0.005344
  31 H :   -0.032055
  32 H :   -0.018555
  33 H :   -0.034042
  34 H :   -0.151356
  35 H :   -0.028709

  Mayer bond orders larger than 0.100000
B(  0-C ,  1-C ) :   0.9846 B(  0-C , 20-H ) :   0.9777 B(  0-C , 21-H ) :   0.9801
B(  0-C , 22-H ) :   0.9793 B(  1-C ,  2-O ) :   0.8955 B(  1-C , 23-H ) :   0.9648
B(  1-C , 24-H ) :   0.9716 B(  2-O ,  3-C ) :   1.1691 B(  3-C ,  4-O ) :   2.0639
B(  3-C ,  5-C ) :   1.0064 B(  5-C ,  6-C ) :   1.6434 B(  5-C , 12-C ) :   0.9613
B(  6-C ,  7-C ) :   0.9772 B(  6-C ,  8-N ) :   1.1496 B(  7-C , 25-H ) :   0.9659
B(  7-C , 26-H ) :   0.9526 B(  7-C , 27-H ) :   0.9868 B(  8-N ,  9-C ) :   1.1873
B(  8-N , 28-H ) :   0.9486 B(  9-C , 10-S ) :   1.6123 B(  9-C , 11-N ) :   1.2950
B( 11-N , 12-C ) :   0.9522 B( 11-N , 29-H ) :   0.9536 B( 12-C , 13-C ) :   0.9598
B( 12-C , 30-H ) :   0.9985 B( 13-C , 14-C ) :   1.3367 B( 13-C , 19-C ) :   1.3685
B( 14-C , 15-C ) :   1.4075 B( 14-C , 31-H ) :   0.9723 B( 15-C , 16-C ) :   1.3618
B( 15-C , 32-H ) :   0.9694 B( 16-C , 17-C ) :   1.3362 B( 16-C , 33-H ) :   0.9839
B( 17-C , 18-O ) :   1.1171 B( 17-C , 19-C ) :   1.3624 B( 18-O , 34-H ) :   0.9782
B( 19-C , 35-H ) :   0.9518

MP2 TOTAL ENERGY:    -1274.331843452 Eh
FINAL SINGLE POINT ENERGY     -1274.331843452050

DIPOLE MOMENT
-------------
                                X             Y             Z
Electronic contribution:      9.02245      10.23528       5.02715
Nuclear contribution   :    -10.11688     -11.81011      -4.11070
                        -----------------------------------------
Total Dipole Moment    :     -1.09443      -1.57483       0.91645
                        -----------------------------------------
Magnitude (a.u.)       :      2.12550
Magnitude (Debye)      :      5.40259

Rotational constants in cm-1:     0.011102     0.009321     0.006475
Rotational constants in MHz :   332.829145   279.429179   194.120647

                             ****ORCA TERMINATED NORMALLY****
TOTAL RUN TIME: 0 days 1 hours 52 minutes 25 seconds 312 msec
