                         Program Version 5.0.0 -  RELEASE  -
|  1> ! ri-mp2 cc-pvtz cc-pvtz/c TightSCF NoKeepInts
|  2>
|  3> %scf
|  4>   MaxCore 4096
|  5> end
|  6> *xyz  0  1
|  7>     C       15.8187584   13.5281918   17.3873202
|  8>     C       16.2767532   14.1740727   16.0705119
|  9>     O       17.3841645   15.0619480   16.3345458
| 10>     C       17.2220997   16.4011162   16.1097250
| 11>     O       16.5464675   16.8043230   15.1784362
| 12>     C       17.6392071   17.2592337   17.2736239
| 13>     C       17.3850993   18.5931148   17.3226162
| 14>     C       16.6074891   19.4217380   16.3222089
| 15>     N       17.9155155   19.3675750   18.3595474
| 16>     C       18.8695917   18.9342022   19.2417097
| 17>     S       19.5968329   19.9561653   20.3200822
| 18>     N       19.2057353   17.6063055   19.1689052
| 19>     C       18.4597735   16.5981383   18.3944121
| 20>     C       17.6147985   15.7721123   19.3583925
| 21>     C       18.0708649   14.5128463   19.7915624
| 22>     C       17.3229631   13.7579287   20.7110161
| 23>     C       16.1118819   14.2689747   21.2076849
| 24>     C       15.6613992   15.5285888   20.7897701
| 25>     O       14.4955554   16.0276348   21.2718726
| 26>     C       16.4076977   16.2778579   19.8749383
| 27>     H       16.6483871   12.9977020   17.8690638
| 28>     H       15.0158187   12.8054039   17.1994966
| 29>     H       15.4345180   14.2869665   18.0781835
| 30>     H       16.6023822   13.3880285   15.3771522
| 31>     H       15.4293128   14.6979316   15.6075190
| 32>     H       15.5915995   19.0250541   16.1994684
| 33>     H       17.0915610   19.3920437   15.3376705
| 34>     H       16.5166073   20.4742591   16.6150373
| 35>     H       17.6884221   20.3475662   18.4151128
| 36>     H       19.8929377   17.3085174   19.8490377
| 37>     H       19.1941728   15.9306307   17.9218198
| 38>     H       19.0091458   14.1167721   19.4125159
| 39>     H       17.6833093   12.7838329   21.0373315
| 40>     H       15.5311633   13.6901615   21.9183828
| 41>     H       14.1576389   15.3980170   21.9264770
| 42>     H       16.0473751   17.2570449   19.5808498
| 43> *
| 44>
| 45>                          ****END OF INPUT****

CARTESIAN COORDINATES (ANGSTROEM)
---------------------------------
  C     15.818758   13.528192   17.387320
  C     16.276753   14.174073   16.070512
  O     17.384165   15.061948   16.334546
  C     17.222100   16.401116   16.109725
  O     16.546467   16.804323   15.178436
  C     17.639207   17.259234   17.273624
  C     17.385099   18.593115   17.322616
  C     16.607489   19.421738   16.322209
  N     17.915516   19.367575   18.359547
  C     18.869592   18.934202   19.241710
  S     19.596833   19.956165   20.320082
  N     19.205735   17.606306   19.168905
  C     18.459774   16.598138   18.394412
  C     17.614798   15.772112   19.358392
  C     18.070865   14.512846   19.791562
  C     17.322963   13.757929   20.711016
  C     16.111882   14.268975   21.207685
  C     15.661399   15.528589   20.789770
  O     14.495555   16.027635   21.271873
  C     16.407698   16.277858   19.874938
  H     16.648387   12.997702   17.869064
  H     15.015819   12.805404   17.199497
  H     15.434518   14.286967   18.078184
  H     16.602382   13.388029   15.377152
  H     15.429313   14.697932   15.607519
  H     15.591599   19.025054   16.199468
  H     17.091561   19.392044   15.337670
  H     16.516607   20.474259   16.615037
  H     17.688422   20.347566   18.415113
  H     19.892938   17.308517   19.849038
  H     19.194173   15.930631   17.921820
  H     19.009146   14.116772   19.412516
  H     17.683309   12.783833   21.037332
  H     15.531163   13.690162   21.918383
  H     14.157639   15.398017   21.926477
  H     16.047375   17.257045   19.580850

 Total Charge           Charge          ....    0
 Multiplicity           Mult            ....    1
 Number of Electrons    NEL             ....  154
 Basis Dimension        Dim             ....  828

ORBITAL ENERGIES
----------------

  NO   OCC          E(Eh)            E(eV)
   0   2.0000     -91.889638     -2500.4442
   1   2.0000     -20.599500      -560.5409
   2   2.0000     -20.593441      -560.3760
   3   2.0000     -20.543284      -559.0112
   4   2.0000     -15.630391      -425.3246
   5   2.0000     -15.608326      -424.7241
   6   2.0000     -11.394252      -310.0533
   7   2.0000     -11.384222      -309.7804
   8   2.0000     -11.337110      -308.4984
   9   2.0000     -11.316624      -307.9410
  10   2.0000     -11.310133      -307.7644
  11   2.0000     -11.293601      -307.3145
  12   2.0000     -11.261854      -306.4506
  13   2.0000     -11.259834      -306.3957
  14   2.0000     -11.257838      -306.3413
  15   2.0000     -11.252641      -306.1999
  16   2.0000     -11.245460      -306.0045
  17   2.0000     -11.240025      -305.8566
  18   2.0000     -11.239911      -305.8535
  19   2.0000     -11.220355      -305.3214
  20   2.0000      -8.894666      -242.0362
  21   2.0000      -6.576234      -178.9484
  22   2.0000      -6.574239      -178.8941
  23   2.0000      -6.573646      -178.8780
  24   2.0000      -1.448698       -39.4211
  25   2.0000      -1.419158       -38.6172
  26   2.0000      -1.352102       -36.7926
  27   2.0000      -1.341351       -36.5000
  28   2.0000      -1.239543       -33.7297
  29   2.0000      -1.159490       -31.5513
  30   2.0000      -1.120681       -30.4953
  31   2.0000      -1.043819       -28.4038
  32   2.0000      -1.034496       -28.1501
  33   2.0000      -1.017826       -27.6965
  34   2.0000      -0.996928       -27.1278
  35   2.0000      -0.984795       -26.7976
  36   2.0000      -0.923870       -25.1398
  37   2.0000      -0.887362       -24.1463
  38   2.0000      -0.847749       -23.0684
  39   2.0000      -0.840421       -22.8690
  40   2.0000      -0.835519       -22.7356
  41   2.0000      -0.816201       -22.2099
  42   2.0000      -0.761046       -20.7091
  43   2.0000      -0.734079       -19.9753
  44   2.0000      -0.720817       -19.6144
  45   2.0000      -0.698385       -19.0040
  46   2.0000      -0.689425       -18.7602
  47   2.0000      -0.678403       -18.4603
  48   2.0000      -0.671337       -18.2680
  49   2.0000      -0.666381       -18.1332
  50   2.0000      -0.648059       -17.6346
  51   2.0000      -0.645236       -17.5578
  52   2.0000      -0.637765       -17.3545
  53   2.0000      -0.610430       -16.6106
  54   2.0000      -0.603021       -16.4090
  55   2.0000      -0.599900       -16.3241
  56   2.0000      -0.585651       -15.9364
  57   2.0000      -0.578550       -15.7432
  58   2.0000      -0.571416       -15.5490
  59   2.0000      -0.567188       -15.4340
  60   2.0000      -0.565224       -15.3805
  61   2.0000      -0.550508       -14.9801
  62   2.0000      -0.537204       -14.6181
  63   2.0000      -0.527757       -14.3610
  64   2.0000      -0.521910       -14.2019
  65   2.0000      -0.513329       -13.9684
  66   2.0000      -0.503420       -13.6988
  67   2.0000      -0.495393       -13.4803
  68   2.0000      -0.483353       -13.1527
  69   2.0000      -0.462796       -12.5933
  70   2.0000      -0.451015       -12.2728
  71   2.0000      -0.446738       -12.1564
  72   2.0000      -0.356985        -9.7140
  73   2.0000      -0.352038        -9.5795
  74   2.0000      -0.329247        -8.9593
  75   2.0000      -0.323903        -8.8138
  76   2.0000      -0.316563        -8.6141
  77   0.0000       0.072660         1.9772
  78   0.0000       0.104177         2.8348
  79   0.0000       0.122493         3.3332
  80   0.0000       0.130420         3.5489
  81   0.0000       0.134010         3.6466

MULLIKEN ATOMIC CHARGES
-----------------------
   0 C :   -0.296867
   1 C :    0.039084
   2 O :   -0.371084
   3 C :    0.476723
   4 O :   -0.423248
   5 C :   -0.244524
   6 C :    0.148848
   7 C :   -0.269245
   8 N :   -0.123010
   9 C :    0.215772
  10 S :   -0.439152
  11 N :   -0.204567
  12 C :    0.044605
  13 C :    0.090233
  14 C :   -0.210723
  15 C :   -0.121779
  16 C :   -0.272540
  17 C :    0.306276
  18 O :   -0.359381
  19 C :   -0.258776
  20 H :    0.098331
  21 H :    0.110286
  22 H :    0.104702
  23 H :    0.102400
  24 H :    0.103923
  25 H :    0.129247
  26 H :    0.134221
  27 H :    0.094637
  28 H :    0.198501
  29 H :    0.192728
  30 H :    0.149948
  31 H :    0.149486
  32 H :    0.163531
  33 H :    0.132275
  34 H :    0.241570
  35 H :    0.167570
Sum of atomic charges:    0.0000000

LOEWDIN ATOMIC CHARGES
----------------------
   0 C :    0.103746
   1 C :   -0.011625
   2 O :    0.292196
   3 C :   -0.416055
   4 O :    0.104558
   5 C :   -0.096364
   6 C :   -0.057648
   7 C :    0.130769
   8 N :    0.407522
   9 C :   -0.455166
  10 S :   -0.034017
  11 N :    0.396301
  12 C :   -0.053447
  13 C :   -0.035027
  14 C :    0.014731
  15 C :    0.044951
  16 C :   -0.001059
  17 C :   -0.190201
  18 O :    0.396128
  19 C :    0.029354
  20 H :   -0.029663
  21 H :   -0.026633
  22 H :   -0.026843
  23 H :   -0.028978
  24 H :   -0.028274
  25 H :   -0.005511
  26 H :   -0.003185
  27 H :   -0.023381
  28 H :   -0.057544
  29 H :   -0.066006
  30 H :   -0.007532
  31 H :   -0.031050
  32 H :   -0.020647
  33 H :   -0.035037
  34 H :   -0.153076
  35 H :   -0.026287

  Mayer bond orders larger than 0.100000
B(  0-C ,  1-C ) :   0.9725 B(  0-C , 20-H ) :   0.9734 B(  0-C , 21-H ) :   0.9782
B(  0-C , 22-H ) :   0.9728 B(  1-C ,  2-O ) :   0.8855 B(  1-C , 23-H ) :   0.9877
B(  1-C , 24-H ) :   0.9725 B(  2-O ,  3-C ) :   1.1372 B(  3-C ,  4-O ) :   1.9865
B(  3-C ,  5-C ) :   1.0662 B(  5-C ,  6-C ) :   1.6500 B(  5-C , 12-C ) :   0.9761
B(  6-C ,  7-C ) :   0.9705 B(  6-C ,  8-N ) :   1.1570 B(  7-C , 25-H ) :   0.9622
B(  7-C , 26-H ) :   0.9578 B(  7-C , 27-H ) :   0.9898 B(  8-N ,  9-C ) :   1.1803
B(  8-N , 28-H ) :   0.9480 B(  9-C , 10-S ) :   1.6074 B(  9-C , 11-N ) :   1.3057
B( 11-N , 12-C ) :   0.9624 B( 11-N , 29-H ) :   0.9537 B( 12-C , 13-C ) :   0.9470
B( 12-C , 30-H ) :   1.0021 B( 13-C , 14-C ) :   1.3438 B( 13-C , 19-C ) :   1.3720
B( 14-C , 15-C ) :   1.3828 B( 14-C , 31-H ) :   0.9757 B( 15-C , 16-C ) :   1.3654
B( 15-C , 32-H ) :   0.9699 B( 16-C , 17-C ) :   1.3300 B( 16-C , 33-H ) :   0.9843
B( 17-C , 18-O ) :   1.1122 B( 17-C , 19-C ) :   1.3733 B( 18-O , 34-H ) :   0.9793
B( 19-C , 35-H ) :   0.9574

MP2 TOTAL ENERGY:    -1274.341155975 Eh
FINAL SINGLE POINT ENERGY     -1274.341155974680

DIPOLE MOMENT
-------------
                                X             Y             Z
Electronic contribution:      8.38109      10.96699       4.98174
Nuclear contribution   :     -9.37415     -12.60514      -5.00562
                        -----------------------------------------
Total Dipole Moment    :     -0.99305      -1.63815      -0.02388
                        -----------------------------------------
Magnitude (a.u.)       :      1.91579
Magnitude (Debye)      :      4.86956

Rotational constants in cm-1:     0.012084     0.009149     0.006485
Rotational constants in MHz :   362.266306   274.279763   194.410508

                             ****ORCA TERMINATED NORMALLY****
TOTAL RUN TIME: 0 days 1 hours 37 minutes 24 seconds 590 msec
