                         Program Version 4.2.0 -  RELEASE  -
|  1> ! ri-mp2 cc-pvtz cc-pvtz/c TightSCF  NoKeepInts
|  2>
|  3> %scf
|  4>   MaxCore 4096
|  5> end
|  6> *xyz  0  1
|  7>     C       15.2465459   15.0679147   17.2481257
|  8>     C       16.2539339   14.2643269   16.4010436
|  9>     O       17.6185888   14.7457744   16.4667697
| 10>     C       17.9141275   16.0321850   16.1187119
| 11>     O       17.6962539   16.3811192   14.9723818
| 12>     C       17.8431574   16.9928179   17.2739436
| 13>     C       17.3701704   18.2595524   17.1518841
| 14>     C       16.6776889   18.8734179   15.9540200
| 15>     N       17.5648832   19.1768505   18.1892367
| 16>     C       18.4390839   18.9901749   19.2281778
| 17>     S       18.7924731   20.1948049   20.3045665
| 18>     N       19.0074722   17.7443942   19.3286009
| 19>     C       18.5611027   16.5623279   18.5655250
| 20>     C       17.7438010   15.6432053   19.4705671
| 21>     C       18.0380110   14.2675431   19.5316972
| 22>     C       17.3111668   13.4149681   20.3794171
| 23>     C       16.2858191   13.9418520   21.1825982
| 24>     C       15.9950165   15.3118126   21.1342658
| 25>     O       15.0032138   15.8229766   21.9058403
| 26>     C       16.7173580   16.1576735   20.2864850
| 27>     H       15.4219327   14.9151937   18.3151944
| 28>     H       14.2283884   14.7182328   17.0391289
| 29>     H       15.2752345   16.1390552   17.0222829
| 30>     H       16.2290081   13.2149668   16.7216993
| 31>     H       15.9251938   14.2912210   15.3532518
| 32>     H       17.3970932   19.0471974   15.1434077
| 33>     H       16.1935000   19.8292229   16.1858195
| 34>     H       15.9037655   18.2010111   15.5636388
| 35>     H       17.1680685   20.1002363   18.1176701
| 36>     H       19.6284815   17.6257005   20.1189162
| 37>     H       19.4643144   16.0117597   18.2668141
| 38>     H       18.8295937   13.8548376   18.9114181
| 39>     H       17.5454289   12.3523094   20.4136830
| 40>     H       15.7225904   13.2874330   21.8398434
| 41>     H       14.6613013   15.1035857   22.4576822
| 42>     H       16.4732371   17.2143446   20.2696915
| 43> *
| 44>
| 45>                          ****END OF INPUT****

CARTESIAN COORDINATES (ANGSTROEM)
---------------------------------
  C     15.246546   15.067915   17.248126
  C     16.253934   14.264327   16.401044
  O     17.618589   14.745774   16.466770
  C     17.914127   16.032185   16.118712
  O     17.696254   16.381119   14.972382
  C     17.843157   16.992818   17.273944
  C     17.370170   18.259552   17.151884
  C     16.677689   18.873418   15.954020
  N     17.564883   19.176851   18.189237
  C     18.439084   18.990175   19.228178
  S     18.792473   20.194805   20.304566
  N     19.007472   17.744394   19.328601
  C     18.561103   16.562328   18.565525
  C     17.743801   15.643205   19.470567
  C     18.038011   14.267543   19.531697
  C     17.311167   13.414968   20.379417
  C     16.285819   13.941852   21.182598
  C     15.995016   15.311813   21.134266
  O     15.003214   15.822977   21.905840
  C     16.717358   16.157674   20.286485
  H     15.421933   14.915194   18.315194
  H     14.228388   14.718233   17.039129
  H     15.275234   16.139055   17.022283
  H     16.229008   13.214967   16.721699
  H     15.925194   14.291221   15.353252
  H     17.397093   19.047197   15.143408
  H     16.193500   19.829223   16.185820
  H     15.903766   18.201011   15.563639
  H     17.168069   20.100236   18.117670
  H     19.628481   17.625701   20.118916
  H     19.464314   16.011760   18.266814
  H     18.829594   13.854838   18.911418
  H     17.545429   12.352309   20.413683
  H     15.722590   13.287433   21.839843
  H     14.661301   15.103586   22.457682
  H     16.473237   17.214345   20.269691

 Total Charge           Charge          ....    0
 Multiplicity           Mult            ....    1
 Number of Electrons    NEL             ....  154
 Basis Dimension        Dim             ....  828

ORBITAL ENERGIES
----------------

  NO   OCC          E(Eh)            E(eV)
   0   2.0000     -91.891193     -2500.4865
   1   2.0000     -20.598267      -560.5073
   2   2.0000     -20.578512      -559.9698
   3   2.0000     -20.555706      -559.3492
   4   2.0000     -15.630337      -425.3231
   5   2.0000     -15.609750      -424.7629
   6   2.0000     -11.394851      -310.0697
   7   2.0000     -11.385590      -309.8177
   8   2.0000     -11.335258      -308.4481
   9   2.0000     -11.315629      -307.9139
  10   2.0000     -11.313613      -307.8590
  11   2.0000     -11.300902      -307.5132
  12   2.0000     -11.261915      -306.4523
  13   2.0000     -11.261094      -306.4299
  14   2.0000     -11.257252      -306.3254
  15   2.0000     -11.255092      -306.2666
  16   2.0000     -11.245768      -306.0129
  17   2.0000     -11.240341      -305.8652
  18   2.0000     -11.239592      -305.8449
  19   2.0000     -11.224361      -305.4304
  20   2.0000      -8.896210      -242.0782
  21   2.0000      -6.577776      -178.9904
  22   2.0000      -6.575781      -178.9361
  23   2.0000      -6.575184      -178.9199
  24   2.0000      -1.448914       -39.4270
  25   2.0000      -1.418096       -38.5883
  26   2.0000      -1.351109       -36.7655
  27   2.0000      -1.341731       -36.5103
  28   2.0000      -1.240065       -33.7439
  29   2.0000      -1.158945       -31.5365
  30   2.0000      -1.121035       -30.5049
  31   2.0000      -1.044434       -28.4205
  32   2.0000      -1.032456       -28.0946
  33   2.0000      -1.017398       -27.6848
  34   2.0000      -1.000357       -27.2211
  35   2.0000      -0.986989       -26.8573
  36   2.0000      -0.925046       -25.1718
  37   2.0000      -0.894665       -24.3451
  38   2.0000      -0.848312       -23.0837
  39   2.0000      -0.841995       -22.9118
  40   2.0000      -0.836154       -22.7529
  41   2.0000      -0.818462       -22.2715
  42   2.0000      -0.750444       -20.4206
  43   2.0000      -0.734003       -19.9732
  44   2.0000      -0.724360       -19.7108
  45   2.0000      -0.697433       -18.9781
  46   2.0000      -0.691112       -18.8061
  47   2.0000      -0.676819       -18.4172
  48   2.0000      -0.668139       -18.1810
  49   2.0000      -0.667101       -18.1527
  50   2.0000      -0.650947       -17.7132
  51   2.0000      -0.646560       -17.5938
  52   2.0000      -0.637500       -17.3473
  53   2.0000      -0.614009       -16.7080
  54   2.0000      -0.607874       -16.5411
  55   2.0000      -0.601135       -16.3577
  56   2.0000      -0.600517       -16.3409
  57   2.0000      -0.579394       -15.7661
  58   2.0000      -0.573400       -15.6030
  59   2.0000      -0.564737       -15.3673
  60   2.0000      -0.557696       -15.1757
  61   2.0000      -0.551261       -15.0006
  62   2.0000      -0.540453       -14.7065
  63   2.0000      -0.526740       -14.3333
  64   2.0000      -0.522944       -14.2300
  65   2.0000      -0.515038       -14.0149
  66   2.0000      -0.503162       -13.6917
  67   2.0000      -0.501370       -13.6430
  68   2.0000      -0.474936       -12.9237
  69   2.0000      -0.465072       -12.6552
  70   2.0000      -0.452723       -12.3192
  71   2.0000      -0.445911       -12.1338
  72   2.0000      -0.357695        -9.7334
  73   2.0000      -0.349501        -9.5104
  74   2.0000      -0.330253        -8.9866
  75   2.0000      -0.324270        -8.8238
  76   2.0000      -0.317929        -8.6513
  77   0.0000       0.066554         1.8110
  78   0.0000       0.104212         2.8358
  79   0.0000       0.118115         3.2141
  80   0.0000       0.128595         3.4992
  81   0.0000       0.131638         3.5821

MULLIKEN ATOMIC CHARGES
-----------------------
   0 C :   -0.326089
   1 C :    0.040333
   2 O :   -0.388087
   3 C :    0.467444
   4 O :   -0.389378
   5 C :   -0.226160
   6 C :    0.160824
   7 C :   -0.278042
   8 N :   -0.122659
   9 C :    0.185580
  10 S :   -0.431010
  11 N :   -0.195221
  12 C :    0.028922
  13 C :    0.044916
  14 C :   -0.187578
  15 C :   -0.140174
  16 C :   -0.271335
  17 C :    0.296726
  18 O :   -0.358127
  19 C :   -0.236782
  20 H :    0.119808
  21 H :    0.119070
  22 H :    0.096989
  23 H :    0.113874
  24 H :    0.115397
  25 H :    0.142103
  26 H :    0.095004
  27 H :    0.123186
  28 H :    0.198287
  29 H :    0.191340
  30 H :    0.149106
  31 H :    0.155557
  32 H :    0.162893
  33 H :    0.132605
  34 H :    0.240579
  35 H :    0.170100
Sum of atomic charges:   -0.0000000

LOEWDIN ATOMIC CHARGES
----------------------
   0 C :    0.108114
   1 C :   -0.012712
   2 O :    0.274737
   3 C :   -0.419663
   4 O :    0.134351
   5 C :   -0.094615
   6 C :   -0.065550
   7 C :    0.128736
   8 N :    0.406941
   9 C :   -0.459864
  10 S :   -0.031494
  11 N :    0.396366
  12 C :   -0.052195
  13 C :   -0.040137
  14 C :    0.017470
  15 C :    0.038701
  16 C :   -0.002682
  17 C :   -0.193493
  18 O :    0.396679
  19 C :    0.031826
  20 H :   -0.028427
  21 H :   -0.023216
  22 H :   -0.033169
  23 H :   -0.021115
  24 H :   -0.029053
  25 H :   -0.003233
  26 H :   -0.022421
  27 H :   -0.010230
  28 H :   -0.057998
  29 H :   -0.065151
  30 H :   -0.006408
  31 H :   -0.028310
  32 H :   -0.020383
  33 H :   -0.034953
  34 H :   -0.153597
  35 H :   -0.023854

  Mayer bond orders larger than 0.100000
B(  0-C ,  1-C ) :   0.9600 B(  0-C , 20-H ) :   0.9701 B(  0-C , 21-H ) :   0.9783
B(  0-C , 22-H ) :   0.9721 B(  1-C ,  2-O ) :   0.8795 B(  1-C , 23-H ) :   0.9818
B(  1-C , 24-H ) :   0.9845 B(  2-O ,  3-C ) :   1.1021 B(  3-C ,  4-O ) :   2.0303
B(  3-C ,  5-C ) :   1.0286 B(  5-C ,  6-C ) :   1.6675 B(  5-C , 12-C ) :   0.9683
B(  6-C ,  7-C ) :   0.9670 B(  6-C ,  8-N ) :   1.1289 B(  7-C , 25-H ) :   0.9571
B(  7-C , 26-H ) :   0.9863 B(  7-C , 27-H ) :   0.9678 B(  8-N ,  9-C ) :   1.1800
B(  8-N , 28-H ) :   0.9491 B(  9-C , 10-S ) :   1.6225 B(  9-C , 11-N ) :   1.2928
B( 11-N , 12-C ) :   0.9884 B( 11-N , 29-H ) :   0.9531 B( 12-C , 13-C ) :   0.9347
B( 12-C , 30-H ) :   1.0089 B( 13-C , 14-C ) :   1.3734 B( 13-C , 19-C ) :   1.3633
B( 14-C , 15-C ) :   1.3910 B( 14-C , 31-H ) :   0.9663 B( 15-C , 16-C ) :   1.3600
B( 15-C , 32-H ) :   0.9705 B( 16-C , 17-C ) :   1.3318 B( 16-C , 33-H ) :   0.9844
B( 17-C , 18-O ) :   1.1135 B( 17-C , 19-C ) :   1.3773 B( 18-O , 34-H ) :   0.9797
B( 19-C , 35-H ) :   0.9571

MP2 TOTAL ENERGY:    -1274.315043207 Eh
FINAL SINGLE POINT ENERGY     -1274.315043206904

DIPOLE MOMENT
-------------
                                X             Y             Z
Electronic contribution:      9.88879       8.01912       5.94863
Nuclear contribution   :    -11.03502      -9.65551      -6.00471
                        -----------------------------------------
Total Dipole Moment    :     -1.14622      -1.63639      -0.05608
                        -----------------------------------------
Magnitude (a.u.)       :      1.99869
Magnitude (Debye)      :      5.08026

Rotational constants in cm-1:     0.011630     0.010131     0.006572
Rotational constants in MHz :   348.666028   303.707913   197.014398

                             ****ORCA TERMINATED NORMALLY****
TOTAL RUN TIME: 0 days 1 hours 52 minutes 57 seconds 897 msec
