                         Program Version 5.0.0 -  RELEASE  -
|  1> ! ri-mp2 cc-pvtz cc-pvtz/c TightSCF NoKeepInts
|  2>
|  3> %scf
|  4>   MaxCore 4096
|  5> end
|  6> *xyz  0  1
|  7>     C       15.1315100   14.1035617   15.3989927
|  8>     C       16.1233640   13.9662337   16.5740387
|  9>     O       17.0428173   15.0768329   16.7194190
| 10>     C       16.7246529   16.4062269   16.5955716
| 11>     O       15.7993845   16.8260378   15.9242977
| 12>     C       17.5340834   17.2656333   17.5301066
| 13>     C       17.4232502   18.6188129   17.5561458
| 14>     C       16.5219304   19.4839586   16.7009332
| 15>     N       18.2240614   19.3724077   18.4196431
| 16>     C       19.2235082   18.8652987   19.2059502
| 17>     S       20.1885798   19.8389793   20.1314699
| 18>     N       19.3872662   17.5040917   19.1847924
| 19>     C       18.5013175   16.5519856   18.4908027
| 20>     C       17.7618131   15.6982841   19.5175268
| 21>     C       18.0687642   14.3320679   19.6618874
| 22>     C       17.3855488   13.5410185   20.6008269
| 23>     C       16.3895862   14.1211968   21.4048115
| 24>     C       16.0856414   15.4826824   21.2680168
| 25>     O       15.1260286   16.0461172   22.0442774
| 26>     C       16.7666780   16.2670853   20.3321103
| 27>     H       14.3327250   14.8183142   15.6322231
| 28>     H       14.6555478   13.1381364   15.1898498
| 29>     H       15.6462322   14.4335285   14.4879089
| 30>     H       15.5472907   13.8553838   17.5023145
| 31>     H       16.7077519   13.0467107   16.4426334
| 32>     H       15.4672643   19.2546396   16.9004841
| 33>     H       16.7014740   19.2940063   15.6351040
| 34>     H       16.6665070   20.5569008   16.8731041
| 35>     H       18.1185987   20.3739614   18.4474735
| 36>     H       20.1075066   17.1565787   19.8046680
| 37>     H       19.1415464   15.8929133   17.8877172
| 38>     H       18.8361317   13.8806140   19.0387391
| 39>     H       17.6295503   12.4851637   20.7047475
| 40>     H       15.8599976   13.5150348   22.1324743
| 41>     H       14.7980218   15.3614513   22.6463077
| 42>     H       16.5210680   17.3201498   20.2466301
| 43> *
| 44>
| 45>                          ****END OF INPUT****

CARTESIAN COORDINATES (ANGSTROEM)
---------------------------------
  C     15.131510   14.103562   15.398993
  C     16.123364   13.966234   16.574039
  O     17.042817   15.076833   16.719419
  C     16.724653   16.406227   16.595572
  O     15.799385   16.826038   15.924298
  C     17.534083   17.265633   17.530107
  C     17.423250   18.618813   17.556146
  C     16.521930   19.483959   16.700933
  N     18.224061   19.372408   18.419643
  C     19.223508   18.865299   19.205950
  S     20.188580   19.838979   20.131470
  N     19.387266   17.504092   19.184792
  C     18.501317   16.551986   18.490803
  C     17.761813   15.698284   19.517527
  C     18.068764   14.332068   19.661887
  C     17.385549   13.541018   20.600827
  C     16.389586   14.121197   21.404811
  C     16.085641   15.482682   21.268017
  O     15.126029   16.046117   22.044277
  C     16.766678   16.267085   20.332110
  H     14.332725   14.818314   15.632223
  H     14.655548   13.138136   15.189850
  H     15.646232   14.433528   14.487909
  H     15.547291   13.855384   17.502314
  H     16.707752   13.046711   16.442633
  H     15.467264   19.254640   16.900484
  H     16.701474   19.294006   15.635104
  H     16.666507   20.556901   16.873104
  H     18.118599   20.373961   18.447474
  H     20.107507   17.156579   19.804668
  H     19.141546   15.892913   17.887717
  H     18.836132   13.880614   19.038739
  H     17.629550   12.485164   20.704747
  H     15.859998   13.515035   22.132474
  H     14.798022   15.361451   22.646308
  H     16.521068   17.320150   20.246630

 Total Charge           Charge          ....    0
 Multiplicity           Mult            ....    1
 Number of Electrons    NEL             ....  154
 Basis Dimension        Dim             ....  828

ORBITAL ENERGIES
----------------

  NO   OCC          E(Eh)            E(eV)
   0   2.0000     -91.888224     -2500.4057
   1   2.0000     -20.597095      -560.4755
   2   2.0000     -20.595419      -560.4298
   3   2.0000     -20.541847      -558.9721
   4   2.0000     -15.628270      -425.2668
   5   2.0000     -15.607510      -424.7019
   6   2.0000     -11.397166      -310.1327
   7   2.0000     -11.383248      -309.7539
   8   2.0000     -11.334904      -308.4384
   9   2.0000     -11.314352      -307.8792
  10   2.0000     -11.308135      -307.7100
  11   2.0000     -11.301399      -307.5267
  12   2.0000     -11.259973      -306.3994
  13   2.0000     -11.257951      -306.3444
  14   2.0000     -11.255827      -306.2866
  15   2.0000     -11.251523      -306.1695
  16   2.0000     -11.243446      -305.9497
  17   2.0000     -11.238635      -305.8188
  18   2.0000     -11.238420      -305.8130
  19   2.0000     -11.220096      -305.3143
  20   2.0000      -8.893295      -241.9989
  21   2.0000      -6.574872      -178.9114
  22   2.0000      -6.572865      -178.8568
  23   2.0000      -6.572280      -178.8408
  24   2.0000      -1.443523       -39.2803
  25   2.0000      -1.416737       -38.5514
  26   2.0000      -1.354509       -36.8581
  27   2.0000      -1.339367       -36.4460
  28   2.0000      -1.237884       -33.6845
  29   2.0000      -1.157685       -31.5022
  30   2.0000      -1.119240       -30.4561
  31   2.0000      -1.042382       -28.3647
  32   2.0000      -1.034831       -28.1592
  33   2.0000      -1.015478       -27.6326
  34   2.0000      -0.994694       -27.0670
  35   2.0000      -0.983034       -26.7497
  36   2.0000      -0.922060       -25.0905
  37   2.0000      -0.894802       -24.3488
  38   2.0000      -0.846856       -23.0441
  39   2.0000      -0.838133       -22.8067
  40   2.0000      -0.834345       -22.7037
  41   2.0000      -0.819322       -22.2949
  42   2.0000      -0.747028       -20.3277
  43   2.0000      -0.730781       -19.8856
  44   2.0000      -0.718507       -19.5516
  45   2.0000      -0.695906       -18.9366
  46   2.0000      -0.687793       -18.7158
  47   2.0000      -0.678046       -18.4506
  48   2.0000      -0.668186       -18.1823
  49   2.0000      -0.658754       -17.9256
  50   2.0000      -0.650474       -17.7003
  51   2.0000      -0.644770       -17.5451
  52   2.0000      -0.634803       -17.2739
  53   2.0000      -0.607328       -16.5262
  54   2.0000      -0.600924       -16.3520
  55   2.0000      -0.598831       -16.2950
  56   2.0000      -0.596246       -16.2247
  57   2.0000      -0.582259       -15.8441
  58   2.0000      -0.575578       -15.6623
  59   2.0000      -0.570357       -15.5202
  60   2.0000      -0.562142       -15.2967
  61   2.0000      -0.538577       -14.6554
  62   2.0000      -0.534907       -14.5556
  63   2.0000      -0.524740       -14.2789
  64   2.0000      -0.521876       -14.2010
  65   2.0000      -0.512601       -13.9486
  66   2.0000      -0.501032       -13.6338
  67   2.0000      -0.498462       -13.5638
  68   2.0000      -0.484043       -13.1715
  69   2.0000      -0.463346       -12.6083
  70   2.0000      -0.453346       -12.3362
  71   2.0000      -0.439036       -11.9468
  72   2.0000      -0.353259        -9.6127
  73   2.0000      -0.349675        -9.5151
  74   2.0000      -0.327761        -8.9188
  75   2.0000      -0.321864        -8.7584
  76   2.0000      -0.315546        -8.5864
  77   0.0000       0.075949         2.0667
  78   0.0000       0.106374         2.8946
  79   0.0000       0.124863         3.3977
  80   0.0000       0.132603         3.6083
  81   0.0000       0.137995         3.7550

MULLIKEN ATOMIC CHARGES
-----------------------
   0 C :   -0.280820
   1 C :    0.046525
   2 O :   -0.374350
   3 C :    0.459926
   4 O :   -0.428072
   5 C :   -0.210180
   6 C :    0.151111
   7 C :   -0.272211
   8 N :   -0.121267
   9 C :    0.213041
  10 S :   -0.441433
  11 N :   -0.205703
  12 C :    0.063249
  13 C :    0.063110
  14 C :   -0.191689
  15 C :   -0.130268
  16 C :   -0.280981
  17 C :    0.316052
  18 O :   -0.356145
  19 C :   -0.268930
  20 H :    0.114039
  21 H :    0.093397
  22 H :    0.101266
  23 H :    0.094948
  24 H :    0.098415
  25 H :    0.131900
  26 H :    0.130050
  27 H :    0.095118
  28 H :    0.197229
  29 H :    0.194568
  30 H :    0.149027
  31 H :    0.151296
  32 H :    0.160857
  33 H :    0.130621
  34 H :    0.240754
  35 H :    0.165550
Sum of atomic charges:   -0.0000000

LOEWDIN ATOMIC CHARGES
----------------------
   0 C :    0.102600
   1 C :   -0.011408
   2 O :    0.293385
   3 C :   -0.412074
   4 O :    0.110189
   5 C :   -0.094498
   6 C :   -0.059421
   7 C :    0.130712
   8 N :    0.406412
   9 C :   -0.456484
  10 S :   -0.036540
  11 N :    0.396289
  12 C :   -0.052533
  13 C :   -0.037726
  14 C :    0.014248
  15 C :    0.038633
  16 C :   -0.002881
  17 C :   -0.189694
  18 O :    0.395442
  19 C :    0.030910
  20 H :   -0.026483
  21 H :   -0.029641
  22 H :   -0.024772
  23 H :   -0.028670
  24 H :   -0.024995
  25 H :   -0.004954
  26 H :   -0.004327
  27 H :   -0.023561
  28 H :   -0.057730
  29 H :   -0.064792
  30 H :   -0.010986
  31 H :   -0.030210
  32 H :   -0.021336
  33 H :   -0.035627
  34 H :   -0.153841
  35 H :   -0.023634

  Mayer bond orders larger than 0.100000
B(  0-C ,  1-C ) :   0.9811 B(  0-C , 20-H ) :   0.9727 B(  0-C , 21-H ) :   0.9758
B(  0-C , 22-H ) :   0.9756 B(  1-C ,  2-O ) :   0.8915 B(  1-C , 23-H ) :   0.9719
B(  1-C , 24-H ) :   0.9819 B(  2-O ,  3-C ) :   1.1252 B(  3-C ,  4-O ) :   1.9800
B(  3-C ,  5-C ) :   1.0703 B(  5-C ,  6-C ) :   1.6546 B(  5-C , 12-C ) :   0.9747
B(  6-C ,  7-C ) :   0.9671 B(  6-C ,  8-N ) :   1.1607 B(  7-C , 25-H ) :   0.9597
B(  7-C , 26-H ) :   0.9609 B(  7-C , 27-H ) :   0.9910 B(  8-N ,  9-C ) :   1.1837
B(  8-N , 28-H ) :   0.9478 B(  9-C , 10-S ) :   1.6054 B(  9-C , 11-N ) :   1.3062
B( 11-N , 12-C ) :   0.9834 B( 11-N , 29-H ) :   0.9516 B( 12-C , 13-C ) :   0.9352
B( 12-C , 30-H ) :   1.0021 B( 13-C , 14-C ) :   1.3528 B( 13-C , 19-C ) :   1.3840
B( 14-C , 15-C ) :   1.3909 B( 14-C , 31-H ) :   0.9726 B( 15-C , 16-C ) :   1.3626
B( 15-C , 32-H ) :   0.9706 B( 16-C , 17-C ) :   1.3312 B( 16-C , 33-H ) :   0.9850
B( 17-C , 18-O ) :   1.1110 B( 17-C , 19-C ) :   1.3712 B( 18-O , 34-H ) :   0.9798
B( 19-C , 35-H ) :   0.9582

MP2 TOTAL ENERGY:    -1274.338318959 Eh
FINAL SINGLE POINT ENERGY     -1274.338318958931

DIPOLE MOMENT
-------------
                                X             Y             Z
Electronic contribution:     10.13987      10.00186       9.04750
Nuclear contribution   :    -11.16094     -11.75460      -9.34580
                        -----------------------------------------
Total Dipole Moment    :     -1.02108      -1.75274      -0.29830
                        -----------------------------------------
Magnitude (a.u.)       :      2.05029
Magnitude (Debye)      :      5.21141

Rotational constants in cm-1:     0.011646     0.008702     0.006110
Rotational constants in MHz :   349.142329   260.889448   183.170500

                             ****ORCA TERMINATED NORMALLY****
TOTAL RUN TIME: 0 days 1 hours 41 minutes 20 seconds 361 msec
