                         Program Version 5.0.0 -  RELEASE  -
|  1> ! ri-mp2 cc-pvtz cc-pvtz/c TightSCF NoKeepInts
|  2>
|  3> %scf
|  4>   MaxCore 4096
|  5> end
|  6> *xyz  0  1
|  7>     C       15.1697811   14.0293623   16.9016447
|  8>     C       16.4953461   13.9910079   16.1109322
|  9>     O       17.3645010   15.0517793   16.5524211
| 10>     C       16.9912661   16.3605535   16.4151487
| 11>     O       16.1722435   16.7202205   15.5862301
| 12>     C       17.6597739   17.2645724   17.4132350
| 13>     C       17.5012349   18.6122629   17.3952461
| 14>     C       16.6756092   19.4245582   16.4206630
| 15>     N       18.1666725   19.4092516   18.3314294
| 16>     C       19.0696836   18.9495356   19.2523662
| 17>     S       19.8761071   19.9718176   20.2724599
| 18>     N       19.2743138   17.5938173   19.2857398
| 19>     C       18.5231169   16.5996308   18.4978432
| 20>     C       17.6902001   15.7251797   19.4309509
| 21>     C       18.0221505   14.3710044   19.6241876
| 22>     C       17.2525568   13.5606347   20.4757855
| 23>     C       16.1431296   14.1089613   21.1416949
| 24>     C       15.8128051   15.4583367   20.9554781
| 25>     O       14.7423811   15.9906439   21.5970501
| 26>     C       16.5807031   16.2623611   20.1076312
| 27>     H       15.3624731   14.0193508   17.9817256
| 28>     H       14.5557022   13.1544714   16.6571536
| 29>     H       14.5840189   14.9252819   16.6621385
| 30>     H       16.9894026   13.0254849   16.2781904
| 31>     H       16.2909897   14.0885834   15.0360466
| 32>     H       16.9974441   19.2337913   15.3889594
| 33>     H       16.7465211   20.5046884   16.5940680
| 34>     H       15.6161134   19.1462143   16.4890971
| 35>     H       18.0294367   20.4073075   18.3216526
| 36>     H       19.9166594   17.2817436   20.0025485
| 37>     H       19.2603172   15.9618266   17.9901563
| 38>     H       18.8756569   13.9431540   19.1051931
| 39>     H       17.5161828   12.5139172   20.6170693
| 40>     H       15.5456477   13.4873058   21.8003932
| 41>     H       14.3647383   15.2976293   22.1591500
| 42>     H       16.3121195   17.3057581   19.9823200
| 43> *
| 44>
| 45>                          ****END OF INPUT****

CARTESIAN COORDINATES (ANGSTROEM)
---------------------------------
  C     15.169781   14.029362   16.901645
  C     16.495346   13.991008   16.110932
  O     17.364501   15.051779   16.552421
  C     16.991266   16.360554   16.415149
  O     16.172244   16.720220   15.586230
  C     17.659774   17.264572   17.413235
  C     17.501235   18.612263   17.395246
  C     16.675609   19.424558   16.420663
  N     18.166673   19.409252   18.331429
  C     19.069684   18.949536   19.252366
  S     19.876107   19.971818   20.272460
  N     19.274314   17.593817   19.285740
  C     18.523117   16.599631   18.497843
  C     17.690200   15.725180   19.430951
  C     18.022150   14.371004   19.624188
  C     17.252557   13.560635   20.475786
  C     16.143130   14.108961   21.141695
  C     15.812805   15.458337   20.955478
  O     14.742381   15.990644   21.597050
  C     16.580703   16.262361   20.107631
  H     15.362473   14.019351   17.981726
  H     14.555702   13.154471   16.657154
  H     14.584019   14.925282   16.662139
  H     16.989403   13.025485   16.278190
  H     16.290990   14.088583   15.036047
  H     16.997444   19.233791   15.388959
  H     16.746521   20.504688   16.594068
  H     15.616113   19.146214   16.489097
  H     18.029437   20.407308   18.321653
  H     19.916659   17.281744   20.002548
  H     19.260317   15.961827   17.990156
  H     18.875657   13.943154   19.105193
  H     17.516183   12.513917   20.617069
  H     15.545648   13.487306   21.800393
  H     14.364738   15.297629   22.159150
  H     16.312120   17.305758   19.982320

 Total Charge           Charge          ....    0
 Multiplicity           Mult            ....    1
 Number of Electrons    NEL             ....  154
 Basis Dimension        Dim             ....  828

ORBITAL ENERGIES
----------------

  NO   OCC          E(Eh)            E(eV)
   0   2.0000     -91.889065     -2500.4286
   1   2.0000     -20.597845      -560.4959
   2   2.0000     -20.597770      -560.4938
   3   2.0000     -20.541579      -558.9648
   4   2.0000     -15.629263      -425.2939
   5   2.0000     -15.608553      -424.7303
   6   2.0000     -11.394798      -310.0682
   7   2.0000     -11.384265      -309.7816
   8   2.0000     -11.336199      -308.4737
   9   2.0000     -11.315309      -307.9052
  10   2.0000     -11.309248      -307.7403
  11   2.0000     -11.297279      -307.4146
  12   2.0000     -11.260861      -306.4236
  13   2.0000     -11.258903      -306.3703
  14   2.0000     -11.256633      -306.3085
  15   2.0000     -11.252257      -306.1895
  16   2.0000     -11.244556      -305.9799
  17   2.0000     -11.239729      -305.8486
  18   2.0000     -11.239327      -305.8376
  19   2.0000     -11.220810      -305.3338
  20   2.0000      -8.894126      -242.0215
  21   2.0000      -6.575700      -178.9339
  22   2.0000      -6.573696      -178.8793
  23   2.0000      -6.573109      -178.8634
  24   2.0000      -1.449246       -39.4360
  25   2.0000      -1.417540       -38.5732
  26   2.0000      -1.353442       -36.8290
  27   2.0000      -1.340228       -36.4695
  28   2.0000      -1.238799       -33.7094
  29   2.0000      -1.158952       -31.5367
  30   2.0000      -1.120882       -30.5007
  31   2.0000      -1.043541       -28.3962
  32   2.0000      -1.033692       -28.1282
  33   2.0000      -1.016449       -27.6590
  34   2.0000      -0.995707       -27.0946
  35   2.0000      -0.984532       -26.7905
  36   2.0000      -0.923106       -25.1190
  37   2.0000      -0.895262       -24.3613
  38   2.0000      -0.847369       -23.0581
  39   2.0000      -0.838777       -22.8243
  40   2.0000      -0.835240       -22.7280
  41   2.0000      -0.815655       -22.1951
  42   2.0000      -0.752044       -20.4642
  43   2.0000      -0.733339       -19.9552
  44   2.0000      -0.723338       -19.6830
  45   2.0000      -0.696910       -18.9639
  46   2.0000      -0.689048       -18.7499
  47   2.0000      -0.677498       -18.4357
  48   2.0000      -0.670913       -18.2565
  49   2.0000      -0.661530       -18.0012
  50   2.0000      -0.649178       -17.6650
  51   2.0000      -0.641192       -17.4477
  52   2.0000      -0.632979       -17.2242
  53   2.0000      -0.613435       -16.6924
  54   2.0000      -0.608140       -16.5483
  55   2.0000      -0.600991       -16.3538
  56   2.0000      -0.599465       -16.3123
  57   2.0000      -0.578505       -15.7419
  58   2.0000      -0.570969       -15.5368
  59   2.0000      -0.567415       -15.4401
  60   2.0000      -0.557576       -15.1724
  61   2.0000      -0.543418       -14.7872
  62   2.0000      -0.533627       -14.5207
  63   2.0000      -0.527380       -14.3508
  64   2.0000      -0.525818       -14.3082
  65   2.0000      -0.513499       -13.9730
  66   2.0000      -0.502093       -13.6626
  67   2.0000      -0.500329       -13.6146
  68   2.0000      -0.480645       -13.0790
  69   2.0000      -0.464967       -12.6524
  70   2.0000      -0.454103       -12.3568
  71   2.0000      -0.445501       -12.1227
  72   2.0000      -0.354499        -9.6464
  73   2.0000      -0.350839        -9.5468
  74   2.0000      -0.328579        -8.9411
  75   2.0000      -0.322885        -8.7862
  76   2.0000      -0.316503        -8.6125
  77   0.0000       0.075546         2.0557
  78   0.0000       0.105342         2.8665
  79   0.0000       0.124627         3.3913
  80   0.0000       0.131829         3.5872
  81   0.0000       0.137573         3.7436

MULLIKEN ATOMIC CHARGES
-----------------------
   0 C :   -0.316655
   1 C :    0.023600
   2 O :   -0.364593
   3 C :    0.468011
   4 O :   -0.434198
   5 C :   -0.231353
   6 C :    0.155079
   7 C :   -0.272178
   8 N :   -0.121573
   9 C :    0.212409
  10 S :   -0.440065
  11 N :   -0.206359
  12 C :    0.066121
  13 C :    0.048380
  14 C :   -0.185505
  15 C :   -0.133834
  16 C :   -0.278447
  17 C :    0.310804
  18 O :   -0.357425
  19 C :   -0.253402
  20 H :    0.110566
  21 H :    0.100369
  22 H :    0.117405
  23 H :    0.113448
  24 H :    0.116953
  25 H :    0.131408
  26 H :    0.095401
  27 H :    0.131846
  28 H :    0.197282
  29 H :    0.195090
  30 H :    0.150660
  31 H :    0.151983
  32 H :    0.160547
  33 H :    0.131002
  34 H :    0.240908
  35 H :    0.166319
Sum of atomic charges:   -0.0000000

LOEWDIN ATOMIC CHARGES
----------------------
   0 C :    0.105072
   1 C :   -0.016892
   2 O :    0.303065
   3 C :   -0.414412
   4 O :    0.097690
   5 C :   -0.094630
   6 C :   -0.058976
   7 C :    0.131725
   8 N :    0.406663
   9 C :   -0.456008
  10 S :   -0.035470
  11 N :    0.396477
  12 C :   -0.051720
  13 C :   -0.039227
  14 C :    0.013852
  15 C :    0.038868
  16 C :   -0.002438
  17 C :   -0.190224
  18 O :    0.396031
  19 C :    0.031576
  20 H :   -0.026084
  21 H :   -0.027392
  22 H :   -0.026361
  23 H :   -0.025024
  24 H :   -0.028042
  25 H :   -0.003744
  26 H :   -0.023354
  27 H :   -0.004725
  28 H :   -0.057524
  29 H :   -0.064590
  30 H :   -0.010760
  31 H :   -0.029759
  32 H :   -0.021120
  33 H :   -0.035347
  34 H :   -0.153616
  35 H :   -0.023578

  Mayer bond orders larger than 0.100000
B(  0-C ,  1-C ) :   0.9574 B(  0-C , 20-H ) :   0.9695 B(  0-C , 21-H ) :   0.9781
B(  0-C , 22-H ) :   0.9749 B(  1-C ,  2-O ) :   0.8917 B(  1-C , 23-H ) :   0.9841
B(  1-C , 24-H ) :   0.9835 B(  2-O ,  3-C ) :   1.1565 B(  3-C ,  4-O ) :   1.9719
B(  3-C ,  5-C ) :   1.0603 B(  5-C ,  6-C ) :   1.6541 B(  5-C , 12-C ) :   0.9714
B(  6-C ,  7-C ) :   0.9659 B(  6-C ,  8-N ) :   1.1651 B(  7-C , 25-H ) :   0.9605
B(  7-C , 26-H ) :   0.9903 B(  7-C , 27-H ) :   0.9603 B(  8-N ,  9-C ) :   1.1833
B(  8-N , 28-H ) :   0.9477 B(  9-C , 10-S ) :   1.6066 B(  9-C , 11-N ) :   1.3061
B( 11-N , 12-C ) :   0.9857 B( 11-N , 29-H ) :   0.9515 B( 12-C , 13-C ) :   0.9354
B( 12-C , 30-H ) :   1.0018 B( 13-C , 14-C ) :   1.3560 B( 13-C , 19-C ) :   1.3852
B( 14-C , 15-C ) :   1.3907 B( 14-C , 31-H ) :   0.9716 B( 15-C , 16-C ) :   1.3596
B( 15-C , 32-H ) :   0.9715 B( 16-C , 17-C ) :   1.3316 B( 16-C , 33-H ) :   0.9852
B( 17-C , 18-O ) :   1.1114 B( 17-C , 19-C ) :   1.3705 B( 18-O , 34-H ) :   0.9796
B( 19-C , 35-H ) :   0.9574

MP2 TOTAL ENERGY:    -1274.350272802 Eh
FINAL SINGLE POINT ENERGY     -1274.350272801761

DIPOLE MOMENT
-------------
                                X             Y             Z
Electronic contribution:      9.61545      10.25397       6.74508
Nuclear contribution   :    -10.53204     -12.00309      -7.06888
                        -----------------------------------------
Total Dipole Moment    :     -0.91659      -1.74912      -0.32381
                        -----------------------------------------
Magnitude (a.u.)       :      2.00110
Magnitude (Debye)      :      5.08640

Rotational constants in cm-1:     0.012492     0.008743     0.006368
Rotational constants in MHz :   374.515643   262.120140   190.916052

                             ****ORCA TERMINATED NORMALLY****
TOTAL RUN TIME: 0 days 2 hours 6 minutes 35 seconds 984 msec
