                         Program Version 5.0.0 -  RELEASE  -
|  1> ! ri-mp2 cc-pvtz cc-pvtz/c TightSCF NoKeepInts
|  2>
|  3> %scf
|  4>   MaxCore 4096
|  5> end
|  6> *xyz  0  1
|  7>     C       14.8314363   14.6618991   16.9603301
|  8>     C       15.7289763   14.7679043   15.7135070
|  9>     O       16.5120424   15.9687800   15.8369145
| 10>     C       17.7125449   15.9178393   16.4855394
| 11>     O       18.3591787   14.8864485   16.5707792
| 12>     C       17.9001723   17.0508833   17.4495575
| 13>     C       17.3767429   18.2923491   17.2839403
| 14>     C       16.5573950   18.8023213   16.1165879
| 15>     N       17.6428697   19.2897556   18.2273609
| 16>     C       18.5178277   19.1640196   19.2743152
| 17>     S       18.8608234   20.4315287   20.2800017
| 18>     N       19.0950248   17.9309308   19.4456035
| 19>     C       18.7347151   16.7165851   18.6894552
| 20>     C       17.9914632   15.7280703   19.5841416
| 21>     C       18.4542718   14.4069674   19.7262896
| 22>     C       17.7623837   13.4884148   20.5333900
| 23>     C       16.5957960   13.8929101   21.2042725
| 24>     C       16.1291608   15.2066808   21.0622872
| 25>     O       14.9975401   15.5977117   21.7007341
| 26>     C       16.8200582   16.1186608   20.2585010
| 27>     H       15.4401124   14.5384103   17.8656310
| 28>     H       14.1630099   13.7962375   16.8801670
| 29>     H       14.2164239   15.5628073   17.0764099
| 30>     H       16.3569301   13.8732362   15.6021158
| 31>     H       15.0896628   14.8446983   14.8247832
| 32>     H       15.5294762   18.4224968   16.1713379
| 33>     H       16.9872404   18.4724181   15.1625955
| 34>     H       16.5076681   19.8974621   16.0836288
| 35>     H       17.2285154   20.2017349   18.1193294
| 36>     H       19.7120112   17.8566886   20.2441804
| 37>     H       19.6678233   16.2440473   18.3500367
| 38>     H       19.3447586   14.0859960   19.1912504
| 39>     H       18.1277475   12.4675732   20.6297097
| 40>     H       16.0569354   13.1858434   21.8260863
| 41>     H       14.6964625   14.8511018   22.2400077
| 42>     H       16.4417989   17.1305875   20.1632221
| 43> *
| 44>
| 45>                          ****END OF INPUT****

CARTESIAN COORDINATES (ANGSTROEM)
---------------------------------
  C     14.831436   14.661899   16.960330
  C     15.728976   14.767904   15.713507
  O     16.512042   15.968780   15.836915
  C     17.712545   15.917839   16.485539
  O     18.359179   14.886449   16.570779
  C     17.900172   17.050883   17.449557
  C     17.376743   18.292349   17.283940
  C     16.557395   18.802321   16.116588
  N     17.642870   19.289756   18.227361
  C     18.517828   19.164020   19.274315
  S     18.860823   20.431529   20.280002
  N     19.095025   17.930931   19.445604
  C     18.734715   16.716585   18.689455
  C     17.991463   15.728070   19.584142
  C     18.454272   14.406967   19.726290
  C     17.762384   13.488415   20.533390
  C     16.595796   13.892910   21.204272
  C     16.129161   15.206681   21.062287
  O     14.997540   15.597712   21.700734
  C     16.820058   16.118661   20.258501
  H     15.440112   14.538410   17.865631
  H     14.163010   13.796238   16.880167
  H     14.216424   15.562807   17.076410
  H     16.356930   13.873236   15.602116
  H     15.089663   14.844698   14.824783
  H     15.529476   18.422497   16.171338
  H     16.987240   18.472418   15.162595
  H     16.507668   19.897462   16.083629
  H     17.228515   20.201735   18.119329
  H     19.712011   17.856689   20.244180
  H     19.667823   16.244047   18.350037
  H     19.344759   14.085996   19.191250
  H     18.127748   12.467573   20.629710
  H     16.056935   13.185843   21.826086
  H     14.696462   14.851102   22.240008
  H     16.441799   17.130587   20.163222

 Total Charge           Charge          ....    0
 Multiplicity           Mult            ....    1
 Number of Electrons    NEL             ....  154
 Basis Dimension        Dim             ....  828

ORBITAL ENERGIES
----------------

  NO   OCC          E(Eh)            E(eV)
   0   2.0000     -91.888161     -2500.4040
   1   2.0000     -20.596744      -560.4659
   2   2.0000     -20.594216      -560.3971
   3   2.0000     -20.549614      -559.1834
   4   2.0000     -15.627809      -425.2543
   5   2.0000     -15.607491      -424.7014
   6   2.0000     -11.395922      -310.0988
   7   2.0000     -11.383481      -309.7603
   8   2.0000     -11.333674      -308.4049
   9   2.0000     -11.310319      -307.7694
  10   2.0000     -11.307390      -307.6897
  11   2.0000     -11.297327      -307.4159
  12   2.0000     -11.259691      -306.3918
  13   2.0000     -11.259026      -306.3737
  14   2.0000     -11.255967      -306.2904
  15   2.0000     -11.250678      -306.1465
  16   2.0000     -11.240306      -305.8643
  17   2.0000     -11.236000      -305.7471
  18   2.0000     -11.233428      -305.6771
  19   2.0000     -11.226115      -305.4781
  20   2.0000      -8.893235      -241.9972
  21   2.0000      -6.574814      -178.9098
  22   2.0000      -6.572805      -178.8551
  23   2.0000      -6.572221      -178.8392
  24   2.0000      -1.453373       -39.5483
  25   2.0000      -1.414004       -38.4770
  26   2.0000      -1.357352       -36.9354
  27   2.0000      -1.338998       -36.4360
  28   2.0000      -1.237152       -33.6646
  29   2.0000      -1.154856       -31.4252
  30   2.0000      -1.120621       -30.4936
  31   2.0000      -1.043524       -28.3957
  32   2.0000      -1.033501       -28.1230
  33   2.0000      -1.012111       -27.5410
  34   2.0000      -0.998430       -27.1687
  35   2.0000      -0.984008       -26.7762
  36   2.0000      -0.922511       -25.1028
  37   2.0000      -0.891503       -24.2590
  38   2.0000      -0.847286       -23.0558
  39   2.0000      -0.836627       -22.7658
  40   2.0000      -0.830630       -22.6026
  41   2.0000      -0.814900       -22.1746
  42   2.0000      -0.755648       -20.5622
  43   2.0000      -0.736385       -20.0381
  44   2.0000      -0.726766       -19.7763
  45   2.0000      -0.692815       -18.8525
  46   2.0000      -0.685629       -18.6569
  47   2.0000      -0.678621       -18.4662
  48   2.0000      -0.673264       -18.3204
  49   2.0000      -0.660116       -17.9627
  50   2.0000      -0.650734       -17.7074
  51   2.0000      -0.645134       -17.5550
  52   2.0000      -0.634278       -17.2596
  53   2.0000      -0.605569       -16.4784
  54   2.0000      -0.601678       -16.3725
  55   2.0000      -0.598585       -16.2883
  56   2.0000      -0.597891       -16.2694
  57   2.0000      -0.580809       -15.8046
  58   2.0000      -0.575323       -15.6553
  59   2.0000      -0.562492       -15.3062
  60   2.0000      -0.556693       -15.1484
  61   2.0000      -0.553865       -15.0714
  62   2.0000      -0.537770       -14.6335
  63   2.0000      -0.527426       -14.3520
  64   2.0000      -0.519564       -14.1381
  65   2.0000      -0.510571       -13.8933
  66   2.0000      -0.498192       -13.5565
  67   2.0000      -0.494610       -13.4590
  68   2.0000      -0.481890       -13.1129
  69   2.0000      -0.464120       -12.6294
  70   2.0000      -0.459946       -12.5158
  71   2.0000      -0.450596       -12.2613
  72   2.0000      -0.353774        -9.6267
  73   2.0000      -0.346493        -9.4286
  74   2.0000      -0.327438        -8.9101
  75   2.0000      -0.317714        -8.6454
  76   2.0000      -0.315088        -8.5740
  77   0.0000       0.075144         2.0448
  78   0.0000       0.109135         2.9697
  79   0.0000       0.119291         3.2461
  80   0.0000       0.133397         3.6299
  81   0.0000       0.143113         3.8943

MULLIKEN ATOMIC CHARGES
-----------------------
   0 C :   -0.289205
   1 C :    0.025169
   2 O :   -0.359156
   3 C :    0.434606
   4 O :   -0.416476
   5 C :   -0.164545
   6 C :    0.137265
   7 C :   -0.284245
   8 N :   -0.124408
   9 C :    0.203750
  10 S :   -0.440141
  11 N :   -0.200310
  12 C :    0.052013
  13 C :    0.038871
  14 C :   -0.156485
  15 C :   -0.136046
  16 C :   -0.278074
  17 C :    0.312535
  18 O :   -0.360573
  19 C :   -0.274865
  20 H :    0.117927
  21 H :    0.098307
  22 H :    0.091876
  23 H :    0.116344
  24 H :    0.103554
  25 H :    0.126584
  26 H :    0.124741
  27 H :    0.102357
  28 H :    0.196982
  29 H :    0.194054
  30 H :    0.154470
  31 H :    0.155950
  32 H :    0.160170
  33 H :    0.129987
  34 H :    0.240467
  35 H :    0.166550
Sum of atomic charges:   -0.0000000

LOEWDIN ATOMIC CHARGES
----------------------
   0 C :    0.105212
   1 C :   -0.017388
   2 O :    0.301922
   3 C :   -0.413809
   4 O :    0.111594
   5 C :   -0.091738
   6 C :   -0.071434
   7 C :    0.125710
   8 N :    0.404249
   9 C :   -0.457702
  10 S :   -0.036647
  11 N :    0.397456
  12 C :   -0.045497
  13 C :   -0.040937
  14 C :    0.021522
  15 C :    0.040910
  16 C :   -0.002601
  17 C :   -0.193799
  18 O :    0.393897
  19 C :    0.029309
  20 H :   -0.022806
  21 H :   -0.026322
  22 H :   -0.029182
  23 H :   -0.027412
  24 H :   -0.027460
  25 H :   -0.010424
  26 H :   -0.008252
  27 H :   -0.020239
  28 H :   -0.058965
  29 H :   -0.063984
  30 H :   -0.004815
  31 H :   -0.024781
  32 H :   -0.020671
  33 H :   -0.035903
  34 H :   -0.154449
  35 H :   -0.024565

  Mayer bond orders larger than 0.100000
B(  0-C ,  1-C ) :   0.9653 B(  0-C , 20-H ) :   0.9703 B(  0-C , 21-H ) :   0.9770
B(  0-C , 22-H ) :   0.9782 B(  1-C ,  2-O ) :   0.8896 B(  1-C , 23-H ) :   0.9749
B(  1-C , 24-H ) :   0.9846 B(  2-O ,  3-C ) :   1.1299 B(  3-C ,  4-O ) :   2.0000
B(  3-C ,  5-C ) :   1.0301 B(  5-C ,  6-C ) :   1.6625 B(  5-C , 12-C ) :   0.9645
B(  6-C ,  7-C ) :   0.9536 B(  6-C ,  8-N ) :   1.1405 B(  7-C , 25-H ) :   0.9629
B(  7-C , 26-H ) :   0.9690 B(  7-C , 27-H ) :   0.9892 B(  8-N ,  9-C ) :   1.1831
B(  8-N , 28-H ) :   0.9495 B(  9-C , 10-S ) :   1.6101 B(  9-C , 11-N ) :   1.3012
B( 11-N , 12-C ) :   0.9930 B( 11-N , 29-H ) :   0.9518 B( 12-C , 13-C ) :   0.9431
B( 12-C , 30-H ) :   0.9990 B( 13-C , 14-C ) :   1.3781 B( 13-C , 19-C ) :   1.3700
B( 14-C , 15-C ) :   1.3940 B( 14-C , 31-H ) :   0.9637 B( 15-C , 16-C ) :   1.3626
B( 15-C , 32-H ) :   0.9714 B( 16-C , 17-C ) :   1.3308 B( 16-C , 33-H ) :   0.9853
B( 17-C , 18-O ) :   1.1085 B( 17-C , 19-C ) :   1.3751 B( 18-O , 34-H ) :   0.9802
B( 19-C , 35-H ) :   0.9587

MP2 TOTAL ENERGY:    -1274.340684734 Eh
FINAL SINGLE POINT ENERGY     -1274.340684733871

DIPOLE MOMENT
-------------
                                X             Y             Z
Electronic contribution:     10.43242       9.22044       7.19047
Nuclear contribution   :    -11.79094     -10.55540      -8.10891
                        -----------------------------------------
Total Dipole Moment    :     -1.35852      -1.33496      -0.91844
                        -----------------------------------------
Magnitude (a.u.)       :      2.11453
Magnitude (Debye)      :      5.37472

Rotational constants in cm-1:     0.011684     0.009258     0.006564
Rotational constants in MHz :   350.283142   277.561074   196.779884

                             ****ORCA TERMINATED NORMALLY****
TOTAL RUN TIME: 0 days 1 hours 44 minutes 44 seconds 920 msec
