                         Program Version 4.2.0 -  RELEASE  -
|  1> ! ri-mp2 cc-pvtz cc-pvtz/c TightSCF  NoKeepInts
|  2>
|  3> %scf
|  4>   MaxCore 4096
|  5> end
|  6> *xyz  0  1
|  7>     C       15.0016278   15.4364685   17.5958352
|  8>     C       15.6654213   15.2618509   16.2178076
|  9>     O       17.0330212   14.8373884   16.3708336
| 10>     C       18.1295382   15.6574581   16.4701754
| 11>     O       19.2299161   15.1432976   16.3933630
| 12>     C       17.9513873   16.8425336   17.3605889
| 13>     C       17.4264370   18.0092274   16.9203768
| 14>     C       16.9541748   18.3283385   15.5185893
| 15>     N       17.3775888   19.1160097   17.7705942
| 16>     C       17.9621690   19.1738227   19.0086373
| 17>     S       17.9260638   20.5517515   19.9219471
| 18>     N       18.5833487   18.0319615   19.4508205
| 19>     C       18.5594587   16.7251914   18.7625112
| 20>     C       17.8679010   15.6528284   19.6037064
| 21>     C       18.3110503   14.3187652   19.5350628
| 22>     C       17.6874368   13.3136575   20.2924754
| 23>     C       16.6100694   13.6428492   21.1316599
| 24>     C       16.1646961   14.9690789   21.2059730
| 25>     O       15.1177740   15.2888364   22.0074147
| 26>     C       16.7868705   15.9681116   20.4503810
| 27>     H       15.2299353   14.5821948   18.2461088
| 28>     H       13.9119716   15.4996618   17.4897510
| 29>     H       15.3398021   16.3529240   18.0906654
| 30>     H       15.1268063   14.4617826   15.6933486
| 31>     H       15.5698161   16.1623774   15.6060196
| 32>     H       17.2397477   17.5538940   14.7962923
| 33>     H       17.4029186   19.2644426   15.1615555
| 34>     H       15.8642324   18.4473443   15.4851531
| 35>     H       16.9454373   19.9708635   17.4569424
| 36>     H       18.9973479   18.0999034   20.3720177
| 37>     H       19.6055324   16.4093782   18.6341656
| 38>     H       19.1380046   14.0569897   18.8780066
| 39>     H       18.0383920   12.2855091   20.2223508
| 40>     H       16.1241373   12.8689070   21.7164280
| 41>     H       14.8523781   14.4819008   22.4738392
| 42>     H       16.4145897   16.9845000   20.5226019
| 43> *
| 44>
| 45>                          ****END OF INPUT****

CARTESIAN COORDINATES (ANGSTROEM)
---------------------------------
  C     15.001628   15.436469   17.595835
  C     15.665421   15.261851   16.217808
  O     17.033021   14.837388   16.370834
  C     18.129538   15.657458   16.470175
  O     19.229916   15.143298   16.393363
  C     17.951387   16.842534   17.360589
  C     17.426437   18.009227   16.920377
  C     16.954175   18.328339   15.518589
  N     17.377589   19.116010   17.770594
  C     17.962169   19.173823   19.008637
  S     17.926064   20.551752   19.921947
  N     18.583349   18.031962   19.450820
  C     18.559459   16.725191   18.762511
  C     17.867901   15.652828   19.603706
  C     18.311050   14.318765   19.535063
  C     17.687437   13.313657   20.292475
  C     16.610069   13.642849   21.131660
  C     16.164696   14.969079   21.205973
  O     15.117774   15.288836   22.007415
  C     16.786870   15.968112   20.450381
  H     15.229935   14.582195   18.246109
  H     13.911972   15.499662   17.489751
  H     15.339802   16.352924   18.090665
  H     15.126806   14.461783   15.693349
  H     15.569816   16.162377   15.606020
  H     17.239748   17.553894   14.796292
  H     17.402919   19.264443   15.161556
  H     15.864232   18.447344   15.485153
  H     16.945437   19.970863   17.456942
  H     18.997348   18.099903   20.372018
  H     19.605532   16.409378   18.634166
  H     19.138005   14.056990   18.878007
  H     18.038392   12.285509   20.222351
  H     16.124137   12.868907   21.716428
  H     14.852378   14.481901   22.473839
  H     16.414590   16.984500   20.522602

 Total Charge           Charge          ....    0
 Multiplicity           Mult            ....    1
 Number of Electrons    NEL             ....  154
 Basis Dimension        Dim             ....  828

ORBITAL ENERGIES
----------------

  NO   OCC          E(Eh)            E(eV)
   0   2.0000     -91.889043     -2500.4280
   1   2.0000     -20.600810      -560.5765
   2   2.0000     -20.596622      -560.4626
   3   2.0000     -20.555590      -559.3460
   4   2.0000     -15.625202      -425.1834
   5   2.0000     -15.610962      -424.7959
   6   2.0000     -11.399493      -310.1960
   7   2.0000     -11.385765      -309.8224
   8   2.0000     -11.326449      -308.2084
   9   2.0000     -11.315900      -307.9213
  10   2.0000     -11.312946      -307.8409
  11   2.0000     -11.306756      -307.6725
  12   2.0000     -11.272376      -306.7369
  13   2.0000     -11.267350      -306.6002
  14   2.0000     -11.261332      -306.4364
  15   2.0000     -11.253549      -306.2246
  16   2.0000     -11.242854      -305.9336
  17   2.0000     -11.238493      -305.8149
  18   2.0000     -11.235561      -305.7352
  19   2.0000     -11.227719      -305.5218
  20   2.0000      -8.894169      -242.0226
  21   2.0000      -6.575765      -178.9357
  22   2.0000      -6.573730      -178.8803
  23   2.0000      -6.573162      -178.8648
  24   2.0000      -1.451852       -39.5069
  25   2.0000      -1.416457       -38.5438
  26   2.0000      -1.361459       -37.0472
  27   2.0000      -1.339428       -36.4477
  28   2.0000      -1.239284       -33.7226
  29   2.0000      -1.158030       -31.5116
  30   2.0000      -1.124618       -30.6024
  31   2.0000      -1.047506       -28.5041
  32   2.0000      -1.038815       -28.2676
  33   2.0000      -1.016349       -27.6563
  34   2.0000      -1.004976       -27.3468
  35   2.0000      -0.989122       -26.9154
  36   2.0000      -0.927208       -25.2306
  37   2.0000      -0.892891       -24.2968
  38   2.0000      -0.854063       -23.2402
  39   2.0000      -0.839775       -22.8514
  40   2.0000      -0.833448       -22.6793
  41   2.0000      -0.831159       -22.6170
  42   2.0000      -0.754272       -20.5248
  43   2.0000      -0.739122       -20.1125
  44   2.0000      -0.729934       -19.8625
  45   2.0000      -0.694747       -18.9050
  46   2.0000      -0.687802       -18.7161
  47   2.0000      -0.681554       -18.5460
  48   2.0000      -0.675745       -18.3880
  49   2.0000      -0.664433       -18.0801
  50   2.0000      -0.651949       -17.7404
  51   2.0000      -0.639913       -17.4129
  52   2.0000      -0.639574       -17.4037
  53   2.0000      -0.616936       -16.7877
  54   2.0000      -0.611359       -16.6359
  55   2.0000      -0.605530       -16.4773
  56   2.0000      -0.601178       -16.3589
  57   2.0000      -0.590620       -16.0716
  58   2.0000      -0.580727       -15.8024
  59   2.0000      -0.573067       -15.5939
  60   2.0000      -0.564871       -15.3709
  61   2.0000      -0.557877       -15.1806
  62   2.0000      -0.539603       -14.6833
  63   2.0000      -0.529011       -14.3951
  64   2.0000      -0.516748       -14.0614
  65   2.0000      -0.512084       -13.9345
  66   2.0000      -0.504422       -13.7260
  67   2.0000      -0.500620       -13.6226
  68   2.0000      -0.485205       -13.2031
  69   2.0000      -0.464257       -12.6331
  70   2.0000      -0.455684       -12.3998
  71   2.0000      -0.452010       -12.2998
  72   2.0000      -0.356685        -9.7059
  73   2.0000      -0.347182        -9.4473
  74   2.0000      -0.328821        -8.9477
  75   2.0000      -0.321564        -8.7502
  76   2.0000      -0.317606        -8.6425
  77   0.0000       0.089496         2.4353
  78   0.0000       0.102730         2.7954
  79   0.0000       0.111475         3.0334
  80   0.0000       0.128690         3.5018
  81   0.0000       0.131139         3.5685

MULLIKEN ATOMIC CHARGES
-----------------------
   0 C :   -0.304666
   1 C :   -0.000876
   2 O :   -0.312768
   3 C :    0.395328
   4 O :   -0.372231
   5 C :   -0.177234
   6 C :    0.132424
   7 C :   -0.332336
   8 N :   -0.136747
   9 C :    0.208914
  10 S :   -0.443394
  11 N :   -0.231562
  12 C :    0.090384
  13 C :    0.036433
  14 C :   -0.205969
  15 C :   -0.134275
  16 C :   -0.280525
  17 C :    0.321095
  18 O :   -0.359118
  19 C :   -0.282526
  20 H :    0.122153
  21 H :    0.111023
  22 H :    0.103181
  23 H :    0.129687
  24 H :    0.089841
  25 H :    0.119572
  26 H :    0.138758
  27 H :    0.122548
  28 H :    0.195219
  29 H :    0.203502
  30 H :    0.169263
  31 H :    0.169525
  32 H :    0.163127
  33 H :    0.131630
  34 H :    0.240949
  35 H :    0.179669
Sum of atomic charges:   -0.0000000

LOEWDIN ATOMIC CHARGES
----------------------
   0 C :    0.104339
   1 C :   -0.024660
   2 O :    0.313442
   3 C :   -0.418910
   4 O :    0.133523
   5 C :   -0.075218
   6 C :   -0.109550
   7 C :    0.120251
   8 N :    0.400599
   9 C :   -0.456995
  10 S :   -0.039849
  11 N :    0.398661
  12 C :   -0.040953
  13 C :   -0.040624
  14 C :    0.023370
  15 C :    0.043602
  16 C :   -0.002380
  17 C :   -0.193915
  18 O :    0.395242
  19 C :    0.028693
  20 H :   -0.018236
  21 H :   -0.026646
  22 H :   -0.035394
  23 H :   -0.020620
  24 H :   -0.039798
  25 H :   -0.011373
  26 H :   -0.009031
  27 H :   -0.017708
  28 H :   -0.058803
  29 H :   -0.063492
  30 H :   -0.001538
  31 H :   -0.022129
  32 H :   -0.018855
  33 H :   -0.035259
  34 H :   -0.153753
  35 H :   -0.026033

  Mayer bond orders larger than 0.100000
B(  0-C ,  1-C ) :   0.9591 B(  0-C , 20-H ) :   0.9701 B(  0-C , 21-H ) :   0.9767
B(  0-C , 22-H ) :   0.9718 B(  1-C ,  2-O ) :   0.9139 B(  1-C , 23-H ) :   0.9858
B(  1-C , 24-H ) :   0.9764 B(  2-O ,  3-C ) :   1.1306 B(  3-C ,  4-O ) :   2.0863
B(  3-C ,  5-C ) :   0.9196 B(  5-C ,  6-C ) :   1.7111 B(  5-C , 12-C ) :   0.9496
B(  6-C ,  7-C ) :   0.9402 B(  6-C ,  8-N ) :   1.1016 B(  7-C , 25-H ) :   0.9831
B(  7-C , 26-H ) :   0.9710 B(  7-C , 27-H ) :   0.9670 B(  8-N ,  9-C ) :   1.2004
B(  8-N , 28-H ) :   0.9538 B(  9-C , 10-S ) :   1.6051 B(  9-C , 11-N ) :   1.2861
B( 11-N , 12-C ) :   0.9844 B( 11-N , 29-H ) :   0.9466 B( 12-C , 13-C ) :   0.9533
B( 12-C , 30-H ) :   0.9955 B( 13-C , 14-C ) :   1.3863 B( 13-C , 19-C ) :   1.3344
B( 14-C , 15-C ) :   1.4041 B( 14-C , 31-H ) :   0.9610 B( 15-C , 16-C ) :   1.3554
B( 15-C , 32-H ) :   0.9702 B( 16-C , 17-C ) :   1.3330 B( 16-C , 33-H ) :   0.9852
B( 17-C , 18-O ) :   1.1077 B( 17-C , 19-C ) :   1.3667 B( 18-O , 34-H ) :   0.9797
B( 19-C , 35-H ) :   0.9566

MP2 TOTAL ENERGY:    -1274.320428349 Eh
FINAL SINGLE POINT ENERGY     -1274.320428348657

DIPOLE MOMENT
-------------
                                X             Y             Z
Electronic contribution:      9.17633       6.24524       6.30555
Nuclear contribution   :    -10.65955      -7.36525      -7.18783
                        -----------------------------------------
Total Dipole Moment    :     -1.48321      -1.12001      -0.88228
                        -----------------------------------------
Magnitude (a.u.)       :      2.05736
Magnitude (Debye)      :      5.22941

Rotational constants in cm-1:     0.012169     0.009496     0.006847
Rotational constants in MHz :   364.811083   284.684044   205.264716

                             ****ORCA TERMINATED NORMALLY****
TOTAL RUN TIME: 0 days 1 hours 53 minutes 16 seconds 368 msec
