                         Program Version 4.2.0 -  RELEASE  -
|  1> ! ri-mp2 cc-pvtz cc-pvtz/c TightSCF  NoKeepInts
|  2>
|  3> %scf
|  4>   MaxCore 4096
|  5> end
|  6> *xyz  0  1
|  7>     C       15.5151046   13.6607022   15.4742912
|  8>     C       15.3127769   15.1652835   15.1932172
|  9>     O       16.1825799   16.0816264   15.9125625
| 10>     C       17.1953802   15.7835765   16.7881395
| 11>     O       17.7055913   14.6823956   16.9013696
| 12>     C       17.6541759   16.9480484   17.6250737
| 13>     C       17.2871217   18.2466588   17.4500080
| 14>     C       16.3571930   18.8321526   16.4062145
| 15>     N       17.8406572   19.2404144   18.2651492
| 16>     C       18.8616146   19.0472317   19.1572210
| 17>     S       19.5491966   20.3053430   19.9819500
| 18>     N       19.2823445   17.7540073   19.3304371
| 19>     C       18.6147373   16.5693913   18.7602427
| 20>     C       17.8920381   15.7862748   19.8537361
| 21>     C       18.1554671   14.4167418   20.0413131
| 22>     C       17.4919590   13.6897241   21.0438495
| 23>     C       16.5556982   14.3369024   21.8679308
| 24>     C       16.2874217   15.6998604   21.6824055
| 25>     O       15.3793160   16.3263072   22.4725683
| 26>     C       16.9490225   16.4206751   20.6832892
| 27>     H       16.4995121   13.3219443   15.1275997
| 28>     H       14.7576056   13.0713305   14.9439810
| 29>     H       15.4200294   13.4416797   16.5454429
| 30>     H       15.4422488   15.3344002   14.1164671
| 31>     H       14.2725950   15.4215985   15.4319895
| 32>     H       15.3362904   18.4540135   16.5413918
| 33>     H       16.6892974   18.5637238   15.3956102
| 34>     H       16.3069829   19.9269389   16.4478435
| 35>     H       17.5454877   20.1969938   18.1530564
| 36>     H       20.0149551   17.6318919   20.0175900
| 37>     H       19.3972902   15.9238395   18.3357720
| 38>     H       18.8663183   13.9097913   19.3931845
| 39>     H       17.7005208   12.6293468   21.1736792
| 40>     H       16.0395772   13.7788091   22.6418826
| 41>     H       15.0602478   15.6770691   23.1170838
| 42>     H       16.7286451   17.4753116   20.5604570
| 43> *
| 44>
| 45>                          ****END OF INPUT****

CARTESIAN COORDINATES (ANGSTROEM)
---------------------------------
  C     15.515105   13.660702   15.474291
  C     15.312777   15.165283   15.193217
  O     16.182580   16.081626   15.912562
  C     17.195380   15.783577   16.788139
  O     17.705591   14.682396   16.901370
  C     17.654176   16.948048   17.625074
  C     17.287122   18.246659   17.450008
  C     16.357193   18.832153   16.406215
  N     17.840657   19.240414   18.265149
  C     18.861615   19.047232   19.157221
  S     19.549197   20.305343   19.981950
  N     19.282344   17.754007   19.330437
  C     18.614737   16.569391   18.760243
  C     17.892038   15.786275   19.853736
  C     18.155467   14.416742   20.041313
  C     17.491959   13.689724   21.043849
  C     16.555698   14.336902   21.867931
  C     16.287422   15.699860   21.682405
  O     15.379316   16.326307   22.472568
  C     16.949022   16.420675   20.683289
  H     16.499512   13.321944   15.127600
  H     14.757606   13.071331   14.943981
  H     15.420029   13.441680   16.545443
  H     15.442249   15.334400   14.116467
  H     14.272595   15.421598   15.431990
  H     15.336290   18.454013   16.541392
  H     16.689297   18.563724   15.395610
  H     16.306983   19.926939   16.447844
  H     17.545488   20.196994   18.153056
  H     20.014955   17.631892   20.017590
  H     19.397290   15.923839   18.335772
  H     18.866318   13.909791   19.393185
  H     17.700521   12.629347   21.173679
  H     16.039577   13.778809   22.641883
  H     15.060248   15.677069   23.117084
  H     16.728645   17.475312   20.560457

 Total Charge           Charge          ....    0
 Multiplicity           Mult            ....    1
 Number of Electrons    NEL             ....  154
 Basis Dimension        Dim             ....  828

ORBITAL ENERGIES
----------------

  NO   OCC          E(Eh)            E(eV)
   0   2.0000     -91.887201     -2500.3779
   1   2.0000     -20.600819      -560.5768
   2   2.0000     -20.590871      -560.3061
   3   2.0000     -20.542786      -558.9976
   4   2.0000     -15.627378      -425.2426
   5   2.0000     -15.605656      -424.6515
   6   2.0000     -11.399113      -310.1856
   7   2.0000     -11.381779      -309.7140
   8   2.0000     -11.335687      -308.4597
   9   2.0000     -11.307721      -307.6987
  10   2.0000     -11.306597      -307.6682
  11   2.0000     -11.303883      -307.5943
  12   2.0000     -11.259720      -306.3926
  13   2.0000     -11.257832      -306.3412
  14   2.0000     -11.252400      -306.1934
  15   2.0000     -11.246761      -306.0399
  16   2.0000     -11.236396      -305.7579
  17   2.0000     -11.232455      -305.6506
  18   2.0000     -11.229338      -305.5658
  19   2.0000     -11.225343      -305.4571
  20   2.0000      -8.892271      -241.9710
  21   2.0000      -6.573850      -178.8836
  22   2.0000      -6.571843      -178.8289
  23   2.0000      -6.571258      -178.8130
  24   2.0000      -1.444722       -39.3129
  25   2.0000      -1.410606       -38.3845
  26   2.0000      -1.356402       -36.9096
  27   2.0000      -1.338479       -36.4219
  28   2.0000      -1.236005       -33.6334
  29   2.0000      -1.150940       -31.3187
  30   2.0000      -1.117579       -30.4109
  31   2.0000      -1.041585       -28.3430
  32   2.0000      -1.034565       -28.1519
  33   2.0000      -1.008503       -27.4428
  34   2.0000      -0.996278       -27.1101
  35   2.0000      -0.981500       -26.7080
  36   2.0000      -0.920604       -25.0509
  37   2.0000      -0.897509       -24.4225
  38   2.0000      -0.847366       -23.0580
  39   2.0000      -0.835043       -22.7227
  40   2.0000      -0.826934       -22.5020
  41   2.0000      -0.816886       -22.2286
  42   2.0000      -0.742400       -20.2017
  43   2.0000      -0.725785       -19.7496
  44   2.0000      -0.723420       -19.6853
  45   2.0000      -0.689158       -18.7529
  46   2.0000      -0.683384       -18.5958
  47   2.0000      -0.677117       -18.4253
  48   2.0000      -0.673772       -18.3343
  49   2.0000      -0.664060       -18.0700
  50   2.0000      -0.646468       -17.5913
  51   2.0000      -0.643048       -17.4982
  52   2.0000      -0.633602       -17.2412
  53   2.0000      -0.605081       -16.4651
  54   2.0000      -0.599875       -16.3234
  55   2.0000      -0.598349       -16.2819
  56   2.0000      -0.594409       -16.1747
  57   2.0000      -0.580283       -15.7903
  58   2.0000      -0.572519       -15.5790
  59   2.0000      -0.569444       -15.4954
  60   2.0000      -0.558108       -15.1869
  61   2.0000      -0.541206       -14.7270
  62   2.0000      -0.537800       -14.6343
  63   2.0000      -0.526268       -14.3205
  64   2.0000      -0.516278       -14.0486
  65   2.0000      -0.510374       -13.8880
  66   2.0000      -0.498890       -13.5755
  67   2.0000      -0.494203       -13.4479
  68   2.0000      -0.478816       -13.0292
  69   2.0000      -0.462262       -12.5788
  70   2.0000      -0.451860       -12.2957
  71   2.0000      -0.447367       -12.1735
  72   2.0000      -0.353110        -9.6086
  73   2.0000      -0.343075        -9.3355
  74   2.0000      -0.326364        -8.8808
  75   2.0000      -0.314806        -8.5663
  76   2.0000      -0.312694        -8.5088
  77   0.0000       0.076721         2.0877
  78   0.0000       0.114262         3.1092
  79   0.0000       0.121520         3.3067
  80   0.0000       0.136442         3.7128
  81   0.0000       0.139215         3.7882

MULLIKEN ATOMIC CHARGES
-----------------------
   0 C :   -0.290050
   1 C :    0.049523
   2 O :   -0.358661
   3 C :    0.445465
   4 O :   -0.429707
   5 C :   -0.160927
   6 C :    0.142926
   7 C :   -0.285257
   8 N :   -0.120655
   9 C :    0.200663
  10 S :   -0.440417
  11 N :   -0.196855
  12 C :    0.032295
  13 C :    0.059216
  14 C :   -0.163301
  15 C :   -0.134340
  16 C :   -0.279207
  17 C :    0.311674
  18 O :   -0.359231
  19 C :   -0.273610
  20 H :    0.116544
  21 H :    0.097244
  22 H :    0.109033
  23 H :    0.091182
  24 H :    0.090496
  25 H :    0.125919
  26 H :    0.127560
  27 H :    0.102810
  28 H :    0.196278
  29 H :    0.193466
  30 H :    0.154611
  31 H :    0.154121
  32 H :    0.158912
  33 H :    0.127764
  34 H :    0.239920
  35 H :    0.164592
Sum of atomic charges:   -0.0000000

LOEWDIN ATOMIC CHARGES
----------------------
   0 C :    0.103179
   1 C :   -0.008004
   2 O :    0.293167
   3 C :   -0.413372
   4 O :    0.112524
   5 C :   -0.090446
   6 C :   -0.064275
   7 C :    0.124133
   8 N :    0.404693
   9 C :   -0.459648
  10 S :   -0.036922
  11 N :    0.398144
  12 C :   -0.046906
  13 C :   -0.038665
  14 C :    0.021761
  15 C :    0.040233
  16 C :   -0.002694
  17 C :   -0.192730
  18 O :    0.392879
  19 C :    0.028293
  20 H :   -0.024253
  21 H :   -0.027468
  22 H :   -0.024321
  23 H :   -0.028468
  24 H :   -0.028378
  25 H :   -0.009993
  26 H :   -0.008405
  27 H :   -0.021644
  28 H :   -0.059582
  29 H :   -0.063637
  30 H :   -0.005691
  31 H :   -0.025291
  32 H :   -0.021418
  33 H :   -0.036575
  34 H :   -0.155037
  35 H :   -0.025184

  Mayer bond orders larger than 0.100000
B(  0-C ,  1-C ) :   0.9821 B(  0-C , 20-H ) :   0.9725 B(  0-C , 21-H ) :   0.9726
B(  0-C , 22-H ) :   0.9739 B(  1-C ,  2-O ) :   0.8990 B(  1-C , 23-H ) :   0.9781
B(  1-C , 24-H ) :   0.9785 B(  2-O ,  3-C ) :   1.1501 B(  3-C ,  4-O ) :   1.9769
B(  3-C ,  5-C ) :   1.0562 B(  5-C ,  6-C ) :   1.6495 B(  5-C , 12-C ) :   0.9663
B(  6-C ,  7-C ) :   0.9543 B(  6-C ,  8-N ) :   1.1485 B(  7-C , 25-H ) :   0.9650
B(  7-C , 26-H ) :   0.9648 B(  7-C , 27-H ) :   0.9924 B(  8-N ,  9-C ) :   1.1783
B(  8-N , 28-H ) :   0.9487 B(  9-C , 10-S ) :   1.6097 B(  9-C , 11-N ) :   1.3056
B( 11-N , 12-C ) :   0.9912 B( 11-N , 29-H ) :   0.9521 B( 12-C , 13-C ) :   0.9464
B( 12-C , 30-H ) :   1.0007 B( 13-C , 14-C ) :   1.3746 B( 13-C , 19-C ) :   1.3695
B( 14-C , 15-C ) :   1.3943 B( 14-C , 31-H ) :   0.9647 B( 15-C , 16-C ) :   1.3620
B( 15-C , 32-H ) :   0.9715 B( 16-C , 17-C ) :   1.3317 B( 16-C , 33-H ) :   0.9861
B( 17-C , 18-O ) :   1.1078 B( 17-C , 19-C ) :   1.3790 B( 18-O , 34-H ) :   0.9807
B( 19-C , 35-H ) :   0.9584

MP2 TOTAL ENERGY:    -1274.336959063 Eh
FINAL SINGLE POINT ENERGY     -1274.336959063120

DIPOLE MOMENT
-------------
                                X             Y             Z
Electronic contribution:     10.00161      10.34254      10.66812
Nuclear contribution   :    -11.67506     -11.53271     -11.75107
                        -----------------------------------------
Total Dipole Moment    :     -1.67345      -1.19018      -1.08295
                        -----------------------------------------
Magnitude (a.u.)       :      2.32158
Magnitude (Debye)      :      5.90099

Rotational constants in cm-1:     0.010630     0.008924     0.005833
Rotational constants in MHz :   318.690513   267.528007   174.854017

                             ****ORCA TERMINATED NORMALLY****
TOTAL RUN TIME: 0 days 1 hours 49 minutes 11 seconds 962 msec
