                         Program Version 4.2.0 -  RELEASE  -
|  1> ! ri-mp2 cc-pvtz cc-pvtz/c TightSCF  NoKeepInts
|  2>
|  3> %scf
|  4>   MaxCore 4096
|  5> end
|  6> *xyz  0  1
|  7>     C       14.9680277   15.7701616   17.1256397
|  8>     C       15.9099158   14.5481737   17.0516694
|  9>     O       17.1313205   14.7935570   16.3108059
| 10>     C       17.8474818   15.9588776   16.1853221
| 11>     O       18.3852999   16.2212453   15.1257405
| 12>     C       17.8128299   16.9578013   17.2990135
| 13>     C       17.4277516   18.2328510   17.0566601
| 14>     C       16.8411860   18.7640105   15.7669473
| 15>     N       17.5923722   19.2161997   18.0339662
| 16>     C       18.2832898   19.0402338   19.2030634
| 17>     S       18.5138265   20.2768152   20.2764048
| 18>     N       18.7804393   17.7828275   19.4398926
| 19>     C       18.5190780   16.5870602   18.6139901
| 20>     C       17.8173150   15.5279928   19.4535913
| 21>     C       18.3347736   14.2200895   19.5182350
| 22>     C       17.7039720   13.2401236   20.3031245
| 23>     C       16.5506388   13.5710078   21.0348551
| 24>     C       16.0399205   14.8750420   20.9833931
| 25>     O       14.9258104   15.1975808   21.6864582
| 26>     C       16.6696126   15.8488015   20.2019322
| 27>     H       15.3107908   16.5203808   17.8441529
| 28>     H       13.9726474   15.4480134   17.4551945
| 29>     H       14.8549960   16.2369530   16.1399467
| 30>     H       16.1295653   14.1945238   18.0625930
| 31>     H       15.3762010   13.7292622   16.5523215
| 32>     H       16.2451320   18.0024140   15.2505247
| 33>     H       17.6445697   19.0615732   15.0805106
| 34>     H       16.1914674   19.6319115   15.9306499
| 35>     H       17.2625372   20.1525970   17.8607001
| 36>     H       19.2689891   17.6823458   20.3208246
| 37>     H       19.4997634   16.1777684   18.3317836
| 38>     H       19.2250490   13.9584420   18.9513907
| 39>     H       18.1095467   12.2301947   20.3427075
| 40>     H       16.0603509   12.8166164   21.6418492
| 41>     H       14.6777474   14.4237115   22.2149324
| 42>     H       16.2627847   16.8548398   20.1832131
| 43> *
| 44>
| 45>                          ****END OF INPUT****

CARTESIAN COORDINATES (ANGSTROEM)
---------------------------------
  C     14.968028   15.770162   17.125640
  C     15.909916   14.548174   17.051669
  O     17.131321   14.793557   16.310806
  C     17.847482   15.958878   16.185322
  O     18.385300   16.221245   15.125740
  C     17.812830   16.957801   17.299014
  C     17.427752   18.232851   17.056660
  C     16.841186   18.764011   15.766947
  N     17.592372   19.216200   18.033966
  C     18.283290   19.040234   19.203063
  S     18.513827   20.276815   20.276405
  N     18.780439   17.782827   19.439893
  C     18.519078   16.587060   18.613990
  C     17.817315   15.527993   19.453591
  C     18.334774   14.220089   19.518235
  C     17.703972   13.240124   20.303124
  C     16.550639   13.571008   21.034855
  C     16.039921   14.875042   20.983393
  O     14.925810   15.197581   21.686458
  C     16.669613   15.848801   20.201932
  H     15.310791   16.520381   17.844153
  H     13.972647   15.448013   17.455195
  H     14.854996   16.236953   16.139947
  H     16.129565   14.194524   18.062593
  H     15.376201   13.729262   16.552322
  H     16.245132   18.002414   15.250525
  H     17.644570   19.061573   15.080511
  H     16.191467   19.631912   15.930650
  H     17.262537   20.152597   17.860700
  H     19.268989   17.682346   20.320825
  H     19.499763   16.177768   18.331784
  H     19.225049   13.958442   18.951391
  H     18.109547   12.230195   20.342707
  H     16.060351   12.816616   21.641849
  H     14.677747   14.423711   22.214932
  H     16.262785   16.854840   20.183213

 Total Charge           Charge          ....    0
 Multiplicity           Mult            ....    1
 Number of Electrons    NEL             ....  154
 Basis Dimension        Dim             ....  828

ORBITAL ENERGIES
----------------

  NO   OCC          E(Eh)            E(eV)
   0   2.0000     -91.890079     -2500.4562
   1   2.0000     -20.606021      -560.7183
   2   2.0000     -20.591516      -560.3236
   3   2.0000     -20.548767      -559.1604
   4   2.0000     -15.626466      -425.2178
   5   2.0000     -15.611986      -424.8237
   6   2.0000     -11.396069      -310.1028
   7   2.0000     -11.385925      -309.8268
   8   2.0000     -11.327334      -308.2324
   9   2.0000     -11.324519      -308.1558
  10   2.0000     -11.319475      -308.0186
  11   2.0000     -11.301337      -307.5250
  12   2.0000     -11.270060      -306.6739
  13   2.0000     -11.265452      -306.5485
  14   2.0000     -11.259248      -306.3797
  15   2.0000     -11.256305      -306.2996
  16   2.0000     -11.254441      -306.2489
  17   2.0000     -11.248865      -306.0972
  18   2.0000     -11.248821      -306.0960
  19   2.0000     -11.233025      -305.6662
  20   2.0000      -8.895173      -242.0500
  21   2.0000      -6.576757      -178.9626
  22   2.0000      -6.574738      -178.9077
  23   2.0000      -6.574159      -178.8919
  24   2.0000      -1.440694       -39.2033
  25   2.0000      -1.425813       -38.7984
  26   2.0000      -1.353501       -36.8306
  27   2.0000      -1.340110       -36.4662
  28   2.0000      -1.240901       -33.7666
  29   2.0000      -1.167464       -31.7683
  30   2.0000      -1.123951       -30.5843
  31   2.0000      -1.051448       -28.6114
  32   2.0000      -1.035286       -28.1716
  33   2.0000      -1.025722       -27.9113
  34   2.0000      -1.003554       -27.3081
  35   2.0000      -0.989188       -26.9172
  36   2.0000      -0.928890       -25.2764
  37   2.0000      -0.898875       -24.4596
  38   2.0000      -0.851542       -23.1716
  39   2.0000      -0.844969       -22.9928
  40   2.0000      -0.844663       -22.9844
  41   2.0000      -0.829041       -22.5593
  42   2.0000      -0.749624       -20.3983
  43   2.0000      -0.739595       -20.1254
  44   2.0000      -0.720672       -19.6105
  45   2.0000      -0.704978       -19.1834
  46   2.0000      -0.692494       -18.8437
  47   2.0000      -0.678633       -18.4665
  48   2.0000      -0.675351       -18.3772
  49   2.0000      -0.661665       -18.0048
  50   2.0000      -0.654647       -17.8139
  51   2.0000      -0.650197       -17.6927
  52   2.0000      -0.638967       -17.3872
  53   2.0000      -0.621379       -16.9086
  54   2.0000      -0.614999       -16.7350
  55   2.0000      -0.608583       -16.5604
  56   2.0000      -0.604407       -16.4468
  57   2.0000      -0.584625       -15.9085
  58   2.0000      -0.578323       -15.7370
  59   2.0000      -0.568067       -15.4579
  60   2.0000      -0.563342       -15.3293
  61   2.0000      -0.551623       -15.0104
  62   2.0000      -0.540041       -14.6953
  63   2.0000      -0.535057       -14.5596
  64   2.0000      -0.530008       -14.4222
  65   2.0000      -0.517427       -14.0799
  66   2.0000      -0.506461       -13.7815
  67   2.0000      -0.498908       -13.5760
  68   2.0000      -0.486907       -13.2494
  69   2.0000      -0.467689       -12.7265
  70   2.0000      -0.451132       -12.2759
  71   2.0000      -0.445716       -12.1286
  72   2.0000      -0.359637        -9.7862
  73   2.0000      -0.352644        -9.5959
  74   2.0000      -0.333817        -9.0836
  75   2.0000      -0.329133        -8.9562
  76   2.0000      -0.318080        -8.6554
  77   0.0000       0.082495         2.2448
  78   0.0000       0.097364         2.6494
  79   0.0000       0.119006         3.2383
  80   0.0000       0.125958         3.4275
  81   0.0000       0.129904         3.5349

MULLIKEN ATOMIC CHARGES
-----------------------
   0 C :   -0.343281
   1 C :    0.035265
   2 O :   -0.328703
   3 C :    0.393797
   4 O :   -0.369183
   5 C :   -0.223421
   6 C :    0.150316
   7 C :   -0.287436
   8 N :   -0.127857
   9 C :    0.203842
  10 S :   -0.439921
  11 N :   -0.206119
  12 C :    0.061962
  13 C :    0.007672
  14 C :   -0.173132
  15 C :   -0.133933
  16 C :   -0.273232
  17 C :    0.318739
  18 O :   -0.355183
  19 C :   -0.278717
  20 H :    0.112306
  21 H :    0.122940
  22 H :    0.110555
  23 H :    0.101808
  24 H :    0.127052
  25 H :    0.117689
  26 H :    0.146747
  27 H :    0.098090
  28 H :    0.197361
  29 H :    0.196150
  30 H :    0.160675
  31 H :    0.151941
  32 H :    0.164483
  33 H :    0.135428
  34 H :    0.242300
  35 H :    0.182998
Sum of atomic charges:   -0.0000000

LOEWDIN ATOMIC CHARGES
----------------------
   0 C :    0.103333
   1 C :   -0.012636
   2 O :    0.292726
   3 C :   -0.420325
   4 O :    0.128793
   5 C :   -0.086840
   6 C :   -0.084235
   7 C :    0.129804
   8 N :    0.404431
   9 C :   -0.457020
  10 S :   -0.036636
  11 N :    0.397007
  12 C :   -0.052563
  13 C :   -0.045456
  14 C :    0.016802
  15 C :    0.043612
  16 C :    0.001022
  17 C :   -0.192384
  18 O :    0.397966
  19 C :    0.033752
  20 H :   -0.037265
  21 H :   -0.021150
  22 H :   -0.030009
  23 H :   -0.034528
  24 H :   -0.021403
  25 H :   -0.011652
  26 H :   -0.003088
  27 H :   -0.020528
  28 H :   -0.057660
  29 H :   -0.064210
  30 H :   -0.007597
  31 H :   -0.026949
  32 H :   -0.018216
  33 H :   -0.032994
  34 H :   -0.151849
  35 H :   -0.022053

  Mayer bond orders larger than 0.100000
B(  0-C ,  1-C ) :   0.9576 B(  0-C , 20-H ) :   0.9693 B(  0-C , 21-H ) :   0.9763
B(  0-C , 22-H ) :   0.9757 B(  1-C ,  2-O ) :   0.9048 B(  1-C , 23-H ) :   0.9673
B(  1-C , 24-H ) :   0.9836 B(  2-O ,  3-C ) :   1.1921 B(  3-C ,  4-O ) :   2.1133
B(  3-C ,  5-C ) :   0.9137 B(  5-C ,  6-C ) :   1.7160 B(  5-C , 12-C ) :   0.9553
B(  6-C ,  7-C ) :   0.9529 B(  6-C ,  8-N ) :   1.1253 B(  7-C , 25-H ) :   0.9747
B(  7-C , 26-H ) :   0.9590 B(  7-C , 27-H ) :   0.9823 B(  8-N ,  9-C ) :   1.1977
B(  8-N , 28-H ) :   0.9505 B(  9-C , 10-S ) :   1.6130 B(  9-C , 11-N ) :   1.2822
B( 11-N , 12-C ) :   0.9981 B( 11-N , 29-H ) :   0.9496 B( 12-C , 13-C ) :   0.9324
B( 12-C , 30-H ) :   1.0070 B( 13-C , 14-C ) :   1.3690 B( 13-C , 19-C ) :   1.3539
B( 14-C , 15-C ) :   1.3976 B( 14-C , 31-H ) :   0.9709 B( 15-C , 16-C ) :   1.3635
B( 15-C , 32-H ) :   0.9701 B( 16-C , 17-C ) :   1.3266 B( 16-C , 33-H ) :   0.9834
B( 17-C , 18-O ) :   1.1144 B( 17-C , 19-C ) :   1.3640 B( 18-O , 34-H ) :   0.9784
B( 19-C , 35-H ) :   0.9522

MP2 TOTAL ENERGY:    -1274.324940425 Eh
FINAL SINGLE POINT ENERGY     -1274.324940424980

DIPOLE MOMENT
-------------
                                X             Y             Z
Electronic contribution:      9.34425       6.10515       5.66722
Nuclear contribution   :    -10.70627      -7.78178      -5.29185
                        -----------------------------------------
Total Dipole Moment    :     -1.36202      -1.67663       0.37536
                        -----------------------------------------
Magnitude (a.u.)       :      2.19251
Magnitude (Debye)      :      5.57292

Rotational constants in cm-1:     0.012238     0.009470     0.006651
Rotational constants in MHz :   366.884043   283.901695   199.396901

                             ****ORCA TERMINATED NORMALLY****
TOTAL RUN TIME: 0 days 1 hours 50 minutes 19 seconds 156 msec
