                         Program Version 5.0.0 -  RELEASE  -
|  1> ! ri-mp2 cc-pvtz cc-pvtz/c TightSCF NoKeepInts
|  2>
|  3> %scf
|  4>   MaxCore 4096
|  5> end
|  6> *xyz  0  1
|  7>     C       14.9553429   14.5346951   16.0949462
|  8>     C       16.2429816   14.2425176   16.8929725
|  9>     O       17.3705532   14.9919233   16.3794824
| 10>     C       17.2849319   16.3412948   16.1782848
| 11>     O       16.7462415   16.7886173   15.1816628
| 12>     C       17.6895300   17.1720199   17.3673880
| 13>     C       17.3933033   18.4944038   17.4595226
| 14>     C       16.5485175   19.3168613   16.5101706
| 15>     N       17.9306963   19.2606043   18.4988310
| 16>     C       18.9303959   18.8396227   19.3354669
| 17>     S       19.6557772   19.8580107   20.4180966
| 18>     N       19.3101385   17.5266789   19.2164296
| 19>     C       18.5753981   16.5120193   18.4394115
| 20>     C       17.8020053   15.6224098   19.4052710
| 21>     C       18.2256077   14.3012713   19.6446566
| 22>     C       17.5173230   13.4733553   20.5317454
| 23>     C       16.3805663   13.9719067   21.1906185
| 24>     C       15.9630669   15.2905091   20.9643603
| 25>     O       14.8668552   15.7754626   21.5994074
| 26>     C       16.6679292   16.1114890   20.0788039
| 27>     H       14.6014921   15.5582713   16.2701565
| 28>     H       14.1553139   13.8479318   16.3963155
| 29>     H       15.1285732   14.4060268   15.0188194
| 30>     H       16.0537812   14.4841666   17.9434729
| 31>     H       16.4712480   13.1705998   16.8350208
| 32>     H       15.5771169   18.8357183   16.3394985
| 33>     H       17.0438887   19.4070503   15.5347684
| 34>     H       16.3519147   20.3300645   16.8797032
| 35>     H       17.6750910   20.2314827   18.5846458
| 36>     H       20.0346282   17.2380831   19.8612214
| 37>     H       19.3175690   15.8909694   17.9178546
| 38>     H       19.1042568   13.9123770   19.1363059
| 39>     H       17.8516617   12.4523256   20.7091356
| 40>     H       15.8315724   13.3366530   21.8782672
| 41>     H       14.5591505   15.0931628   22.2152313
| 42>     H       16.3325804   17.1314442   19.9260547
| 43> *
| 44>
| 45>                          ****END OF INPUT****

CARTESIAN COORDINATES (ANGSTROEM)
---------------------------------
  C     14.955343   14.534695   16.094946
  C     16.242982   14.242518   16.892972
  O     17.370553   14.991923   16.379482
  C     17.284932   16.341295   16.178285
  O     16.746242   16.788617   15.181663
  C     17.689530   17.172020   17.367388
  C     17.393303   18.494404   17.459523
  C     16.548517   19.316861   16.510171
  N     17.930696   19.260604   18.498831
  C     18.930396   18.839623   19.335467
  S     19.655777   19.858011   20.418097
  N     19.310138   17.526679   19.216430
  C     18.575398   16.512019   18.439411
  C     17.802005   15.622410   19.405271
  C     18.225608   14.301271   19.644657
  C     17.517323   13.473355   20.531745
  C     16.380566   13.971907   21.190618
  C     15.963067   15.290509   20.964360
  O     14.866855   15.775463   21.599407
  C     16.667929   16.111489   20.078804
  H     14.601492   15.558271   16.270156
  H     14.155314   13.847932   16.396316
  H     15.128573   14.406027   15.018819
  H     16.053781   14.484167   17.943473
  H     16.471248   13.170600   16.835021
  H     15.577117   18.835718   16.339499
  H     17.043889   19.407050   15.534768
  H     16.351915   20.330064   16.879703
  H     17.675091   20.231483   18.584646
  H     20.034628   17.238083   19.861221
  H     19.317569   15.890969   17.917855
  H     19.104257   13.912377   19.136306
  H     17.851662   12.452326   20.709136
  H     15.831572   13.336653   21.878267
  H     14.559150   15.093163   22.215231
  H     16.332580   17.131444   19.926055

 Total Charge           Charge          ....    0
 Multiplicity           Mult            ....    1
 Number of Electrons    NEL             ....  154
 Basis Dimension        Dim             ....  828

ORBITAL ENERGIES
----------------

  NO   OCC          E(Eh)            E(eV)
   0   2.0000     -91.891116     -2500.4844
   1   2.0000     -20.602403      -560.6199
   2   2.0000     -20.581611      -560.0541
   3   2.0000     -20.547397      -559.1231
   4   2.0000     -15.631528      -425.3555
   5   2.0000     -15.610003      -424.7698
   6   2.0000     -11.393360      -310.0291
   7   2.0000     -11.385676      -309.8200
   8   2.0000     -11.337737      -308.5155
   9   2.0000     -11.320432      -308.0446
  10   2.0000     -11.312447      -307.8273
  11   2.0000     -11.296804      -307.4017
  12   2.0000     -11.264562      -306.5243
  13   2.0000     -11.261521      -306.4416
  14   2.0000     -11.259330      -306.3819
  15   2.0000     -11.254034      -306.2378
  16   2.0000     -11.249331      -306.1099
  17   2.0000     -11.243805      -305.9595
  18   2.0000     -11.243421      -305.9490
  19   2.0000     -11.220908      -305.3364
  20   2.0000      -8.896137      -242.0762
  21   2.0000      -6.577702      -178.9884
  22   2.0000      -6.575709      -178.9341
  23   2.0000      -6.575112      -178.9179
  24   2.0000      -1.443147       -39.2700
  25   2.0000      -1.422083       -38.6968
  26   2.0000      -1.351619       -36.7794
  27   2.0000      -1.342682       -36.5362
  28   2.0000      -1.241064       -33.7711
  29   2.0000      -1.162897       -31.6440
  30   2.0000      -1.121707       -30.5232
  31   2.0000      -1.046835       -28.4858
  32   2.0000      -1.030189       -28.0329
  33   2.0000      -1.021218       -27.7887
  34   2.0000      -0.998746       -27.1772
  35   2.0000      -0.986353       -26.8400
  36   2.0000      -0.925991       -25.1975
  37   2.0000      -0.888595       -24.1799
  38   2.0000      -0.849916       -23.1274
  39   2.0000      -0.844223       -22.9725
  40   2.0000      -0.839421       -22.8418
  41   2.0000      -0.826162       -22.4810
  42   2.0000      -0.749494       -20.3948
  43   2.0000      -0.735589       -20.0164
  44   2.0000      -0.716280       -19.4910
  45   2.0000      -0.701187       -19.0803
  46   2.0000      -0.691554       -18.8181
  47   2.0000      -0.678115       -18.4524
  48   2.0000      -0.666805       -18.1447
  49   2.0000      -0.666193       -18.1280
  50   2.0000      -0.652115       -17.7449
  51   2.0000      -0.648445       -17.6451
  52   2.0000      -0.638829       -17.3834
  53   2.0000      -0.612884       -16.6774
  54   2.0000      -0.611917       -16.6511
  55   2.0000      -0.603278       -16.4160
  56   2.0000      -0.601865       -16.3776
  57   2.0000      -0.582223       -15.8431
  58   2.0000      -0.573213       -15.5979
  59   2.0000      -0.567980       -15.4555
  60   2.0000      -0.554971       -15.1015
  61   2.0000      -0.541748       -14.7417
  62   2.0000      -0.536182       -14.5902
  63   2.0000      -0.529955       -14.4208
  64   2.0000      -0.523813       -14.2537
  65   2.0000      -0.517082       -14.0705
  66   2.0000      -0.505639       -13.7591
  67   2.0000      -0.496016       -13.4973
  68   2.0000      -0.480040       -13.0626
  69   2.0000      -0.464205       -12.6317
  70   2.0000      -0.453856       -12.3501
  71   2.0000      -0.442525       -12.0417
  72   2.0000      -0.358385        -9.7521
  73   2.0000      -0.354806        -9.6548
  74   2.0000      -0.331335        -9.0161
  75   2.0000      -0.327445        -8.9102
  76   2.0000      -0.318002        -8.6533
  77   0.0000       0.069159         1.8819
  78   0.0000       0.100782         2.7424
  79   0.0000       0.121638         3.3100
  80   0.0000       0.127695         3.4748
  81   0.0000       0.132379         3.6022

MULLIKEN ATOMIC CHARGES
-----------------------
   0 C :   -0.279741
   1 C :    0.032207
   2 O :   -0.385599
   3 C :    0.479576
   4 O :   -0.397817
   5 C :   -0.257913
   6 C :    0.153135
   7 C :   -0.270295
   8 N :   -0.125264
   9 C :    0.211509
  10 S :   -0.435571
  11 N :   -0.198014
  12 C :    0.047202
  13 C :    0.031944
  14 C :   -0.173851
  15 C :   -0.131158
  16 C :   -0.274613
  17 C :    0.304977
  18 O :   -0.356312
  19 C :   -0.248587
  20 H :    0.092277
  21 H :    0.098275
  22 H :    0.113691
  23 H :    0.102903
  24 H :    0.107595
  25 H :    0.126628
  26 H :    0.137456
  27 H :    0.094672
  28 H :    0.198683
  29 H :    0.192287
  30 H :    0.150984
  31 H :    0.152464
  32 H :    0.163330
  33 H :    0.133681
  34 H :    0.241949
  35 H :    0.167310
Sum of atomic charges:    0.0000000

LOEWDIN ATOMIC CHARGES
----------------------
   0 C :    0.104967
   1 C :   -0.015954
   2 O :    0.279315
   3 C :   -0.418795
   4 O :    0.123767
   5 C :   -0.099064
   6 C :   -0.058658
   7 C :    0.130773
   8 N :    0.406931
   9 C :   -0.456643
  10 S :   -0.032022
  11 N :    0.396504
  12 C :   -0.052908
  13 C :   -0.039947
  14 C :    0.014588
  15 C :    0.042388
  16 C :   -0.000981
  17 C :   -0.190903
  18 O :    0.396732
  19 C :    0.029340
  20 H :   -0.030557
  21 H :   -0.027639
  22 H :   -0.022280
  23 H :   -0.035118
  24 H :   -0.022758
  25 H :   -0.006418
  26 H :   -0.002595
  27 H :   -0.023104
  28 H :   -0.057367
  29 H :   -0.065299
  30 H :   -0.006483
  31 H :   -0.028920
  32 H :   -0.019569
  33 H :   -0.034182
  34 H :   -0.152464
  35 H :   -0.024676

  Mayer bond orders larger than 0.100000
B(  0-C ,  1-C ) :   0.9808 B(  0-C , 20-H ) :   0.9735 B(  0-C , 21-H ) :   0.9750
B(  0-C , 22-H ) :   0.9755 B(  1-C ,  2-O ) :   0.8901 B(  1-C , 23-H ) :   0.9652
B(  1-C , 24-H ) :   0.9807 B(  2-O ,  3-C ) :   1.0967 B(  3-C ,  4-O ) :   2.0335
B(  3-C ,  5-C ) :   1.0464 B(  5-C ,  6-C ) :   1.6552 B(  5-C , 12-C ) :   0.9680
B(  6-C ,  7-C ) :   0.9705 B(  6-C ,  8-N ) :   1.1547 B(  7-C , 25-H ) :   0.9652
B(  7-C , 26-H ) :   0.9558 B(  7-C , 27-H ) :   0.9883 B(  8-N ,  9-C ) :   1.1785
B(  8-N , 28-H ) :   0.9482 B(  9-C , 10-S ) :   1.6140 B(  9-C , 11-N ) :   1.3021
B( 11-N , 12-C ) :   0.9730 B( 11-N , 29-H ) :   0.9541 B( 12-C , 13-C ) :   0.9464
B( 12-C , 30-H ) :   1.0019 B( 13-C , 14-C ) :   1.3560 B( 13-C , 19-C ) :   1.3734
B( 14-C , 15-C ) :   1.3881 B( 14-C , 31-H ) :   0.9721 B( 15-C , 16-C ) :   1.3663
B( 15-C , 32-H ) :   0.9700 B( 16-C , 17-C ) :   1.3275 B( 16-C , 33-H ) :   0.9837
B( 17-C , 18-O ) :   1.1152 B( 17-C , 19-C ) :   1.3768 B( 18-O , 34-H ) :   0.9788
B( 19-C , 35-H ) :   0.9573

MP2 TOTAL ENERGY:    -1274.330664339 Eh
FINAL SINGLE POINT ENERGY     -1274.330664339206

DIPOLE MOMENT
-------------
                                X             Y             Z
Electronic contribution:     10.61012       8.68975       6.85234
Nuclear contribution   :    -11.72708     -10.27317      -6.55086
                        -----------------------------------------
Total Dipole Moment    :     -1.11696      -1.58342       0.30148
                        -----------------------------------------
Magnitude (a.u.)       :      1.96104
Magnitude (Debye)      :      4.98458

Rotational constants in cm-1:     0.011681     0.009417     0.006473
Rotational constants in MHz :   350.180634   282.325738   194.043488

                             ****ORCA TERMINATED NORMALLY****
TOTAL RUN TIME: 0 days 1 hours 46 minutes 21 seconds 380 msec
