                         Program Version 4.2.0 -  RELEASE  -
|  1> ! ri-mp2 cc-pvtz cc-pvtz/c TightSCF  NoKeepInts
|  2>
|  3> %scf
|  4>   MaxCore 4096
|  5> end
|  6> *xyz  0  1
|  7>     C       14.9453410   14.3372149   16.1075241
|  8>     C       16.2907089   14.0934060   16.8230352
|  9>     O       17.3138733   15.0639373   16.4854848
| 10>     C       17.0527858   16.3990791   16.3311604
| 11>     O       16.3170593   16.8194243   15.4558148
| 12>     C       17.6616020   17.2527470   17.4119114
| 13>     C       17.4635969   18.5950588   17.4743399
| 14>     C       16.6129688   19.4436312   16.5532419
| 15>     N       18.1101560   19.3549267   18.4538536
| 16>     C       19.0696898   18.8788038   19.3064689
| 17>     S       19.8800169   19.8688399   20.3548136
| 18>     N       19.3328936   17.5347833   19.2396717
| 19>     C       18.5583807   16.5588100   18.4524029
| 20>     C       17.7758081   15.6591380   19.4030968
| 21>     C       18.2336698   14.3575081   19.6822189
| 22>     C       17.5177808   13.5194703   20.5536079
| 23>     C       16.3375928   13.9882719   21.1554997
| 24>     C       15.8850098   15.2877072   20.8889398
| 25>     O       14.7476588   15.7443773   21.4704812
| 26>     C       16.5984463   16.1190085   20.0200501
| 27>     H       14.4634955   15.2548141   16.4675176
| 28>     H       14.2575928   13.5043244   16.2963713
| 29>     H       15.0899621   14.4186792   15.0226612
| 30>     H       16.1058169   14.1131513   17.9038885
| 31>     H       16.6580472   13.0899329   16.5731135
| 32>     H       15.5736235   19.0911409   16.5537683
| 33>     H       16.9795185   19.3777686   15.5207657
| 34>     H       16.6018709   20.5034663   16.8332523
| 35>     H       17.9352694   20.3455625   18.5101641
| 36>     H       20.0239008   17.2083069   19.9027490
| 37>     H       19.2778075   15.9356415   17.9023688
| 38>     H       19.1457830   13.9922620   19.2173385
| 39>     H       17.8793146   12.5138642   20.7626488
| 40>     H       15.7822373   13.3454381   21.8308305
| 41>     H       14.4322716   15.0571117   22.0766955
| 42>     H       16.2354490   17.1243920   19.8362489
| 43> *
| 44>
| 45>                          ****END OF INPUT****

CARTESIAN COORDINATES (ANGSTROEM)
---------------------------------
  C     14.945341   14.337215   16.107524
  C     16.290709   14.093406   16.823035
  O     17.313873   15.063937   16.485485
  C     17.052786   16.399079   16.331160
  O     16.317059   16.819424   15.455815
  C     17.661602   17.252747   17.411911
  C     17.463597   18.595059   17.474340
  C     16.612969   19.443631   16.553242
  N     18.110156   19.354927   18.453854
  C     19.069690   18.878804   19.306469
  S     19.880017   19.868840   20.354814
  N     19.332894   17.534783   19.239672
  C     18.558381   16.558810   18.452403
  C     17.775808   15.659138   19.403097
  C     18.233670   14.357508   19.682219
  C     17.517781   13.519470   20.553608
  C     16.337593   13.988272   21.155500
  C     15.885010   15.287707   20.888940
  O     14.747659   15.744377   21.470481
  C     16.598446   16.119008   20.020050
  H     14.463495   15.254814   16.467518
  H     14.257593   13.504324   16.296371
  H     15.089962   14.418679   15.022661
  H     16.105817   14.113151   17.903889
  H     16.658047   13.089933   16.573114
  H     15.573623   19.091141   16.553768
  H     16.979519   19.377769   15.520766
  H     16.601871   20.503466   16.833252
  H     17.935269   20.345562   18.510164
  H     20.023901   17.208307   19.902749
  H     19.277807   15.935641   17.902369
  H     19.145783   13.992262   19.217339
  H     17.879315   12.513864   20.762649
  H     15.782237   13.345438   21.830830
  H     14.432272   15.057112   22.076695
  H     16.235449   17.124392   19.836249

 Total Charge           Charge          ....    0
 Multiplicity           Mult            ....    1
 Number of Electrons    NEL             ....  154
 Basis Dimension        Dim             ....  828

ORBITAL ENERGIES
----------------

  NO   OCC          E(Eh)            E(eV)
   0   2.0000     -91.889796     -2500.4485
   1   2.0000     -20.601771      -560.6027
   2   2.0000     -20.585202      -560.1518
   3   2.0000     -20.544324      -559.0395
   4   2.0000     -15.630152      -425.3181
   5   2.0000     -15.609131      -424.7461
   6   2.0000     -11.394278      -310.0541
   7   2.0000     -11.384691      -309.7932
   8   2.0000     -11.336847      -308.4913
   9   2.0000     -11.319682      -308.0242
  10   2.0000     -11.310450      -307.7730
  11   2.0000     -11.297566      -307.4224
  12   2.0000     -11.264062      -306.5107
  13   2.0000     -11.260810      -306.4222
  14   2.0000     -11.258377      -306.3560
  15   2.0000     -11.252861      -306.2059
  16   2.0000     -11.248363      -306.0835
  17   2.0000     -11.243114      -305.9407
  18   2.0000     -11.242672      -305.9286
  19   2.0000     -11.219915      -305.3094
  20   2.0000      -8.894850      -242.0412
  21   2.0000      -6.576422      -178.9535
  22   2.0000      -6.574420      -178.8991
  23   2.0000      -6.573831      -178.8830
  24   2.0000      -1.441708       -39.2309
  25   2.0000      -1.421432       -38.6791
  26   2.0000      -1.351556       -36.7777
  27   2.0000      -1.341317       -36.4991
  28   2.0000      -1.239941       -33.7405
  29   2.0000      -1.162165       -31.6241
  30   2.0000      -1.120979       -30.5034
  31   2.0000      -1.045801       -28.4577
  32   2.0000      -1.031186       -28.0600
  33   2.0000      -1.020393       -27.7663
  34   2.0000      -0.997121       -27.1330
  35   2.0000      -0.985078       -26.8053
  36   2.0000      -0.924792       -25.1649
  37   2.0000      -0.890881       -24.2421
  38   2.0000      -0.849049       -23.1038
  39   2.0000      -0.842282       -22.9197
  40   2.0000      -0.838384       -22.8136
  41   2.0000      -0.822767       -22.3886
  42   2.0000      -0.747124       -20.3303
  43   2.0000      -0.734548       -19.9881
  44   2.0000      -0.716866       -19.5069
  45   2.0000      -0.700224       -19.0541
  46   2.0000      -0.689966       -18.7749
  47   2.0000      -0.676438       -18.4068
  48   2.0000      -0.667006       -18.1502
  49   2.0000      -0.664002       -18.0684
  50   2.0000      -0.651572       -17.7302
  51   2.0000      -0.646708       -17.5978
  52   2.0000      -0.638229       -17.3671
  53   2.0000      -0.612253       -16.6603
  54   2.0000      -0.609771       -16.5927
  55   2.0000      -0.602786       -16.4026
  56   2.0000      -0.601153       -16.3582
  57   2.0000      -0.581412       -15.8210
  58   2.0000      -0.572001       -15.5649
  59   2.0000      -0.568534       -15.4706
  60   2.0000      -0.557404       -15.1677
  61   2.0000      -0.539720       -14.6865
  62   2.0000      -0.534649       -14.5485
  63   2.0000      -0.529032       -14.3957
  64   2.0000      -0.523115       -14.2347
  65   2.0000      -0.515066       -14.0157
  66   2.0000      -0.504103       -13.7173
  67   2.0000      -0.494523       -13.4567
  68   2.0000      -0.484783       -13.1916
  69   2.0000      -0.463113       -12.6019
  70   2.0000      -0.451502       -12.2860
  71   2.0000      -0.441298       -12.0083
  72   2.0000      -0.356188        -9.6924
  73   2.0000      -0.354110        -9.6358
  74   2.0000      -0.330291        -8.9877
  75   2.0000      -0.326404        -8.8819
  76   2.0000      -0.317304        -8.6343
  77   0.0000       0.072051         1.9606
  78   0.0000       0.101322         2.7571
  79   0.0000       0.122597         3.3360
  80   0.0000       0.129263         3.5174
  81   0.0000       0.133218         3.6250

MULLIKEN ATOMIC CHARGES
-----------------------
   0 C :   -0.282259
   1 C :    0.034854
   2 O :   -0.388169
   3 C :    0.483172
   4 O :   -0.409722
   5 C :   -0.266817
   6 C :    0.164682
   7 C :   -0.268537
   8 N :   -0.124792
   9 C :    0.215545
  10 S :   -0.440011
  11 N :   -0.207549
  12 C :    0.071225
  13 C :    0.024973
  14 C :   -0.179202
  15 C :   -0.130800
  16 C :   -0.277048
  17 C :    0.307437
  18 O :   -0.356221
  19 C :   -0.244126
  20 H :    0.097686
  21 H :    0.096668
  22 H :    0.114175
  23 H :    0.100057
  24 H :    0.105367
  25 H :    0.128870
  26 H :    0.134411
  27 H :    0.095045
  28 H :    0.197837
  29 H :    0.194535
  30 H :    0.150314
  31 H :    0.152705
  32 H :    0.162568
  33 H :    0.133082
  34 H :    0.241913
  35 H :    0.168134
Sum of atomic charges:   -0.0000000

LOEWDIN ATOMIC CHARGES
----------------------
   0 C :    0.103862
   1 C :   -0.014421
   2 O :    0.283913
   3 C :   -0.414889
   4 O :    0.117446
   5 C :   -0.098236
   6 C :   -0.058093
   7 C :    0.131154
   8 N :    0.407057
   9 C :   -0.455722
  10 S :   -0.034925
  11 N :    0.396306
  12 C :   -0.052891
  13 C :   -0.037741
  14 C :    0.013511
  15 C :    0.041355
  16 C :   -0.002181
  17 C :   -0.190410
  18 O :    0.396605
  19 C :    0.029243
  20 H :   -0.029118
  21 H :   -0.027918
  22 H :   -0.023192
  23 H :   -0.032093
  24 H :   -0.024291
  25 H :   -0.005609
  26 H :   -0.003094
  27 H :   -0.023392
  28 H :   -0.057429
  29 H :   -0.065216
  30 H :   -0.008835
  31 H :   -0.029288
  32 H :   -0.019867
  33 H :   -0.034527
  34 H :   -0.152651
  35 H :   -0.024422

  Mayer bond orders larger than 0.100000
B(  0-C ,  1-C ) :   0.9813 B(  0-C , 20-H ) :   0.9739 B(  0-C , 21-H ) :   0.9740
B(  0-C , 22-H ) :   0.9745 B(  1-C ,  2-O ) :   0.8937 B(  1-C , 23-H ) :   0.9673
B(  1-C , 24-H ) :   0.9810 B(  2-O ,  3-C ) :   1.0963 B(  3-C ,  4-O ) :   2.0126
B(  3-C ,  5-C ) :   1.0668 B(  5-C ,  6-C ) :   1.6480 B(  5-C , 12-C ) :   0.9709
B(  6-C ,  7-C ) :   0.9668 B(  6-C ,  8-N ) :   1.1598 B(  7-C , 25-H ) :   0.9618
B(  7-C , 26-H ) :   0.9581 B(  7-C , 27-H ) :   0.9903 B(  8-N ,  9-C ) :   1.1831
B(  8-N , 28-H ) :   0.9476 B(  9-C , 10-S ) :   1.6052 B(  9-C , 11-N ) :   1.3075
B( 11-N , 12-C ) :   0.9700 B( 11-N , 29-H ) :   0.9524 B( 12-C , 13-C ) :   0.9411
B( 12-C , 30-H ) :   1.0013 B( 13-C , 14-C ) :   1.3515 B( 13-C , 19-C ) :   1.3781
B( 14-C , 15-C ) :   1.3942 B( 14-C , 31-H ) :   0.9724 B( 15-C , 16-C ) :   1.3620
B( 15-C , 32-H ) :   0.9705 B( 16-C , 17-C ) :   1.3295 B( 16-C , 33-H ) :   0.9843
B( 17-C , 18-O ) :   1.1141 B( 17-C , 19-C ) :   1.3721 B( 18-O , 34-H ) :   0.9788
B( 19-C , 35-H ) :   0.9576

MP2 TOTAL ENERGY:    -1274.334461187 Eh
FINAL SINGLE POINT ENERGY     -1274.334461186643

DIPOLE MOMENT
-------------
                                X             Y             Z
Electronic contribution:     10.31880       9.33441       7.00408
Nuclear contribution   :    -11.33966     -10.98581      -6.88458
                        -----------------------------------------
Total Dipole Moment    :     -1.02086      -1.65141       0.11949
                        -----------------------------------------
Magnitude (a.u.)       :      1.94514
Magnitude (Debye)      :      4.94416

Rotational constants in cm-1:     0.012186     0.008924     0.006387
Rotational constants in MHz :   365.324259   267.538518   191.481435

                             ****ORCA TERMINATED NORMALLY****
TOTAL RUN TIME: 0 days 1 hours 43 minutes 48 seconds 451 msec
