                         Program Version 4.2.0 -  RELEASE  -
|  1> ! ri-mp2 cc-pvtz cc-pvtz/c TightSCF  NoKeepInts
|  2>
|  3> %scf
|  4>   MaxCore 4096
|  5> end
|  6> *xyz  0  1
|  7>     C       14.6563663   14.2016663   15.7041686
|  8>     C       15.5334960   14.8576918   16.7831166
|  9>     O       16.5318008   15.6424884   16.1078597
| 10>     C       17.7835102   15.6660537   16.6455395
| 11>     O       18.3781281   14.6284276   16.8837814
| 12>     C       18.0078853   16.8977485   17.4678941
| 13>     C       17.5477038   18.1257479   17.1221838
| 14>     C       16.7862130   18.4996379   15.8677421
| 15>     N       17.8309921   19.2280803   17.9340185
| 16>     C       18.6631888   19.2036419   19.0226300
| 17>     S       19.0284116   20.5761264   19.8700085
| 18>     N       19.1773666   17.9806048   19.3750290
| 19>     C       18.7940415   16.6927993   18.7653114
| 20>     C       17.9867271   15.8512998   19.7500754
| 21>     C       18.3945729   14.5442167   20.0736404
| 22>     C       17.6432185   13.7591376   20.9641046
| 23>     C       16.4719423   14.2841878   21.5360253
| 24>     C       16.0597744   15.5839977   21.2129691
| 25>     O       14.9234645   16.0903552   21.7544976
| 26>     C       16.8093207   16.3627794   20.3258878
| 27>     H       15.2627182   13.5556659   15.0566884
| 28>     H       14.1738394   14.9638538   15.0800268
| 29>     H       13.8737070   13.5872827   16.1654610
| 30>     H       14.9294726   15.4941755   17.4428699
| 31>     H       15.9933755   14.0674559   17.3935082
| 32>     H       17.1899212   17.9764126   14.9917833
| 33>     H       16.8386297   19.5735133   15.6506368
| 34>     H       15.7277199   18.2266880   15.9613991
| 35>     H       17.4642950   20.1347307   17.6913298
| 36>     H       19.7641851   17.9870810   20.1994800
| 37>     H       19.7174343   16.1492531   18.5178111
| 38>     H       19.2891469   14.1284334   19.6161079
| 39>     H       17.9669697   12.7472349   21.2015074
| 40>     H       15.8875983   13.6800749   22.2221454
| 41>     H       14.5860102   15.4361695   22.3849409
| 42>     H       16.4738526   17.3672858   20.0918205
| 43> *
| 44>
| 45>                          ****END OF INPUT****

CARTESIAN COORDINATES (ANGSTROEM)
---------------------------------
  C     14.656366   14.201666   15.704169
  C     15.533496   14.857692   16.783117
  O     16.531801   15.642488   16.107860
  C     17.783510   15.666054   16.645540
  O     18.378128   14.628428   16.883781
  C     18.007885   16.897748   17.467894
  C     17.547704   18.125748   17.122184
  C     16.786213   18.499638   15.867742
  N     17.830992   19.228080   17.934019
  C     18.663189   19.203642   19.022630
  S     19.028412   20.576126   19.870008
  N     19.177367   17.980605   19.375029
  C     18.794041   16.692799   18.765311
  C     17.986727   15.851300   19.750075
  C     18.394573   14.544217   20.073640
  C     17.643218   13.759138   20.964105
  C     16.471942   14.284188   21.536025
  C     16.059774   15.583998   21.212969
  O     14.923464   16.090355   21.754498
  C     16.809321   16.362779   20.325888
  H     15.262718   13.555666   15.056688
  H     14.173839   14.963854   15.080027
  H     13.873707   13.587283   16.165461
  H     14.929473   15.494176   17.442870
  H     15.993376   14.067456   17.393508
  H     17.189921   17.976413   14.991783
  H     16.838630   19.573513   15.650637
  H     15.727720   18.226688   15.961399
  H     17.464295   20.134731   17.691330
  H     19.764185   17.987081   20.199480
  H     19.717434   16.149253   18.517811
  H     19.289147   14.128433   19.616108
  H     17.966970   12.747235   21.201507
  H     15.887598   13.680075   22.222145
  H     14.586010   15.436170   22.384941
  H     16.473853   17.367286   20.091821

 Total Charge           Charge          ....    0
 Multiplicity           Mult            ....    1
 Number of Electrons    NEL             ....  154
 Basis Dimension        Dim             ....  828

ORBITAL ENERGIES
----------------

  NO   OCC          E(Eh)            E(eV)
   0   2.0000     -91.888933     -2500.4250
   1   2.0000     -20.596278      -560.4532
   2   2.0000     -20.584547      -560.1340
   3   2.0000     -20.555828      -559.3525
   4   2.0000     -15.628519      -425.2736
   5   2.0000     -15.608493      -424.7287
   6   2.0000     -11.394512      -310.0604
   7   2.0000     -11.384485      -309.7876
   8   2.0000     -11.333186      -308.3917
   9   2.0000     -11.312383      -307.8256
  10   2.0000     -11.308807      -307.7283
  11   2.0000     -11.298250      -307.4410
  12   2.0000     -11.260632      -306.4174
  13   2.0000     -11.259458      -306.3854
  14   2.0000     -11.257877      -306.3424
  15   2.0000     -11.252521      -306.1967
  16   2.0000     -11.242151      -305.9145
  17   2.0000     -11.238013      -305.8019
  18   2.0000     -11.235302      -305.7281
  19   2.0000     -11.228265      -305.5366
  20   2.0000      -8.894012      -242.0184
  21   2.0000      -6.575590      -178.9309
  22   2.0000      -6.573580      -178.8762
  23   2.0000      -6.572996      -178.8603
  24   2.0000      -1.453058       -39.5397
  25   2.0000      -1.416044       -38.5325
  26   2.0000      -1.357102       -36.9286
  27   2.0000      -1.339638       -36.4534
  28   2.0000      -1.237965       -33.6868
  29   2.0000      -1.156534       -31.4709
  30   2.0000      -1.121534       -30.5185
  31   2.0000      -1.044961       -28.4348
  32   2.0000      -1.034428       -28.1482
  33   2.0000      -1.013968       -27.5915
  34   2.0000      -0.999393       -27.1949
  35   2.0000      -0.984754       -26.7965
  36   2.0000      -0.923514       -25.1301
  37   2.0000      -0.880567       -23.9614
  38   2.0000      -0.848830       -23.0978
  39   2.0000      -0.839002       -22.8304
  40   2.0000      -0.832573       -22.6555
  41   2.0000      -0.827019       -22.5043
  42   2.0000      -0.756895       -20.5962
  43   2.0000      -0.735664       -20.0184
  44   2.0000      -0.728568       -19.8254
  45   2.0000      -0.694235       -18.8911
  46   2.0000      -0.686584       -18.6829
  47   2.0000      -0.681093       -18.5335
  48   2.0000      -0.674233       -18.3468
  49   2.0000      -0.658822       -17.9275
  50   2.0000      -0.648122       -17.6363
  51   2.0000      -0.641207       -17.4481
  52   2.0000      -0.629890       -17.1402
  53   2.0000      -0.619668       -16.8620
  54   2.0000      -0.604725       -16.4554
  55   2.0000      -0.603199       -16.4139
  56   2.0000      -0.599662       -16.3176
  57   2.0000      -0.579450       -15.7676
  58   2.0000      -0.576455       -15.6861
  59   2.0000      -0.563703       -15.3391
  60   2.0000      -0.560458       -15.2508
  61   2.0000      -0.549482       -14.9522
  62   2.0000      -0.534420       -14.5423
  63   2.0000      -0.521758       -14.1977
  64   2.0000      -0.516458       -14.0535
  65   2.0000      -0.512141       -13.9361
  66   2.0000      -0.502878       -13.6840
  67   2.0000      -0.497828       -13.5466
  68   2.0000      -0.482776       -13.1370
  69   2.0000      -0.465075       -12.6553
  70   2.0000      -0.459473       -12.5029
  71   2.0000      -0.451811       -12.2944
  72   2.0000      -0.354288        -9.6407
  73   2.0000      -0.348195        -9.4749
  74   2.0000      -0.328270        -8.9327
  75   2.0000      -0.319560        -8.6957
  76   2.0000      -0.315853        -8.5948
  77   0.0000       0.070815         1.9270
  78   0.0000       0.104353         2.8396
  79   0.0000       0.118187         3.2160
  80   0.0000       0.132050         3.5933
  81   0.0000       0.135257         3.6805

MULLIKEN ATOMIC CHARGES
-----------------------
   0 C :   -0.256519
   1 C :    0.037918
   2 O :   -0.376233
   3 C :    0.457039
   4 O :   -0.397408
   5 C :   -0.202846
   6 C :    0.139492
   7 C :   -0.280431
   8 N :   -0.125100
   9 C :    0.203646
  10 S :   -0.439688
  11 N :   -0.201574
  12 C :    0.055871
  13 C :    0.047575
  14 C :   -0.163216
  15 C :   -0.133738
  16 C :   -0.280435
  17 C :    0.313841
  18 O :   -0.359109
  19 C :   -0.285174
  20 H :    0.103198
  21 H :    0.090439
  22 H :    0.087068
  23 H :    0.093504
  24 H :    0.113023
  25 H :    0.124233
  26 H :    0.105093
  27 H :    0.124461
  28 H :    0.197189
  29 H :    0.194305
  30 H :    0.154909
  31 H :    0.156773
  32 H :    0.161216
  33 H :    0.130667
  34 H :    0.241058
  35 H :    0.168954
Sum of atomic charges:   -0.0000000

LOEWDIN ATOMIC CHARGES
----------------------
   0 C :    0.107974
   1 C :   -0.015143
   2 O :    0.291587
   3 C :   -0.418034
   4 O :    0.128495
   5 C :   -0.094057
   6 C :   -0.075184
   7 C :    0.126251
   8 N :    0.404024
   9 C :   -0.457283
  10 S :   -0.036288
  11 N :    0.396994
  12 C :   -0.045459
  13 C :   -0.040612
  14 C :    0.021402
  15 C :    0.041426
  16 C :   -0.002087
  17 C :   -0.194078
  18 O :    0.393321
  19 C :    0.028642
  20 H :   -0.022984
  21 H :   -0.029713
  22 H :   -0.026352
  23 H :   -0.034372
  24 H :   -0.024600
  25 H :   -0.007807
  26 H :   -0.019337
  27 H :   -0.010140
  28 H :   -0.058702
  29 H :   -0.064090
  30 H :   -0.004708
  31 H :   -0.024625
  32 H :   -0.020297
  33 H :   -0.035603
  34 H :   -0.153910
  35 H :   -0.024650

  Mayer bond orders larger than 0.100000
B(  0-C ,  1-C ) :   0.9810 B(  0-C , 20-H ) :   0.9779 B(  0-C , 21-H ) :   0.9800
B(  0-C , 22-H ) :   0.9761 B(  1-C ,  2-O ) :   0.8799 B(  1-C , 23-H ) :   0.9738
B(  1-C , 24-H ) :   0.9703 B(  2-O ,  3-C ) :   1.0943 B(  3-C ,  4-O ) :   2.0331
B(  3-C ,  5-C ) :   1.0219 B(  5-C ,  6-C ) :   1.6678 B(  5-C , 12-C ) :   0.9651
B(  6-C ,  7-C ) :   0.9515 B(  6-C ,  8-N ) :   1.1391 B(  7-C , 25-H ) :   0.9709
B(  7-C , 26-H ) :   0.9875 B(  7-C , 27-H ) :   0.9637 B(  8-N ,  9-C ) :   1.1845
B(  8-N , 28-H ) :   0.9499 B(  9-C , 10-S ) :   1.6108 B(  9-C , 11-N ) :   1.2997
B( 11-N , 12-C ) :   0.9933 B( 11-N , 29-H ) :   0.9517 B( 12-C , 13-C ) :   0.9439
B( 12-C , 30-H ) :   0.9983 B( 13-C , 14-C ) :   1.3771 B( 13-C , 19-C ) :   1.3660
B( 14-C , 15-C ) :   1.3936 B( 14-C , 31-H ) :   0.9638 B( 15-C , 16-C ) :   1.3639
B( 15-C , 32-H ) :   0.9708 B( 16-C , 17-C ) :   1.3307 B( 16-C , 33-H ) :   0.9849
B( 17-C , 18-O ) :   1.1092 B( 17-C , 19-C ) :   1.3735 B( 18-O , 34-H ) :   0.9798
B( 19-C , 35-H ) :   0.9579

MP2 TOTAL ENERGY:    -1274.324411354 Eh
FINAL SINGLE POINT ENERGY     -1274.324411354179

DIPOLE MOMENT
-------------
                                X             Y             Z
Electronic contribution:     11.25680       9.98733       8.39462
Nuclear contribution   :    -12.63147     -11.22560      -8.90788
                        -----------------------------------------
Total Dipole Moment    :     -1.37467      -1.23827      -0.51326
                        -----------------------------------------
Magnitude (a.u.)       :      1.92002
Magnitude (Debye)      :      4.88030

Rotational constants in cm-1:     0.011435     0.009055     0.006400
Rotational constants in MHz :   342.799243   271.473415   191.862522

                             ****ORCA TERMINATED NORMALLY****
TOTAL RUN TIME: 0 days 1 hours 42 minutes 55 seconds 836 msec
