                         Program Version 4.2.0 -  RELEASE  -
|  1> ! ri-mp2 cc-pvtz cc-pvtz/c TightSCF  NoKeepInts
|  2>
|  3> %scf
|  4>   MaxCore 4096
|  5> end
|  6> *xyz  0  1
|  7>     C       15.5171091   13.6573909   15.7651097
|  8>     C       15.2405365   15.1504889   15.4869797
|  9>     O       16.2840815   16.0809156   15.8830134
| 10>     C       17.3586862   15.8316080   16.6970332
| 11>     O       17.8961705   14.7431544   16.8083958
| 12>     C       17.7470850   16.9918486   17.5718075
| 13>     C       17.3609508   18.2826928   17.3869311
| 14>     C       16.4919394   18.8545038   16.2849763
| 15>     N       17.8381898   19.2797677   18.2446829
| 16>     C       18.8035739   19.0990084   19.1992416
| 17>     S       19.4025671   20.3618554   20.0836229
| 18>     N       19.2465087   17.8143975   19.3830952
| 19>     C       18.6533869   16.6206888   18.7522478
| 20>     C       17.8939493   15.7919450   19.7854393
| 21>     C       18.1887673   14.4271202   19.9599973
| 22>     C       17.4898456   13.6578928   20.9053182
| 23>     C       16.4860318   14.2576597   21.6845431
| 24>     C       16.1863489   15.6157001   21.5113968
| 25>     O       15.2129660   16.1962313   22.2576587
| 26>     C       16.8832684   16.3785662   20.5691359
| 27>     H       16.4170962   13.3183842   15.2366247
| 28>     H       14.6762411   13.0451109   15.4180985
| 29>     H       15.6438430   13.4703575   16.8391132
| 30>     H       15.0425422   15.2804882   14.4152565
| 31>     H       14.3189489   15.4236454   16.0169586
| 32>     H       15.4552333   18.5123860   16.3922857
| 33>     H       16.8544277   18.5371512   15.2991997
| 34>     H       16.4775914   19.9511670   16.2823542
| 35>     H       17.5260906   20.2301258   18.1253272
| 36>     H       19.9363182   17.7015530   20.1147311
| 37>     H       19.4796124   16.0093790   18.3611031
| 38>     H       18.9525445   13.9566693   19.3453787
| 39>     H       17.7238613   12.6016904   21.0256342
| 40>     H       15.9425896   13.6668700   22.4142855
| 41>     H       14.8807862   15.5250638   22.8724452
| 42>     H       16.6373106   17.4285222   20.4545772
| 43> *
| 44>
| 45>                          ****END OF INPUT****

CARTESIAN COORDINATES (ANGSTROEM)
---------------------------------
  C     15.517109   13.657391   15.765110
  C     15.240536   15.150489   15.486980
  O     16.284081   16.080916   15.883013
  C     17.358686   15.831608   16.697033
  O     17.896171   14.743154   16.808396
  C     17.747085   16.991849   17.571807
  C     17.360951   18.282693   17.386931
  C     16.491939   18.854504   16.284976
  N     17.838190   19.279768   18.244683
  C     18.803574   19.099008   19.199242
  S     19.402567   20.361855   20.083623
  N     19.246509   17.814397   19.383095
  C     18.653387   16.620689   18.752248
  C     17.893949   15.791945   19.785439
  C     18.188767   14.427120   19.959997
  C     17.489846   13.657893   20.905318
  C     16.486032   14.257660   21.684543
  C     16.186349   15.615700   21.511397
  O     15.212966   16.196231   22.257659
  C     16.883268   16.378566   20.569136
  H     16.417096   13.318384   15.236625
  H     14.676241   13.045111   15.418098
  H     15.643843   13.470357   16.839113
  H     15.042542   15.280488   14.415256
  H     14.318949   15.423645   16.016959
  H     15.455233   18.512386   16.392286
  H     16.854428   18.537151   15.299200
  H     16.477591   19.951167   16.282354
  H     17.526091   20.230126   18.125327
  H     19.936318   17.701553   20.114731
  H     19.479612   16.009379   18.361103
  H     18.952544   13.956669   19.345379
  H     17.723861   12.601690   21.025634
  H     15.942590   13.666870   22.414285
  H     14.880786   15.525064   22.872445
  H     16.637311   17.428522   20.454577

 Total Charge           Charge          ....    0
 Multiplicity           Mult            ....    1
 Number of Electrons    NEL             ....  154
 Basis Dimension        Dim             ....  828

ORBITAL ENERGIES
----------------

  NO   OCC          E(Eh)            E(eV)
   0   2.0000     -91.887447     -2500.3846
   1   2.0000     -20.597362      -560.4827
   2   2.0000     -20.592014      -560.3372
   3   2.0000     -20.545000      -559.0579
   4   2.0000     -15.627467      -425.2450
   5   2.0000     -15.606087      -424.6632
   6   2.0000     -11.398609      -310.1719
   7   2.0000     -11.382196      -309.7253
   8   2.0000     -11.335174      -308.4458
   9   2.0000     -11.307850      -307.7022
  10   2.0000     -11.307526      -307.6934
  11   2.0000     -11.304679      -307.6160
  12   2.0000     -11.259414      -306.3842
  13   2.0000     -11.258023      -306.3464
  14   2.0000     -11.253585      -306.2256
  15   2.0000     -11.248066      -306.0754
  16   2.0000     -11.237669      -305.7925
  17   2.0000     -11.233651      -305.6832
  18   2.0000     -11.230620      -305.6007
  19   2.0000     -11.224854      -305.4438
  20   2.0000      -8.892517      -241.9777
  21   2.0000      -6.574097      -178.8903
  22   2.0000      -6.572088      -178.8356
  23   2.0000      -6.571504      -178.8197
  24   2.0000      -1.444565       -39.3086
  25   2.0000      -1.411755       -38.4158
  26   2.0000      -1.356448       -36.9108
  27   2.0000      -1.338596       -36.4250
  28   2.0000      -1.236292       -33.6412
  29   2.0000      -1.152097       -31.3501
  30   2.0000      -1.118222       -30.4284
  31   2.0000      -1.041834       -28.3498
  32   2.0000      -1.034404       -28.1476
  33   2.0000      -1.009668       -27.4745
  34   2.0000      -0.996833       -27.1252
  35   2.0000      -0.982030       -26.7224
  36   2.0000      -0.921163       -25.0661
  37   2.0000      -0.896464       -24.3940
  38   2.0000      -0.847649       -23.0657
  39   2.0000      -0.835799       -22.7432
  40   2.0000      -0.828158       -22.5353
  41   2.0000      -0.818071       -22.2608
  42   2.0000      -0.742633       -20.2081
  43   2.0000      -0.725731       -19.7481
  44   2.0000      -0.724095       -19.7036
  45   2.0000      -0.690186       -18.7809
  46   2.0000      -0.683653       -18.6031
  47   2.0000      -0.677178       -18.4269
  48   2.0000      -0.674060       -18.3421
  49   2.0000      -0.665037       -18.0966
  50   2.0000      -0.646641       -17.5960
  51   2.0000      -0.643546       -17.5118
  52   2.0000      -0.634248       -17.2588
  53   2.0000      -0.607291       -16.5252
  54   2.0000      -0.600667       -16.3450
  55   2.0000      -0.599499       -16.3132
  56   2.0000      -0.595516       -16.2048
  57   2.0000      -0.576867       -15.6973
  58   2.0000      -0.573482       -15.6053
  59   2.0000      -0.569800       -15.5051
  60   2.0000      -0.558058       -15.1855
  61   2.0000      -0.543002       -14.7758
  62   2.0000      -0.537476       -14.6255
  63   2.0000      -0.526131       -14.3167
  64   2.0000      -0.516958       -14.0671
  65   2.0000      -0.510486       -13.8910
  66   2.0000      -0.498988       -13.5781
  67   2.0000      -0.494606       -13.4589
  68   2.0000      -0.479010       -13.0345
  69   2.0000      -0.462080       -12.5738
  70   2.0000      -0.453249       -12.3335
  71   2.0000      -0.447258       -12.1705
  72   2.0000      -0.353194        -9.6109
  73   2.0000      -0.344144        -9.3646
  74   2.0000      -0.326651        -8.8886
  75   2.0000      -0.315460        -8.5841
  76   2.0000      -0.313741        -8.5373
  77   0.0000       0.076084         2.0703
  78   0.0000       0.111992         3.0474
  79   0.0000       0.121556         3.3077
  80   0.0000       0.135589         3.6896
  81   0.0000       0.138990         3.7821

MULLIKEN ATOMIC CHARGES
-----------------------
   0 C :   -0.289226
   1 C :    0.049976
   2 O :   -0.365930
   3 C :    0.440647
   4 O :   -0.420203
   5 C :   -0.162713
   6 C :    0.145381
   7 C :   -0.285079
   8 N :   -0.122414
   9 C :    0.200935
  10 S :   -0.440477
  11 N :   -0.198414
  12 C :    0.038524
  13 C :    0.055432
  14 C :   -0.166127
  15 C :   -0.134559
  16 C :   -0.279607
  17 C :    0.311728
  18 O :   -0.358986
  19 C :   -0.273862
  20 H :    0.114678
  21 H :    0.096942
  22 H :    0.110609
  23 H :    0.095448
  24 H :    0.087439
  25 H :    0.124472
  26 H :    0.128189
  27 H :    0.103006
  28 H :    0.196536
  29 H :    0.193830
  30 H :    0.154918
  31 H :    0.155535
  32 H :    0.159697
  33 H :    0.128374
  34 H :    0.240067
  35 H :    0.165234
Sum of atomic charges:   -0.0000000

LOEWDIN ATOMIC CHARGES
----------------------
   0 C :    0.103615
   1 C :   -0.009167
   2 O :    0.290589
   3 C :   -0.412798
   4 O :    0.116469
   5 C :   -0.091322
   6 C :   -0.066005
   7 C :    0.124397
   8 N :    0.404577
   9 C :   -0.459265
  10 S :   -0.036956
  11 N :    0.397894
  12 C :   -0.046640
  13 C :   -0.039139
  14 C :    0.021412
  15 C :    0.040011
  16 C :   -0.002716
  17 C :   -0.192861
  18 O :    0.392984
  19 C :    0.028255
  20 H :   -0.023818
  21 H :   -0.027389
  22 H :   -0.024508
  23 H :   -0.026704
  24 H :   -0.030265
  25 H :   -0.010310
  26 H :   -0.007937
  27 H :   -0.021296
  28 H :   -0.059400
  29 H :   -0.063743
  30 H :   -0.005432
  31 H :   -0.025091
  32 H :   -0.021223
  33 H :   -0.036421
  34 H :   -0.154891
  35 H :   -0.024904

  Mayer bond orders larger than 0.100000
B(  0-C ,  1-C ) :   0.9828 B(  0-C , 20-H ) :   0.9727 B(  0-C , 21-H ) :   0.9720
B(  0-C , 22-H ) :   0.9728 B(  1-C ,  2-O ) :   0.9016 B(  1-C , 23-H ) :   0.9786
B(  1-C , 24-H ) :   0.9763 B(  2-O ,  3-C ) :   1.1269 B(  3-C ,  4-O ) :   1.9953
B(  3-C ,  5-C ) :   1.0433 B(  5-C ,  6-C ) :   1.6565 B(  5-C , 12-C ) :   0.9640
B(  6-C ,  7-C ) :   0.9530 B(  6-C ,  8-N ) :   1.1440 B(  7-C , 25-H ) :   0.9649
B(  7-C , 26-H ) :   0.9655 B(  7-C , 27-H ) :   0.9920 B(  8-N ,  9-C ) :   1.1804
B(  8-N , 28-H ) :   0.9488 B(  9-C , 10-S ) :   1.6094 B(  9-C , 11-N ) :   1.3044
B( 11-N , 12-C ) :   0.9901 B( 11-N , 29-H ) :   0.9520 B( 12-C , 13-C ) :   0.9460
B( 12-C , 30-H ) :   1.0000 B( 13-C , 14-C ) :   1.3749 B( 13-C , 19-C ) :   1.3695
B( 14-C , 15-C ) :   1.3941 B( 14-C , 31-H ) :   0.9642 B( 15-C , 16-C ) :   1.3622
B( 15-C , 32-H ) :   0.9712 B( 16-C , 17-C ) :   1.3316 B( 16-C , 33-H ) :   0.9859
B( 17-C , 18-O ) :   1.1081 B( 17-C , 19-C ) :   1.3781 B( 18-O , 34-H ) :   0.9806
B( 19-C , 35-H ) :   0.9584

MP2 TOTAL ENERGY:    -1274.334577592 Eh
FINAL SINGLE POINT ENERGY     -1274.334577591765

DIPOLE MOMENT
-------------
                                X             Y             Z
Electronic contribution:     10.04857      10.51679       9.80087
Nuclear contribution   :    -11.70913     -11.73958     -10.78949
                        -----------------------------------------
Total Dipole Moment    :     -1.66057      -1.22279      -0.98862
                        -----------------------------------------
Magnitude (a.u.)       :      2.28693
Magnitude (Debye)      :      5.81292

Rotational constants in cm-1:     0.010870     0.009032     0.005989
Rotational constants in MHz :   325.887878   270.766408   179.543511

                             ****ORCA TERMINATED NORMALLY****
TOTAL RUN TIME: 0 days 2 hours 58 minutes 47 seconds 360 msec
