                         Program Version 4.2.0 -  RELEASE  -
|  1> ! ri-mp2 cc-pvtz cc-pvtz/c TightSCF  NoKeepInts
|  2>
|  3> %scf
|  4>   MaxCore 4096
|  5> end
|  6> *xyz  0  1
|  7>     C       14.2107508   14.9813933   15.6821324
|  8>     C       15.7066202   14.6276562   15.6323783
|  9>     O       16.4392992   15.8302333   15.9231040
| 10>     C       17.5797873   15.7505799   16.6673007
| 11>     O       18.2090421   14.7105545   16.7751504
| 12>     C       17.8186714   16.9318364   17.5640513
| 13>     C       17.2617130   18.1608417   17.4004543
| 14>     C       16.3169385   18.6210162   16.3089610
| 15>     N       17.6077314   19.2007193   18.2699263
| 16>     C       18.5985230   19.1369011   19.2137535
| 17>     S       19.0328502   20.4556906   20.1125166
| 18>     N       19.2121195   17.9206383   19.3736465
| 19>     C       18.7767405   16.6665663   18.7310372
| 20>     C       18.1427299   15.7328780   19.7590217
| 21>     C       18.6290148   14.4232125   19.9275820
| 22>     C       18.0469677   13.5582614   20.8694013
| 23>     C       16.9681309   14.0055863   21.6508236
| 24>     C       16.4781311   15.3078895   21.4835928
| 25>     O       15.4322868   15.7407497   22.2320801
| 26>     C       17.0593109   16.1663592   20.5451390
| 27>     H       13.9356371   15.3586359   16.6750698
| 28>     H       13.5994958   14.0956146   15.4704528
| 29>     H       13.9699364   15.7509374   14.9382899
| 30>     H       15.9061692   13.8516527   16.3847923
| 31>     H       15.9866948   14.2368915   14.6454453
| 32>     H       16.7021482   18.3474041   15.3187468
| 33>     H       16.1694994   19.7077691   16.3064517
| 34>     H       15.3312010   18.1543159   16.4286207
| 35>     H       17.1689927   20.1018664   18.1680099
| 36>     H       19.9175825   17.8913103   20.0984800
| 37>     H       19.6717672   16.1738442   18.3243764
| 38>     H       19.4519813   14.0689784   19.3115662
| 39>     H       18.4289041   12.5455994   20.9853805
| 40>     H       16.5144583   13.3402521   22.3777431
| 41>     H       15.1984346   15.0260918   22.8431042
| 42>     H       16.6667383   17.1712722   20.4354174
| 43> *
| 44>
| 45>                          ****END OF INPUT****

CARTESIAN COORDINATES (ANGSTROEM)
---------------------------------
  C     14.210751   14.981393   15.682132
  C     15.706620   14.627656   15.632378
  O     16.439299   15.830233   15.923104
  C     17.579787   15.750580   16.667301
  O     18.209042   14.710555   16.775150
  C     17.818671   16.931836   17.564051
  C     17.261713   18.160842   17.400454
  C     16.316938   18.621016   16.308961
  N     17.607731   19.200719   18.269926
  C     18.598523   19.136901   19.213753
  S     19.032850   20.455691   20.112517
  N     19.212119   17.920638   19.373646
  C     18.776740   16.666566   18.731037
  C     18.142730   15.732878   19.759022
  C     18.629015   14.423212   19.927582
  C     18.046968   13.558261   20.869401
  C     16.968131   14.005586   21.650824
  C     16.478131   15.307889   21.483593
  O     15.432287   15.740750   22.232080
  C     17.059311   16.166359   20.545139
  H     13.935637   15.358636   16.675070
  H     13.599496   14.095615   15.470453
  H     13.969936   15.750937   14.938290
  H     15.906169   13.851653   16.384792
  H     15.986695   14.236892   14.645445
  H     16.702148   18.347404   15.318747
  H     16.169499   19.707769   16.306452
  H     15.331201   18.154316   16.428621
  H     17.168993   20.101866   18.168010
  H     19.917583   17.891310   20.098480
  H     19.671767   16.173844   18.324376
  H     19.451981   14.068978   19.311566
  H     18.428904   12.545599   20.985381
  H     16.514458   13.340252   22.377743
  H     15.198435   15.026092   22.843104
  H     16.666738   17.171272   20.435417

 Total Charge           Charge          ....    0
 Multiplicity           Mult            ....    1
 Number of Electrons    NEL             ....  154
 Basis Dimension        Dim             ....  828

ORBITAL ENERGIES
----------------

  NO   OCC          E(Eh)            E(eV)
   0   2.0000     -91.888168     -2500.4042
   1   2.0000     -20.601166      -560.5862
   2   2.0000     -20.592229      -560.3430
   3   2.0000     -20.546552      -559.1001
   4   2.0000     -15.628505      -425.2732
   5   2.0000     -15.606871      -424.6845
   6   2.0000     -11.395235      -310.0801
   7   2.0000     -11.383104      -309.7500
   8   2.0000     -11.336157      -308.4725
   9   2.0000     -11.308028      -307.7071
  10   2.0000     -11.305864      -307.6482
  11   2.0000     -11.299452      -307.4737
  12   2.0000     -11.260614      -306.4169
  13   2.0000     -11.259083      -306.3752
  14   2.0000     -11.253861      -306.2331
  15   2.0000     -11.248110      -306.0766
  16   2.0000     -11.237764      -305.7951
  17   2.0000     -11.234470      -305.7055
  18   2.0000     -11.233909      -305.6902
  19   2.0000     -11.230838      -305.6066
  20   2.0000      -8.893232      -241.9972
  21   2.0000      -6.574810      -178.9097
  22   2.0000      -6.572803      -178.8551
  23   2.0000      -6.572217      -178.8391
  24   2.0000      -1.454594       -39.5815
  25   2.0000      -1.411967       -38.4216
  26   2.0000      -1.357107       -36.9288
  27   2.0000      -1.339439       -36.4480
  28   2.0000      -1.237096       -33.6631
  29   2.0000      -1.152543       -31.3623
  30   2.0000      -1.119741       -30.4697
  31   2.0000      -1.044595       -28.4249
  32   2.0000      -1.037142       -28.2221
  33   2.0000      -1.009935       -27.4817
  34   2.0000      -0.997984       -27.1565
  35   2.0000      -0.983602       -26.7652
  36   2.0000      -0.921331       -25.0707
  37   2.0000      -0.889185       -24.1959
  38   2.0000      -0.847125       -23.0514
  39   2.0000      -0.835289       -22.7294
  40   2.0000      -0.828288       -22.5389
  41   2.0000      -0.817757       -22.2523
  42   2.0000      -0.761715       -20.7273
  43   2.0000      -0.736004       -20.0277
  44   2.0000      -0.725178       -19.7331
  45   2.0000      -0.691361       -18.8129
  46   2.0000      -0.684508       -18.6264
  47   2.0000      -0.680532       -18.5182
  48   2.0000      -0.675970       -18.3941
  49   2.0000      -0.660179       -17.9644
  50   2.0000      -0.649618       -17.6770
  51   2.0000      -0.643899       -17.5214
  52   2.0000      -0.635163       -17.2837
  53   2.0000      -0.601504       -16.3678
  54   2.0000      -0.600476       -16.3398
  55   2.0000      -0.595877       -16.2146
  56   2.0000      -0.592912       -16.1340
  57   2.0000      -0.581221       -15.8158
  58   2.0000      -0.573719       -15.6117
  59   2.0000      -0.565304       -15.3827
  60   2.0000      -0.561083       -15.2678
  61   2.0000      -0.557482       -15.1699
  62   2.0000      -0.540185       -14.6992
  63   2.0000      -0.521202       -14.1826
  64   2.0000      -0.517831       -14.0909
  65   2.0000      -0.510786       -13.8992
  66   2.0000      -0.501606       -13.6494
  67   2.0000      -0.495918       -13.4946
  68   2.0000      -0.480896       -13.0858
  69   2.0000      -0.463397       -12.6097
  70   2.0000      -0.459538       -12.5047
  71   2.0000      -0.456373       -12.4185
  72   2.0000      -0.354245        -9.6395
  73   2.0000      -0.344416        -9.3720
  74   2.0000      -0.327310        -8.9065
  75   2.0000      -0.315849        -8.5947
  76   2.0000      -0.314165        -8.5489
  77   0.0000       0.075495         2.0543
  78   0.0000       0.111784         3.0418
  79   0.0000       0.120206         3.2710
  80   0.0000       0.135672         3.6918
  81   0.0000       0.139241         3.7889

MULLIKEN ATOMIC CHARGES
-----------------------
   0 C :   -0.279854
   1 C :    0.042156
   2 O :   -0.342741
   3 C :    0.435845
   4 O :   -0.421849
   5 C :   -0.174029
   6 C :    0.143312
   7 C :   -0.287060
   8 N :   -0.122709
   9 C :    0.201736
  10 S :   -0.439305
  11 N :   -0.197614
  12 C :    0.039006
  13 C :    0.056148
  14 C :   -0.160818
  15 C :   -0.134056
  16 C :   -0.279455
  17 C :    0.311204
  18 O :   -0.359209
  19 C :   -0.273787
  20 H :    0.099134
  21 H :    0.103880
  22 H :    0.093452
  23 H :    0.100520
  24 H :    0.097420
  25 H :    0.127457
  26 H :    0.104561
  27 H :    0.126159
  28 H :    0.196878
  29 H :    0.193728
  30 H :    0.153630
  31 H :    0.153601
  32 H :    0.159404
  33 H :    0.128253
  34 H :    0.240179
  35 H :    0.164823
Sum of atomic charges:    0.0000000

LOEWDIN ATOMIC CHARGES
----------------------
   0 C :    0.104922
   1 C :   -0.014172
   2 O :    0.305638
   3 C :   -0.415913
   4 O :    0.106499
   5 C :   -0.092018
   6 C :   -0.066869
   7 C :    0.125056
   8 N :    0.404738
   9 C :   -0.458744
  10 S :   -0.035995
  11 N :    0.397770
  12 C :   -0.046329
  13 C :   -0.038898
  14 C :    0.022156
  15 C :    0.040852
  16 C :   -0.002469
  17 C :   -0.192923
  18 O :    0.392889
  19 C :    0.027994
  20 H :   -0.026505
  21 H :   -0.023200
  22 H :   -0.029658
  23 H :   -0.025307
  24 H :   -0.029973
  25 H :   -0.008205
  26 H :   -0.020825
  27 H :   -0.010181
  28 H :   -0.059124
  29 H :   -0.063714
  30 H :   -0.004842
  31 H :   -0.025169
  32 H :   -0.021138
  33 H :   -0.036380
  34 H :   -0.154852
  35 H :   -0.025112

  Mayer bond orders larger than 0.100000
B(  0-C ,  1-C ) :   0.9710 B(  0-C , 20-H ) :   0.9764 B(  0-C , 21-H ) :   0.9787
B(  0-C , 22-H ) :   0.9779 B(  1-C ,  2-O ) :   0.9004 B(  1-C , 23-H ) :   0.9728
B(  1-C , 24-H ) :   0.9825 B(  2-O ,  3-C ) :   1.1552 B(  3-C ,  4-O ) :   1.9958
B(  3-C ,  5-C ) :   1.0475 B(  5-C ,  6-C ) :   1.6505 B(  5-C , 12-C ) :   0.9658
B(  6-C ,  7-C ) :   0.9543 B(  6-C ,  8-N ) :   1.1460 B(  7-C , 25-H ) :   0.9662
B(  7-C , 26-H ) :   0.9910 B(  7-C , 27-H ) :   0.9642 B(  8-N ,  9-C ) :   1.1794
B(  8-N , 28-H ) :   0.9489 B(  9-C , 10-S ) :   1.6107 B(  9-C , 11-N ) :   1.3039
B( 11-N , 12-C ) :   0.9916 B( 11-N , 29-H ) :   0.9520 B( 12-C , 13-C ) :   0.9469
B( 12-C , 30-H ) :   0.9993 B( 13-C , 14-C ) :   1.3761 B( 13-C , 19-C ) :   1.3692
B( 14-C , 15-C ) :   1.3944 B( 14-C , 31-H ) :   0.9648 B( 15-C , 16-C ) :   1.3625
B( 15-C , 32-H ) :   0.9713 B( 16-C , 17-C ) :   1.3315 B( 16-C , 33-H ) :   0.9859
B( 17-C , 18-O ) :   1.1081 B( 17-C , 19-C ) :   1.3788 B( 18-O , 34-H ) :   0.9805
B( 19-C , 35-H ) :   0.9585

MP2 TOTAL ENERGY:    -1274.344614624 Eh
FINAL SINGLE POINT ENERGY     -1274.344614623640

DIPOLE MOMENT
-------------
                                X             Y             Z
Electronic contribution:     11.97920       8.61794       9.73365
Nuclear contribution   :    -13.44591      -9.95049     -10.66983
                        -----------------------------------------
Total Dipole Moment    :     -1.46671      -1.33255      -0.93618
                        -----------------------------------------
Magnitude (a.u.)       :      2.19166
Magnitude (Debye)      :      5.57075

Rotational constants in cm-1:     0.010375     0.009147     0.006125
Rotational constants in MHz :   311.023640   274.233066   183.611867

                             ****ORCA TERMINATED NORMALLY****
TOTAL RUN TIME: 0 days 1 hours 40 minutes 40 seconds 925 msec
