                         Program Version 5.0.0 -  RELEASE  -
|  1> ! ri-mp2 cc-pvtz cc-pvtz/c TightSCF NoKeepInts
|  2>
|  3> %scf
|  4>   MaxCore 4096
|  5> end
|  6> *xyz  0  1
|  7>     C       14.4847576   14.6003459   15.8528128
|  8>     C       15.7383866   14.6470465   16.7417650
|  9>     O       16.7054404   15.4785298   16.0812444
| 10>     C       17.9317887   15.5759442   16.6656569
| 11>     O       18.5538309   14.5717804   16.9685568
| 12>     C       18.0619141   16.8378439   17.4626584
| 13>     C       17.5604975   18.0328381   17.0626205
| 14>     C       16.8356488   18.3358467   15.7679744
| 15>     N       17.7592669   19.1694072   17.8520815
| 16>     C       18.5507089   19.2154504   18.9700090
| 17>     S       18.8214447   20.6274234   19.7874353
| 18>     N       19.1066653   18.0283861   19.3776886
| 19>     C       18.8011481   16.7068174   18.7968869
| 20>     C       17.9885500   15.8644611   19.7766788
| 21>     C       18.4312734   14.5833986   20.1540120
| 22>     C       17.6768245   13.7969854   21.0406746
| 23>     C       16.4672671   14.2943917   21.5546643
| 24>     C       16.0204723   15.5680811   21.1781076
| 25>     O       14.8476450   16.0472577   21.6635630
| 26>     C       16.7731894   16.3481848   20.2948751
| 27>     H       14.7270161   14.1861728   14.8660668
| 28>     H       14.0694259   15.6061917   15.7150866
| 29>     H       13.7130837   13.9690922   16.3099622
| 30>     H       15.4900611   15.0566181   17.7303911
| 31>     H       16.1328010   13.6300015   16.8744277
| 32>     H       17.3004492   17.8102079   14.9243833
| 33>     H       16.8451724   19.4049238   15.5229428
| 34>     H       15.7885917   18.0134163   15.8263397
| 35>     H       17.3605712   20.0504189   17.5688453
| 36>     H       19.6617670   18.0860323   20.2218733
| 37>     H       19.7552315   16.1946275   18.6052480
| 38>     H       19.3565298   14.1882218   19.7414229
| 39>     H       18.0281523   12.8051876   21.3199938
| 40>     H       15.8805390   13.6890991   22.2377038
| 41>     H       14.5107915   15.3991445   22.3005426
| 42>     H       16.4100963   17.3322237   20.0188041
| 43> *
| 44>
| 45>                          ****END OF INPUT****

CARTESIAN COORDINATES (ANGSTROEM)
---------------------------------
  C     14.484758   14.600346   15.852813
  C     15.738387   14.647046   16.741765
  O     16.705440   15.478530   16.081244
  C     17.931789   15.575944   16.665657
  O     18.553831   14.571780   16.968557
  C     18.061914   16.837844   17.462658
  C     17.560498   18.032838   17.062621
  C     16.835649   18.335847   15.767974
  N     17.759267   19.169407   17.852082
  C     18.550709   19.215450   18.970009
  S     18.821445   20.627423   19.787435
  N     19.106665   18.028386   19.377689
  C     18.801148   16.706817   18.796887
  C     17.988550   15.864461   19.776679
  C     18.431273   14.583399   20.154012
  C     17.676824   13.796985   21.040675
  C     16.467267   14.294392   21.554664
  C     16.020472   15.568081   21.178108
  O     14.847645   16.047258   21.663563
  C     16.773189   16.348185   20.294875
  H     14.727016   14.186173   14.866067
  H     14.069426   15.606192   15.715087
  H     13.713084   13.969092   16.309962
  H     15.490061   15.056618   17.730391
  H     16.132801   13.630002   16.874428
  H     17.300449   17.810208   14.924383
  H     16.845172   19.404924   15.522943
  H     15.788592   18.013416   15.826340
  H     17.360571   20.050419   17.568845
  H     19.661767   18.086032   20.221873
  H     19.755232   16.194627   18.605248
  H     19.356530   14.188222   19.741423
  H     18.028152   12.805188   21.319994
  H     15.880539   13.689099   22.237704
  H     14.510791   15.399145   22.300543
  H     16.410096   17.332224   20.018804

 Total Charge           Charge          ....    0
 Multiplicity           Mult            ....    1
 Number of Electrons    NEL             ....  154
 Basis Dimension        Dim             ....  828

ORBITAL ENERGIES
----------------

  NO   OCC          E(Eh)            E(eV)
   0   2.0000     -91.889027     -2500.4276
   1   2.0000     -20.596268      -560.4529
   2   2.0000     -20.584781      -560.1404
   3   2.0000     -20.555744      -559.3502
   4   2.0000     -15.628676      -425.2779
   5   2.0000     -15.608518      -424.7294
   6   2.0000     -11.393821      -310.0416
   7   2.0000     -11.384542      -309.7891
   8   2.0000     -11.333385      -308.3971
   9   2.0000     -11.312386      -307.8257
  10   2.0000     -11.308818      -307.7286
  11   2.0000     -11.297351      -307.4166
  12   2.0000     -11.260661      -306.4182
  13   2.0000     -11.259599      -306.3893
  14   2.0000     -11.257808      -306.3405
  15   2.0000     -11.252410      -306.1936
  16   2.0000     -11.242059      -305.9120
  17   2.0000     -11.237927      -305.7995
  18   2.0000     -11.235136      -305.7236
  19   2.0000     -11.231905      -305.6357
  20   2.0000      -8.894103      -242.0209
  21   2.0000      -6.575681      -178.9334
  22   2.0000      -6.573672      -178.8787
  23   2.0000      -6.573087      -178.8628
  24   2.0000      -1.453895       -39.5625
  25   2.0000      -1.416067       -38.5332
  26   2.0000      -1.357056       -36.9274
  27   2.0000      -1.339759       -36.4567
  28   2.0000      -1.238026       -33.6884
  29   2.0000      -1.156453       -31.4687
  30   2.0000      -1.121517       -30.5180
  31   2.0000      -1.045066       -28.4377
  32   2.0000      -1.035435       -28.1756
  33   2.0000      -1.013946       -27.5909
  34   2.0000      -0.999494       -27.1976
  35   2.0000      -0.985094       -26.8058
  36   2.0000      -0.923506       -25.1299
  37   2.0000      -0.880936       -23.9715
  38   2.0000      -0.848491       -23.0886
  39   2.0000      -0.838888       -22.8273
  40   2.0000      -0.832471       -22.6527
  41   2.0000      -0.826459       -22.4891
  42   2.0000      -0.757542       -20.6138
  43   2.0000      -0.735966       -20.0267
  44   2.0000      -0.728496       -19.8234
  45   2.0000      -0.694206       -18.8903
  46   2.0000      -0.686144       -18.6709
  47   2.0000      -0.681487       -18.5442
  48   2.0000      -0.675271       -18.3751
  49   2.0000      -0.656268       -17.8580
  50   2.0000      -0.650269       -17.6947
  51   2.0000      -0.641904       -17.4671
  52   2.0000      -0.632385       -17.2081
  53   2.0000      -0.620060       -16.8727
  54   2.0000      -0.604809       -16.4577
  55   2.0000      -0.603130       -16.4120
  56   2.0000      -0.599767       -16.3205
  57   2.0000      -0.578149       -15.7322
  58   2.0000      -0.575914       -15.6714
  59   2.0000      -0.564153       -15.3514
  60   2.0000      -0.557913       -15.1816
  61   2.0000      -0.547629       -14.9018
  62   2.0000      -0.537070       -14.6144
  63   2.0000      -0.522208       -14.2100
  64   2.0000      -0.521382       -14.1875
  65   2.0000      -0.512157       -13.9365
  66   2.0000      -0.503908       -13.7120
  67   2.0000      -0.497885       -13.5482
  68   2.0000      -0.482528       -13.1302
  69   2.0000      -0.465237       -12.6598
  70   2.0000      -0.459395       -12.5008
  71   2.0000      -0.451067       -12.2742
  72   2.0000      -0.354597        -9.6491
  73   2.0000      -0.348086        -9.4719
  74   2.0000      -0.328346        -8.9348
  75   2.0000      -0.319503        -8.6941
  76   2.0000      -0.315947        -8.5973
  77   0.0000       0.070459         1.9173
  78   0.0000       0.104396         2.8408
  79   0.0000       0.118808         3.2329
  80   0.0000       0.131897         3.5891
  81   0.0000       0.135350         3.6831

MULLIKEN ATOMIC CHARGES
-----------------------
   0 C :   -0.265882
   1 C :    0.038682
   2 O :   -0.369453
   3 C :    0.464114
   4 O :   -0.398325
   5 C :   -0.205721
   6 C :    0.135177
   7 C :   -0.281537
   8 N :   -0.124153
   9 C :    0.202568
  10 S :   -0.439376
  11 N :   -0.201232
  12 C :    0.055293
  13 C :    0.052553
  14 C :   -0.160681
  15 C :   -0.133175
  16 C :   -0.279523
  17 C :    0.320932
  18 O :   -0.360406
  19 C :   -0.299204
  20 H :    0.101738
  21 H :    0.089208
  22 H :    0.093744
  23 H :    0.093334
  24 H :    0.111202
  25 H :    0.124119
  26 H :    0.105539
  27 H :    0.124362
  28 H :    0.197250
  29 H :    0.194260
  30 H :    0.155363
  31 H :    0.156720
  32 H :    0.161022
  33 H :    0.130716
  34 H :    0.240998
  35 H :    0.169774
Sum of atomic charges:   -0.0000000

LOEWDIN ATOMIC CHARGES
----------------------
   0 C :    0.109333
   1 C :   -0.018388
   2 O :    0.291007
   3 C :   -0.416786
   4 O :    0.130012
   5 C :   -0.094429
   6 C :   -0.074934
   7 C :    0.126293
   8 N :    0.404106
   9 C :   -0.457445
  10 S :   -0.036089
  11 N :    0.397028
  12 C :   -0.045374
  13 C :   -0.040704
  14 C :    0.022056
  15 C :    0.042353
  16 C :   -0.002037
  17 C :   -0.194807
  18 O :    0.393436
  19 C :    0.027633
  20 H :   -0.024569
  21 H :   -0.030717
  22 H :   -0.023949
  23 H :   -0.032364
  24 H :   -0.026557
  25 H :   -0.007683
  26 H :   -0.019375
  27 H :   -0.010672
  28 H :   -0.058683
  29 H :   -0.064090
  30 H :   -0.004550
  31 H :   -0.024471
  32 H :   -0.020222
  33 H :   -0.035602
  34 H :   -0.153911
  35 H :   -0.024847

  Mayer bond orders larger than 0.100000
B(  0-C ,  1-C ) :   0.9772 B(  0-C , 20-H ) :   0.9781 B(  0-C , 21-H ) :   0.9789
B(  0-C , 22-H ) :   0.9766 B(  1-C ,  2-O ) :   0.8927 B(  1-C , 23-H ) :   0.9656
B(  1-C , 24-H ) :   0.9787 B(  2-O ,  3-C ) :   1.0948 B(  3-C ,  4-O ) :   2.0281
B(  3-C ,  5-C ) :   1.0242 B(  5-C ,  6-C ) :   1.6684 B(  5-C , 12-C ) :   0.9622
B(  6-C ,  7-C ) :   0.9522 B(  6-C ,  8-N ) :   1.1384 B(  7-C , 25-H ) :   0.9707
B(  7-C , 26-H ) :   0.9878 B(  7-C , 27-H ) :   0.9630 B(  8-N ,  9-C ) :   1.1841
B(  8-N , 28-H ) :   0.9499 B(  9-C , 10-S ) :   1.6114 B(  9-C , 11-N ) :   1.2997
B( 11-N , 12-C ) :   0.9930 B( 11-N , 29-H ) :   0.9518 B( 12-C , 13-C ) :   0.9453
B( 12-C , 30-H ) :   0.9986 B( 13-C , 14-C ) :   1.3790 B( 13-C , 19-C ) :   1.3590
B( 14-C , 15-C ) :   1.3941 B( 14-C , 31-H ) :   0.9634 B( 15-C , 16-C ) :   1.3641
B( 15-C , 32-H ) :   0.9708 B( 16-C , 17-C ) :   1.3313 B( 16-C , 33-H ) :   0.9848
B( 17-C , 18-O ) :   1.1087 B( 17-C , 19-C ) :   1.3685 B( 18-O , 34-H ) :   0.9798
B( 19-C , 35-H ) :   0.9594

MP2 TOTAL ENERGY:    -1274.325320029 Eh
FINAL SINGLE POINT ENERGY     -1274.325320029097

DIPOLE MOMENT
-------------
                                X             Y             Z
Electronic contribution:     11.29859       9.40764       8.09614
Nuclear contribution   :    -12.61362     -10.70790      -8.63114
                        -----------------------------------------
Total Dipole Moment    :     -1.31502      -1.30026      -0.53500
                        -----------------------------------------
Magnitude (a.u.)       :      1.92514
Magnitude (Debye)      :      4.89333

Rotational constants in cm-1:     0.011278     0.009169     0.006545
Rotational constants in MHz :   338.114183   274.885542   196.201220

                             ****ORCA TERMINATED NORMALLY****
TOTAL RUN TIME: 0 days 1 hours 59 minutes 46 seconds 576 msec
