                         Program Version 4.2.0 -  RELEASE  -
|  1> ! ri-mp2 cc-pvtz cc-pvtz/c TightSCF  NoKeepInts
|  2>
|  3> %scf
|  4>   MaxCore 4096
|  5> end
|  6> *xyz  0  1
|  7>     C       15.6082452   14.2905778   14.3803942
|  8>     C       15.0609984   14.7685090   15.7380004
|  9>     O       15.9005630   15.8372885   16.2118368
| 10>     C       16.9879422   15.5546002   16.9887870
| 11>     O       17.3691234   14.4123951   17.1886225
| 12>     C       17.5932301   16.7398415   17.6879813
| 13>     C       17.3319614   18.0425141   17.3983951
| 14>     C       16.4053807   18.6004042   16.3371552
| 15>     N       18.0135655   19.0552769   18.0820920
| 16>     C       19.0626348   18.8546656   18.9396534
| 17>     S       19.9022729   20.1169110   19.6010293
| 18>     N       19.3799204   17.5503989   19.2205075
| 19>     C       18.5820364   16.3821048   18.8042218
| 20>     C       17.8608673   15.7734405   20.0043091
| 21>     C       18.0195792   14.4099619   20.3140342
| 22>     C       17.3574513   13.8434053   21.4160926
| 23>     C       16.5283077   14.6465925   22.2173247
| 24>     C       16.3643670   16.0041673   21.9104628
| 25>     O       15.5596959   16.7811207   22.6787523
| 26>     C       17.0243294   16.5651019   20.8125923
| 27>     H       15.6578830   15.1218954   13.6664452
| 28>     H       14.9610385   13.5123204   13.9582617
| 29>     H       16.6153706   13.8698658   14.4949083
| 30>     H       14.0413298   15.1476891   15.5931002
| 31>     H       15.0156687   13.9396511   16.4581824
| 32>     H       16.6364169   18.1713575   15.3541488
| 33>     H       16.4805395   19.6900234   16.2379639
| 34>     H       15.3602261   18.3642101   16.5730137
| 35>     H       17.7954740   20.0197188   17.8893399
| 36>     H       20.1365258   17.4284653   19.8812451
| 37>     H       19.2793268   15.6309686   18.4056977
| 38>     H       18.6466988   13.7825322   19.6852785
| 39>     H       17.4839602   12.7858844   21.6406296
| 40>     H       16.0135638   14.2126908   23.0679951
| 41>     H       15.2244656   16.2267304   23.3991588
| 42>     H       16.8860399   17.6187190   20.5963867
| 43> *
| 44>
| 45>                          ****END OF INPUT****

CARTESIAN COORDINATES (ANGSTROEM)
---------------------------------
  C     15.608245   14.290578   14.380394
  C     15.060998   14.768509   15.738000
  O     15.900563   15.837288   16.211837
  C     16.987942   15.554600   16.988787
  O     17.369123   14.412395   17.188622
  C     17.593230   16.739842   17.687981
  C     17.331961   18.042514   17.398395
  C     16.405381   18.600404   16.337155
  N     18.013565   19.055277   18.082092
  C     19.062635   18.854666   18.939653
  S     19.902273   20.116911   19.601029
  N     19.379920   17.550399   19.220507
  C     18.582036   16.382105   18.804222
  C     17.860867   15.773440   20.004309
  C     18.019579   14.409962   20.314034
  C     17.357451   13.843405   21.416093
  C     16.528308   14.646593   22.217325
  C     16.364367   16.004167   21.910463
  O     15.559696   16.781121   22.678752
  C     17.024329   16.565102   20.812592
  H     15.657883   15.121895   13.666445
  H     14.961038   13.512320   13.958262
  H     16.615371   13.869866   14.494908
  H     14.041330   15.147689   15.593100
  H     15.015669   13.939651   16.458182
  H     16.636417   18.171357   15.354149
  H     16.480539   19.690023   16.237964
  H     15.360226   18.364210   16.573014
  H     17.795474   20.019719   17.889340
  H     20.136526   17.428465   19.881245
  H     19.279327   15.630969   18.405698
  H     18.646699   13.782532   19.685278
  H     17.483960   12.785884   21.640630
  H     16.013564   14.212691   23.067995
  H     15.224466   16.226730   23.399159
  H     16.886040   17.618719   20.596387

 Total Charge           Charge          ....    0
 Multiplicity           Mult            ....    1
 Number of Electrons    NEL             ....  154
 Basis Dimension        Dim             ....  828

ORBITAL ENERGIES
----------------

  NO   OCC          E(Eh)            E(eV)
   0   2.0000     -91.888073     -2500.4016
   1   2.0000     -20.604287      -560.6711
   2   2.0000     -20.590898      -560.3068
   3   2.0000     -20.545587      -559.0739
   4   2.0000     -15.628569      -425.2750
   5   2.0000     -15.606578      -424.6766
   6   2.0000     -11.396886      -310.1250
   7   2.0000     -11.382855      -309.7432
   8   2.0000     -11.336997      -308.4954
   9   2.0000     -11.306700      -307.6710
  10   2.0000     -11.305190      -307.6299
  11   2.0000     -11.300244      -307.4953
  12   2.0000     -11.260892      -306.4245
  13   2.0000     -11.258892      -306.3700
  14   2.0000     -11.252724      -306.2022
  15   2.0000     -11.246843      -306.0422
  16   2.0000     -11.236499      -305.7607
  17   2.0000     -11.232670      -305.6565
  18   2.0000     -11.229607      -305.5731
  19   2.0000     -11.227719      -305.5218
  20   2.0000      -8.893133      -241.9944
  21   2.0000      -6.574709      -178.9069
  22   2.0000      -6.572704      -178.8524
  23   2.0000      -6.572117      -178.8364
  24   2.0000      -1.454527       -39.5797
  25   2.0000      -1.410630       -38.3852
  26   2.0000      -1.357557       -36.9410
  27   2.0000      -1.339456       -36.4485
  28   2.0000      -1.236940       -33.6588
  29   2.0000      -1.151477       -31.3333
  30   2.0000      -1.119309       -30.4580
  31   2.0000      -1.042375       -28.3645
  32   2.0000      -1.035100       -28.1665
  33   2.0000      -1.008779       -27.4503
  34   2.0000      -0.997137       -27.1335
  35   2.0000      -0.982661       -26.7396
  36   2.0000      -0.920969       -25.0608
  37   2.0000      -0.892608       -24.2891
  38   2.0000      -0.847585       -23.0640
  39   2.0000      -0.834867       -22.7179
  40   2.0000      -0.827103       -22.5066
  41   2.0000      -0.817165       -22.2362
  42   2.0000      -0.756698       -20.5908
  43   2.0000      -0.735353       -20.0100
  44   2.0000      -0.724425       -19.7126
  45   2.0000      -0.690130       -18.7794
  46   2.0000      -0.685041       -18.6409
  47   2.0000      -0.679916       -18.5015
  48   2.0000      -0.671580       -18.2746
  49   2.0000      -0.657424       -17.8894
  50   2.0000      -0.647059       -17.6074
  51   2.0000      -0.641849       -17.4656
  52   2.0000      -0.629467       -17.1287
  53   2.0000      -0.613443       -16.6926
  54   2.0000      -0.599870       -16.3233
  55   2.0000      -0.598868       -16.2960
  56   2.0000      -0.594150       -16.1676
  57   2.0000      -0.584818       -15.9137
  58   2.0000      -0.572424       -15.5764
  59   2.0000      -0.564976       -15.3738
  60   2.0000      -0.560655       -15.2562
  61   2.0000      -0.545603       -14.8466
  62   2.0000      -0.534030       -14.5317
  63   2.0000      -0.530144       -14.4259
  64   2.0000      -0.516491       -14.0544
  65   2.0000      -0.509839       -13.8734
  66   2.0000      -0.499858       -13.6018
  67   2.0000      -0.494990       -13.4694
  68   2.0000      -0.480136       -13.0652
  69   2.0000      -0.463506       -12.6127
  70   2.0000      -0.456457       -12.4208
  71   2.0000      -0.455493       -12.3946
  72   2.0000      -0.354339        -9.6421
  73   2.0000      -0.343367        -9.3435
  74   2.0000      -0.327152        -8.9023
  75   2.0000      -0.315466        -8.5843
  76   2.0000      -0.313061        -8.5188
  77   0.0000       0.076013         2.0684
  78   0.0000       0.114239         3.1086
  79   0.0000       0.121458         3.3050
  80   0.0000       0.136471         3.7136
  81   0.0000       0.140762         3.8303

MULLIKEN ATOMIC CHARGES
-----------------------
   0 C :   -0.287226
   1 C :    0.031288
   2 O :   -0.344358
   3 C :    0.450829
   4 O :   -0.437890
   5 C :   -0.174473
   6 C :    0.145867
   7 C :   -0.284206
   8 N :   -0.120461
   9 C :    0.200863
  10 S :   -0.439009
  11 N :   -0.196196
  12 C :    0.032974
  13 C :    0.058252
  14 C :   -0.160617
  15 C :   -0.134008
  16 C :   -0.278704
  17 C :    0.311717
  18 O :   -0.359183
  19 C :   -0.272128
  20 H :    0.090938
  21 H :    0.095517
  22 H :    0.112230
  23 H :    0.105389
  24 H :    0.108998
  25 H :    0.126408
  26 H :    0.101626
  27 H :    0.128596
  28 H :    0.196657
  29 H :    0.193432
  30 H :    0.153230
  31 H :    0.153023
  32 H :    0.158731
  33 H :    0.127741
  34 H :    0.239951
  35 H :    0.164202
Sum of atomic charges:    0.0000000

LOEWDIN ATOMIC CHARGES
----------------------
   0 C :    0.104275
   1 C :   -0.016132
   2 O :    0.307301
   3 C :   -0.413846
   4 O :    0.101195
   5 C :   -0.090585
   6 C :   -0.064518
   7 C :    0.124932
   8 N :    0.404969
   9 C :   -0.459141
  10 S :   -0.035765
  11 N :    0.397992
  12 C :   -0.046589
  13 C :   -0.038780
  14 C :    0.022168
  15 C :    0.040808
  16 C :   -0.002250
  17 C :   -0.192464
  18 O :    0.392981
  19 C :    0.028534
  20 H :   -0.030339
  21 H :   -0.026602
  22 H :   -0.024088
  23 H :   -0.026987
  24 H :   -0.026212
  25 H :   -0.008978
  26 H :   -0.021213
  27 H :   -0.009238
  28 H :   -0.059201
  29 H :   -0.063585
  30 H :   -0.005202
  31 H :   -0.025424
  32 H :   -0.021345
  33 H :   -0.036471
  34 H :   -0.154981
  35 H :   -0.025217

  Mayer bond orders larger than 0.100000
B(  0-C ,  1-C ) :   0.9657 B(  0-C , 20-H ) :   0.9779 B(  0-C , 21-H ) :   0.9762
B(  0-C , 22-H ) :   0.9757 B(  1-C ,  2-O ) :   0.8947 B(  1-C , 23-H ) :   0.9848
B(  1-C , 24-H ) :   0.9747 B(  2-O ,  3-C ) :   1.1608 B(  3-C ,  4-O ) :   1.9510
B(  3-C ,  5-C ) :   1.0748 B(  5-C ,  6-C ) :   1.6436 B(  5-C , 12-C ) :   0.9665
B(  6-C ,  7-C ) :   0.9554 B(  6-C ,  8-N ) :   1.1519 B(  7-C , 25-H ) :   0.9652
B(  7-C , 26-H ) :   0.9914 B(  7-C , 27-H ) :   0.9637 B(  8-N ,  9-C ) :   1.1770
B(  8-N , 28-H ) :   0.9487 B(  9-C , 10-S ) :   1.6110 B(  9-C , 11-N ) :   1.3048
B( 11-N , 12-C ) :   0.9935 B( 11-N , 29-H ) :   0.9519 B( 12-C , 13-C ) :   0.9474
B( 12-C , 30-H ) :   1.0005 B( 13-C , 14-C ) :   1.3747 B( 13-C , 19-C ) :   1.3696
B( 14-C , 15-C ) :   1.3945 B( 14-C , 31-H ) :   0.9652 B( 15-C , 16-C ) :   1.3625
B( 15-C , 32-H ) :   0.9715 B( 16-C , 17-C ) :   1.3316 B( 16-C , 33-H ) :   0.9861
B( 17-C , 18-O ) :   1.1079 B( 17-C , 19-C ) :   1.3794 B( 18-O , 34-H ) :   0.9807
B( 19-C , 35-H ) :   0.9585

MP2 TOTAL ENERGY:    -1274.348764737 Eh
FINAL SINGLE POINT ENERGY     -1274.348764736822

DIPOLE MOMENT
-------------
                                X             Y             Z
Electronic contribution:     10.04223       9.04992      12.16862
Nuclear contribution   :    -11.75625     -10.13464     -13.03585
                        -----------------------------------------
Total Dipole Moment    :     -1.71402      -1.08472      -0.86723
                        -----------------------------------------
Magnitude (a.u.)       :      2.20603
Magnitude (Debye)      :      5.60728

Rotational constants in cm-1:     0.010563     0.008717     0.005708
Rotational constants in MHz :   316.679826   261.336469   171.135451

                             ****ORCA TERMINATED NORMALLY****
TOTAL RUN TIME: 0 days 1 hours 39 minutes 39 seconds 702 msec
