                         Program Version 4.2.0 -  RELEASE  -
|  1> ! ri-mp2 cc-pvtz cc-pvtz/c TightSCF  NoKeepInts
|  2>
|  3> %scf
|  4>   MaxCore 4096
|  5> end
|  6> *xyz  0  1
|  7>     C       15.9364463   13.3938104   17.4124335
|  8>     C       16.1270958   14.2757681   16.1688488
|  9>     O       17.3436310   15.0402164   16.3002006
| 10>     C       17.2810654   16.3832022   16.0569897
| 11>     O       16.6415115   16.8045002   15.1085896
| 12>     C       17.6647797   17.2294822   17.2406586
| 13>     C       17.4290618   18.5670444   17.2876107
| 14>     C       16.6882818   19.4109517   16.2721334
| 15>     N       17.9516387   19.3306776   18.3366754
| 16>     C       18.8998388   18.8854987   19.2196468
| 17>     S       19.6360138   19.8969544   20.3018481
| 18>     N       19.2241120   17.5547835   19.1412868
| 19>     C       18.4553849   16.5568236   18.3759480
| 20>     C       17.5844254   15.7712058   19.3504013
| 21>     C       18.0287136   14.5292828   19.8426891
| 22>     C       17.2641338   13.8157792   20.7813374
| 23>     C       16.0480245   14.3514766   21.2383917
| 24>     C       15.6081556   15.5934412   20.7604190
| 25>     O       14.4373501   16.1162287   21.2037475
| 26>     C       16.3704933   16.3010407   19.8257160
| 27>     H       16.8564214   12.8455274   17.6492601
| 28>     H       15.1359996   12.6637556   17.2428880
| 29>     H       15.6533467   14.0018934   18.2772210
| 30>     H       16.1915562   13.6464485   15.2717370
| 31>     H       15.2502819   14.9294622   16.0602302
| 32>     H       15.6738772   19.0231362   16.1141533
| 33>     H       17.2023152   19.3873431   15.3027068
| 34>     H       16.5956668   20.4611365   16.5727292
| 35>     H       17.7346226   20.3128755   18.3937712
| 36>     H       19.9088475   17.2482030   19.8199818
| 37>     H       19.1721854   15.8605569   17.9179174
| 38>     H       18.9723084   14.1157241   19.4969488
| 39>     H       17.6161430   12.8553147   21.1539646
| 40>     H       15.4549873   13.8052246   21.9645657
| 41>     H       14.0899001   15.5184740   21.8828520
| 42>     H       16.0183829   17.2687557   19.4875010
| 43> *
| 44>
| 45>                          ****END OF INPUT****

CARTESIAN COORDINATES (ANGSTROEM)
---------------------------------
  C     15.936446   13.393810   17.412433
  C     16.127096   14.275768   16.168849
  O     17.343631   15.040216   16.300201
  C     17.281065   16.383202   16.056990
  O     16.641512   16.804500   15.108590
  C     17.664780   17.229482   17.240659
  C     17.429062   18.567044   17.287611
  C     16.688282   19.410952   16.272133
  N     17.951639   19.330678   18.336675
  C     18.899839   18.885499   19.219647
  S     19.636014   19.896954   20.301848
  N     19.224112   17.554783   19.141287
  C     18.455385   16.556824   18.375948
  C     17.584425   15.771206   19.350401
  C     18.028714   14.529283   19.842689
  C     17.264134   13.815779   20.781337
  C     16.048025   14.351477   21.238392
  C     15.608156   15.593441   20.760419
  O     14.437350   16.116229   21.203747
  C     16.370493   16.301041   19.825716
  H     16.856421   12.845527   17.649260
  H     15.136000   12.663756   17.242888
  H     15.653347   14.001893   18.277221
  H     16.191556   13.646448   15.271737
  H     15.250282   14.929462   16.060230
  H     15.673877   19.023136   16.114153
  H     17.202315   19.387343   15.302707
  H     16.595667   20.461136   16.572729
  H     17.734623   20.312876   18.393771
  H     19.908848   17.248203   19.819982
  H     19.172185   15.860557   17.917917
  H     18.972308   14.115724   19.496949
  H     17.616143   12.855315   21.153965
  H     15.454987   13.805225   21.964566
  H     14.089900   15.518474   21.882852
  H     16.018383   17.268756   19.487501

 Total Charge           Charge          ....    0
 Multiplicity           Mult            ....    1
 Number of Electrons    NEL             ....  154
 Basis Dimension        Dim             ....  828

ORBITAL ENERGIES
----------------

  NO   OCC          E(Eh)            E(eV)
   0   2.0000     -91.890045     -2500.4553
   1   2.0000     -20.600276      -560.5620
   2   2.0000     -20.589819      -560.2775
   3   2.0000     -20.544556      -559.0458
   4   2.0000     -15.630896      -425.3383
   5   2.0000     -15.608556      -424.7304
   6   2.0000     -11.393401      -310.0302
   7   2.0000     -11.384517      -309.7885
   8   2.0000     -11.337490      -308.5088
   9   2.0000     -11.317643      -307.9687
  10   2.0000     -11.310697      -307.7797
  11   2.0000     -11.294553      -307.3404
  12   2.0000     -11.262691      -306.4734
  13   2.0000     -11.260123      -306.4035
  14   2.0000     -11.258574      -306.3614
  15   2.0000     -11.253036      -306.2107
  16   2.0000     -11.246210      -306.0249
  17   2.0000     -11.241020      -305.8837
  18   2.0000     -11.240582      -305.8718
  19   2.0000     -11.220947      -305.3375
  20   2.0000      -8.895064      -242.0470
  21   2.0000      -6.576630      -178.9592
  22   2.0000      -6.574637      -178.9050
  23   2.0000      -6.574042      -178.8888
  24   2.0000      -1.449145       -39.4332
  25   2.0000      -1.419933       -38.6383
  26   2.0000      -1.351395       -36.7733
  27   2.0000      -1.341823       -36.5129
  28   2.0000      -1.239973       -33.7414
  29   2.0000      -1.160158       -31.5695
  30   2.0000      -1.120917       -30.5017
  31   2.0000      -1.044365       -28.4186
  32   2.0000      -1.034161       -28.1409
  33   2.0000      -1.018583       -27.7170
  34   2.0000      -0.997572       -27.1453
  35   2.0000      -0.985051       -26.8046
  36   2.0000      -0.924391       -25.1540
  37   2.0000      -0.884949       -24.0807
  38   2.0000      -0.848209       -23.0809
  39   2.0000      -0.841254       -22.8917
  40   2.0000      -0.835974       -22.7480
  41   2.0000      -0.818903       -22.2835
  42   2.0000      -0.761820       -20.7302
  43   2.0000      -0.734683       -19.9917
  44   2.0000      -0.720643       -19.6097
  45   2.0000      -0.698998       -19.0207
  46   2.0000      -0.689422       -18.7601
  47   2.0000      -0.678918       -18.4743
  48   2.0000      -0.672816       -18.3083
  49   2.0000      -0.665171       -18.1002
  50   2.0000      -0.648421       -17.6444
  51   2.0000      -0.645846       -17.5744
  52   2.0000      -0.638469       -17.3736
  53   2.0000      -0.611340       -16.6354
  54   2.0000      -0.603839       -16.4313
  55   2.0000      -0.600314       -16.3354
  56   2.0000      -0.588689       -16.0190
  57   2.0000      -0.579623       -15.7723
  58   2.0000      -0.572350       -15.5744
  59   2.0000      -0.566066       -15.4035
  60   2.0000      -0.562109       -15.2958
  61   2.0000      -0.550183       -14.9713
  62   2.0000      -0.537669       -14.6307
  63   2.0000      -0.528466       -14.3803
  64   2.0000      -0.518730       -14.1154
  65   2.0000      -0.513353       -13.9691
  66   2.0000      -0.504032       -13.7154
  67   2.0000      -0.496721       -13.5165
  68   2.0000      -0.483882       -13.1671
  69   2.0000      -0.462648       -12.5893
  70   2.0000      -0.452072       -12.3015
  71   2.0000      -0.445181       -12.1140
  72   2.0000      -0.357903        -9.7390
  73   2.0000      -0.353124        -9.6090
  74   2.0000      -0.329852        -8.9757
  75   2.0000      -0.324739        -8.8366
  76   2.0000      -0.316886        -8.6229
  77   0.0000       0.070945         1.9305
  78   0.0000       0.104211         2.8357
  79   0.0000       0.121650         3.3103
  80   0.0000       0.128745         3.5033
  81   0.0000       0.132867         3.6155

MULLIKEN ATOMIC CHARGES
-----------------------
   0 C :   -0.292531
   1 C :    0.048027
   2 O :   -0.374135
   3 C :    0.474721
   4 O :   -0.416476
   5 C :   -0.247128
   6 C :    0.148055
   7 C :   -0.268542
   8 N :   -0.122990
   9 C :    0.216481
  10 S :   -0.438623
  11 N :   -0.204358
  12 C :    0.045007
  13 C :    0.078038
  14 C :   -0.208839
  15 C :   -0.118877
  16 C :   -0.275396
  17 C :    0.302281
  18 O :   -0.359410
  19 C :   -0.245757
  20 H :    0.097108
  21 H :    0.109283
  22 H :    0.105175
  23 H :    0.105065
  24 H :    0.091887
  25 H :    0.129021
  26 H :    0.134834
  27 H :    0.094648
  28 H :    0.198650
  29 H :    0.192079
  30 H :    0.149326
  31 H :    0.149336
  32 H :    0.161889
  33 H :    0.132206
  34 H :    0.241829
  35 H :    0.168116
Sum of atomic charges:   -0.0000000

LOEWDIN ATOMIC CHARGES
----------------------
   0 C :    0.105039
   1 C :   -0.012566
   2 O :    0.288346
   3 C :   -0.418578
   4 O :    0.109662
   5 C :   -0.097136
   6 C :   -0.057446
   7 C :    0.130595
   8 N :    0.407818
   9 C :   -0.454822
  10 S :   -0.033472
  11 N :    0.396112
  12 C :   -0.053679
  13 C :   -0.035068
  14 C :    0.015080
  15 C :    0.045153
  16 C :   -0.001672
  17 C :   -0.190739
  18 O :    0.396199
  19 C :    0.028380
  20 H :   -0.028562
  21 H :   -0.026113
  22 H :   -0.027058
  23 H :   -0.029232
  24 H :   -0.027764
  25 H :   -0.005720
  26 H :   -0.003043
  27 H :   -0.023305
  28 H :   -0.057547
  29 H :   -0.066403
  30 H :   -0.006740
  31 H :   -0.031094
  32 H :   -0.020304
  33 H :   -0.034941
  34 H :   -0.152849
  35 H :   -0.026532

  Mayer bond orders larger than 0.100000
B(  0-C ,  1-C ) :   0.9704 B(  0-C , 20-H ) :   0.9737 B(  0-C , 21-H ) :   0.9794
B(  0-C , 22-H ) :   0.9747 B(  1-C ,  2-O ) :   0.8896 B(  1-C , 23-H ) :   0.9897
B(  1-C , 24-H ) :   0.9714 B(  2-O ,  3-C ) :   1.1176 B(  3-C ,  4-O ) :   1.9956
B(  3-C ,  5-C ) :   1.0705 B(  5-C ,  6-C ) :   1.6472 B(  5-C , 12-C ) :   0.9745
B(  6-C ,  7-C ) :   0.9710 B(  6-C ,  8-N ) :   1.1542 B(  7-C , 25-H ) :   0.9628
B(  7-C , 26-H ) :   0.9573 B(  7-C , 27-H ) :   0.9893 B(  8-N ,  9-C ) :   1.1802
B(  8-N , 28-H ) :   0.9481 B(  9-C , 10-S ) :   1.6082 B(  9-C , 11-N ) :   1.3048
B( 11-N , 12-C ) :   0.9587 B( 11-N , 29-H ) :   0.9539 B( 12-C , 13-C ) :   0.9483
B( 12-C , 30-H ) :   1.0025 B( 13-C , 14-C ) :   1.3475 B( 13-C , 19-C ) :   1.3735
B( 14-C , 15-C ) :   1.3836 B( 14-C , 31-H ) :   0.9754 B( 15-C , 16-C ) :   1.3658
B( 15-C , 32-H ) :   0.9705 B( 16-C , 17-C ) :   1.3303 B( 16-C , 33-H ) :   0.9848
B( 17-C , 18-O ) :   1.1140 B( 17-C , 19-C ) :   1.3740 B( 18-O , 34-H ) :   0.9791
B( 19-C , 35-H ) :   0.9554

MP2 TOTAL ENERGY:    -1274.336082867 Eh
FINAL SINGLE POINT ENERGY     -1274.336082867229

DIPOLE MOMENT
-------------
                                X             Y             Z
Electronic contribution:      8.38096      10.93492       4.64606
Nuclear contribution   :     -9.43157     -12.48050      -4.55253
                        -----------------------------------------
Total Dipole Moment    :     -1.05061      -1.54558       0.09353
                        -----------------------------------------
Magnitude (a.u.)       :      1.87119
Magnitude (Debye)      :      4.75619

Rotational constants in cm-1:     0.012011     0.009221     0.006510
Rotational constants in MHz :   360.085294   276.445153   195.175662

                             ****ORCA TERMINATED NORMALLY****
TOTAL RUN TIME: 0 days 1 hours 45 minutes 55 seconds 439 msec
