                         Program Version 4.2.0 -  RELEASE  -
|  1> ! ri-mp2 cc-pvtz cc-pvtz/c TightSCF  NoKeepInts
|  2>
|  3> %scf
|  4>   MaxCore 4096
|  5> end
|  6> *xyz  0  1
|  7>     C       15.4557751   13.6576753   15.7904179
|  8>     C       15.1082098   15.1272723   16.1105883
|  9>     O       16.2373641   16.0263048   16.0004058
| 10>     C       17.4365394   15.8253263   16.6302197
| 11>     O       17.9461002   14.7268711   16.7689356
| 12>     C       17.8306512   16.9799860   17.5048861
| 13>     C       17.4782681   18.2722870   17.2798342
| 14>     C       16.6723785   18.8272008   16.1232204
| 15>     N       17.9402766   19.2776603   18.1353266
| 16>     C       18.8595316   19.0951220   19.1345612
| 17>     S       19.4420028   20.3616812   20.0245702
| 18>     N       19.2717389   17.8059265   19.3584816
| 19>     C       18.6920840   16.6104707   18.7174854
| 20>     C       17.8861692   15.7988391   19.7285658
| 21>     C       18.1642906   14.4344531   19.9311935
| 22>     C       17.4199139   13.6805647   20.8538987
| 23>     C       16.3868200   14.2953360   21.5814790
| 24>     C       16.1035686   15.6529404   21.3797240
| 25>     O       15.1014514   16.2476612   22.0749567
| 26>     C       16.8457461   16.4005221   20.4600794
| 27>     H       16.0861331   13.5907720   14.8948549
| 28>     H       14.5406808   13.0819616   15.6074267
| 29>     H       15.9811305   13.1804451   16.6269008
| 30>     H       14.3265903   15.4648927   15.4180560
| 31>     H       14.6945525   15.1799261   17.1264498
| 32>     H       16.9991555   18.3880691   15.1722576
| 33>     H       16.7731222   19.9147993   16.0232762
| 34>     H       15.6064276   18.6013734   16.2503491
| 35>     H       17.6504741   20.2310178   17.9864040
| 36>     H       19.9270991   17.6944685   20.1213808
| 37>     H       19.5249944   15.9876520   18.3602019
| 38>     H       18.9507028   13.9522693   19.3554670
| 39>     H       17.6417980   12.6244891   20.9965367
| 40>     H       15.8083170   13.7163118   22.2935326
| 41>     H       14.7451177   15.5889589   22.6898099
| 42>     H       16.6118242   17.4504923   20.3222659
| 43> *
| 44>
| 45>                          ****END OF INPUT****

CARTESIAN COORDINATES (ANGSTROEM)
---------------------------------
  C     15.455775   13.657675   15.790418
  C     15.108210   15.127272   16.110588
  O     16.237364   16.026305   16.000406
  C     17.436539   15.825326   16.630220
  O     17.946100   14.726871   16.768936
  C     17.830651   16.979986   17.504886
  C     17.478268   18.272287   17.279834
  C     16.672379   18.827201   16.123220
  N     17.940277   19.277660   18.135327
  C     18.859532   19.095122   19.134561
  S     19.442003   20.361681   20.024570
  N     19.271739   17.805927   19.358482
  C     18.692084   16.610471   18.717485
  C     17.886169   15.798839   19.728566
  C     18.164291   14.434453   19.931193
  C     17.419914   13.680565   20.853899
  C     16.386820   14.295336   21.581479
  C     16.103569   15.652940   21.379724
  O     15.101451   16.247661   22.074957
  C     16.845746   16.400522   20.460079
  H     16.086133   13.590772   14.894855
  H     14.540681   13.081962   15.607427
  H     15.981131   13.180445   16.626901
  H     14.326590   15.464893   15.418056
  H     14.694552   15.179926   17.126450
  H     16.999156   18.388069   15.172258
  H     16.773122   19.914799   16.023276
  H     15.606428   18.601373   16.250349
  H     17.650474   20.231018   17.986404
  H     19.927099   17.694468   20.121381
  H     19.524994   15.987652   18.360202
  H     18.950703   13.952269   19.355467
  H     17.641798   12.624489   20.996537
  H     15.808317   13.716312   22.293533
  H     14.745118   15.588959   22.689810
  H     16.611824   17.450492   20.322266

 Total Charge           Charge          ....    0
 Multiplicity           Mult            ....    1
 Number of Electrons    NEL             ....  154
 Basis Dimension        Dim             ....  828

ORBITAL ENERGIES
----------------

  NO   OCC          E(Eh)            E(eV)
   0   2.0000     -91.887835     -2500.3951
   1   2.0000     -20.593751      -560.3845
   2   2.0000     -20.591837      -560.3324
   3   2.0000     -20.550678      -559.2124
   4   2.0000     -15.627474      -425.2452
   5   2.0000     -15.606938      -424.6864
   6   2.0000     -11.397658      -310.1461
   7   2.0000     -11.382952      -309.7459
   8   2.0000     -11.333597      -308.4029
   9   2.0000     -11.309795      -307.7552
  10   2.0000     -11.306453      -307.6642
  11   2.0000     -11.305047      -307.6260
  12   2.0000     -11.259057      -306.3745
  13   2.0000     -11.258516      -306.3598
  14   2.0000     -11.255454      -306.2765
  15   2.0000     -11.249993      -306.1279
  16   2.0000     -11.239547      -305.8436
  17   2.0000     -11.235503      -305.7336
  18   2.0000     -11.232664      -305.6563
  19   2.0000     -11.221175      -305.3437
  20   2.0000      -8.892910      -241.9884
  21   2.0000      -6.574490      -178.9010
  22   2.0000      -6.572480      -178.8463
  23   2.0000      -6.571897      -178.8304
  24   2.0000      -1.447377       -39.3851
  25   2.0000      -1.413505       -38.4634
  26   2.0000      -1.357715       -36.9453
  27   2.0000      -1.338700       -36.4279
  28   2.0000      -1.236745       -33.6535
  29   2.0000      -1.153895       -31.3991
  30   2.0000      -1.119415       -30.4608
  31   2.0000      -1.042501       -28.3679
  32   2.0000      -1.032621       -28.0990
  33   2.0000      -1.011443       -27.5228
  34   2.0000      -0.997358       -27.1395
  35   2.0000      -0.982620       -26.7385
  36   2.0000      -0.921945       -25.0874
  37   2.0000      -0.891605       -24.2618
  38   2.0000      -0.847970       -23.0744
  39   2.0000      -0.837058       -22.7775
  40   2.0000      -0.830041       -22.5866
  41   2.0000      -0.820983       -22.3401
  42   2.0000      -0.745297       -20.2806
  43   2.0000      -0.728154       -19.8141
  44   2.0000      -0.726181       -19.7604
  45   2.0000      -0.692199       -18.8357
  46   2.0000      -0.684677       -18.6310
  47   2.0000      -0.680138       -18.5075
  48   2.0000      -0.671376       -18.2691
  49   2.0000      -0.665885       -18.1197
  50   2.0000      -0.645923       -17.5765
  51   2.0000      -0.643605       -17.5134
  52   2.0000      -0.634978       -17.2786
  53   2.0000      -0.603846       -16.4315
  54   2.0000      -0.601332       -16.3631
  55   2.0000      -0.598461       -16.2849
  56   2.0000      -0.597221       -16.2512
  57   2.0000      -0.580770       -15.8036
  58   2.0000      -0.573961       -15.6183
  59   2.0000      -0.571397       -15.5485
  60   2.0000      -0.559907       -15.2358
  61   2.0000      -0.546000       -14.8574
  62   2.0000      -0.536037       -14.5863
  63   2.0000      -0.522147       -14.2083
  64   2.0000      -0.518664       -14.1136
  65   2.0000      -0.510699       -13.8968
  66   2.0000      -0.499216       -13.5844
  67   2.0000      -0.494975       -13.4690
  68   2.0000      -0.479738       -13.0543
  69   2.0000      -0.462984       -12.5984
  70   2.0000      -0.456853       -12.4316
  71   2.0000      -0.445791       -12.1306
  72   2.0000      -0.353282        -9.6133
  73   2.0000      -0.345769        -9.4089
  74   2.0000      -0.327111        -8.9011
  75   2.0000      -0.316952        -8.6247
  76   2.0000      -0.314708        -8.5636
  77   0.0000       0.074523         2.0279
  78   0.0000       0.108639         2.9562
  79   0.0000       0.121051         3.2940
  80   0.0000       0.134266         3.6536
  81   0.0000       0.138765         3.7760

MULLIKEN ATOMIC CHARGES
-----------------------
   0 C :   -0.279280
   1 C :    0.046232
   2 O :   -0.375630
   3 C :    0.446806
   4 O :   -0.412242
   5 C :   -0.163149
   6 C :    0.140733
   7 C :   -0.283818
   8 N :   -0.123463
   9 C :    0.201899
  10 S :   -0.440660
  11 N :   -0.199859
  12 C :    0.045070
  13 C :    0.052097
  14 C :   -0.167342
  15 C :   -0.133443
  16 C :   -0.280205
  17 C :    0.311849
  18 O :   -0.358617
  19 C :   -0.275448
  20 H :    0.101537
  21 H :    0.091815
  22 H :    0.115848
  23 H :    0.099260
  24 H :    0.088427
  25 H :    0.125745
  26 H :    0.102880
  27 H :    0.124404
  28 H :    0.196872
  29 H :    0.193985
  30 H :    0.155191
  31 H :    0.156137
  32 H :    0.160322
  33 H :    0.129161
  34 H :    0.240367
  35 H :    0.166517
Sum of atomic charges:   -0.0000000

LOEWDIN ATOMIC CHARGES
----------------------
   0 C :    0.103808
   1 C :   -0.012463
   2 O :    0.287138
   3 C :   -0.410900
   4 O :    0.125542
   5 C :   -0.092264
   6 C :   -0.070255
   7 C :    0.125050
   8 N :    0.404237
   9 C :   -0.458389
  10 S :   -0.037071
  11 N :    0.397401
  12 C :   -0.046027
  13 C :   -0.039595
  14 C :    0.020873
  15 C :    0.040463
  16 C :   -0.002470
  17 C :   -0.193311
  18 O :    0.393200
  19 C :    0.028267
  20 H :   -0.024238
  21 H :   -0.029923
  22 H :   -0.026373
  23 H :   -0.024135
  24 H :   -0.030342
  25 H :   -0.008096
  26 H :   -0.020481
  27 H :   -0.010195
  28 H :   -0.059036
  29 H :   -0.063968
  30 H :   -0.005214
  31 H :   -0.025062
  32 H :   -0.020939
  33 H :   -0.036128
  34 H :   -0.154584
  35 H :   -0.024520

  Mayer bond orders larger than 0.100000
B(  0-C ,  1-C ) :   0.9779 B(  0-C , 20-H ) :   0.9750 B(  0-C , 21-H ) :   0.9745
B(  0-C , 22-H ) :   0.9721 B(  1-C ,  2-O ) :   0.9050 B(  1-C , 23-H ) :   0.9820
B(  1-C , 24-H ) :   0.9752 B(  2-O ,  3-C ) :   1.0852 B(  3-C ,  4-O ) :   2.0020
B(  3-C ,  5-C ) :   1.0435 B(  5-C ,  6-C ) :   1.6648 B(  5-C , 12-C ) :   0.9630
B(  6-C ,  7-C ) :   0.9531 B(  6-C ,  8-N ) :   1.1398 B(  7-C , 25-H ) :   0.9681
B(  7-C , 26-H ) :   0.9899 B(  7-C , 27-H ) :   0.9640 B(  8-N ,  9-C ) :   1.1832
B(  8-N , 28-H ) :   0.9494 B(  9-C , 10-S ) :   1.6096 B(  9-C , 11-N ) :   1.3019
B( 11-N , 12-C ) :   0.9913 B( 11-N , 29-H ) :   0.9517 B( 12-C , 13-C ) :   0.9458
B( 12-C , 30-H ) :   0.9990 B( 13-C , 14-C ) :   1.3765 B( 13-C , 19-C ) :   1.3682
B( 14-C , 15-C ) :   1.3937 B( 14-C , 31-H ) :   0.9641 B( 15-C , 16-C ) :   1.3631
B( 15-C , 32-H ) :   0.9709 B( 16-C , 17-C ) :   1.3313 B( 16-C , 33-H ) :   0.9856
B( 17-C , 18-O ) :   1.1088 B( 17-C , 19-C ) :   1.3765 B( 18-O , 34-H ) :   0.9803
B( 19-C , 35-H ) :   0.9582

MP2 TOTAL ENERGY:    -1274.329744826 Eh
FINAL SINGLE POINT ENERGY     -1274.329744825671

DIPOLE MOMENT
-------------
                                X             Y             Z
Electronic contribution:     10.27287      10.57017       8.97198
Nuclear contribution   :    -11.88847     -11.75070      -9.74363
                        -----------------------------------------
Total Dipole Moment    :     -1.61560      -1.18054      -0.77166
                        -----------------------------------------
Magnitude (a.u.)       :      2.14459
Magnitude (Debye)      :      5.45112

Rotational constants in cm-1:     0.011303     0.009017     0.006154
Rotational constants in MHz :   338.868074   270.337715   184.500376

                             ****ORCA TERMINATED NORMALLY****
TOTAL RUN TIME: 0 days 1 hours 36 minutes 9 seconds 411 msec
