                         Program Version 5.0.0 -  RELEASE  -
|  1> ! ri-mp2 cc-pvtz cc-pvtz/c TightSCF NoKeepInts
|  2>
|  3> %scf
|  4>   MaxCore 4096
|  5> end
|  6> *xyz  0  1
|  7>     C       15.5968185   13.7204118   17.3185917
|  8>     C       16.3649648   14.1270862   16.0500411
|  9>     O       17.3822392   15.0849063   16.4086200
| 10>     C       17.1559702   16.4157818   16.1878530
| 11>     O       16.4288825   16.8009911   15.2881353
| 12>     C       17.6341635   17.2898436   17.3157081
| 13>     C       17.3850589   18.6245141   17.3582039
| 14>     C       16.5802838   19.4432934   16.3712569
| 15>     N       17.9369959   19.4076115   18.3767844
| 16>     C       18.8778950   18.9726190   19.2715693
| 17>     S       19.6031777   19.9972463   20.3487594
| 18>     N       19.2007325   17.6408691   19.2168780
| 19>     C       18.4788592   16.6320697   18.4207543
| 20>     C       17.6604170   15.7544954   19.3623928
| 21>     C       18.1555495   14.4991935   19.7631100
| 22>     C       17.4279781   13.6947464   20.6565098
| 23>     C       16.1952211   14.1494243   21.1547708
| 24>     C       15.7037284   15.4029416   20.7655674
| 25>     O       14.5159923   15.8467413   21.2482841
| 26>     C       16.4319285   16.2034472   19.8801281
| 27>     H       16.2701598   13.2562558   18.0477838
| 28>     H       14.8097425   12.9970353   17.0744378
| 29>     H       15.1240912   14.5941769   17.7835500
| 30>     H       16.8452367   13.2341056   15.6300729
| 31>     H       15.6727812   14.5189286   15.2925139
| 32>     H       15.5530857   19.0629828   16.3021643
| 33>     H       17.0205922   19.3803063   15.3679537
| 34>     H       16.5216408   20.5043594   16.6405351
| 35>     H       17.7178113   20.3898497   18.4233202
| 36>     H       19.8750531   17.3429755   19.9097581
| 37>     H       19.2309113   15.9986796   17.9293963
| 38>     H       19.1088615   14.1454160   19.3798224
| 39>     H       17.8193681   12.7251072   20.9595054
| 40>     H       15.6289351   13.5315389   21.8438667
| 41>     H       14.1919889   15.1852623   21.8779770
| 42>     H       16.0398839   17.1767866   19.6074240
| 43> *
| 44>
| 45>                          ****END OF INPUT****

CARTESIAN COORDINATES (ANGSTROEM)
---------------------------------
  C     15.596818   13.720412   17.318592
  C     16.364965   14.127086   16.050041
  O     17.382239   15.084906   16.408620
  C     17.155970   16.415782   16.187853
  O     16.428883   16.800991   15.288135
  C     17.634163   17.289844   17.315708
  C     17.385059   18.624514   17.358204
  C     16.580284   19.443293   16.371257
  N     17.936996   19.407612   18.376784
  C     18.877895   18.972619   19.271569
  S     19.603178   19.997246   20.348759
  N     19.200733   17.640869   19.216878
  C     18.478859   16.632070   18.420754
  C     17.660417   15.754495   19.362393
  C     18.155549   14.499194   19.763110
  C     17.427978   13.694746   20.656510
  C     16.195221   14.149424   21.154771
  C     15.703728   15.402942   20.765567
  O     14.515992   15.846741   21.248284
  C     16.431929   16.203447   19.880128
  H     16.270160   13.256256   18.047784
  H     14.809742   12.997035   17.074438
  H     15.124091   14.594177   17.783550
  H     16.845237   13.234106   15.630073
  H     15.672781   14.518929   15.292514
  H     15.553086   19.062983   16.302164
  H     17.020592   19.380306   15.367954
  H     16.521641   20.504359   16.640535
  H     17.717811   20.389850   18.423320
  H     19.875053   17.342976   19.909758
  H     19.230911   15.998680   17.929396
  H     19.108861   14.145416   19.379822
  H     17.819368   12.725107   20.959505
  H     15.628935   13.531539   21.843867
  H     14.191989   15.185262   21.877977
  H     16.039884   17.176787   19.607424

 Total Charge           Charge          ....    0
 Multiplicity           Mult            ....    1
 Number of Electrons    NEL             ....  154
 Basis Dimension        Dim             ....  828

ORBITAL ENERGIES
----------------

  NO   OCC          E(Eh)            E(eV)
   0   2.0000     -91.889297     -2500.4349
   1   2.0000     -20.599131      -560.5309
   2   2.0000     -20.595835      -560.4411
   3   2.0000     -20.542548      -558.9911
   4   2.0000     -15.629932      -425.3121
   5   2.0000     -15.608357      -424.7250
   6   2.0000     -11.394714      -310.0659
   7   2.0000     -11.384118      -309.7776
   8   2.0000     -11.336958      -308.4943
   9   2.0000     -11.316047      -307.9253
  10   2.0000     -11.309853      -307.7568
  11   2.0000     -11.292939      -307.2965
  12   2.0000     -11.261596      -306.4436
  13   2.0000     -11.259667      -306.3911
  14   2.0000     -11.257455      -306.3309
  15   2.0000     -11.252517      -306.1966
  16   2.0000     -11.244824      -305.9872
  17   2.0000     -11.239642      -305.8462
  18   2.0000     -11.239376      -305.8390
  19   2.0000     -11.220016      -305.3122
  20   2.0000      -8.894340      -242.0273
  21   2.0000      -6.575911      -178.9396
  22   2.0000      -6.573911      -178.8852
  23   2.0000      -6.573322      -178.8692
  24   2.0000      -1.449021       -39.4299
  25   2.0000      -1.418746       -38.6060
  26   2.0000      -1.352914       -36.8146
  27   2.0000      -1.340956       -36.4893
  28   2.0000      -1.239329       -33.7239
  29   2.0000      -1.159121       -31.5413
  30   2.0000      -1.120659       -30.4947
  31   2.0000      -1.043588       -28.3975
  32   2.0000      -1.034244       -28.1432
  33   2.0000      -1.017268       -27.6813
  34   2.0000      -0.996511       -27.1164
  35   2.0000      -0.984585       -26.7919
  36   2.0000      -0.923588       -25.1321
  37   2.0000      -0.889636       -24.2082
  38   2.0000      -0.847633       -23.0653
  39   2.0000      -0.839795       -22.8520
  40   2.0000      -0.835217       -22.7274
  41   2.0000      -0.814574       -22.1657
  42   2.0000      -0.759392       -20.6641
  43   2.0000      -0.733745       -19.9662
  44   2.0000      -0.721895       -19.6438
  45   2.0000      -0.697956       -18.9923
  46   2.0000      -0.689236       -18.7551
  47   2.0000      -0.678421       -18.4608
  48   2.0000      -0.668799       -18.1989
  49   2.0000      -0.666961       -18.1489
  50   2.0000      -0.648213       -17.6388
  51   2.0000      -0.644166       -17.5287
  52   2.0000      -0.636278       -17.3140
  53   2.0000      -0.610005       -16.5991
  54   2.0000      -0.602494       -16.3947
  55   2.0000      -0.599869       -16.3233
  56   2.0000      -0.592269       -16.1165
  57   2.0000      -0.579445       -15.7675
  58   2.0000      -0.571007       -15.5379
  59   2.0000      -0.566078       -15.4038
  60   2.0000      -0.561416       -15.2769
  61   2.0000      -0.549172       -14.9437
  62   2.0000      -0.536590       -14.6014
  63   2.0000      -0.527382       -14.3508
  64   2.0000      -0.524975       -14.2853
  65   2.0000      -0.513156       -13.9637
  66   2.0000      -0.503096       -13.6899
  67   2.0000      -0.497080       -13.5262
  68   2.0000      -0.481142       -13.0925
  69   2.0000      -0.463133       -12.6025
  70   2.0000      -0.451145       -12.2763
  71   2.0000      -0.446753       -12.1568
  72   2.0000      -0.355921        -9.6851
  73   2.0000      -0.351411        -9.5624
  74   2.0000      -0.328912        -8.9502
  75   2.0000      -0.323551        -8.8043
  76   2.0000      -0.316617        -8.6156
  77   0.0000       0.074226         2.0198
  78   0.0000       0.103946         2.8285
  79   0.0000       0.122915         3.3447
  80   0.0000       0.131420         3.5761
  81   0.0000       0.134918         3.6713

MULLIKEN ATOMIC CHARGES
-----------------------
   0 C :   -0.306355
   1 C :    0.028544
   2 O :   -0.366810
   3 C :    0.470377
   4 O :   -0.427414
   5 C :   -0.245842
   6 C :    0.154638
   7 C :   -0.269263
   8 N :   -0.123196
   9 C :    0.216761
  10 S :   -0.440446
  11 N :   -0.207640
  12 C :    0.055391
  13 C :    0.100702
  14 C :   -0.202947
  15 C :   -0.137459
  16 C :   -0.270804
  17 C :    0.320360
  18 O :   -0.359445
  19 C :   -0.281266
  20 H :    0.102999
  21 H :    0.110748
  22 H :    0.105632
  23 H :    0.102633
  24 H :    0.117093
  25 H :    0.129870
  26 H :    0.133264
  27 H :    0.094875
  28 H :    0.197992
  29 H :    0.194051
  30 H :    0.149445
  31 H :    0.147377
  32 H :    0.163961
  33 H :    0.131817
  34 H :    0.241632
  35 H :    0.168725
Sum of atomic charges:    0.0000000

LOEWDIN ATOMIC CHARGES
----------------------
   0 C :    0.103666
   1 C :   -0.013175
   2 O :    0.297621
   3 C :   -0.415171
   4 O :    0.101249
   5 C :   -0.095874
   6 C :   -0.057953
   7 C :    0.131031
   8 N :    0.407385
   9 C :   -0.455037
  10 S :   -0.034947
  11 N :    0.396359
  12 C :   -0.052909
  13 C :   -0.034438
  14 C :    0.011766
  15 C :    0.042287
  16 C :   -0.001361
  17 C :   -0.188623
  18 O :    0.396065
  19 C :    0.031681
  20 H :   -0.027847
  21 H :   -0.027139
  22 H :   -0.027817
  23 H :   -0.027998
  24 H :   -0.028975
  25 H :   -0.005259
  26 H :   -0.003400
  27 H :   -0.023394
  28 H :   -0.057494
  29 H :   -0.065629
  30 H :   -0.008580
  31 H :   -0.030770
  32 H :   -0.020789
  33 H :   -0.035274
  34 H :   -0.153124
  35 H :   -0.026133

  Mayer bond orders larger than 0.100000
B(  0-C ,  1-C ) :   0.9670 B(  0-C , 20-H ) :   0.9724 B(  0-C , 21-H ) :   0.9780
B(  0-C , 22-H ) :   0.9742 B(  1-C ,  2-O ) :   0.8841 B(  1-C , 23-H ) :   0.9864
B(  1-C , 24-H ) :   0.9750 B(  2-O ,  3-C ) :   1.1483 B(  3-C ,  4-O ) :   1.9839
B(  3-C ,  5-C ) :   1.0591 B(  5-C ,  6-C ) :   1.6513 B(  5-C , 12-C ) :   0.9767
B(  6-C ,  7-C ) :   0.9688 B(  6-C ,  8-N ) :   1.1609 B(  7-C , 25-H ) :   0.9613
B(  7-C , 26-H ) :   0.9587 B(  7-C , 27-H ) :   0.9901 B(  8-N ,  9-C ) :   1.1820
B(  8-N , 28-H ) :   0.9479 B(  9-C , 10-S ) :   1.6043 B(  9-C , 11-N ) :   1.3075
B( 11-N , 12-C ) :   0.9647 B( 11-N , 29-H ) :   0.9527 B( 12-C , 13-C ) :   0.9441
B( 12-C , 30-H ) :   1.0025 B( 13-C , 14-C ) :   1.3473 B( 13-C , 19-C ) :   1.3636
B( 14-C , 15-C ) :   1.3884 B( 14-C , 31-H ) :   0.9750 B( 15-C , 16-C ) :   1.3612
B( 15-C , 32-H ) :   0.9706 B( 16-C , 17-C ) :   1.3307 B( 16-C , 33-H ) :   0.9846
B( 17-C , 18-O ) :   1.1097 B( 17-C , 19-C ) :   1.3684 B( 18-O , 34-H ) :   0.9793
B( 19-C , 35-H ) :   0.9587

MP2 TOTAL ENERGY:    -1274.345291251 Eh
FINAL SINGLE POINT ENERGY     -1274.345291250989

DIPOLE MOMENT
-------------
                                X             Y             Z
Electronic contribution:      8.60837      10.72402       5.34512
Nuclear contribution   :     -9.52036     -12.40890      -5.48653
                        -----------------------------------------
Total Dipole Moment    :     -0.91199      -1.68488      -0.14141
                        -----------------------------------------
Magnitude (a.u.)       :      1.92108
Magnitude (Debye)      :      4.88300

Rotational constants in cm-1:     0.012323     0.008996     0.006465
Rotational constants in MHz :   369.428267   269.680652   193.814688

                             ****ORCA TERMINATED NORMALLY****
TOTAL RUN TIME: 0 days 1 hours 41 minutes 39 seconds 952 msec
