                         Program Version 4.2.0 -  RELEASE  -
|  1> ! ri-mp2 cc-pvtz cc-pvtz/c TightSCF  NoKeepInts
|  2>
|  3> %scf
|  4>   MaxCore 4096
|  5> end
|  6> *xyz  0  1
|  7>     C       14.7695169   14.5357890   17.3649636
|  8>     C       15.6053062   15.5110805   16.5204389
|  9>     O       16.9424873   14.9809097   16.4712091
| 10>     C       18.0876470   15.7349424   16.4621543
| 11>     O       19.1466827   15.1584764   16.2990157
| 12>     C       18.0482730   16.9179664   17.3692202
| 13>     C       17.5630893   18.1130026   16.9643719
| 14>     C       16.9859289   18.4410540   15.6039446
| 15>     N       17.6193794   19.2134255   17.8220379
| 16>     C       18.2501686   19.2180057   19.0394851
| 17>     S       18.3328688   20.5838798   19.9677378
| 18>     N       18.8063449   18.0311316   19.4519654
| 19>     C       18.6819425   16.7386000   18.7472212
| 20>     C       17.9057824   15.7192664   19.5758467
| 21>     C       18.3226498   14.3759075   19.6055860
| 22>     C       17.6147286   13.4220966   20.3555234
| 23>     C       16.4778512   13.8133507   21.0827368
| 24>     C       16.0536740   15.1485040   21.0491859
| 25>     O       14.9464787   15.5260388   21.7362848
| 26>     C       16.7577638   16.0955595   20.2985365
| 27>     H       15.1985783   14.4263684   18.3678795
| 28>     H       14.7427203   13.5447161   16.8951070
| 29>     H       13.7391345   14.8964118   17.4689773
| 30>     H       15.1904696   15.6061676   15.5086000
| 31>     H       15.5614874   16.4871175   17.0146248
| 32>     H       17.1648477   17.6448949   14.8710017
| 33>     H       17.4436332   19.3513819   15.1955561
| 34>     H       15.9032813   18.6069290   15.6641773
| 35>     H       17.2308881   20.0973490   17.5324181
| 36>     H       19.2485823   18.0602646   20.3620147
| 37>     H       19.6978748   16.3451879   18.5940341
| 38>     H       19.1930180   14.0673781   19.0300628
| 39>     H       17.9460201   12.3851010   20.3653128
| 40>     H       15.9273846   13.0789478   21.6613363
| 41>     H       14.6340373   14.7529955   22.2303790
| 42>     H       16.4064786   17.1218017   20.2850527
| 43> *
| 44>
| 45>                          ****END OF INPUT****

CARTESIAN COORDINATES (ANGSTROEM)
---------------------------------
  C     14.769517   14.535789   17.364964
  C     15.605306   15.511081   16.520439
  O     16.942487   14.980910   16.471209
  C     18.087647   15.734942   16.462154
  O     19.146683   15.158476   16.299016
  C     18.048273   16.917966   17.369220
  C     17.563089   18.113003   16.964372
  C     16.985929   18.441054   15.603945
  N     17.619379   19.213425   17.822038
  C     18.250169   19.218006   19.039485
  S     18.332869   20.583880   19.967738
  N     18.806345   18.031132   19.451965
  C     18.681942   16.738600   18.747221
  C     17.905782   15.719266   19.575847
  C     18.322650   14.375907   19.605586
  C     17.614729   13.422097   20.355523
  C     16.477851   13.813351   21.082737
  C     16.053674   15.148504   21.049186
  O     14.946479   15.526039   21.736285
  C     16.757764   16.095560   20.298537
  H     15.198578   14.426368   18.367879
  H     14.742720   13.544716   16.895107
  H     13.739134   14.896412   17.468977
  H     15.190470   15.606168   15.508600
  H     15.561487   16.487118   17.014625
  H     17.164848   17.644895   14.871002
  H     17.443633   19.351382   15.195556
  H     15.903281   18.606929   15.664177
  H     17.230888   20.097349   17.532418
  H     19.248582   18.060265   20.362015
  H     19.697875   16.345188   18.594034
  H     19.193018   14.067378   19.030063
  H     17.946020   12.385101   20.365313
  H     15.927385   13.078948   21.661336
  H     14.634037   14.752996   22.230379
  H     16.406479   17.121802   20.285053

 Total Charge           Charge          ....    0
 Multiplicity           Mult            ....    1
 Number of Electrons    NEL             ....  154
 Basis Dimension        Dim             ....  828

ORBITAL ENERGIES
----------------

  NO   OCC          E(Eh)            E(eV)
   0   2.0000     -91.888818     -2500.4219
   1   2.0000     -20.603086      -560.6385
   2   2.0000     -20.599008      -560.5275
   3   2.0000     -20.554006      -559.3030
   4   2.0000     -15.624745      -425.1709
   5   2.0000     -15.611159      -424.8012
   6   2.0000     -11.397221      -310.1341
   7   2.0000     -11.385754      -309.8221
   8   2.0000     -11.324942      -308.1673
   9   2.0000     -11.315930      -307.9221
  10   2.0000     -11.315769      -307.9177
  11   2.0000     -11.303939      -307.5958
  12   2.0000     -11.270934      -306.6977
  13   2.0000     -11.265122      -306.5396
  14   2.0000     -11.263211      -306.4876
  15   2.0000     -11.256105      -306.2942
  16   2.0000     -11.245011      -305.9923
  17   2.0000     -11.241256      -305.8901
  18   2.0000     -11.238451      -305.8138
  19   2.0000     -11.228136      -305.5331
  20   2.0000      -8.893946      -242.0166
  21   2.0000      -6.575540      -178.9295
  22   2.0000      -6.573508      -178.8743
  23   2.0000      -6.572939      -178.8588
  24   2.0000      -1.452621       -39.5278
  25   2.0000      -1.418822       -38.6081
  26   2.0000      -1.361334       -37.0438
  27   2.0000      -1.338744       -36.4291
  28   2.0000      -1.238909       -33.7124
  29   2.0000      -1.160394       -31.5759
  30   2.0000      -1.125306       -30.6211
  31   2.0000      -1.048718       -28.5371
  32   2.0000      -1.039523       -28.2869
  33   2.0000      -1.018127       -27.7046
  34   2.0000      -1.004803       -27.3421
  35   2.0000      -0.988643       -26.9023
  36   2.0000      -0.927531       -25.2394
  37   2.0000      -0.882736       -24.0205
  38   2.0000      -0.854053       -23.2400
  39   2.0000      -0.840957       -22.8836
  40   2.0000      -0.836197       -22.7541
  41   2.0000      -0.835406       -22.7326
  42   2.0000      -0.758329       -20.6352
  43   2.0000      -0.738627       -20.0990
  44   2.0000      -0.730904       -19.8889
  45   2.0000      -0.697365       -18.9763
  46   2.0000      -0.689775       -18.7697
  47   2.0000      -0.683626       -18.6024
  48   2.0000      -0.676563       -18.4102
  49   2.0000      -0.662095       -18.0165
  50   2.0000      -0.654594       -17.8124
  51   2.0000      -0.644173       -17.5288
  52   2.0000      -0.638949       -17.3867
  53   2.0000      -0.613289       -16.6885
  54   2.0000      -0.610980       -16.6256
  55   2.0000      -0.606412       -16.5013
  56   2.0000      -0.602074       -16.3833
  57   2.0000      -0.587439       -15.9850
  58   2.0000      -0.577434       -15.7128
  59   2.0000      -0.567345       -15.4382
  60   2.0000      -0.560610       -15.2550
  61   2.0000      -0.556235       -15.1359
  62   2.0000      -0.541890       -14.7456
  63   2.0000      -0.532012       -14.4768
  64   2.0000      -0.519659       -14.1406
  65   2.0000      -0.513547       -13.9743
  66   2.0000      -0.502393       -13.6708
  67   2.0000      -0.501360       -13.6427
  68   2.0000      -0.488215       -13.2850
  69   2.0000      -0.469011       -12.7624
  70   2.0000      -0.455184       -12.3862
  71   2.0000      -0.451430       -12.2840
  72   2.0000      -0.356326        -9.6961
  73   2.0000      -0.351150        -9.5553
  74   2.0000      -0.328612        -8.9420
  75   2.0000      -0.323561        -8.8045
  76   2.0000      -0.317155        -8.6302
  77   0.0000       0.090388         2.4596
  78   0.0000       0.102785         2.7969
  79   0.0000       0.107748         2.9320
  80   0.0000       0.128372         3.4932
  81   0.0000       0.129617         3.5271

MULLIKEN ATOMIC CHARGES
-----------------------
   0 C :   -0.265218
   1 C :    0.011894
   2 O :   -0.305698
   3 C :    0.383354
   4 O :   -0.372502
   5 C :   -0.144990
   6 C :    0.113195
   7 C :   -0.320035
   8 N :   -0.135921
   9 C :    0.205942
  10 S :   -0.443049
  11 N :   -0.217750
  12 C :    0.054226
  13 C :    0.027064
  14 C :   -0.191785
  15 C :   -0.132137
  16 C :   -0.273851
  17 C :    0.299177
  18 O :   -0.361387
  19 C :   -0.252652
  20 H :    0.116101
  21 H :    0.103274
  22 H :    0.088303
  23 H :    0.109754
  24 H :    0.087115
  25 H :    0.118884
  26 H :    0.135513
  27 H :    0.122739
  28 H :    0.195417
  29 H :    0.199464
  30 H :    0.167656
  31 H :    0.164958
  32 H :    0.163017
  33 H :    0.132288
  34 H :    0.241375
  35 H :    0.176264
Sum of atomic charges:    0.0000000

LOEWDIN ATOMIC CHARGES
----------------------
   0 C :    0.111879
   1 C :   -0.026028
   2 O :    0.321198
   3 C :   -0.421872
   4 O :    0.132196
   5 C :   -0.079482
   6 C :   -0.112731
   7 C :    0.123883
   8 N :    0.399957
   9 C :   -0.455645
  10 S :   -0.039775
  11 N :    0.397761
  12 C :   -0.042328
  13 C :   -0.040994
  14 C :    0.024052
  15 C :    0.045657
  16 C :   -0.001702
  17 C :   -0.194453
  18 O :    0.395454
  19 C :    0.026143
  20 H :   -0.022465
  21 H :   -0.026060
  22 H :   -0.026269
  23 H :   -0.034104
  24 H :   -0.039601
  25 H :   -0.010151
  26 H :   -0.009972
  27 H :   -0.016613
  28 H :   -0.058989
  29 H :   -0.063704
  30 H :   -0.001909
  31 H :   -0.022109
  32 H :   -0.018576
  33 H :   -0.035074
  34 H :   -0.153142
  35 H :   -0.024433

  Mayer bond orders larger than 0.100000
B(  0-C ,  1-C ) :   0.9789 B(  0-C , 20-H ) :   0.9706 B(  0-C , 21-H ) :   0.9820
B(  0-C , 22-H ) :   0.9757 B(  1-C ,  2-O ) :   0.9256 B(  1-C , 23-H ) :   0.9777
B(  1-C , 24-H ) :   0.9618 B(  2-O ,  3-C ) :   1.1356 B(  3-C ,  4-O ) :   2.0952
B(  3-C ,  5-C ) :   0.9238 B(  5-C ,  6-C ) :   1.7026 B(  5-C , 12-C ) :   0.9637
B(  6-C ,  7-C ) :   0.9467 B(  6-C ,  8-N ) :   1.1057 B(  7-C , 25-H ) :   0.9813
B(  7-C , 26-H ) :   0.9723 B(  7-C , 27-H ) :   0.9655 B(  8-N ,  9-C ) :   1.1990
B(  8-N , 28-H ) :   0.9532 B(  9-C , 10-S ) :   1.6081 B(  9-C , 11-N ) :   1.2855
B( 11-N , 12-C ) :   0.9929 B( 11-N , 29-H ) :   0.9481 B( 12-C , 13-C ) :   0.9474
B( 12-C , 30-H ) :   0.9970 B( 13-C , 14-C ) :   1.3857 B( 13-C , 19-C ) :   1.3519
B( 14-C , 15-C ) :   1.3983 B( 14-C , 31-H ) :   0.9629 B( 15-C , 16-C ) :   1.3581
B( 15-C , 32-H ) :   0.9706 B( 16-C , 17-C ) :   1.3329 B( 16-C , 33-H ) :   0.9854
B( 17-C , 18-O ) :   1.1072 B( 17-C , 19-C ) :   1.3696 B( 18-O , 34-H ) :   0.9793
B( 19-C , 35-H ) :   0.9558

MP2 TOTAL ENERGY:    -1274.324954731 Eh
FINAL SINGLE POINT ENERGY     -1274.324954730777

DIPOLE MOMENT
-------------
                                X             Y             Z
Electronic contribution:     10.34320       7.93699       6.23473
Nuclear contribution   :    -11.93159      -9.00255      -6.88827
                        -----------------------------------------
Total Dipole Moment    :     -1.58838      -1.06556      -0.65354
                        -----------------------------------------
Magnitude (a.u.)       :      2.02126
Magnitude (Debye)      :      5.13764

Rotational constants in cm-1:     0.012387     0.009165     0.006839
Rotational constants in MHz :   371.347409   274.770486   205.021966

                             ****ORCA TERMINATED NORMALLY****
TOTAL RUN TIME: 0 days 1 hours 53 minutes 22 seconds 999 msec
