                         Program Version 4.2.0 -  RELEASE  -
|  1> ! ri-mp2 cc-pvtz cc-pvtz/c TightSCF  NoKeepInts
|  2>
|  3> %scf
|  4>   MaxCore 4096
|  5> end
|  6> *xyz  0  1
|  7>     C       14.9408072   14.1971960   16.5681925
|  8>     C       16.4318149   13.9376161   16.2537025
|  9>     O       17.2894363   15.0555998   16.5819330
| 10>     C       16.9099536   16.3685336   16.4927970
| 11>     O       16.0996422   16.7668780   15.6742402
| 12>     C       17.6663511   17.2504831   17.4474442
| 13>     C       17.5663539   18.6038603   17.4260582
| 14>     C       16.7356386   19.4469891   16.4823970
| 15>     N       18.3016802   19.3761166   18.3300948
| 16>     C       19.2042848   18.8815636   19.2330328
| 17>     S       20.0815703   19.8725393   20.2251671
| 18>     N       19.3447240   17.5180666   19.2750959
| 19>     C       18.5409857   16.5534556   18.5025687
| 20>     C       17.7075371   15.6966045   19.4514555
| 21>     C       17.9985698   14.3298020   19.6200115
| 22>     C       17.2238529   13.5348583   20.4813867
| 23>     C       16.1510010   14.1115617   21.1823244
| 24>     C       15.8619859   15.4735632   21.0210688
| 25>     O       14.8270413   16.0333069   21.6966130
| 26>     C       16.6346277   16.2620995   20.1630497
| 27>     H       14.8215392   14.6222706   17.5729922
| 28>     H       14.3793545   13.2560481   16.5315383
| 29>     H       14.4837527   14.8768269   15.8389638
| 30>     H       16.7734270   13.0550682   16.8095424
| 31>     H       16.5255011   13.7126856   15.1832237
| 32>     H       17.0093198   19.2422505   15.4394997
| 33>     H       16.8554156   20.5237178   16.6498615
| 34>     H       15.6695265   19.2105624   16.5926359
| 35>     H       18.2115285   20.3794383   18.3146284
| 36>     H       19.9879394   17.1817191   19.9800492
| 37>     H       19.2443342   15.8984899   17.9693269
| 38>     H       18.8240022   13.8805396   19.0743401
| 39>     H       17.4556307   12.4782899   20.6039842
| 40>     H       15.5498565   13.5019779   21.8489421
| 41>     H       14.4399716   15.3460613   22.2594043
| 42>     H       16.3980421   17.3153603   20.0564340
| 43> *
| 44>
| 45>                          ****END OF INPUT****

CARTESIAN COORDINATES (ANGSTROEM)
---------------------------------
  C     14.940807   14.197196   16.568192
  C     16.431815   13.937616   16.253702
  O     17.289436   15.055600   16.581933
  C     16.909954   16.368534   16.492797
  O     16.099642   16.766878   15.674240
  C     17.666351   17.250483   17.447444
  C     17.566354   18.603860   17.426058
  C     16.735639   19.446989   16.482397
  N     18.301680   19.376117   18.330095
  C     19.204285   18.881564   19.233033
  S     20.081570   19.872539   20.225167
  N     19.344724   17.518067   19.275096
  C     18.540986   16.553456   18.502569
  C     17.707537   15.696604   19.451456
  C     17.998570   14.329802   19.620012
  C     17.223853   13.534858   20.481387
  C     16.151001   14.111562   21.182324
  C     15.861986   15.473563   21.021069
  O     14.827041   16.033307   21.696613
  C     16.634628   16.262100   20.163050
  H     14.821539   14.622271   17.572992
  H     14.379354   13.256048   16.531538
  H     14.483753   14.876827   15.838964
  H     16.773427   13.055068   16.809542
  H     16.525501   13.712686   15.183224
  H     17.009320   19.242251   15.439500
  H     16.855416   20.523718   16.649862
  H     15.669526   19.210562   16.592636
  H     18.211529   20.379438   18.314628
  H     19.987939   17.181719   19.980049
  H     19.244334   15.898490   17.969327
  H     18.824002   13.880540   19.074340
  H     17.455631   12.478290   20.603984
  H     15.549857   13.501978   21.848942
  H     14.439972   15.346061   22.259404
  H     16.398042   17.315360   20.056434

 Total Charge           Charge          ....    0
 Multiplicity           Mult            ....    1
 Number of Electrons    NEL             ....  154
 Basis Dimension        Dim             ....  828

ORBITAL ENERGIES
----------------

  NO   OCC          E(Eh)            E(eV)
   0   2.0000     -91.888566     -2500.4150
   1   2.0000     -20.598011      -560.5004
   2   2.0000     -20.595388      -560.4290
   3   2.0000     -20.541127      -558.9525
   4   2.0000     -15.628573      -425.2751
   5   2.0000     -15.608059      -424.7169
   6   2.0000     -11.395207      -310.0793
   7   2.0000     -11.383775      -309.7683
   8   2.0000     -11.335407      -308.4521
   9   2.0000     -11.315373      -307.9070
  10   2.0000     -11.308468      -307.7191
  11   2.0000     -11.300580      -307.5044
  12   2.0000     -11.261021      -306.4279
  13   2.0000     -11.258103      -306.3485
  14   2.0000     -11.256900      -306.3158
  15   2.0000     -11.251699      -306.1743
  16   2.0000     -11.244609      -305.9814
  17   2.0000     -11.239788      -305.8502
  18   2.0000     -11.239636      -305.8460
  19   2.0000     -11.222874      -305.3899
  20   2.0000      -8.893637      -242.0082
  21   2.0000      -6.575213      -178.9207
  22   2.0000      -6.573207      -178.8660
  23   2.0000      -6.572622      -178.8501
  24   2.0000      -1.445104       -39.3233
  25   2.0000      -1.417700       -38.5776
  26   2.0000      -1.352753       -36.8103
  27   2.0000      -1.339606       -36.4525
  28   2.0000      -1.238256       -33.6947
  29   2.0000      -1.158917       -31.5357
  30   2.0000      -1.120181       -30.4817
  31   2.0000      -1.043321       -28.3902
  32   2.0000      -1.034464       -28.1492
  33   2.0000      -1.016573       -27.6624
  34   2.0000      -0.995529       -27.0897
  35   2.0000      -0.984052       -26.7774
  36   2.0000      -0.922678       -25.1073
  37   2.0000      -0.897718       -24.4282
  38   2.0000      -0.847133       -23.0517
  39   2.0000      -0.838711       -22.8225
  40   2.0000      -0.835428       -22.7331
  41   2.0000      -0.817085       -22.2340
  42   2.0000      -0.746050       -20.3010
  43   2.0000      -0.732449       -19.9310
  44   2.0000      -0.721515       -19.6334
  45   2.0000      -0.696815       -18.9613
  46   2.0000      -0.688279       -18.7290
  47   2.0000      -0.675876       -18.3915
  48   2.0000      -0.671295       -18.2669
  49   2.0000      -0.658687       -17.9238
  50   2.0000      -0.651144       -17.7185
  51   2.0000      -0.641641       -17.4599
  52   2.0000      -0.635252       -17.2861
  53   2.0000      -0.616170       -16.7669
  54   2.0000      -0.608053       -16.5460
  55   2.0000      -0.601139       -16.3578
  56   2.0000      -0.599147       -16.3036
  57   2.0000      -0.578358       -15.7379
  58   2.0000      -0.570751       -15.5309
  59   2.0000      -0.567622       -15.4458
  60   2.0000      -0.557614       -15.1734
  61   2.0000      -0.541774       -14.7424
  62   2.0000      -0.534948       -14.5567
  63   2.0000      -0.525953       -14.3119
  64   2.0000      -0.521044       -14.1783
  65   2.0000      -0.513594       -13.9756
  66   2.0000      -0.501611       -13.6495
  67   2.0000      -0.499681       -13.5970
  68   2.0000      -0.485926       -13.2227
  69   2.0000      -0.463952       -12.6248
  70   2.0000      -0.453921       -12.3518
  71   2.0000      -0.442398       -12.0383
  72   2.0000      -0.353623        -9.6226
  73   2.0000      -0.350582        -9.5398
  74   2.0000      -0.328198        -8.9307
  75   2.0000      -0.322895        -8.7864
  76   2.0000      -0.316056        -8.6003
  77   0.0000       0.076332         2.0771
  78   0.0000       0.104297         2.8381
  79   0.0000       0.124563         3.3895
  80   0.0000       0.132117         3.5951
  81   0.0000       0.137577         3.7436

MULLIKEN ATOMIC CHARGES
-----------------------
   0 C :   -0.315895
   1 C :    0.039356
   2 O :   -0.367539
   3 C :    0.465772
   4 O :   -0.429499
   5 C :   -0.232759
   6 C :    0.156510
   7 C :   -0.272456
   8 N :   -0.120779
   9 C :    0.212740
  10 S :   -0.441181
  11 N :   -0.207602
  12 C :    0.072685
  13 C :    0.051731
  14 C :   -0.189627
  15 C :   -0.130741
  16 C :   -0.278535
  17 C :    0.316794
  18 O :   -0.357115
  19 C :   -0.269803
  20 H :    0.105323
  21 H :    0.097246
  22 H :    0.127318
  23 H :    0.104502
  24 H :    0.110415
  25 H :    0.131664
  26 H :    0.095108
  27 H :    0.131031
  28 H :    0.196906
  29 H :    0.195503
  30 H :    0.149926
  31 H :    0.153261
  32 H :    0.161523
  33 H :    0.131023
  34 H :    0.240941
  35 H :    0.166253
Sum of atomic charges:    0.0000000

LOEWDIN ATOMIC CHARGES
----------------------
   0 C :    0.104864
   1 C :   -0.011841
   2 O :    0.297988
   3 C :   -0.414928
   4 O :    0.102711
   5 C :   -0.094829
   6 C :   -0.059393
   7 C :    0.131427
   8 N :    0.406516
   9 C :   -0.455994
  10 S :   -0.036342
  11 N :    0.396316
  12 C :   -0.052000
  13 C :   -0.038997
  14 C :    0.015192
  15 C :    0.038809
  16 C :   -0.001969
  17 C :   -0.190252
  18 O :    0.395721
  19 C :    0.030851
  20 H :   -0.026721
  21 H :   -0.026962
  22 H :   -0.025579
  23 H :   -0.026710
  24 H :   -0.028475
  25 H :   -0.003800
  26 H :   -0.023514
  27 H :   -0.004875
  28 H :   -0.057650
  29 H :   -0.064663
  30 H :   -0.011412
  31 H :   -0.029788
  32 H :   -0.021206
  33 H :   -0.035357
  34 H :   -0.153634
  35 H :   -0.023503

  Mayer bond orders larger than 0.100000
B(  0-C ,  1-C ) :   0.9598 B(  0-C , 20-H ) :   0.9725 B(  0-C , 21-H ) :   0.9770
B(  0-C , 22-H ) :   0.9725 B(  1-C ,  2-O ) :   0.8945 B(  1-C , 23-H ) :   0.9815
B(  1-C , 24-H ) :   0.9848 B(  2-O ,  3-C ) :   1.1551 B(  3-C ,  4-O ) :   1.9810
B(  3-C ,  5-C ) :   1.0486 B(  5-C ,  6-C ) :   1.6527 B(  5-C , 12-C ) :   0.9695
B(  6-C ,  7-C ) :   0.9662 B(  6-C ,  8-N ) :   1.1643 B(  7-C , 25-H ) :   0.9605
B(  7-C , 26-H ) :   0.9903 B(  7-C , 27-H ) :   0.9605 B(  8-N ,  9-C ) :   1.1845
B(  8-N , 28-H ) :   0.9478 B(  9-C , 10-S ) :   1.6054 B(  9-C , 11-N ) :   1.3064
B( 11-N , 12-C ) :   0.9872 B( 11-N , 29-H ) :   0.9511 B( 12-C , 13-C ) :   0.9353
B( 12-C , 30-H ) :   1.0020 B( 13-C , 14-C ) :   1.3557 B( 13-C , 19-C ) :   1.3823
B( 14-C , 15-C ) :   1.3888 B( 14-C , 31-H ) :   0.9709 B( 15-C , 16-C ) :   1.3634
B( 15-C , 32-H ) :   0.9705 B( 16-C , 17-C ) :   1.3314 B( 16-C , 33-H ) :   0.9846
B( 17-C , 18-O ) :   1.1103 B( 17-C , 19-C ) :   1.3686 B( 18-O , 34-H ) :   0.9796
B( 19-C , 35-H ) :   0.9586

MP2 TOTAL ENERGY:    -1274.343890183 Eh
FINAL SINGLE POINT ENERGY     -1274.343890183341

DIPOLE MOMENT
-------------
                                X             Y             Z
Electronic contribution:     10.23016       9.85535       7.27246
Nuclear contribution   :    -11.26064     -11.62703      -7.57104
                        -----------------------------------------
Total Dipole Moment    :     -1.03047      -1.77167      -0.29858
                        -----------------------------------------
Magnitude (a.u.)       :      2.07120
Magnitude (Debye)      :      5.26456

Rotational constants in cm-1:     0.012386     0.008656     0.006311
Rotational constants in MHz :   371.314696   259.498270   189.197844

                             ****ORCA TERMINATED NORMALLY****
TOTAL RUN TIME: 0 days 2 hours 15 minutes 33 seconds 57 msec
