                         Program Version 4.2.0 -  RELEASE  -
|  1> ! ri-mp2 cc-pvtz cc-pvtz/c TightSCF  NoKeepInts
|  2>
|  3> %scf
|  4>   MaxCore 4096
|  5> end
|  6> *xyz  0  1
|  7>     C       14.4229497   15.9664048   16.5301903
|  8>     C       15.6079692   15.0898693   16.9727608
|  9>     O       16.7098758   15.2294593   16.0492694
| 10>     C       17.9263722   15.7387125   16.4269785
| 11>     O       18.9278250   15.0608583   16.2884393
| 12>     C       17.8902775   16.8688385   17.4037116
| 13>     C       17.2855563   18.0472937   17.1249666
| 14>     C       16.6292646   18.4555345   15.8225778
| 15>     N       17.3641605   19.1013747   18.0378285
| 16>     C       18.1290103   19.0931956   19.1751555
| 17>     S       18.2294931   20.4144854   20.1640914
| 18>     N       18.8116419   17.9339531   19.4508691
| 19>     C       18.6908995   16.6722562   18.6932769
| 20>     C       18.0878167   15.5627802   19.5506817
| 21>     C       18.5895522   14.2515027   19.4591838
| 22>     C       18.0283867   13.2138283   20.2216542
| 23>     C       16.9535066   13.4874283   21.0841167
| 24>     C       16.4470882   14.7905876   21.1761300
| 25>     O       15.4006060   15.0559444   21.9974814
| 26>     C       17.0063372   15.8216625   20.4144571
| 27>     H       14.5599620   17.0060577   16.8417571
| 28>     H       13.4963009   15.6068430   16.9942770
| 29>     H       14.2929676   15.9309397   15.4411822
| 30>     H       15.8901431   15.3250993   18.0048210
| 31>     H       15.2865604   14.0401975   16.9590083
| 32>     H       16.4524120   17.6086609   15.1501157
| 33>     H       17.2691708   19.1627862   15.2797213
| 34>     H       15.6633725   18.9453068   15.9957478
| 35>     H       16.8932079   19.9703551   17.8400551
| 36>     H       19.3565853   17.9524030   20.3037738
| 37>     H       19.7066933   16.3609414   18.4073615
| 38>     H       19.4119157   14.0329329   18.7807016
| 39>     H       18.4251330   12.2032878   20.1378719
| 40>     H       16.5162943   12.6880023   21.6733921
| 41>     H       15.1957201   14.2412556   22.4810901
| 42>     H       16.5919716   16.8209612   20.4993029
| 43> *
| 44>
| 45>                          ****END OF INPUT****

CARTESIAN COORDINATES (ANGSTROEM)
---------------------------------
  C     14.422950   15.966405   16.530190
  C     15.607969   15.089869   16.972761
  O     16.709876   15.229459   16.049269
  C     17.926372   15.738712   16.426979
  O     18.927825   15.060858   16.288439
  C     17.890277   16.868838   17.403712
  C     17.285556   18.047294   17.124967
  C     16.629265   18.455534   15.822578
  N     17.364161   19.101375   18.037828
  C     18.129010   19.093196   19.175155
  S     18.229493   20.414485   20.164091
  N     18.811642   17.933953   19.450869
  C     18.690900   16.672256   18.693277
  C     18.087817   15.562780   19.550682
  C     18.589552   14.251503   19.459184
  C     18.028387   13.213828   20.221654
  C     16.953507   13.487428   21.084117
  C     16.447088   14.790588   21.176130
  O     15.400606   15.055944   21.997481
  C     17.006337   15.821663   20.414457
  H     14.559962   17.006058   16.841757
  H     13.496301   15.606843   16.994277
  H     14.292968   15.930940   15.441182
  H     15.890143   15.325099   18.004821
  H     15.286560   14.040197   16.959008
  H     16.452412   17.608661   15.150116
  H     17.269171   19.162786   15.279721
  H     15.663372   18.945307   15.995748
  H     16.893208   19.970355   17.840055
  H     19.356585   17.952403   20.303774
  H     19.706693   16.360941   18.407362
  H     19.411916   14.032933   18.780702
  H     18.425133   12.203288   20.137872
  H     16.516294   12.688002   21.673392
  H     15.195720   14.241256   22.481090
  H     16.591972   16.820961   20.499303

 Total Charge           Charge          ....    0
 Multiplicity           Mult            ....    1
 Number of Electrons    NEL             ....  154
 Basis Dimension        Dim             ....  828

ORBITAL ENERGIES
----------------

  NO   OCC          E(Eh)            E(eV)
   0   2.0000     -91.890950     -2500.4799
   1   2.0000     -20.600508      -560.5683
   2   2.0000     -20.590626      -560.2994
   3   2.0000     -20.553722      -559.2952
   4   2.0000     -15.628254      -425.2664
   5   2.0000     -15.611963      -424.8231
   6   2.0000     -11.397047      -310.1294
   7   2.0000     -11.387394      -309.8667
   8   2.0000     -11.332357      -308.3691
   9   2.0000     -11.317840      -307.9741
  10   2.0000     -11.314913      -307.8944
  11   2.0000     -11.301508      -307.5297
  12   2.0000     -11.265222      -306.5423
  13   2.0000     -11.265032      -306.5371
  14   2.0000     -11.264448      -306.5212
  15   2.0000     -11.257893      -306.3429
  16   2.0000     -11.246963      -306.0454
  17   2.0000     -11.242856      -305.9337
  18   2.0000     -11.239633      -305.8460
  19   2.0000     -11.234620      -305.7095
  20   2.0000      -8.896047      -242.0738
  21   2.0000      -6.577631      -178.9864
  22   2.0000      -6.575611      -178.9315
  23   2.0000      -6.575030      -178.9157
  24   2.0000      -1.446816       -39.3699
  25   2.0000      -1.420336       -38.6493
  26   2.0000      -1.357710       -36.9452
  27   2.0000      -1.341475       -36.5034
  28   2.0000      -1.240881       -33.7661
  29   2.0000      -1.161924       -31.6176
  30   2.0000      -1.125623       -30.6298
  31   2.0000      -1.048944       -28.5432
  32   2.0000      -1.038523       -28.2597
  33   2.0000      -1.019645       -27.7459
  34   2.0000      -1.004717       -27.3397
  35   2.0000      -0.990167       -26.9438
  36   2.0000      -0.928098       -25.2548
  37   2.0000      -0.887389       -24.1471
  38   2.0000      -0.853165       -23.2158
  39   2.0000      -0.842734       -22.9320
  40   2.0000      -0.837560       -22.7912
  41   2.0000      -0.835260       -22.7286
  42   2.0000      -0.756692       -20.5906
  43   2.0000      -0.736243       -20.0342
  44   2.0000      -0.732346       -19.9281
  45   2.0000      -0.698395       -19.0043
  46   2.0000      -0.689120       -18.7519
  47   2.0000      -0.680911       -18.5285
  48   2.0000      -0.676285       -18.4027
  49   2.0000      -0.663596       -18.0574
  50   2.0000      -0.654043       -17.7974
  51   2.0000      -0.640098       -17.4179
  52   2.0000      -0.631241       -17.1769
  53   2.0000      -0.622840       -16.9483
  54   2.0000      -0.609998       -16.5989
  55   2.0000      -0.607622       -16.5342
  56   2.0000      -0.604117       -16.4389
  57   2.0000      -0.585082       -15.9209
  58   2.0000      -0.578161       -15.7326
  59   2.0000      -0.575063       -15.6483
  60   2.0000      -0.565985       -15.4012
  61   2.0000      -0.558099       -15.1866
  62   2.0000      -0.541240       -14.7279
  63   2.0000      -0.530984       -14.4488
  64   2.0000      -0.523611       -14.2482
  65   2.0000      -0.515825       -14.0363
  66   2.0000      -0.503114       -13.6904
  67   2.0000      -0.495191       -13.4748
  68   2.0000      -0.487218       -13.2579
  69   2.0000      -0.469270       -12.7695
  70   2.0000      -0.457457       -12.4480
  71   2.0000      -0.449240       -12.2244
  72   2.0000      -0.358427        -9.7533
  73   2.0000      -0.352379        -9.5887
  74   2.0000      -0.330503        -8.9934
  75   2.0000      -0.325588        -8.8597
  76   2.0000      -0.320013        -8.7080
  77   0.0000       0.081435         2.2160
  78   0.0000       0.102470         2.7883
  79   0.0000       0.116934         3.1819
  80   0.0000       0.127878         3.4797
  81   0.0000       0.129370         3.5203

MULLIKEN ATOMIC CHARGES
-----------------------
   0 C :   -0.302760
   1 C :    0.024606
   2 O :   -0.342786
   3 C :    0.423094
   4 O :   -0.374938
   5 C :   -0.206833
   6 C :    0.143605
   7 C :   -0.336854
   8 N :   -0.133414
   9 C :    0.199226
  10 S :   -0.438696
  11 N :   -0.218029
  12 C :    0.078363
  13 C :    0.008516
  14 C :   -0.195843
  15 C :   -0.135777
  16 C :   -0.273074
  17 C :    0.314680
  18 O :   -0.356644
  19 C :   -0.266229
  20 H :    0.087847
  21 H :    0.115689
  22 H :    0.110211
  23 H :    0.104507
  24 H :    0.123168
  25 H :    0.132247
  26 H :    0.150668
  27 H :    0.113740
  28 H :    0.196956
  29 H :    0.199617
  30 H :    0.164657
  31 H :    0.173399
  32 H :    0.164694
  33 H :    0.133256
  34 H :    0.241428
  35 H :    0.177703
Sum of atomic charges:   -0.0000000

LOEWDIN ATOMIC CHARGES
----------------------
   0 C :    0.105073
   1 C :   -0.013484
   2 O :    0.289713
   3 C :   -0.415884
   4 O :    0.130424
   5 C :   -0.085321
   6 C :   -0.093682
   7 C :    0.123979
   8 N :    0.403245
   9 C :   -0.456998
  10 S :   -0.036071
  11 N :    0.397196
  12 C :   -0.043955
  13 C :   -0.044993
  14 C :    0.020716
  15 C :    0.045364
  16 C :   -0.000207
  17 C :   -0.194103
  18 O :    0.395454
  19 C :    0.025093
  20 H :   -0.034529
  21 H :   -0.022199
  22 H :   -0.024648
  23 H :   -0.034027
  24 H :   -0.023093
  25 H :   -0.010783
  26 H :   -0.008938
  27 H :   -0.018699
  28 H :   -0.057193
  29 H :   -0.063663
  30 H :   -0.002498
  31 H :   -0.021642
  32 H :   -0.018147
  33 H :   -0.034447
  34 H :   -0.152840
  35 H :   -0.024215

  Mayer bond orders larger than 0.100000
B(  0-C ,  1-C ) :   0.9672 B(  0-C , 20-H ) :   0.9764 B(  0-C , 21-H ) :   0.9795
B(  0-C , 22-H ) :   0.9747 B(  1-C ,  2-O ) :   0.8967 B(  1-C , 23-H ) :   0.9598
B(  1-C , 24-H ) :   0.9869 B(  2-O ,  3-C ) :   1.1559 B(  3-C ,  4-O ) :   2.0927
B(  3-C ,  5-C ) :   0.9308 B(  5-C ,  6-C ) :   1.6751 B(  5-C , 12-C ) :   0.9520
B(  6-C ,  7-C ) :   0.9542 B(  6-C ,  8-N ) :   1.1150 B(  7-C , 25-H ) :   0.9751
B(  7-C , 26-H ) :   0.9637 B(  7-C , 27-H ) :   0.9704 B(  8-N ,  9-C ) :   1.1941
B(  8-N , 28-H ) :   0.9511 B(  9-C , 10-S ) :   1.6130 B(  9-C , 11-N ) :   1.2890
B( 11-N , 12-C ) :   0.9928 B( 11-N , 29-H ) :   0.9488 B( 12-C , 13-C ) :   0.9500
B( 12-C , 30-H ) :   0.9977 B( 13-C , 14-C ) :   1.3906 B( 13-C , 19-C ) :   1.3395
B( 14-C , 15-C ) :   1.3986 B( 14-C , 31-H ) :   0.9584 B( 15-C , 16-C ) :   1.3631
B( 15-C , 32-H ) :   0.9697 B( 16-C , 17-C ) :   1.3298 B( 16-C , 33-H ) :   0.9840
B( 17-C , 18-O ) :   1.1116 B( 17-C , 19-C ) :   1.3681 B( 18-O , 34-H ) :   0.9792
B( 19-C , 35-H ) :   0.9595

MP2 TOTAL ENERGY:    -1274.328028567 Eh
FINAL SINGLE POINT ENERGY     -1274.328028567026

DIPOLE MOMENT
-------------
                                X             Y             Z
Electronic contribution:     10.75374       5.45465       7.18143
Nuclear contribution   :    -12.12916      -6.60150      -7.47027
                        -----------------------------------------
Total Dipole Moment    :     -1.37542      -1.14685      -0.28884
                        -----------------------------------------
Magnitude (a.u.)       :      1.81397
Magnitude (Debye)      :      4.61074

Rotational constants in cm-1:     0.011511     0.009382     0.006879
Rotational constants in MHz :   345.097805   281.269395   206.237542

                             ****ORCA TERMINATED NORMALLY****
TOTAL RUN TIME: 0 days 1 hours 47 minutes 41 seconds 904 msec
