                         Program Version 4.2.0 -  RELEASE  -
|  1> ! ri-mp2 cc-pvtz cc-pvtz/c TightSCF  NoKeepInts
|  2>
|  3> %scf
|  4>   MaxCore 4096
|  5> end
|  6> *xyz  0  1
|  7>     C       15.7101448   13.8929410   14.8564520
|  8>     C       15.0393175   14.9589291   15.7514504
|  9>     O       15.9628508   15.9825263   16.1885636
| 10>     C       17.1435354   15.7243915   16.8323713
| 11>     O       17.5890983   14.6003901   16.9888981
| 12>     C       17.6534010   16.8870583   17.6367638
| 13>     C       17.3368382   18.1892452   17.4094028
| 14>     C       16.4470244   18.7584693   16.3230550
| 15>     N       17.9241988   19.1928312   18.1871699
| 16>     C       18.9385519   18.9952126   19.0862975
| 17>     S       19.6701930   20.2567828   19.8666200
| 18>     N       19.3163148   17.6948079   19.3040814
| 19>     C       18.6093314   16.5129207   18.7761121
| 20>     C       17.8699547   15.7886127   19.8984087
| 21>     C       18.0958863   14.4195698   20.1325972
| 22>     C       17.4172707   13.7469258   21.1626263
| 23>     C       16.5035574   14.4485455   21.9672569
| 24>     C       16.2724951   15.8111987   21.7351471
| 25>     O       15.3861857   16.4900731   22.5065433
| 26>     C       16.9491464   16.4778467   20.7088908
| 27>     H       16.3812609   14.3611555   14.1259144
| 28>     H       14.9480213   13.3290802   14.3053408
| 29>     H       16.2839943   13.1695154   15.4478510
| 30>     H       14.2274562   15.4374327   15.1889607
| 31>     H       14.5931607   14.4645615   16.6246533
| 32>     H       15.3935857   18.5294714   16.5269321
| 33>     H       16.7031185   18.3319384   15.3452383
| 34>     H       16.5367347   19.8476093   16.2302561
| 35>     H       17.6602935   20.1541349   18.0417616
| 36>     H       20.0447265   17.5726625   19.9957054
| 37>     H       19.3672049   15.8292824   18.3669335
| 38>     H       18.7889780   13.8705671   19.4997780
| 39>     H       17.5967002   12.6862854   21.3287189
| 40>     H       15.9758921   13.9325537   22.7623453
| 41>     H       15.0528676   15.8731712   23.1751382
| 42>     H       16.7577080   17.5333000   20.5497640
| 43> *
| 44>
| 45>                          ****END OF INPUT****

CARTESIAN COORDINATES (ANGSTROEM)
---------------------------------
  C     15.710145   13.892941   14.856452
  C     15.039317   14.958929   15.751450
  O     15.962851   15.982526   16.188564
  C     17.143535   15.724391   16.832371
  O     17.589098   14.600390   16.988898
  C     17.653401   16.887058   17.636764
  C     17.336838   18.189245   17.409403
  C     16.447024   18.758469   16.323055
  N     17.924199   19.192831   18.187170
  C     18.938552   18.995213   19.086298
  S     19.670193   20.256783   19.866620
  N     19.316315   17.694808   19.304081
  C     18.609331   16.512921   18.776112
  C     17.869955   15.788613   19.898409
  C     18.095886   14.419570   20.132597
  C     17.417271   13.746926   21.162626
  C     16.503557   14.448545   21.967257
  C     16.272495   15.811199   21.735147
  O     15.386186   16.490073   22.506543
  C     16.949146   16.477847   20.708891
  H     16.381261   14.361155   14.125914
  H     14.948021   13.329080   14.305341
  H     16.283994   13.169515   15.447851
  H     14.227456   15.437433   15.188961
  H     14.593161   14.464562   16.624653
  H     15.393586   18.529471   16.526932
  H     16.703118   18.331938   15.345238
  H     16.536735   19.847609   16.230256
  H     17.660294   20.154135   18.041762
  H     20.044726   17.572662   19.995705
  H     19.367205   15.829282   18.366933
  H     18.788978   13.870567   19.499778
  H     17.596700   12.686285   21.328719
  H     15.975892   13.932554   22.762345
  H     15.052868   15.873171   23.175138
  H     16.757708   17.533300   20.549764

 Total Charge           Charge          ....    0
 Multiplicity           Mult            ....    1
 Number of Electrons    NEL             ....  154
 Basis Dimension        Dim             ....  828

ORBITAL ENERGIES
----------------

  NO   OCC          E(Eh)            E(eV)
   0   2.0000     -91.887310     -2500.3808
   1   2.0000     -20.601151      -560.5858
   2   2.0000     -20.591118      -560.3128
   3   2.0000     -20.546442      -559.0971
   4   2.0000     -15.627209      -425.2380
   5   2.0000     -15.606049      -424.6622
   6   2.0000     -11.397809      -310.1501
   7   2.0000     -11.382193      -309.7252
   8   2.0000     -11.334380      -308.4242
   9   2.0000     -11.306941      -307.6775
  10   2.0000     -11.305144      -307.6286
  11   2.0000     -11.304438      -307.6094
  12   2.0000     -11.259695      -306.3919
  13   2.0000     -11.258140      -306.3496
  14   2.0000     -11.252887      -306.2066
  15   2.0000     -11.247192      -306.0517
  16   2.0000     -11.236780      -305.7683
  17   2.0000     -11.232769      -305.6592
  18   2.0000     -11.229928      -305.5819
  19   2.0000     -11.223639      -305.4107
  20   2.0000      -8.892380      -241.9740
  21   2.0000      -6.573960      -178.8865
  22   2.0000      -6.571951      -178.8319
  23   2.0000      -6.571368      -178.8160
  24   2.0000      -1.449727       -39.4491
  25   2.0000      -1.410850       -38.3912
  26   2.0000      -1.357746       -36.9462
  27   2.0000      -1.338373       -36.4190
  28   2.0000      -1.236111       -33.6363
  29   2.0000      -1.151430       -31.3320
  30   2.0000      -1.118535       -30.4369
  31   2.0000      -1.041481       -28.3401
  32   2.0000      -1.033730       -28.1292
  33   2.0000      -1.008856       -27.4524
  34   2.0000      -0.996279       -27.1101
  35   2.0000      -0.981779       -26.7156
  36   2.0000      -0.920779       -25.0557
  37   2.0000      -0.894885       -24.3511
  38   2.0000      -0.847142       -23.0519
  39   2.0000      -0.835123       -22.7249
  40   2.0000      -0.827355       -22.5135
  41   2.0000      -0.817593       -22.2478
  42   2.0000      -0.747060       -20.3285
  43   2.0000      -0.730493       -19.8777
  44   2.0000      -0.724288       -19.7089
  45   2.0000      -0.690368       -18.7859
  46   2.0000      -0.684271       -18.6200
  47   2.0000      -0.679217       -18.4824
  48   2.0000      -0.670196       -18.2369
  49   2.0000      -0.663901       -18.0657
  50   2.0000      -0.645117       -17.5545
  51   2.0000      -0.641553       -17.4575
  52   2.0000      -0.633048       -17.2261
  53   2.0000      -0.606181       -16.4950
  54   2.0000      -0.599216       -16.3055
  55   2.0000      -0.598274       -16.2799
  56   2.0000      -0.594197       -16.1689
  57   2.0000      -0.586726       -15.9656
  58   2.0000      -0.572202       -15.5704
  59   2.0000      -0.567887       -15.4530
  60   2.0000      -0.559415       -15.2224
  61   2.0000      -0.544208       -14.8086
  62   2.0000      -0.536022       -14.5859
  63   2.0000      -0.520948       -14.1757
  64   2.0000      -0.516690       -14.0599
  65   2.0000      -0.510779       -13.8990
  66   2.0000      -0.501167       -13.6375
  67   2.0000      -0.494877       -13.4663
  68   2.0000      -0.479429       -13.0459
  69   2.0000      -0.461128       -12.5479
  70   2.0000      -0.457476       -12.4486
  71   2.0000      -0.448722       -12.2103
  72   2.0000      -0.353166        -9.6101
  73   2.0000      -0.343343        -9.3428
  74   2.0000      -0.326485        -8.8841
  75   2.0000      -0.314914        -8.5692
  76   2.0000      -0.313239        -8.5237
  77   0.0000       0.077154         2.0995
  78   0.0000       0.113535         3.0894
  79   0.0000       0.121517         3.3067
  80   0.0000       0.136455         3.7131
  81   0.0000       0.140762         3.8303

MULLIKEN ATOMIC CHARGES
-----------------------
   0 C :   -0.302099
   1 C :    0.049897
   2 O :   -0.352470
   3 C :    0.439862
   4 O :   -0.430275
   5 C :   -0.148741
   6 C :    0.137368
   7 C :   -0.285769
   8 N :   -0.121323
   9 C :    0.201511
  10 S :   -0.440640
  11 N :   -0.196758
  12 C :    0.033789
  13 C :    0.056845
  14 C :   -0.162345
  15 C :   -0.134240
  16 C :   -0.279150
  17 C :    0.311374
  18 O :   -0.358995
  19 C :   -0.270374
  20 H :    0.092557
  21 H :    0.095656
  22 H :    0.128371
  23 H :    0.100506
  24 H :    0.093487
  25 H :    0.128257
  26 H :    0.123547
  27 H :    0.101999
  28 H :    0.196600
  29 H :    0.193226
  30 H :    0.153869
  31 H :    0.153368
  32 H :    0.158799
  33 H :    0.127841
  34 H :    0.239891
  35 H :    0.164562
Sum of atomic charges:   -0.0000000

LOEWDIN ATOMIC CHARGES
----------------------
   0 C :    0.103426
   1 C :   -0.011015
   2 O :    0.296687
   3 C :   -0.412292
   4 O :    0.112696
   5 C :   -0.089874
   6 C :   -0.067463
   7 C :    0.124627
   8 N :    0.404439
   9 C :   -0.458893
  10 S :   -0.037048
  11 N :    0.397724
  12 C :   -0.046166
  13 C :   -0.038608
  14 C :    0.021459
  15 C :    0.040533
  16 C :   -0.002480
  17 C :   -0.192463
  18 O :    0.393048
  19 C :    0.028993
  20 H :   -0.028225
  21 H :   -0.029110
  22 H :   -0.025634
  23 H :   -0.024919
  24 H :   -0.027719
  25 H :   -0.009591
  26 H :   -0.009316
  27 H :   -0.021000
  28 H :   -0.059297
  29 H :   -0.063804
  30 H :   -0.005280
  31 H :   -0.025544
  32 H :   -0.021411
  33 H :   -0.036506
  34 H :   -0.155027
  35 H :   -0.024948

  Mayer bond orders larger than 0.100000
B(  0-C ,  1-C ) :   0.9675 B(  0-C , 20-H ) :   0.9759 B(  0-C , 21-H ) :   0.9773
B(  0-C , 22-H ) :   0.9711 B(  1-C ,  2-O ) :   0.9067 B(  1-C , 23-H ) :   0.9841
B(  1-C , 24-H ) :   0.9797 B(  2-O ,  3-C ) :   1.1442 B(  3-C ,  4-O ) :   1.9652
B(  3-C ,  5-C ) :   1.0576 B(  5-C ,  6-C ) :   1.6487 B(  5-C , 12-C ) :   0.9648
B(  6-C ,  7-C ) :   0.9556 B(  6-C ,  8-N ) :   1.1455 B(  7-C , 25-H ) :   0.9629
B(  7-C , 26-H ) :   0.9671 B(  7-C , 27-H ) :   0.9914 B(  8-N ,  9-C ) :   1.1798
B(  8-N , 28-H ) :   0.9493 B(  9-C , 10-S ) :   1.6097 B(  9-C , 11-N ) :   1.3034
B( 11-N , 12-C ) :   0.9940 B( 11-N , 29-H ) :   0.9520 B( 12-C , 13-C ) :   0.9471
B( 12-C , 30-H ) :   0.9996 B( 13-C , 14-C ) :   1.3756 B( 13-C , 19-C ) :   1.3702
B( 14-C , 15-C ) :   1.3948 B( 14-C , 31-H ) :   0.9651 B( 15-C , 16-C ) :   1.3628
B( 15-C , 32-H ) :   0.9715 B( 16-C , 17-C ) :   1.3313 B( 16-C , 33-H ) :   0.9861
B( 17-C , 18-O ) :   1.1080 B( 17-C , 19-C ) :   1.3791 B( 18-O , 34-H ) :   0.9807
B( 19-C , 35-H ) :   0.9584

MP2 TOTAL ENERGY:    -1274.339737263 Eh
FINAL SINGLE POINT ENERGY     -1274.339737263236

DIPOLE MOMENT
-------------
                                X             Y             Z
Electronic contribution:      9.73199      10.04538      11.37391
Nuclear contribution   :    -11.39996     -11.22082     -12.33770
                        -----------------------------------------
Total Dipole Moment    :     -1.66797      -1.17544      -0.96379
                        -----------------------------------------
Magnitude (a.u.)       :      2.25669
Magnitude (Debye)      :      5.73606

Rotational constants in cm-1:     0.010636     0.008890     0.005840
Rotational constants in MHz :   318.868179   266.518421   175.092053

                             ****ORCA TERMINATED NORMALLY****
TOTAL RUN TIME: 0 days 1 hours 33 minutes 35 seconds 33 msec
