                         Program Version 4.2.0 -  RELEASE  -
|  1> ! ri-mp2 cc-pvtz cc-pvtz/c TightSCF  NoKeepInts
|  2>
|  3> %scf
|  4>   MaxCore 4096
|  5> end
|  6> *xyz  0  1
|  7>     C       14.9012344   15.6816313   17.2170811
|  8>     C       15.7879938   14.8242230   16.2924455
|  9>     O       16.8338873   15.5968715   15.6636200
| 10>     C       17.9987741   15.8307788   16.3407022
| 11>     O       18.7998014   14.9214786   16.4645134
| 12>     C       17.9223274   16.9285622   17.3567771
| 13>     C       17.3124631   18.1134490   17.1090837
| 14>     C       16.6525606   18.5502141   15.8174132
| 15>     N       17.3541980   19.1297957   18.0674231
| 16>     C       18.1316650   19.1037788   19.1958059
| 17>     S       18.2296597   20.4018870   20.2154827
| 18>     N       18.8261094   17.9439159   19.4362408
| 19>     C       18.6605068   16.6869042   18.6795343
| 20>     C       17.9634948   15.6237144   19.5289413
| 21>     C       18.4210158   14.2928171   19.5125178
| 22>     C       17.7829255   13.3030258   20.2782752
| 23>     C       16.6761469   13.6446691   21.0730915
| 24>     C       16.2178372   14.9683529   21.0972240
| 25>     O       15.1442961   15.3009637   21.8571369
| 26>     C       16.8557504   15.9514732   20.3342845
| 27>     H       15.4704030   16.1305334   18.0342664
| 28>     H       14.1204632   15.0572882   17.6684105
| 29>     H       14.4031886   16.4774545   16.6525794
| 30>     H       16.2263021   13.9926739   16.8621958
| 31>     H       15.1529285   14.3882631   15.5105612
| 32>     H       15.6001073   18.2489628   15.7879557
| 33>     H       17.1510439   18.1095577   14.9450607
| 34>     H       16.6928397   19.6383401   15.6837637
| 35>     H       16.8582299   19.9916746   17.9038976
| 36>     H       19.3760253   17.9447504   20.2859408
| 37>     H       19.6666449   16.3151764   18.4360375
| 38>     H       19.2708983   14.0209311   18.8903310
| 39>     H       18.1461591   12.2771155   20.2499830
| 40>     H       16.1790219   12.8829270   21.6645395
| 41>     H       14.8808772   14.5096093   22.3505897
| 42>     H       16.4792192   16.9682357   20.3702930
| 43> *
| 44>
| 45>                          ****END OF INPUT****

CARTESIAN COORDINATES (ANGSTROEM)
---------------------------------
  C     14.901234   15.681631   17.217081
  C     15.787994   14.824223   16.292445
  O     16.833887   15.596871   15.663620
  C     17.998774   15.830779   16.340702
  O     18.799801   14.921479   16.464513
  C     17.922327   16.928562   17.356777
  C     17.312463   18.113449   17.109084
  C     16.652561   18.550214   15.817413
  N     17.354198   19.129796   18.067423
  C     18.131665   19.103779   19.195806
  S     18.229660   20.401887   20.215483
  N     18.826109   17.943916   19.436241
  C     18.660507   16.686904   18.679534
  C     17.963495   15.623714   19.528941
  C     18.421016   14.292817   19.512518
  C     17.782926   13.303026   20.278275
  C     16.676147   13.644669   21.073092
  C     16.217837   14.968353   21.097224
  O     15.144296   15.300964   21.857137
  C     16.855750   15.951473   20.334284
  H     15.470403   16.130533   18.034266
  H     14.120463   15.057288   17.668411
  H     14.403189   16.477455   16.652579
  H     16.226302   13.992674   16.862196
  H     15.152928   14.388263   15.510561
  H     15.600107   18.248963   15.787956
  H     17.151044   18.109558   14.945061
  H     16.692840   19.638340   15.683764
  H     16.858230   19.991675   17.903898
  H     19.376025   17.944750   20.285941
  H     19.666645   16.315176   18.436038
  H     19.270898   14.020931   18.890331
  H     18.146159   12.277116   20.249983
  H     16.179022   12.882927   21.664540
  H     14.880877   14.509609   22.350590
  H     16.479219   16.968236   20.370293

 Total Charge           Charge          ....    0
 Multiplicity           Mult            ....    1
 Number of Electrons    NEL             ....  154
 Basis Dimension        Dim             ....  828

ORBITAL ENERGIES
----------------

  NO   OCC          E(Eh)            E(eV)
   0   2.0000     -91.891094     -2500.4838
   1   2.0000     -20.597038      -560.4739
   2   2.0000     -20.580662      -560.0283
   3   2.0000     -20.556029      -559.3580
   4   2.0000     -15.630460      -425.3264
   5   2.0000     -15.610357      -424.7794
   6   2.0000     -11.394867      -310.0701
   7   2.0000     -11.386626      -309.8458
   8   2.0000     -11.334916      -308.4387
   9   2.0000     -11.313543      -307.8572
  10   2.0000     -11.311747      -307.8083
  11   2.0000     -11.303064      -307.5720
  12   2.0000     -11.262152      -306.4587
  13   2.0000     -11.261800      -306.4491
  14   2.0000     -11.260590      -306.4162
  15   2.0000     -11.253671      -306.2280
  16   2.0000     -11.243235      -305.9440
  17   2.0000     -11.239375      -305.8389
  18   2.0000     -11.235567      -305.7353
  19   2.0000     -11.228083      -305.5317
  20   2.0000      -8.896155      -242.0767
  21   2.0000      -6.577730      -178.9891
  22   2.0000      -6.575721      -178.9345
  23   2.0000      -6.575133      -178.9185
  24   2.0000      -1.448904       -39.4267
  25   2.0000      -1.416856       -38.5546
  26   2.0000      -1.354257       -36.8512
  27   2.0000      -1.341787       -36.5119
  28   2.0000      -1.239948       -33.7407
  29   2.0000      -1.157625       -31.5006
  30   2.0000      -1.123130       -30.5619
  31   2.0000      -1.045635       -28.4532
  32   2.0000      -1.033315       -28.1179
  33   2.0000      -1.015712       -27.6389
  34   2.0000      -1.001912       -27.2634
  35   2.0000      -0.988932       -26.9102
  36   2.0000      -0.925817       -25.1928
  37   2.0000      -0.890049       -24.2195
  38   2.0000      -0.850604       -23.1461
  39   2.0000      -0.840521       -22.8717
  40   2.0000      -0.833919       -22.6921
  41   2.0000      -0.823845       -22.4180
  42   2.0000      -0.753295       -20.4982
  43   2.0000      -0.735167       -20.0049
  44   2.0000      -0.729317       -19.8457
  45   2.0000      -0.695846       -18.9349
  46   2.0000      -0.687369       -18.7043
  47   2.0000      -0.676860       -18.4183
  48   2.0000      -0.674606       -18.3570
  49   2.0000      -0.661404       -17.9977
  50   2.0000      -0.653847       -17.7921
  51   2.0000      -0.646550       -17.5935
  52   2.0000      -0.639134       -17.3917
  53   2.0000      -0.609788       -16.5932
  54   2.0000      -0.604665       -16.4538
  55   2.0000      -0.601112       -16.3571
  56   2.0000      -0.593954       -16.1623
  57   2.0000      -0.589438       -16.0394
  58   2.0000      -0.575548       -15.6615
  59   2.0000      -0.571295       -15.5457
  60   2.0000      -0.563422       -15.3315
  61   2.0000      -0.553194       -15.0532
  62   2.0000      -0.545073       -14.8322
  63   2.0000      -0.524356       -14.2685
  64   2.0000      -0.519537       -14.1373
  65   2.0000      -0.513044       -13.9606
  66   2.0000      -0.501104       -13.6357
  67   2.0000      -0.492906       -13.4127
  68   2.0000      -0.483708       -13.1624
  69   2.0000      -0.465536       -12.6679
  70   2.0000      -0.454454       -12.3663
  71   2.0000      -0.454101       -12.3567
  72   2.0000      -0.356267        -9.6945
  73   2.0000      -0.348525        -9.4838
  74   2.0000      -0.330296        -8.9878
  75   2.0000      -0.321558        -8.7500
  76   2.0000      -0.318446        -8.6653
  77   0.0000       0.069471         1.8904
  78   0.0000       0.104505         2.8437
  79   0.0000       0.119448         3.2503
  80   0.0000       0.130423         3.5490
  81   0.0000       0.132300         3.6001

MULLIKEN ATOMIC CHARGES
-----------------------
   0 C :   -0.327579
   1 C :    0.048067
   2 O :   -0.380665
   3 C :    0.467705
   4 O :   -0.390773
   5 C :   -0.235291
   6 C :    0.165908
   7 C :   -0.287278
   8 N :   -0.128926
   9 C :    0.190808
  10 S :   -0.435091
  11 N :   -0.211936
  12 C :    0.070627
  13 C :    0.040209
  14 C :   -0.202281
  15 C :   -0.136868
  16 C :   -0.277843
  17 C :    0.323614
  18 O :   -0.357507
  19 C :   -0.288272
  20 H :    0.113951
  21 H :    0.121746
  22 H :    0.096177
  23 H :    0.101450
  24 H :    0.115102
  25 H :    0.123664
  26 H :    0.127622
  27 H :    0.111550
  28 H :    0.198335
  29 H :    0.196972
  30 H :    0.161828
  31 H :    0.170895
  32 H :    0.163627
  33 H :    0.131565
  34 H :    0.240681
  35 H :    0.178203
Sum of atomic charges:   -0.0000000

LOEWDIN ATOMIC CHARGES
----------------------
   0 C :    0.106400
   1 C :   -0.011917
   2 O :    0.275514
   3 C :   -0.416988
   4 O :    0.134090
   5 C :   -0.092602
   6 C :   -0.074262
   7 C :    0.128341
   8 N :    0.405343
   9 C :   -0.458742
  10 S :   -0.034022
  11 N :    0.397023
  12 C :   -0.044025
  13 C :   -0.041787
  14 C :    0.020511
  15 C :    0.041049
  16 C :   -0.002168
  17 C :   -0.193617
  18 O :    0.394814
  19 C :    0.028250
  20 H :   -0.036471
  21 H :   -0.021271
  22 H :   -0.034655
  23 H :   -0.026812
  24 H :   -0.021334
  25 H :   -0.014797
  26 H :   -0.007060
  27 H :   -0.017061
  28 H :   -0.057778
  29 H :   -0.063823
  30 H :   -0.002895
  31 H :   -0.023372
  32 H :   -0.019647
  33 H :   -0.035337
  34 H :   -0.153763
  35 H :   -0.025132

  Mayer bond orders larger than 0.100000
B(  0-C ,  1-C ) :   0.9607 B(  0-C , 20-H ) :   0.9690 B(  0-C , 21-H ) :   0.9780
B(  0-C , 22-H ) :   0.9794 B(  1-C ,  2-O ) :   0.8931 B(  1-C , 23-H ) :   0.9741
B(  1-C , 24-H ) :   0.9838 B(  2-O ,  3-C ) :   1.0974 B(  3-C ,  4-O ) :   2.0462
B(  3-C ,  5-C ) :   0.9971 B(  5-C ,  6-C ) :   1.6628 B(  5-C , 12-C ) :   0.9540
B(  6-C ,  7-C ) :   0.9528 B(  6-C ,  8-N ) :   1.1332 B(  7-C , 25-H ) :   0.9632
B(  7-C , 26-H ) :   0.9699 B(  7-C , 27-H ) :   0.9853 B(  8-N ,  9-C ) :   1.1839
B(  8-N , 28-H ) :   0.9502 B(  9-C , 10-S ) :   1.6166 B(  9-C , 11-N ) :   1.2922
B( 11-N , 12-C ) :   0.9833 B( 11-N , 29-H ) :   0.9510 B( 12-C , 13-C ) :   0.9507
B( 12-C , 30-H ) :   0.9973 B( 13-C , 14-C ) :   1.3861 B( 13-C , 19-C ) :   1.3407
B( 14-C , 15-C ) :   1.3995 B( 14-C , 31-H ) :   0.9585 B( 15-C , 16-C ) :   1.3604
B( 15-C , 32-H ) :   0.9701 B( 16-C , 17-C ) :   1.3314 B( 16-C , 33-H ) :   0.9847
B( 17-C , 18-O ) :   1.1115 B( 17-C , 19-C ) :   1.3682 B( 18-O , 34-H ) :   0.9800
B( 19-C , 35-H ) :   0.9572

MP2 TOTAL ENERGY:    -1274.321807259 Eh
FINAL SINGLE POINT ENERGY     -1274.321807258964

DIPOLE MOMENT
-------------
                                X             Y             Z
Electronic contribution:      9.80605       6.89087       6.12771
Nuclear contribution   :    -11.07857      -8.09960      -6.69819
                        -----------------------------------------
Total Dipole Moment    :     -1.27252      -1.20873      -0.57047
                        -----------------------------------------
Magnitude (a.u.)       :      1.84547
Magnitude (Debye)      :      4.69082

Rotational constants in cm-1:     0.011693     0.009751     0.006895
Rotational constants in MHz :   350.533890   292.335396   206.698865

                             ****ORCA TERMINATED NORMALLY****
TOTAL RUN TIME: 0 days 1 hours 58 minutes 48 seconds 356 msec
