                         Program Version 5.0.0 -  RELEASE  -
|  1> ! ri-mp2 cc-pvtz cc-pvtz/c TightSCF NoKeepInts
|  2>
|  3> %scf
|  4>   MaxCore 4096
|  5> end
|  6> *xyz  0  1
|  7>     C       15.8261527   14.0629364   14.8055279
|  8>     C       15.4541258   14.2495275   16.2878676
|  9>     O       16.4230285   15.1270325   16.8884871
| 10>     C       16.2166502   16.4797250   16.8843953
| 11>     O       15.2793446   16.9971033   16.3000918
| 12>     C       17.2717803   17.2300250   17.6494646
| 13>     C       17.3138927   18.5859597   17.6944877
| 14>     C       16.3608384   19.5556442   17.0290256
| 15>     N       18.3425227   19.2328844   18.3860636
| 16>     C       19.4151782   18.6058762   18.9617082
| 17>     S       20.6428541   19.4523876   19.6773540
| 18>     N       19.4216014   17.2352590   18.9124503
| 19>     C       18.3161748   16.3979775   18.4113653
| 20>     C       17.6901813   15.6231731   19.5674665
| 21>     C       17.7909708   14.2203423   19.6242345
| 22>     C       17.2154337   13.5045268   20.6875505
| 23>     C       16.5356124   14.1967792   21.7042182
| 24>     C       16.4364958   15.5939650   21.6527786
| 25>     O       15.7815413   16.2652742   22.6333175
| 26>     C       17.0101773   16.3035614   20.5933059
| 27>     H       15.7605114   15.0168103   14.2668409
| 28>     H       15.1421330   13.3532719   14.3246585
| 29>     H       16.8482635   13.6772264   14.7065265
| 30>     H       14.4329160   14.6416451   16.3918854
| 31>     H       15.4944280   13.2733241   16.7878360
| 32>     H       15.3377168   19.4019750   17.3954859
| 33>     H       16.3461215   19.3986406   15.9429912
| 34>     H       16.6218837   20.6052188   17.2079682
| 35>     H       18.3550202   20.2392937   18.4309651
| 36>     H       20.2064392   16.7999172   19.3797141
| 37>     H       18.7498394   15.6772192   17.7039841
| 38>     H       18.3113609   13.6823389   18.8364419
| 39>     H       17.2967738   12.4195414   20.7212899
| 40>     H       16.0895577   13.6485167   22.5274218
| 41>     H       15.4807452   15.6120746   23.2826183
| 42>     H       16.9287327   17.3850258   20.5762114
| 43> *
| 44>
| 45>                          ****END OF INPUT****

CARTESIAN COORDINATES (ANGSTROEM)
---------------------------------
  C     15.826153   14.062936   14.805528
  C     15.454126   14.249527   16.287868
  O     16.423029   15.127033   16.888487
  C     16.216650   16.479725   16.884395
  O     15.279345   16.997103   16.300092
  C     17.271780   17.230025   17.649465
  C     17.313893   18.585960   17.694488
  C     16.360838   19.555644   17.029026
  N     18.342523   19.232884   18.386064
  C     19.415178   18.605876   18.961708
  S     20.642854   19.452388   19.677354
  N     19.421601   17.235259   18.912450
  C     18.316175   16.397977   18.411365
  C     17.690181   15.623173   19.567466
  C     17.790971   14.220342   19.624235
  C     17.215434   13.504527   20.687551
  C     16.535612   14.196779   21.704218
  C     16.436496   15.593965   21.652779
  O     15.781541   16.265274   22.633318
  C     17.010177   16.303561   20.593306
  H     15.760511   15.016810   14.266841
  H     15.142133   13.353272   14.324658
  H     16.848264   13.677226   14.706527
  H     14.432916   14.641645   16.391885
  H     15.494428   13.273324   16.787836
  H     15.337717   19.401975   17.395486
  H     16.346121   19.398641   15.942991
  H     16.621884   20.605219   17.207968
  H     18.355020   20.239294   18.430965
  H     20.206439   16.799917   19.379714
  H     18.749839   15.677219   17.703984
  H     18.311361   13.682339   18.836442
  H     17.296774   12.419541   20.721290
  H     16.089558   13.648517   22.527422
  H     15.480745   15.612075   23.282618
  H     16.928733   17.385026   20.576211

 Total Charge           Charge          ....    0
 Multiplicity           Mult            ....    1
 Number of Electrons    NEL             ....  154
 Basis Dimension        Dim             ....  828

ORBITAL ENERGIES
----------------

  NO   OCC          E(Eh)            E(eV)
   0   2.0000     -91.888621     -2500.4165
   1   2.0000     -20.602629      -560.6260
   2   2.0000     -20.595154      -560.4226
   3   2.0000     -20.542031      -558.9771
   4   2.0000     -15.628873      -425.2832
   5   2.0000     -15.607875      -424.7119
   6   2.0000     -11.395862      -310.0972
   7   2.0000     -11.383696      -309.7661
   8   2.0000     -11.335909      -308.4658
   9   2.0000     -11.312154      -307.8194
  10   2.0000     -11.308342      -307.7156
  11   2.0000     -11.297183      -307.4120
  12   2.0000     -11.258940      -306.3713
  13   2.0000     -11.258207      -306.3514
  14   2.0000     -11.253608      -306.2262
  15   2.0000     -11.251937      -306.1808
  16   2.0000     -11.241582      -305.8990
  17   2.0000     -11.237132      -305.7779
  18   2.0000     -11.236869      -305.7708
  19   2.0000     -11.226207      -305.4806
  20   2.0000      -8.893681      -242.0094
  21   2.0000      -6.575256      -178.9218
  22   2.0000      -6.573252      -178.8673
  23   2.0000      -6.572665      -178.8513
  24   2.0000      -1.451976       -39.5103
  25   2.0000      -1.414806       -38.4988
  26   2.0000      -1.355230       -36.8777
  27   2.0000      -1.339793       -36.4576
  28   2.0000      -1.238136       -33.6914
  29   2.0000      -1.156361       -31.4662
  30   2.0000      -1.120033       -30.4776
  31   2.0000      -1.042226       -28.3604
  32   2.0000      -1.037483       -28.2313
  33   2.0000      -1.013568       -27.5806
  34   2.0000      -0.995192       -27.0806
  35   2.0000      -0.983791       -26.7703
  36   2.0000      -0.921903       -25.0862
  37   2.0000      -0.893678       -24.3182
  38   2.0000      -0.846659       -23.0388
  39   2.0000      -0.836610       -22.7653
  40   2.0000      -0.832649       -22.6575
  41   2.0000      -0.817178       -22.2365
  42   2.0000      -0.759512       -20.6674
  43   2.0000      -0.731330       -19.9005
  44   2.0000      -0.722798       -19.6683
  45   2.0000      -0.694402       -18.8956
  46   2.0000      -0.687467       -18.7069
  47   2.0000      -0.680689       -18.5225
  48   2.0000      -0.671805       -18.2807
  49   2.0000      -0.655094       -17.8260
  50   2.0000      -0.645547       -17.5662
  51   2.0000      -0.645128       -17.5548
  52   2.0000      -0.630413       -17.1544
  53   2.0000      -0.612184       -16.6584
  54   2.0000      -0.605294       -16.4709
  55   2.0000      -0.598677       -16.2908
  56   2.0000      -0.597736       -16.2652
  57   2.0000      -0.578216       -15.7341
  58   2.0000      -0.570537       -15.5251
  59   2.0000      -0.569646       -15.5008
  60   2.0000      -0.563100       -15.3227
  61   2.0000      -0.539393       -14.6776
  62   2.0000      -0.535010       -14.5584
  63   2.0000      -0.532893       -14.5008
  64   2.0000      -0.523786       -14.2530
  65   2.0000      -0.512918       -13.9572
  66   2.0000      -0.500440       -13.6177
  67   2.0000      -0.496981       -13.5235
  68   2.0000      -0.485354       -13.2071
  69   2.0000      -0.463492       -12.6123
  70   2.0000      -0.455072       -12.3831
  71   2.0000      -0.448770       -12.2116
  72   2.0000      -0.354165        -9.6373
  73   2.0000      -0.348158        -9.4739
  74   2.0000      -0.327893        -8.9224
  75   2.0000      -0.319892        -8.7047
  76   2.0000      -0.315570        -8.5871
  77   0.0000       0.076689         2.0868
  78   0.0000       0.108234         2.9452
  79   0.0000       0.124257         3.3812
  80   0.0000       0.133078         3.6212
  81   0.0000       0.136412         3.7120

MULLIKEN ATOMIC CHARGES
-----------------------
   0 C :   -0.282704
   1 C :    0.031173
   2 O :   -0.349559
   3 C :    0.473543
   4 O :   -0.439000
   5 C :   -0.218510
   6 C :    0.148459
   7 C :   -0.274680
   8 N :   -0.119901
   9 C :    0.210329
  10 S :   -0.439945
  11 N :   -0.203003
  12 C :    0.044749
  13 C :    0.067427
  14 C :   -0.175421
  15 C :   -0.133315
  16 C :   -0.277573
  17 C :    0.315132
  18 O :   -0.356953
  19 C :   -0.268464
  20 H :    0.109581
  21 H :    0.093549
  22 H :    0.091875
  23 H :    0.106717
  24 H :    0.106799
  25 H :    0.132128
  26 H :    0.130645
  27 H :    0.095107
  28 H :    0.197251
  29 H :    0.194336
  30 H :    0.151009
  31 H :    0.146211
  32 H :    0.159107
  33 H :    0.129020
  34 H :    0.240496
  35 H :    0.164384
Sum of atomic charges:   -0.0000000

LOEWDIN ATOMIC CHARGES
----------------------
   0 C :    0.104574
   1 C :   -0.015951
   2 O :    0.310067
   3 C :   -0.412552
   4 O :    0.094101
   5 C :   -0.093780
   6 C :   -0.058822
   7 C :    0.131453
   8 N :    0.406526
   9 C :   -0.456748
  10 S :   -0.035546
  11 N :    0.396633
  12 C :   -0.052860
  13 C :   -0.038913
  14 C :    0.014473
  15 C :    0.039121
  16 C :   -0.001309
  17 C :   -0.189551
  18 O :    0.394941
  19 C :    0.031487
  20 H :   -0.024812
  21 H :   -0.026750
  22 H :   -0.029789
  23 H :   -0.027456
  24 H :   -0.026908
  25 H :   -0.004471
  26 H :   -0.004187
  27 H :   -0.023426
  28 H :   -0.057605
  29 H :   -0.064522
  30 H :   -0.011551
  31 H :   -0.030448
  32 H :   -0.021671
  33 H :   -0.035747
  34 H :   -0.154106
  35 H :   -0.023899

  Mayer bond orders larger than 0.100000
B(  0-C ,  1-C ) :   0.9665 B(  0-C , 20-H ) :   0.9768 B(  0-C , 21-H ) :   0.9761
B(  0-C , 22-H ) :   0.9777 B(  1-C ,  2-O ) :   0.8935 B(  1-C , 23-H ) :   0.9760
B(  1-C , 24-H ) :   0.9830 B(  2-O ,  3-C ) :   1.1687 B(  3-C ,  4-O ) :   1.9505
B(  3-C ,  5-C ) :   1.0689 B(  5-C ,  6-C ) :   1.6562 B(  5-C , 12-C ) :   0.9733
B(  6-C ,  7-C ) :   0.9674 B(  6-C ,  8-N ) :   1.1652 B(  7-C , 25-H ) :   0.9608
B(  7-C , 26-H ) :   0.9600 B(  7-C , 27-H ) :   0.9905 B(  8-N ,  9-C ) :   1.1823
B(  8-N , 28-H ) :   0.9479 B(  9-C , 10-S ) :   1.6078 B(  9-C , 11-N ) :   1.3048
B( 11-N , 12-C ) :   0.9884 B( 11-N , 29-H ) :   0.9516 B( 12-C , 13-C ) :   0.9375
B( 12-C , 30-H ) :   1.0032 B( 13-C , 14-C ) :   1.3564 B( 13-C , 19-C ) :   1.3817
B( 14-C , 15-C ) :   1.3937 B( 14-C , 31-H ) :   0.9721 B( 15-C , 16-C ) :   1.3644
B( 15-C , 32-H ) :   0.9710 B( 16-C , 17-C ) :   1.3317 B( 16-C , 33-H ) :   0.9854
B( 17-C , 18-O ) :   1.1096 B( 17-C , 19-C ) :   1.3740 B( 18-O , 34-H ) :   0.9801
B( 19-C , 35-H ) :   0.9583

MP2 TOTAL ENERGY:    -1274.351044380 Eh
FINAL SINGLE POINT ENERGY     -1274.351044379782

DIPOLE MOMENT
-------------
                                X             Y             Z
Electronic contribution:      9.36751       9.11432      10.36385
Nuclear contribution   :    -10.56463     -10.71422     -10.68925
                        -----------------------------------------
Total Dipole Moment    :     -1.19712      -1.59991      -0.32540
                        -----------------------------------------
Magnitude (a.u.)       :      2.02452
Magnitude (Debye)      :      5.14592

Rotational constants in cm-1:     0.010649     0.008891     0.006024
Rotational constants in MHz :   319.256473   266.552904   180.599645

                             ****ORCA TERMINATED NORMALLY****
TOTAL RUN TIME: 0 days 1 hours 44 minutes 17 seconds 580 msec
