                         Program Version 4.2.0 -  RELEASE  -
|  1> ! ri-mp2 cc-pvtz cc-pvtz/c TightSCF  NoKeepInts
|  2>
|  3> %scf
|  4>   MaxCore 4096
|  5> end
|  6> *xyz  0  1
|  7>     C       15.1982293   14.3605104   17.0647884
|  8>     C       15.5594577   14.9229134   15.6704326
|  9>     O       16.4687462   16.0373776   15.7846676
| 10>     C       17.6242701   15.9189634   16.5021169
| 11>     O       18.2305085   14.8629296   16.5816368
| 12>     C       17.8709752   17.0599156   17.4437321
| 13>     C       17.4002026   18.3214573   17.2695293
| 14>     C       16.5896583   18.8568125   16.1073752
| 15>     N       17.7161435   19.3152024   18.2014494
| 16>     C       18.5828353   19.1594202   19.2510172
| 17>     S       18.9790546   20.4185503   20.2476288
| 18>     N       19.1048520   17.9037931   19.4333699
| 19>     C       18.7011642   16.7017167   18.6800355
| 20>     C       17.9329354   15.7378492   19.5802033
| 21>     C       18.3695260   14.4099944   19.7412906
| 22>     C       17.6521688   13.5134214   20.5508270
| 23>     C       16.4864888   13.9470365   21.2048760
| 24>     C       16.0465272   15.2678769   21.0443835
| 25>     O       14.9159454   15.6870423   21.6665988
| 26>     C       16.7630318   16.1581742   20.2387382
| 27>     H       16.0534605   13.8598798   17.5357703
| 28>     H       14.3917046   13.6226571   16.9787522
| 29>     H       14.8563034   15.1615522   17.7320733
| 30>     H       16.0182599   14.1277299   15.0674096
| 31>     H       14.6458959   15.2518965   15.1589878
| 32>     H       15.5530684   18.5016936   16.1629503
| 33>     H       17.0097664   18.5219528   15.1507027
| 34>     H       16.5652340   19.9529534   16.0797615
| 35>     H       17.3432295   20.2439465   18.0856136
| 36>     H       19.7160874   17.8087809   20.2341794
| 37>     H       19.6166573   16.1995154   18.3352348
| 38>     H       19.2586747   14.0663282   19.2183408
| 39>     H       17.9969058   12.4868814   20.6615729
| 40>     H       15.9277028   13.2568771   21.8280894
| 41>     H       14.5954747   14.9521024   22.2107592
| 42>     H       16.4058537   17.1762955   20.1291050
| 43> *
| 44>
| 45>                          ****END OF INPUT****

CARTESIAN COORDINATES (ANGSTROEM)
---------------------------------
  C     15.198229   14.360510   17.064788
  C     15.559458   14.922913   15.670433
  O     16.468746   16.037378   15.784668
  C     17.624270   15.918963   16.502117
  O     18.230508   14.862930   16.581637
  C     17.870975   17.059916   17.443732
  C     17.400203   18.321457   17.269529
  C     16.589658   18.856813   16.107375
  N     17.716143   19.315202   18.201449
  C     18.582835   19.159420   19.251017
  S     18.979055   20.418550   20.247629
  N     19.104852   17.903793   19.433370
  C     18.701164   16.701717   18.680035
  C     17.932935   15.737849   19.580203
  C     18.369526   14.409994   19.741291
  C     17.652169   13.513421   20.550827
  C     16.486489   13.947036   21.204876
  C     16.046527   15.267877   21.044383
  O     14.915945   15.687042   21.666599
  C     16.763032   16.158174   20.238738
  H     16.053460   13.859880   17.535770
  H     14.391705   13.622657   16.978752
  H     14.856303   15.161552   17.732073
  H     16.018260   14.127730   15.067410
  H     14.645896   15.251897   15.158988
  H     15.553068   18.501694   16.162950
  H     17.009766   18.521953   15.150703
  H     16.565234   19.952953   16.079762
  H     17.343229   20.243946   18.085614
  H     19.716087   17.808781   20.234179
  H     19.616657   16.199515   18.335235
  H     19.258675   14.066328   19.218341
  H     17.996906   12.486881   20.661573
  H     15.927703   13.256877   21.828089
  H     14.595475   14.952102   22.210759
  H     16.405854   17.176295   20.129105

 Total Charge           Charge          ....    0
 Multiplicity           Mult            ....    1
 Number of Electrons    NEL             ....  154
 Basis Dimension        Dim             ....  828

ORBITAL ENERGIES
----------------

  NO   OCC          E(Eh)            E(eV)
   0   2.0000     -91.888396     -2500.4104
   1   2.0000     -20.594638      -560.4086
   2   2.0000     -20.594059      -560.3928
   3   2.0000     -20.548438      -559.1514
   4   2.0000     -15.628261      -425.2666
   5   2.0000     -15.607657      -424.7059
   6   2.0000     -11.395485      -310.0869
   7   2.0000     -11.383673      -309.7655
   8   2.0000     -11.334833      -308.4365
   9   2.0000     -11.310514      -307.7747
  10   2.0000     -11.307173      -307.6838
  11   2.0000     -11.300963      -307.5148
  12   2.0000     -11.259847      -306.3960
  13   2.0000     -11.258880      -306.3697
  14   2.0000     -11.255951      -306.2900
  15   2.0000     -11.250798      -306.1498
  16   2.0000     -11.240432      -305.8677
  17   2.0000     -11.236108      -305.7501
  18   2.0000     -11.233485      -305.6787
  19   2.0000     -11.223327      -305.4023
  20   2.0000      -8.893466      -242.0035
  21   2.0000      -6.575044      -178.9160
  22   2.0000      -6.573035      -178.8614
  23   2.0000      -6.572451      -178.8455
  24   2.0000      -1.450669       -39.4747
  25   2.0000      -1.414394       -38.4876
  26   2.0000      -1.355618       -36.8882
  27   2.0000      -1.339361       -36.4459
  28   2.0000      -1.237468       -33.6732
  29   2.0000      -1.154994       -31.4290
  30   2.0000      -1.120591       -30.4928
  31   2.0000      -1.043085       -28.3838
  32   2.0000      -1.031121       -28.0582
  33   2.0000      -1.012263       -27.5451
  34   2.0000      -0.998547       -27.1718
  35   2.0000      -0.984090       -26.7785
  36   2.0000      -0.922847       -25.1119
  37   2.0000      -0.894616       -24.3437
  38   2.0000      -0.847962       -23.0742
  39   2.0000      -0.836944       -22.7744
  40   2.0000      -0.830842       -22.6084
  41   2.0000      -0.815699       -22.1963
  42   2.0000      -0.747761       -20.3476
  43   2.0000      -0.734687       -19.9919
  44   2.0000      -0.726883       -19.7795
  45   2.0000      -0.692727       -18.8501
  46   2.0000      -0.685740       -18.6599
  47   2.0000      -0.677458       -18.4346
  48   2.0000      -0.672051       -18.2874
  49   2.0000      -0.657058       -17.8795
  50   2.0000      -0.654141       -17.8001
  51   2.0000      -0.645184       -17.5564
  52   2.0000      -0.633319       -17.2335
  53   2.0000      -0.615699       -16.7540
  54   2.0000      -0.602645       -16.3988
  55   2.0000      -0.601597       -16.3703
  56   2.0000      -0.598210       -16.2781
  57   2.0000      -0.578503       -15.7419
  58   2.0000      -0.575523       -15.6608
  59   2.0000      -0.563733       -15.3400
  60   2.0000      -0.553788       -15.0693
  61   2.0000      -0.546306       -14.8657
  62   2.0000      -0.534606       -14.5474
  63   2.0000      -0.529250       -14.4016
  64   2.0000      -0.519404       -14.1337
  65   2.0000      -0.509926       -13.8758
  66   2.0000      -0.498817       -13.5735
  67   2.0000      -0.494043       -13.4436
  68   2.0000      -0.481402       -13.0996
  69   2.0000      -0.464408       -12.6372
  70   2.0000      -0.458413       -12.4741
  71   2.0000      -0.449538       -12.2325
  72   2.0000      -0.353880        -9.6296
  73   2.0000      -0.346665        -9.4332
  74   2.0000      -0.327654        -8.9159
  75   2.0000      -0.317803        -8.6479
  76   2.0000      -0.315352        -8.5812
  77   0.0000       0.074463         2.0262
  78   0.0000       0.108190         2.9440
  79   0.0000       0.120211         3.2711
  80   0.0000       0.133031         3.6200
  81   0.0000       0.142787         3.8854

MULLIKEN ATOMIC CHARGES
-----------------------
   0 C :   -0.325957
   1 C :    0.047710
   2 O :   -0.369339
   3 C :    0.444067
   4 O :   -0.420522
   5 C :   -0.176862
   6 C :    0.144509
   7 C :   -0.281825
   8 N :   -0.123911
   9 C :    0.205243
  10 S :   -0.440008
  11 N :   -0.201475
  12 C :    0.053526
  13 C :    0.050626
  14 C :   -0.166327
  15 C :   -0.133428
  16 C :   -0.278682
  17 C :    0.316821
  18 O :   -0.360654
  19 C :   -0.282137
  20 H :    0.130795
  21 H :    0.104171
  22 H :    0.100544
  23 H :    0.103746
  24 H :    0.106116
  25 H :    0.125159
  26 H :    0.126509
  27 H :    0.102166
  28 H :    0.196992
  29 H :    0.194440
  30 H :    0.153243
  31 H :    0.155068
  32 H :    0.161079
  33 H :    0.130027
  34 H :    0.240629
  35 H :    0.167944
Sum of atomic charges:   -0.0000000

LOEWDIN ATOMIC CHARGES
----------------------
   0 C :    0.105548
   1 C :   -0.015133
   2 O :    0.294639
   3 C :   -0.415079
   4 O :    0.112205
   5 C :   -0.092166
   6 C :   -0.069688
   7 C :    0.125746
   8 N :    0.404470
   9 C :   -0.457587
  10 S :   -0.036400
  11 N :    0.397583
  12 C :   -0.045705
  13 C :   -0.040137
  14 C :    0.021778
  15 C :    0.040882
  16 C :   -0.002049
  17 C :   -0.192863
  18 O :    0.393579
  19 C :    0.029999
  20 H :   -0.023329
  21 H :   -0.026407
  22 H :   -0.029011
  23 H :   -0.028584
  24 H :   -0.025244
  25 H :   -0.010044
  26 H :   -0.007727
  27 H :   -0.020549
  28 H :   -0.058900
  29 H :   -0.063845
  30 H :   -0.005102
  31 H :   -0.025105
  32 H :   -0.020766
  33 H :   -0.035882
  34 H :   -0.154302
  35 H :   -0.024823

  Mayer bond orders larger than 0.100000
B(  0-C ,  1-C ) :   0.9593 B(  0-C , 20-H ) :   0.9682 B(  0-C , 21-H ) :   0.9768
B(  0-C , 22-H ) :   0.9732 B(  1-C ,  2-O ) :   0.8969 B(  1-C , 23-H ) :   0.9831
B(  1-C , 24-H ) :   0.9837 B(  2-O ,  3-C ) :   1.1143 B(  3-C ,  4-O ) :   2.0028
B(  3-C ,  5-C ) :   1.0408 B(  5-C ,  6-C ) :   1.6552 B(  5-C , 12-C ) :   0.9654
B(  6-C ,  7-C ) :   0.9535 B(  6-C ,  8-N ) :   1.1452 B(  7-C , 25-H ) :   0.9632
B(  7-C , 26-H ) :   0.9677 B(  7-C , 27-H ) :   0.9899 B(  8-N ,  9-C ) :   1.1824
B(  8-N , 28-H ) :   0.9492 B(  9-C , 10-S ) :   1.6097 B(  9-C , 11-N ) :   1.3026
B( 11-N , 12-C ) :   0.9925 B( 11-N , 29-H ) :   0.9516 B( 12-C , 13-C ) :   0.9432
B( 12-C , 30-H ) :   0.9992 B( 13-C , 14-C ) :   1.3756 B( 13-C , 19-C ) :   1.3654
B( 14-C , 15-C ) :   1.3922 B( 14-C , 31-H ) :   0.9648 B( 15-C , 16-C ) :   1.3620
B( 15-C , 32-H ) :   0.9710 B( 16-C , 17-C ) :   1.3322 B( 16-C , 33-H ) :   0.9850
B( 17-C , 18-O ) :   1.1070 B( 17-C , 19-C ) :   1.3730 B( 18-O , 34-H ) :   0.9802
B( 19-C , 35-H ) :   0.9583

MP2 TOTAL ENERGY:    -1274.340885360 Eh
FINAL SINGLE POINT ENERGY     -1274.340885360001

DIPOLE MOMENT
-------------
                                X             Y             Z
Electronic contribution:      9.85428       9.65565       6.98458
Nuclear contribution   :    -11.29295     -10.92850      -7.84772
                        -----------------------------------------
Total Dipole Moment    :     -1.43867      -1.27285      -0.86315
                        -----------------------------------------
Magnitude (a.u.)       :      2.10593
Magnitude (Debye)      :      5.35285

Rotational constants in cm-1:     0.011887     0.009252     0.006519
Rotational constants in MHz :   356.369855   277.360285   195.434142

                             ****ORCA TERMINATED NORMALLY****
TOTAL RUN TIME: 0 days 1 hours 41 minutes 16 seconds 524 msec
