                         Program Version 5.0.0 -  RELEASE  -
|  1> ! ri-mp2 cc-pvtz cc-pvtz/c TightSCF NoKeepInts
|  2>
|  3> %scf
|  4>   MaxCore 4096
|  5> end
|  6> *xyz  0  1
|  7>     C       14.7633085   14.1463469   16.3105140
|  8>     C       15.5349837   15.3897346   16.7806924
|  9>     O       16.7006995   15.5099684   15.9445808
| 10>     C       17.9130299   15.6606020   16.5517125
| 11>     O       18.6479346   14.7009693   16.6983273
| 12>     C       18.0200504   16.8834659   17.4115535
| 13>     C       17.5177833   18.0922895   17.0585718
| 14>     C       16.8236623   18.4560133   15.7624713
| 15>     N       17.7030228   19.1933573   17.8992905
| 16>     C       18.4930726   19.1958231   19.0192931
| 17>     S       18.7470953   20.5713504   19.9010572
| 18>     N       19.0600484   17.9966667   19.3737021
| 19>     C       18.7667391   16.6990827   18.7343947
| 20>     C       17.9701776   15.7969123   19.6731442
| 21>     C       18.3602977   14.4603805   19.8748268
| 22>     C       17.6171751   13.6158174   20.7161977
| 23>     C       16.4712378   14.1102241   21.3617356
| 24>     C       16.0758835   15.4392445   21.1601877
| 25>     O       14.9623105   15.9166307   21.7705055
| 26>     C       16.8168666   16.2774286   20.3211560
| 27>     H       15.3894217   13.2494224   16.4013223
| 28>     H       14.4604227   14.2513906   15.2613273
| 29>     H       13.8619335   13.9986230   16.9175213
| 30>     H       14.9029854   16.2824010   16.6975034
| 31>     H       15.8134332   15.2533181   17.8347690
| 32>     H       17.1933354   17.8504204   14.9253568
| 33>     H       16.9958368   19.5041607   15.4875247
| 34>     H       15.7408797   18.3032372   15.8369607
| 35>     H       17.3016318   20.0843449   17.6525235
| 36>     H       19.6189378   18.0220375   20.2172334
| 37>     H       19.7266076   16.2086724   18.5149510
| 38>     H       19.2348998   14.0688080   19.3598614
| 39>     H       17.9275590   12.5819904   20.8583334
| 40>     H       15.8930134   13.4598688   22.0098110
| 41>     H       14.6291638   15.2183249   22.3544241
| 42>     H       16.4915590   17.3026714   20.1806620
| 43> *
| 44>
| 45>                          ****END OF INPUT****

CARTESIAN COORDINATES (ANGSTROEM)
---------------------------------
  C     14.763308   14.146347   16.310514
  C     15.534984   15.389735   16.780692
  O     16.700699   15.509968   15.944581
  C     17.913030   15.660602   16.551713
  O     18.647935   14.700969   16.698327
  C     18.020050   16.883466   17.411554
  C     17.517783   18.092289   17.058572
  C     16.823662   18.456013   15.762471
  N     17.703023   19.193357   17.899290
  C     18.493073   19.195823   19.019293
  S     18.747095   20.571350   19.901057
  N     19.060048   17.996667   19.373702
  C     18.766739   16.699083   18.734395
  C     17.970178   15.796912   19.673144
  C     18.360298   14.460380   19.874827
  C     17.617175   13.615817   20.716198
  C     16.471238   14.110224   21.361736
  C     16.075883   15.439244   21.160188
  O     14.962310   15.916631   21.770505
  C     16.816867   16.277429   20.321156
  H     15.389422   13.249422   16.401322
  H     14.460423   14.251391   15.261327
  H     13.861933   13.998623   16.917521
  H     14.902985   16.282401   16.697503
  H     15.813433   15.253318   17.834769
  H     17.193335   17.850420   14.925357
  H     16.995837   19.504161   15.487525
  H     15.740880   18.303237   15.836961
  H     17.301632   20.084345   17.652524
  H     19.618938   18.022037   20.217233
  H     19.726608   16.208672   18.514951
  H     19.234900   14.068808   19.359861
  H     17.927559   12.581990   20.858333
  H     15.893013   13.459869   22.009811
  H     14.629164   15.218325   22.354424
  H     16.491559   17.302671   20.180662

 Total Charge           Charge          ....    0
 Multiplicity           Mult            ....    1
 Number of Electrons    NEL             ....  154
 Basis Dimension        Dim             ....  828

ORBITAL ENERGIES
----------------

  NO   OCC          E(Eh)            E(eV)
   0   2.0000     -91.890985     -2500.4808
   1   2.0000     -20.598342      -560.5094
   2   2.0000     -20.585335      -560.1555
   3   2.0000     -20.555778      -559.3512
   4   2.0000     -15.630423      -425.3254
   5   2.0000     -15.610516      -424.7837
   6   2.0000     -11.394878      -310.0704
   7   2.0000     -11.386716      -309.8483
   8   2.0000     -11.336061      -308.4699
   9   2.0000     -11.314955      -307.8956
  10   2.0000     -11.310987      -307.7876
  11   2.0000     -11.302467      -307.5558
  12   2.0000     -11.264581      -306.5248
  13   2.0000     -11.262120      -306.4579
  14   2.0000     -11.260673      -306.4185
  15   2.0000     -11.254891      -306.2611
  16   2.0000     -11.244550      -305.9798
  17   2.0000     -11.240495      -305.8694
  18   2.0000     -11.237277      -305.7819
  19   2.0000     -11.227926      -305.5274
  20   2.0000      -8.896056      -242.0740
  21   2.0000      -6.577632      -178.9865
  22   2.0000      -6.575622      -178.9318
  23   2.0000      -6.575035      -178.9158
  24   2.0000      -1.450670       -39.4747
  25   2.0000      -1.418179       -38.5906
  26   2.0000      -1.359069       -36.9821
  27   2.0000      -1.341908       -36.5152
  28   2.0000      -1.240173       -33.7468
  29   2.0000      -1.159263       -31.5451
  30   2.0000      -1.123827       -30.5809
  31   2.0000      -1.046970       -28.4895
  32   2.0000      -1.034956       -28.1626
  33   2.0000      -1.016774       -27.6678
  34   2.0000      -1.002958       -27.2919
  35   2.0000      -0.988021       -26.8854
  36   2.0000      -0.926255       -25.2047
  37   2.0000      -0.878065       -23.8934
  38   2.0000      -0.854110       -23.2415
  39   2.0000      -0.842650       -22.9297
  40   2.0000      -0.835276       -22.7290
  41   2.0000      -0.833935       -22.6925
  42   2.0000      -0.755310       -20.5530
  43   2.0000      -0.736592       -20.0437
  44   2.0000      -0.730760       -19.8850
  45   2.0000      -0.696398       -18.9500
  46   2.0000      -0.688246       -18.7281
  47   2.0000      -0.680181       -18.5087
  48   2.0000      -0.676432       -18.4067
  49   2.0000      -0.663094       -18.0437
  50   2.0000      -0.651529       -17.7290
  51   2.0000      -0.648696       -17.6519
  52   2.0000      -0.641037       -17.4435
  53   2.0000      -0.609317       -16.5804
  54   2.0000      -0.606607       -16.5066
  55   2.0000      -0.602318       -16.3899
  56   2.0000      -0.596538       -16.2326
  57   2.0000      -0.583512       -15.8782
  58   2.0000      -0.577801       -15.7228
  59   2.0000      -0.566922       -15.4267
  60   2.0000      -0.564003       -15.3473
  61   2.0000      -0.556382       -15.1399
  62   2.0000      -0.541963       -14.7476
  63   2.0000      -0.524450       -14.2710
  64   2.0000      -0.515149       -14.0179
  65   2.0000      -0.513267       -13.9667
  66   2.0000      -0.502367       -13.6701
  67   2.0000      -0.498382       -13.5617
  68   2.0000      -0.486111       -13.2277
  69   2.0000      -0.469414       -12.7734
  70   2.0000      -0.456956       -12.4344
  71   2.0000      -0.452784       -12.3209
  72   2.0000      -0.357830        -9.7371
  73   2.0000      -0.350370        -9.5340
  74   2.0000      -0.330280        -8.9874
  75   2.0000      -0.322515        -8.7761
  76   2.0000      -0.318791        -8.6748
  77   0.0000       0.072085         1.9615
  78   0.0000       0.104318         2.8386
  79   0.0000       0.117830         3.2063
  80   0.0000       0.130347         3.5469
  81   0.0000       0.134598         3.6626

MULLIKEN ATOMIC CHARGES
-----------------------
   0 C :   -0.255296
   1 C :    0.028197
   2 O :   -0.358660
   3 C :    0.451748
   4 O :   -0.383276
   5 C :   -0.216776
   6 C :    0.140907
   7 C :   -0.299763
   8 N :   -0.128688
   9 C :    0.197236
  10 S :   -0.436691
  11 N :   -0.203613
  12 C :    0.061713
  13 C :    0.020229
  14 C :   -0.167808
  15 C :   -0.136020
  16 C :   -0.276447
  17 C :    0.318104
  18 O :   -0.358963
  19 C :   -0.279366
  20 H :    0.108544
  21 H :    0.096924
  22 H :    0.087443
  23 H :    0.087911
  24 H :    0.107149
  25 H :    0.134343
  26 H :    0.116049
  27 H :    0.120644
  28 H :    0.197601
  29 H :    0.195187
  30 H :    0.159405
  31 H :    0.164486
  32 H :    0.162661
  33 H :    0.132269
  34 H :    0.241370
  35 H :    0.171249
Sum of atomic charges:   -0.0000000

LOEWDIN ATOMIC CHARGES
----------------------
   0 C :    0.110266
   1 C :   -0.018951
   2 O :    0.290674
   3 C :   -0.422494
   4 O :    0.132419
   5 C :   -0.092915
   6 C :   -0.078431
   7 C :    0.128014
   8 N :    0.404044
   9 C :   -0.458190
  10 S :   -0.034276
  11 N :    0.397051
  12 C :   -0.045445
  13 C :   -0.044018
  14 C :    0.021340
  15 C :    0.043416
  16 C :   -0.001201
  17 C :   -0.195357
  18 O :    0.394122
  19 C :    0.026769
  20 H :   -0.020794
  21 H :   -0.027232
  22 H :   -0.027060
  23 H :   -0.037154
  24 H :   -0.027125
  25 H :   -0.006490
  26 H :   -0.016003
  27 H :   -0.015215
  28 H :   -0.057872
  29 H :   -0.063738
  30 H :   -0.003312
  31 H :   -0.022870
  32 H :   -0.019221
  33 H :   -0.034933
  34 H :   -0.153307
  35 H :   -0.024510

  Mayer bond orders larger than 0.100000
B(  0-C ,  1-C ) :   0.9882 B(  0-C , 20-H ) :   0.9769 B(  0-C , 21-H ) :   0.9798
B(  0-C , 22-H ) :   0.9759 B(  1-C ,  2-O ) :   0.8867 B(  1-C , 23-H ) :   0.9748
B(  1-C , 24-H ) :   0.9663 B(  2-O ,  3-C ) :   1.1256 B(  3-C ,  4-O ) :   2.0680
B(  3-C ,  5-C ) :   0.9844 B(  5-C ,  6-C ) :   1.6611 B(  5-C , 12-C ) :   0.9586
B(  6-C ,  7-C ) :   0.9497 B(  6-C ,  8-N ) :   1.1354 B(  7-C , 25-H ) :   0.9701
B(  7-C , 26-H ) :   0.9838 B(  7-C , 27-H ) :   0.9652 B(  8-N ,  9-C ) :   1.1845
B(  8-N , 28-H ) :   0.9504 B(  9-C , 10-S ) :   1.6147 B(  9-C , 11-N ) :   1.2963
B( 11-N , 12-C ) :   0.9935 B( 11-N , 29-H ) :   0.9515 B( 12-C , 13-C ) :   0.9424
B( 12-C , 30-H ) :   0.9982 B( 13-C , 14-C ) :   1.3855 B( 13-C , 19-C ) :   1.3551
B( 14-C , 15-C ) :   1.3963 B( 14-C , 31-H ) :   0.9602 B( 15-C , 16-C ) :   1.3643
B( 15-C , 32-H ) :   0.9705 B( 16-C , 17-C ) :   1.3297 B( 16-C , 33-H ) :   0.9843
B( 17-C , 18-O ) :   1.1109 B( 17-C , 19-C ) :   1.3700 B( 18-O , 34-H ) :   0.9793
B( 19-C , 35-H ) :   0.9596

MP2 TOTAL ENERGY:    -1274.328322557 Eh
FINAL SINGLE POINT ENERGY     -1274.328322556951

DIPOLE MOMENT
-------------
                                X             Y             Z
Electronic contribution:     10.92112       9.32371       7.24291
Nuclear contribution   :    -12.33600     -10.32534      -7.60664
                        -----------------------------------------
Total Dipole Moment    :     -1.41488      -1.00163      -0.36372
                        -----------------------------------------
Magnitude (a.u.)       :      1.77128
Magnitude (Debye)      :      4.50224

Rotational constants in cm-1:     0.011662     0.009247     0.006625
Rotational constants in MHz :   349.630987   277.208758   198.608214

                             ****ORCA TERMINATED NORMALLY****
TOTAL RUN TIME: 0 days 1 hours 32 minutes 11 seconds 649 msec
