                         Program Version 4.2.0 -  RELEASE  -
|  1> ! ri-mp2 cc-pvtz cc-pvtz/c TightSCF  NoKeepInts
|  2>
|  3> %scf
|  4>   MaxCore 4096
|  5> end
|  6> *xyz  0  1
|  7>     C       15.0723221   13.9862416   15.9608959
|  8>     C       16.0644913   14.5574541   16.9881125
|  9>     O       17.1330736   15.1868494   16.2582105
| 10>     C       17.1209694   16.5463650   16.1485946
| 11>     O       16.4880510   17.0668945   15.2486802
| 12>     C       17.6074835   17.2820675   17.3710393
| 13>     C       17.3554253   18.6025074   17.5691450
| 14>     C       16.4870962   19.5125074   16.7268565
| 15>     N       17.9753530   19.2813665   18.6233082
| 16>     C       19.0224564   18.7846250   19.3538149
| 17>     S       19.8507008   19.7119077   20.4444060
| 18>     N       19.3610375   17.4764112   19.1168928
| 19>     C       18.5357565   16.5311038   18.3438722
| 20>     C       17.7997231   15.6222910   19.3225575
| 21>     C       18.2499571   14.3058091   19.5371887
| 22>     C       17.5826137   13.4598019   20.4388019
| 23>     C       16.4614293   13.9361394   21.1392265
| 24>     C       16.0204306   15.2514645   20.9412675
| 25>     O       14.9404832   15.7162665   21.6177295
| 26>     C       16.6848111   16.0905885   20.0415627
| 27>     H       14.6471381   14.7899982   15.3461078
| 28>     H       14.2485903   13.4681052   16.4664122
| 29>     H       15.5727594   13.2719953   15.2952928
| 30>     H       15.5537862   15.2654619   17.6543532
| 31>     H       16.4601687   13.7303356   17.5903298
| 32>     H       15.4871264   19.0803482   16.5939375
| 33>     H       16.9219441   19.6422107   15.7273506
| 34>     H       16.3578891   20.5088100   17.1656208
| 35>     H       17.7504287   20.2488979   18.7926962
| 36>     H       20.1245248   17.1305021   19.6838212
| 37>     H       19.2140036   15.9103227   17.7410930
| 38>     H       19.1178830   13.9342225   18.9983220
| 39>     H       17.9366485   12.4419614   20.5954287
| 40>     H       15.9438609   13.2867508   21.8380112
| 41>     H       14.6636288   15.0249887   22.2383480
| 42>     H       16.3329546   17.1084268   19.9147121
| 43> *
| 44>
| 45>                          ****END OF INPUT****

CARTESIAN COORDINATES (ANGSTROEM)
---------------------------------
  C     15.072322   13.986242   15.960896
  C     16.064491   14.557454   16.988112
  O     17.133074   15.186849   16.258211
  C     17.120969   16.546365   16.148595
  O     16.488051   17.066895   15.248680
  C     17.607484   17.282067   17.371039
  C     17.355425   18.602507   17.569145
  C     16.487096   19.512507   16.726857
  N     17.975353   19.281367   18.623308
  C     19.022456   18.784625   19.353815
  S     19.850701   19.711908   20.444406
  N     19.361037   17.476411   19.116893
  C     18.535756   16.531104   18.343872
  C     17.799723   15.622291   19.322557
  C     18.249957   14.305809   19.537189
  C     17.582614   13.459802   20.438802
  C     16.461429   13.936139   21.139226
  C     16.020431   15.251465   20.941267
  O     14.940483   15.716266   21.617729
  C     16.684811   16.090588   20.041563
  H     14.647138   14.789998   15.346108
  H     14.248590   13.468105   16.466412
  H     15.572759   13.271995   15.295293
  H     15.553786   15.265462   17.654353
  H     16.460169   13.730336   17.590330
  H     15.487126   19.080348   16.593937
  H     16.921944   19.642211   15.727351
  H     16.357889   20.508810   17.165621
  H     17.750429   20.248898   18.792696
  H     20.124525   17.130502   19.683821
  H     19.214004   15.910323   17.741093
  H     19.117883   13.934223   18.998322
  H     17.936649   12.441961   20.595429
  H     15.943861   13.286751   21.838011
  H     14.663629   15.024989   22.238348
  H     16.332955   17.108427   19.914712

 Total Charge           Charge          ....    0
 Multiplicity           Mult            ....    1
 Number of Electrons    NEL             ....  154
 Basis Dimension        Dim             ....  828

ORBITAL ENERGIES
----------------

  NO   OCC          E(Eh)            E(eV)
   0   2.0000     -91.891880     -2500.5052
   1   2.0000     -20.603253      -560.6430
   2   2.0000     -20.580305      -560.0186
   3   2.0000     -20.548671      -559.1578
   4   2.0000     -15.632557      -425.3835
   5   2.0000     -15.610751      -424.7901
   6   2.0000     -11.393115      -310.0224
   7   2.0000     -11.386374      -309.8390
   8   2.0000     -11.339090      -308.5523
   9   2.0000     -11.321030      -308.0609
  10   2.0000     -11.313833      -307.8650
  11   2.0000     -11.294554      -307.3404
  12   2.0000     -11.265666      -306.5544
  13   2.0000     -11.262347      -306.4640
  14   2.0000     -11.260603      -306.4166
  15   2.0000     -11.254556      -306.2520
  16   2.0000     -11.250138      -306.1318
  17   2.0000     -11.244700      -305.9839
  18   2.0000     -11.244340      -305.9740
  19   2.0000     -11.218043      -305.2585
  20   2.0000      -8.896891      -242.0967
  21   2.0000      -6.578453      -179.0088
  22   2.0000      -6.576463      -178.9546
  23   2.0000      -6.575864      -178.9383
  24   2.0000      -1.447330       -39.3839
  25   2.0000      -1.422928       -38.7198
  26   2.0000      -1.353216       -36.8229
  27   2.0000      -1.343727       -36.5647
  28   2.0000      -1.242056       -33.7981
  29   2.0000      -1.163736       -31.6669
  30   2.0000      -1.122368       -30.5412
  31   2.0000      -1.047648       -28.5080
  32   2.0000      -1.030002       -28.0278
  33   2.0000      -1.022276       -27.8176
  34   2.0000      -0.999309       -27.1926
  35   2.0000      -0.986945       -26.8561
  36   2.0000      -0.926940       -25.2233
  37   2.0000      -0.878948       -23.9174
  38   2.0000      -0.851255       -23.1638
  39   2.0000      -0.845447       -23.0058
  40   2.0000      -0.840293       -22.8655
  41   2.0000      -0.831609       -22.6292
  42   2.0000      -0.757445       -20.6111
  43   2.0000      -0.736797       -20.0493
  44   2.0000      -0.720592       -19.6083
  45   2.0000      -0.702626       -19.1194
  46   2.0000      -0.693361       -18.8673
  47   2.0000      -0.679081       -18.4787
  48   2.0000      -0.669876       -18.2283
  49   2.0000      -0.663510       -18.0550
  50   2.0000      -0.650725       -17.7071
  51   2.0000      -0.648858       -17.6563
  52   2.0000      -0.640219       -17.4213
  53   2.0000      -0.614136       -16.7115
  54   2.0000      -0.607070       -16.5192
  55   2.0000      -0.602757       -16.4019
  56   2.0000      -0.585460       -15.9312
  57   2.0000      -0.582403       -15.8480
  58   2.0000      -0.579651       -15.7731
  59   2.0000      -0.573434       -15.6039
  60   2.0000      -0.565300       -15.3826
  61   2.0000      -0.541720       -14.7410
  62   2.0000      -0.537859       -14.6359
  63   2.0000      -0.531149       -14.4533
  64   2.0000      -0.518523       -14.1097
  65   2.0000      -0.511422       -13.9165
  66   2.0000      -0.506644       -13.7865
  67   2.0000      -0.498635       -13.5686
  68   2.0000      -0.485642       -13.2150
  69   2.0000      -0.465887       -12.6774
  70   2.0000      -0.452303       -12.3078
  71   2.0000      -0.442820       -12.0497
  72   2.0000      -0.359598        -9.7852
  73   2.0000      -0.355601        -9.6764
  74   2.0000      -0.332088        -9.0366
  75   2.0000      -0.327905        -8.9227
  76   2.0000      -0.318900        -8.6777
  77   0.0000       0.068423         1.8619
  78   0.0000       0.098792         2.6883
  79   0.0000       0.120528         3.2797
  80   0.0000       0.126901         3.4532
  81   0.0000       0.130515         3.5515

MULLIKEN ATOMIC CHARGES
-----------------------
   0 C :   -0.258604
   1 C :    0.020656
   2 O :   -0.380444
   3 C :    0.494913
   4 O :   -0.398606
   5 C :   -0.281362
   6 C :    0.154717
   7 C :   -0.270187
   8 N :   -0.124290
   9 C :    0.213513
  10 S :   -0.435019
  11 N :   -0.199953
  12 C :    0.045650
  13 C :    0.066897
  14 C :   -0.207021
  15 C :   -0.126799
  16 C :   -0.274036
  17 C :    0.316426
  18 O :   -0.356049
  19 C :   -0.265557
  20 H :    0.106390
  21 H :    0.084933
  22 H :    0.095119
  23 H :    0.097690
  24 H :    0.114512
  25 H :    0.127288
  26 H :    0.137231
  27 H :    0.094574
  28 H :    0.198885
  29 H :    0.192426
  30 H :    0.150735
  31 H :    0.151130
  32 H :    0.165835
  33 H :    0.133852
  34 H :    0.242421
  35 H :    0.172134
Sum of atomic charges:   -0.0000000

LOEWDIN ATOMIC CHARGES
----------------------
   0 C :    0.106126
   1 C :   -0.022884
   2 O :    0.287189
   3 C :   -0.423620
   4 O :    0.123375
   5 C :   -0.100524
   6 C :   -0.058310
   7 C :    0.130787
   8 N :    0.407416
   9 C :   -0.456111
  10 S :   -0.031146
  11 N :    0.396140
  12 C :   -0.052775
  13 C :   -0.036859
  14 C :    0.013390
  15 C :    0.042059
  16 C :   -0.000265
  17 C :   -0.190451
  18 O :    0.396485
  19 C :    0.031983
  20 H :   -0.024889
  21 H :   -0.030405
  22 H :   -0.026656
  23 H :   -0.032578
  24 H :   -0.026309
  25 H :   -0.005794
  26 H :   -0.002524
  27 H :   -0.023063
  28 H :   -0.057190
  29 H :   -0.065616
  30 H :   -0.006164
  31 H :   -0.029499
  32 H :   -0.019519
  33 H :   -0.033933
  34 H :   -0.152107
  35 H :   -0.025762

  Mayer bond orders larger than 0.100000
B(  0-C ,  1-C ) :   0.9820 B(  0-C , 20-H ) :   0.9752 B(  0-C , 21-H ) :   0.9777
B(  0-C , 22-H ) :   0.9803 B(  1-C ,  2-O ) :   0.8683 B(  1-C , 23-H ) :   0.9675
B(  1-C , 24-H ) :   0.9753 B(  2-O ,  3-C ) :   1.1052 B(  3-C ,  4-O ) :   2.0274
B(  3-C ,  5-C ) :   1.0527 B(  5-C ,  6-C ) :   1.6503 B(  5-C , 12-C ) :   0.9694
B(  6-C ,  7-C ) :   0.9722 B(  6-C ,  8-N ) :   1.1570 B(  7-C , 25-H ) :   0.9639
B(  7-C , 26-H ) :   0.9559 B(  7-C , 27-H ) :   0.9884 B(  8-N ,  9-C ) :   1.1779
B(  8-N , 28-H ) :   0.9481 B(  9-C , 10-S ) :   1.6139 B(  9-C , 11-N ) :   1.3025
B( 11-N , 12-C ) :   0.9667 B( 11-N , 29-H ) :   0.9538 B( 12-C , 13-C ) :   0.9538
B( 12-C , 30-H ) :   1.0008 B( 13-C , 14-C ) :   1.3484 B( 13-C , 19-C ) :   1.3596
B( 14-C , 15-C ) :   1.3854 B( 14-C , 31-H ) :   0.9764 B( 15-C , 16-C ) :   1.3672
B( 15-C , 32-H ) :   0.9686 B( 16-C , 17-C ) :   1.3276 B( 16-C , 33-H ) :   0.9834
B( 17-C , 18-O ) :   1.1152 B( 17-C , 19-C ) :   1.3716 B( 18-O , 34-H ) :   0.9786
B( 19-C , 35-H ) :   0.9566

MP2 TOTAL ENERGY:    -1274.328185905 Eh
FINAL SINGLE POINT ENERGY     -1274.328185904666

DIPOLE MOMENT
-------------
                                X             Y             Z
Electronic contribution:     10.46716       9.44796       6.69394
Nuclear contribution   :    -11.49644     -10.92068      -6.28048
                        -----------------------------------------
Total Dipole Moment    :     -1.02928      -1.47271       0.41346
                        -----------------------------------------
Magnitude (a.u.)       :      1.84370
Magnitude (Debye)      :      4.68632

Rotational constants in cm-1:     0.011767     0.009269     0.006402
Rotational constants in MHz :   352.766387   277.889755   191.912422

                             ****ORCA TERMINATED NORMALLY****
TOTAL RUN TIME: 0 days 1 hours 45 minutes 23 seconds 150 msec
