                         Program Version 5.0.0 -  RELEASE  -
|  1> ! ri-mp2 cc-pvtz cc-pvtz/c TightSCF NoKeepInts
|  2>
|  3> %scf
|  4>   MaxCore 4096
|  5> end
|  6> *xyz  0  1
|  7>     C       15.0848955   15.5139005   17.5480474
|  8>     C       15.6026347   15.3036855   16.1107374
|  9>     O       16.9970225   14.9238511   16.0774273
| 10>     C       18.1166549   15.6173618   16.4802235
| 11>     O       19.1858428   15.0357118   16.4666369
| 12>     C       17.9370544   16.8016381   17.3736512
| 13>     C       17.4038003   17.9680188   16.9392158
| 14>     C       16.9245270   18.2933306   15.5413274
| 15>     N       17.3666251   19.0766841   17.7877504
| 16>     C       17.9820044   19.1434268   19.0100872
| 17>     S       17.9657378   20.5264866   19.9160901
| 18>     N       18.6177110   18.0058653   19.4418053
| 19>     C       18.5717187   16.6940514   18.7647453
| 20>     C       17.8782006   15.6397345   19.6258588
| 21>     C       18.3244887   14.3054405   19.5926270
| 22>     C       17.6951255   13.3173595   20.3675577
| 23>     C       16.6083202   13.6640520   21.1874172
| 24>     C       16.1591961   14.9905942   21.2254820
| 25>     O       15.1031152   15.3269531   22.0078450
| 26>     C       16.7870459   15.9725802   20.4524587
| 27>     H       15.4459336   14.7140832   18.2068528
| 28>     H       13.9886972   15.4828484   17.5597542
| 29>     H       15.3828265   16.4799900   17.9658435
| 30>     H       15.0272388   14.4815755   15.6653805
| 31>     H       15.4079564   16.1881369   15.4974618
| 32>     H       17.1862133   17.5112984   14.8181761
| 33>     H       17.3905079   19.2182421   15.1773796
| 34>     H       15.8374317   18.4369003   15.5181104
| 35>     H       16.9258584   19.9291246   17.4794927
| 36>     H       19.0546247   18.0797276   20.3519220
| 37>     H       19.6124070   16.3659981   18.6237979
| 38>     H       19.1595001   14.0300600   18.9514922
| 39>     H       18.0492704   12.2886707   20.3264197
| 40>     H       16.1181258   12.9031993   21.7857284
| 41>     H       14.8361173   14.5315982   22.4929351
| 42>     H       16.4125695   16.9898203   20.4962615
| 43> *
| 44>
| 45>                          ****END OF INPUT****

CARTESIAN COORDINATES (ANGSTROEM)
---------------------------------
  C     15.084895   15.513900   17.548047
  C     15.602635   15.303686   16.110737
  O     16.997022   14.923851   16.077427
  C     18.116655   15.617362   16.480224
  O     19.185843   15.035712   16.466637
  C     17.937054   16.801638   17.373651
  C     17.403800   17.968019   16.939216
  C     16.924527   18.293331   15.541327
  N     17.366625   19.076684   17.787750
  C     17.982004   19.143427   19.010087
  S     17.965738   20.526487   19.916090
  N     18.617711   18.005865   19.441805
  C     18.571719   16.694051   18.764745
  C     17.878201   15.639734   19.625859
  C     18.324489   14.305440   19.592627
  C     17.695125   13.317360   20.367558
  C     16.608320   13.664052   21.187417
  C     16.159196   14.990594   21.225482
  O     15.103115   15.326953   22.007845
  C     16.787046   15.972580   20.452459
  H     15.445934   14.714083   18.206853
  H     13.988697   15.482848   17.559754
  H     15.382826   16.479990   17.965843
  H     15.027239   14.481575   15.665380
  H     15.407956   16.188137   15.497462
  H     17.186213   17.511298   14.818176
  H     17.390508   19.218242   15.177380
  H     15.837432   18.436900   15.518110
  H     16.925858   19.929125   17.479493
  H     19.054625   18.079728   20.351922
  H     19.612407   16.365998   18.623798
  H     19.159500   14.030060   18.951492
  H     18.049270   12.288671   20.326420
  H     16.118126   12.903199   21.785728
  H     14.836117   14.531598   22.492935
  H     16.412570   16.989820   20.496261

 Total Charge           Charge          ....    0
 Multiplicity           Mult            ....    1
 Number of Electrons    NEL             ....  154
 Basis Dimension        Dim             ....  828

ORBITAL ENERGIES
----------------

  NO   OCC          E(Eh)            E(eV)
   0   2.0000     -91.890363     -2500.4639
   1   2.0000     -20.599935      -560.5527
   2   2.0000     -20.597289      -560.4807
   3   2.0000     -20.549313      -559.1752
   4   2.0000     -15.627782      -425.2536
   5   2.0000     -15.611365      -424.8068
   6   2.0000     -11.400628      -310.2269
   7   2.0000     -11.386861      -309.8522
   8   2.0000     -11.330337      -308.3141
   9   2.0000     -11.314707      -307.8888
  10   2.0000     -11.313804      -307.8642
  11   2.0000     -11.309277      -307.7411
  12   2.0000     -11.272173      -306.7314
  13   2.0000     -11.267357      -306.6004
  14   2.0000     -11.261625      -306.4444
  15   2.0000     -11.254398      -306.2477
  16   2.0000     -11.243655      -305.9554
  17   2.0000     -11.239077      -305.8308
  18   2.0000     -11.236043      -305.7483
  19   2.0000     -11.229246      -305.5633
  20   2.0000      -8.895470      -242.0580
  21   2.0000      -6.577060      -178.9709
  22   2.0000      -6.575031      -178.9157
  23   2.0000      -6.574456      -178.9001
  24   2.0000      -1.445760       -39.3411
  25   2.0000      -1.417114       -38.5616
  26   2.0000      -1.357246       -36.9326
  27   2.0000      -1.341251       -36.4973
  28   2.0000      -1.240448       -33.7543
  29   2.0000      -1.158842       -31.5337
  30   2.0000      -1.125448       -30.6250
  31   2.0000      -1.047961       -28.5165
  32   2.0000      -1.038867       -28.2690
  33   2.0000      -1.017092       -27.6765
  34   2.0000      -1.005925       -27.3726
  35   2.0000      -0.990230       -26.9455
  36   2.0000      -0.928070       -25.2541
  37   2.0000      -0.896805       -24.4033
  38   2.0000      -0.855176       -23.2705
  39   2.0000      -0.840711       -22.8769
  40   2.0000      -0.834220       -22.7003
  41   2.0000      -0.829801       -22.5800
  42   2.0000      -0.748277       -20.3617
  43   2.0000      -0.739898       -20.1337
  44   2.0000      -0.730429       -19.8760
  45   2.0000      -0.695151       -18.9160
  46   2.0000      -0.687363       -18.7041
  47   2.0000      -0.679317       -18.4851
  48   2.0000      -0.675049       -18.3690
  49   2.0000      -0.663429       -18.0528
  50   2.0000      -0.652276       -17.7493
  51   2.0000      -0.648353       -17.6426
  52   2.0000      -0.640279       -17.4229
  53   2.0000      -0.616537       -16.7768
  54   2.0000      -0.610645       -16.6165
  55   2.0000      -0.605805       -16.4848
  56   2.0000      -0.601890       -16.3783
  57   2.0000      -0.591008       -16.0821
  58   2.0000      -0.579380       -15.7657
  59   2.0000      -0.572654       -15.5827
  60   2.0000      -0.565634       -15.3917
  61   2.0000      -0.556813       -15.1516
  62   2.0000      -0.540509       -14.7080
  63   2.0000      -0.530174       -14.4268
  64   2.0000      -0.518868       -14.1191
  65   2.0000      -0.512937       -13.9577
  66   2.0000      -0.503280       -13.6950
  67   2.0000      -0.501173       -13.6376
  68   2.0000      -0.483427       -13.1547
  69   2.0000      -0.464293       -12.6341
  70   2.0000      -0.454216       -12.3598
  71   2.0000      -0.451394       -12.2831
  72   2.0000      -0.357255        -9.7214
  73   2.0000      -0.348163        -9.4740
  74   2.0000      -0.329987        -8.9794
  75   2.0000      -0.322775        -8.7832
  76   2.0000      -0.318750        -8.6736
  77   0.0000       0.084776         2.3069
  78   0.0000       0.107015         2.9120
  79   0.0000       0.112374         3.0579
  80   0.0000       0.130213         3.5433
  81   0.0000       0.131030         3.5655

MULLIKEN ATOMIC CHARGES
-----------------------
   0 C :   -0.322987
   1 C :    0.015291
   2 O :   -0.320356
   3 C :    0.413581
   4 O :   -0.383154
   5 C :   -0.198676
   6 C :    0.142067
   7 C :   -0.334719
   8 N :   -0.136809
   9 C :    0.203907
  10 S :   -0.440595
  11 N :   -0.226411
  12 C :    0.086893
  13 C :    0.022538
  14 C :   -0.209905
  15 C :   -0.135584
  16 C :   -0.278070
  17 C :    0.317658
  18 O :   -0.358620
  19 C :   -0.272704
  20 H :    0.127293
  21 H :    0.114432
  22 H :    0.106979
  23 H :    0.133592
  24 H :    0.088442
  25 H :    0.125502
  26 H :    0.140558
  27 H :    0.121925
  28 H :    0.196495
  29 H :    0.202394
  30 H :    0.168736
  31 H :    0.175089
  32 H :    0.163731
  33 H :    0.131926
  34 H :    0.241037
  35 H :    0.178524
Sum of atomic charges:   -0.0000000

LOEWDIN ATOMIC CHARGES
----------------------
   0 C :    0.103590
   1 C :   -0.019893
   2 O :    0.301941
   3 C :   -0.415242
   4 O :    0.123972
   5 C :   -0.077464
   6 C :   -0.101566
   7 C :    0.122194
   8 N :    0.401974
   9 C :   -0.457911
  10 S :   -0.037630
  11 N :    0.398567
  12 C :   -0.041990
  13 C :   -0.042028
  14 C :    0.021015
  15 C :    0.043529
  16 C :   -0.001976
  17 C :   -0.193951
  18 O :    0.395353
  19 C :    0.028749
  20 H :   -0.018324
  21 H :   -0.025113
  22 H :   -0.036920
  23 H :   -0.017482
  24 H :   -0.040560
  25 H :   -0.009012
  26 H :   -0.008566
  27 H :   -0.017844
  28 H :   -0.057829
  29 H :   -0.063306
  30 H :   -0.001358
  31 H :   -0.021812
  32 H :   -0.018614
  33 H :   -0.035037
  34 H :   -0.153616
  35 H :   -0.025839

  Mayer bond orders larger than 0.100000
B(  0-C ,  1-C ) :   0.9538 B(  0-C , 20-H ) :   0.9687 B(  0-C , 21-H ) :   0.9766
B(  0-C , 22-H ) :   0.9724 B(  1-C ,  2-O ) :   0.9099 B(  1-C , 23-H ) :   0.9828
B(  1-C , 24-H ) :   0.9745 B(  2-O ,  3-C ) :   1.1709 B(  3-C ,  4-O ) :   2.0776
B(  3-C ,  5-C ) :   0.9214 B(  5-C ,  6-C ) :   1.6971 B(  5-C , 12-C ) :   0.9523
B(  6-C ,  7-C ) :   0.9449 B(  6-C ,  8-N ) :   1.1029 B(  7-C , 25-H ) :   0.9814
B(  7-C , 26-H ) :   0.9704 B(  7-C , 27-H ) :   0.9659 B(  8-N ,  9-C ) :   1.1957
B(  8-N , 28-H ) :   0.9527 B(  9-C , 10-S ) :   1.6091 B(  9-C , 11-N ) :   1.2879
B( 11-N , 12-C ) :   0.9870 B( 11-N , 29-H ) :   0.9478 B( 12-C , 13-C ) :   0.9509
B( 12-C , 30-H ) :   0.9948 B( 13-C , 14-C ) :   1.3898 B( 13-C , 19-C ) :   1.3381
B( 14-C , 15-C ) :   1.4020 B( 14-C , 31-H ) :   0.9583 B( 15-C , 16-C ) :   1.3578
B( 15-C , 32-H ) :   0.9702 B( 16-C , 17-C ) :   1.3310 B( 16-C , 33-H ) :   0.9850
B( 17-C , 18-O ) :   1.1096 B( 17-C , 19-C ) :   1.3701 B( 18-O , 34-H ) :   0.9797
B( 19-C , 35-H ) :   0.9565

MP2 TOTAL ENERGY:    -1274.325941017 Eh
FINAL SINGLE POINT ENERGY     -1274.325941016718

DIPOLE MOMENT
-------------
                                X             Y             Z
Electronic contribution:      9.10117       6.09016       6.29676
Nuclear contribution   :    -10.63436      -7.11168      -7.03265
                        -----------------------------------------
Total Dipole Moment    :     -1.53319      -1.02152      -0.73590
                        -----------------------------------------
Magnitude (a.u.)       :      1.98387
Magnitude (Debye)      :      5.04259

Rotational constants in cm-1:     0.011887     0.009591     0.006835
Rotational constants in MHz :   356.357959   287.540080   204.903873

                             ****ORCA TERMINATED NORMALLY****
TOTAL RUN TIME: 0 days 2 hours 15 minutes 13 seconds 625 msec
