                         Program Version 4.2.0 -  RELEASE  -
|  1> ! ri-mp2 cc-pvtz cc-pvtz/c TightSCF  NoKeepInts
|  2>
|  3> %scf
|  4>   MaxCore 4096
|  5> end
|  6> *xyz  0  1
|  7>     C       14.2654157   15.7417954   16.3762675
|  8>     C       15.5224410   15.1996838   17.0797949
|  9>     O       16.6242612   15.2093823   16.1458132
| 10>     C       17.8682567   15.6866425   16.4734833
| 11>     O       18.8467478   14.9826180   16.3046378
| 12>     C       17.9115363   16.8592878   17.3991383
| 13>     C       17.3071914   18.0387158   17.1249473
| 14>     C       16.5720606   18.4221995   15.8598551
| 15>     N       17.4403507   19.1098097   18.0113777
| 16>     C       18.2430117   19.1087798   19.1224880
| 17>     S       18.3975006   20.4452075   20.0837059
| 18>     N       18.9122167   17.9417964   19.3986368
| 19>     C       18.7502203   16.6714463   18.6638577
| 20>     C       18.1448872   15.5873110   19.5514890
| 21>     C       18.6475942   14.2741838   19.5034645
| 22>     C       18.0805310   13.2599643   20.2927426
| 23>     C       16.9983233   13.5591268   21.1374485
| 24>     C       16.4905848   14.8641427   21.1850804
| 25>     O       15.4365188   15.1539502   21.9882759
| 26>     C       17.0561941   15.8717934   20.3973210
| 27>     H       13.3888006   15.6270145   17.0255774
| 28>     H       14.0751269   15.1868743   15.4488946
| 29>     H       14.3628660   16.8024385   16.1306569
| 30>     H       15.7191445   15.8059754   17.9714669
| 31>     H       15.3448904   14.1693085   17.4151610
| 32>     H       16.4634448   17.5845914   15.1612491
| 33>     H       17.1184188   19.2087857   15.3239295
| 34>     H       15.5695737   18.8060278   16.0837334
| 35>     H       16.9746018   19.9820353   17.8152609
| 36>     H       19.4832362   17.9647938   20.2342056
| 37>     H       19.7513703   16.3375571   18.3529117
| 38>     H       19.4736397   14.0351261   18.8365877
| 39>     H       18.4773558   12.2472738   20.2420774
| 40>     H       16.5560422   12.7775937   21.7465896
| 41>     H       15.2296055   14.3549848   22.4967342
| 42>     H       16.6430390   16.8737823   20.4491390
| 43> *
| 44>
| 45>                          ****END OF INPUT****

CARTESIAN COORDINATES (ANGSTROEM)
---------------------------------
  C     14.265416   15.741795   16.376268
  C     15.522441   15.199684   17.079795
  O     16.624261   15.209382   16.145813
  C     17.868257   15.686642   16.473483
  O     18.846748   14.982618   16.304638
  C     17.911536   16.859288   17.399138
  C     17.307191   18.038716   17.124947
  C     16.572061   18.422199   15.859855
  N     17.440351   19.109810   18.011378
  C     18.243012   19.108780   19.122488
  S     18.397501   20.445207   20.083706
  N     18.912217   17.941796   19.398637
  C     18.750220   16.671446   18.663858
  C     18.144887   15.587311   19.551489
  C     18.647594   14.274184   19.503464
  C     18.080531   13.259964   20.292743
  C     16.998323   13.559127   21.137449
  C     16.490585   14.864143   21.185080
  O     15.436519   15.153950   21.988276
  C     17.056194   15.871793   20.397321
  H     13.388801   15.627014   17.025577
  H     14.075127   15.186874   15.448895
  H     14.362866   16.802439   16.130657
  H     15.719144   15.805975   17.971467
  H     15.344890   14.169308   17.415161
  H     16.463445   17.584591   15.161249
  H     17.118419   19.208786   15.323929
  H     15.569574   18.806028   16.083733
  H     16.974602   19.982035   17.815261
  H     19.483236   17.964794   20.234206
  H     19.751370   16.337557   18.352912
  H     19.473640   14.035126   18.836588
  H     18.477356   12.247274   20.242077
  H     16.556042   12.777594   21.746590
  H     15.229605   14.354985   22.496734
  H     16.643039   16.873782   20.449139

 Total Charge           Charge          ....    0
 Multiplicity           Mult            ....    1
 Number of Electrons    NEL             ....  154
 Basis Dimension        Dim             ....  828

ORBITAL ENERGIES
----------------

  NO   OCC          E(Eh)            E(eV)
   0   2.0000     -91.890829     -2500.4766
   1   2.0000     -20.600223      -560.5606
   2   2.0000     -20.593727      -560.3838
   3   2.0000     -20.552776      -559.2695
   4   2.0000     -15.628259      -425.2666
   5   2.0000     -15.611871      -424.8206
   6   2.0000     -11.397297      -310.1362
   7   2.0000     -11.387365      -309.8659
   8   2.0000     -11.332101      -308.3621
   9   2.0000     -11.317151      -307.9553
  10   2.0000     -11.314414      -307.8808
  11   2.0000     -11.302113      -307.5461
  12   2.0000     -11.266341      -306.5727
  13   2.0000     -11.265189      -306.5414
  14   2.0000     -11.263704      -306.5010
  15   2.0000     -11.257103      -306.3213
  16   2.0000     -11.246450      -306.0315
  17   2.0000     -11.242529      -305.9248
  18   2.0000     -11.239305      -305.8370
  19   2.0000     -11.234715      -305.7121
  20   2.0000      -8.895929      -242.0705
  21   2.0000      -6.577513      -178.9832
  22   2.0000      -6.575492      -178.9282
  23   2.0000      -6.574913      -178.9125
  24   2.0000      -1.447106       -39.3778
  25   2.0000      -1.420038       -38.6412
  26   2.0000      -1.358400       -36.9639
  27   2.0000      -1.341467       -36.5032
  28   2.0000      -1.240800       -33.7639
  29   2.0000      -1.161590       -31.6085
  30   2.0000      -1.125751       -30.6332
  31   2.0000      -1.048860       -28.5409
  32   2.0000      -1.039193       -28.2779
  33   2.0000      -1.019166       -27.7329
  34   2.0000      -1.005249       -27.3542
  35   2.0000      -0.989928       -26.9373
  36   2.0000      -0.927991       -25.2519
  37   2.0000      -0.885247       -24.0888
  38   2.0000      -0.853714       -23.2307
  39   2.0000      -0.842812       -22.9341
  40   2.0000      -0.837228       -22.7821
  41   2.0000      -0.836100       -22.7514
  42   2.0000      -0.757280       -20.6066
  43   2.0000      -0.737729       -20.0746
  44   2.0000      -0.732427       -19.9304
  45   2.0000      -0.698125       -18.9969
  46   2.0000      -0.688534       -18.7360
  47   2.0000      -0.681597       -18.5472
  48   2.0000      -0.676732       -18.4148
  49   2.0000      -0.663809       -18.0632
  50   2.0000      -0.653690       -17.7878
  51   2.0000      -0.640319       -17.4240
  52   2.0000      -0.633134       -17.2284
  53   2.0000      -0.622811       -16.9476
  54   2.0000      -0.610218       -16.6049
  55   2.0000      -0.607840       -16.5402
  56   2.0000      -0.603866       -16.4320
  57   2.0000      -0.585719       -15.9382
  58   2.0000      -0.577997       -15.7281
  59   2.0000      -0.570366       -15.5204
  60   2.0000      -0.565015       -15.3748
  61   2.0000      -0.558112       -15.1870
  62   2.0000      -0.541582       -14.7372
  63   2.0000      -0.532022       -14.4771
  64   2.0000      -0.523665       -14.2497
  65   2.0000      -0.516335       -14.0502
  66   2.0000      -0.502899       -13.6846
  67   2.0000      -0.496508       -13.5107
  68   2.0000      -0.487712       -13.2713
  69   2.0000      -0.469812       -12.7842
  70   2.0000      -0.458811       -12.4849
  71   2.0000      -0.449239       -12.2244
  72   2.0000      -0.357929        -9.7397
  73   2.0000      -0.352080        -9.5806
  74   2.0000      -0.330378        -8.9901
  75   2.0000      -0.324887        -8.8406
  76   2.0000      -0.319661        -8.6984
  77   0.0000       0.080859         2.2003
  78   0.0000       0.103329         2.8117
  79   0.0000       0.116554         3.1716
  80   0.0000       0.128865         3.5066
  81   0.0000       0.130321         3.5462

MULLIKEN ATOMIC CHARGES
-----------------------
   0 C :   -0.278003
   1 C :    0.018789
   2 O :   -0.340326
   3 C :    0.422818
   4 O :   -0.377755
   5 C :   -0.214652
   6 C :    0.162314
   7 C :   -0.346900
   8 N :   -0.133818
   9 C :    0.199608
  10 S :   -0.439078
  11 N :   -0.214359
  12 C :    0.076707
  13 C :    0.020823
  14 C :   -0.194405
  15 C :   -0.132943
  16 C :   -0.275625
  17 C :    0.319438
  18 O :   -0.356806
  19 C :   -0.286539
  20 H :    0.101859
  21 H :    0.108949
  22 H :    0.088626
  23 H :    0.099121
  24 H :    0.124409
  25 H :    0.132922
  26 H :    0.151134
  27 H :    0.115568
  28 H :    0.197106
  29 H :    0.198501
  30 H :    0.164080
  31 H :    0.170159
  32 H :    0.164279
  33 H :    0.132566
  34 H :    0.241640
  35 H :    0.179792
Sum of atomic charges:    0.0000000

LOEWDIN ATOMIC CHARGES
----------------------
   0 C :    0.107207
   1 C :   -0.013997
   2 O :    0.294125
   3 C :   -0.415301
   4 O :    0.129089
   5 C :   -0.085204
   6 C :   -0.094044
   7 C :    0.124140
   8 N :    0.402887
   9 C :   -0.456964
  10 S :   -0.036288
  11 N :    0.397195
  12 C :   -0.044573
  13 C :   -0.044154
  14 C :    0.021810
  15 C :    0.045076
  16 C :   -0.000313
  17 C :   -0.194218
  18 O :    0.394750
  19 C :    0.026322
  20 H :   -0.023110
  21 H :   -0.023968
  22 H :   -0.034507
  23 H :   -0.038525
  24 H :   -0.024198
  25 H :   -0.010270
  26 H :   -0.008889
  27 H :   -0.018711
  28 H :   -0.056996
  29 H :   -0.063566
  30 H :   -0.002486
  31 H :   -0.021745
  32 H :   -0.018407
  33 H :   -0.034568
  34 H :   -0.152855
  35 H :   -0.024743

  Mayer bond orders larger than 0.100000
B(  0-C ,  1-C ) :   0.9769 B(  0-C , 20-H ) :   0.9771 B(  0-C , 21-H ) :   0.9778
B(  0-C , 22-H ) :   0.9783 B(  1-C ,  2-O ) :   0.8994 B(  1-C , 23-H ) :   0.9585
B(  1-C , 24-H ) :   0.9821 B(  2-O ,  3-C ) :   1.1602 B(  3-C ,  4-O ) :   2.0931
B(  3-C ,  5-C ) :   0.9329 B(  5-C ,  6-C ) :   1.6763 B(  5-C , 12-C ) :   0.9567
B(  6-C ,  7-C ) :   0.9456 B(  6-C ,  8-N ) :   1.1213 B(  7-C , 25-H ) :   0.9780
B(  7-C , 26-H ) :   0.9645 B(  7-C , 27-H ) :   0.9693 B(  8-N ,  9-C ) :   1.1928
B(  8-N , 28-H ) :   0.9515 B(  9-C , 10-S ) :   1.6133 B(  9-C , 11-N ) :   1.2896
B( 11-N , 12-C ) :   0.9954 B( 11-N , 29-H ) :   0.9494 B( 12-C , 13-C ) :   0.9422
B( 12-C , 30-H ) :   0.9984 B( 13-C , 14-C ) :   1.3891 B( 13-C , 19-C ) :   1.3416
B( 14-C , 15-C ) :   1.3975 B( 14-C , 31-H ) :   0.9596 B( 15-C , 16-C ) :   1.3633
B( 15-C , 32-H ) :   0.9698 B( 16-C , 17-C ) :   1.3294 B( 16-C , 33-H ) :   0.9843
B( 17-C , 18-O ) :   1.1120 B( 17-C , 19-C ) :   1.3669 B( 18-O , 34-H ) :   0.9793
B( 19-C , 35-H ) :   0.9570

MP2 TOTAL ENERGY:    -1274.330979627 Eh
FINAL SINGLE POINT ENERGY     -1274.330979627397

DIPOLE MOMENT
-------------
                                X             Y             Z
Electronic contribution:     11.43143       5.75070       7.24348
Nuclear contribution   :    -12.86700      -6.83393      -7.48135
                        -----------------------------------------
Total Dipole Moment    :     -1.43557      -1.08323      -0.23787
                        -----------------------------------------
Magnitude (a.u.)       :      1.81407
Magnitude (Debye)      :      4.61099

Rotational constants in cm-1:     0.011382     0.009323     0.006864
Rotational constants in MHz :   341.217362   279.503878   205.777077

                             ****ORCA TERMINATED NORMALLY****
TOTAL RUN TIME: 0 days 1 hours 53 minutes 4 seconds 303 msec
