                         Program Version 5.0.0 -  RELEASE  -
|  1> ! ri-mp2 cc-pvtz cc-pvtz/c TightSCF NoKeepInts
|  2>
|  3> %scf
|  4>   MaxCore 4096
|  5> end
|  6> *xyz  0  1
|  7>     C       15.2652567   14.0407818   17.0789617
|  8>     C       16.4785432   14.0136201   16.1271516
|  9>     O       17.4111520   15.0443254   16.5050466
| 10>     C       17.0819334   16.3575936   16.3130108
| 11>     O       16.2779900   16.7032366   15.4635989
| 12>     C       17.6533576   17.2648082   17.3678100
| 13>     C       17.4324396   18.6042248   17.3721965
| 14>     C       16.6047561   19.4009450   16.3864109
| 15>     N       18.0323080   19.4105021   18.3442241
| 16>     C       18.9552051   18.9786250   19.2589368
| 17>     S       19.7037135   20.0185264   20.3050460
| 18>     N       19.2338568   17.6357754   19.2590047
| 19>     C       18.5179236   16.6209796   18.4647192
| 20>     C       17.7033922   15.7287928   19.3967380
| 21>     C       18.1080056   14.4037399   19.6456767
| 22>     C       17.3672113   13.5802670   20.5102949
| 23>     C       16.2130218   14.0859595   21.1325558
| 24>     C       15.8098991   15.4064117   20.8904527
| 25>     O       14.6963883   15.8976757   21.4900191
| 26>     C       16.5498526   16.2239476   20.0307349
| 27>     H       15.5844510   13.9117670   18.1196240
| 28>     H       14.5699814   13.2291845   16.8336041
| 29>     H       14.7183746   14.9885007   16.9986568
| 30>     H       16.9702276   13.0353294   16.2012825
| 31>     H       16.1494921   14.1508429   15.0879411
| 32>     H       16.9785996   19.2589354   15.3644236
| 33>     H       16.6096991   20.4775561   16.5930069
| 34>     H       15.5598817   19.0652921   16.4017759
| 35>     H       17.8424278   20.3998725   18.3559443
| 36>     H       19.8917206   17.3420703   19.9694267
| 37>     H       19.2761108   16.0001033   17.9670324
| 38>     H       18.9981443   14.0093314   19.1629988
| 39>     H       17.6878908   12.5565798   20.6956620
| 40>     H       15.6375517   13.4540718   21.8010540
| 41>     H       14.3497423   15.2059203   22.0732851
| 42>     H       16.2264978   17.2459041   19.8656918
| 43> *
| 44>
| 45>                          ****END OF INPUT****

CARTESIAN COORDINATES (ANGSTROEM)
---------------------------------
  C     15.265257   14.040782   17.078962
  C     16.478543   14.013620   16.127152
  O     17.411152   15.044325   16.505047
  C     17.081933   16.357594   16.313011
  O     16.277990   16.703237   15.463599
  C     17.653358   17.264808   17.367810
  C     17.432440   18.604225   17.372197
  C     16.604756   19.400945   16.386411
  N     18.032308   19.410502   18.344224
  C     18.955205   18.978625   19.258937
  S     19.703713   20.018526   20.305046
  N     19.233857   17.635775   19.259005
  C     18.517924   16.620980   18.464719
  C     17.703392   15.728793   19.396738
  C     18.108006   14.403740   19.645677
  C     17.367211   13.580267   20.510295
  C     16.213022   14.085959   21.132556
  C     15.809899   15.406412   20.890453
  O     14.696388   15.897676   21.490019
  C     16.549853   16.223948   20.030735
  H     15.584451   13.911767   18.119624
  H     14.569981   13.229185   16.833604
  H     14.718375   14.988501   16.998657
  H     16.970228   13.035329   16.201283
  H     16.149492   14.150843   15.087941
  H     16.978600   19.258935   15.364424
  H     16.609699   20.477556   16.593007
  H     15.559882   19.065292   16.401776
  H     17.842428   20.399872   18.355944
  H     19.891721   17.342070   19.969427
  H     19.276111   16.000103   17.967032
  H     18.998144   14.009331   19.162999
  H     17.687891   12.556580   20.695662
  H     15.637552   13.454072   21.801054
  H     14.349742   15.205920   22.073285
  H     16.226498   17.245904   19.865692

 Total Charge           Charge          ....    0
 Multiplicity           Mult            ....    1
 Number of Electrons    NEL             ....  154
 Basis Dimension        Dim             ....  828

ORBITAL ENERGIES
----------------

  NO   OCC          E(Eh)            E(eV)
   0   2.0000     -91.889326     -2500.4357
   1   2.0000     -20.598244      -560.5067
   2   2.0000     -20.596672      -560.4639
   3   2.0000     -20.542008      -558.9765
   4   2.0000     -15.629708      -425.3060
   5   2.0000     -15.608661      -424.7333
   6   2.0000     -11.394616      -310.0633
   7   2.0000     -11.384385      -309.7849
   8   2.0000     -11.336660      -308.4862
   9   2.0000     -11.315678      -307.9152
  10   2.0000     -11.309675      -307.7519
  11   2.0000     -11.295631      -307.3697
  12   2.0000     -11.261146      -306.4314
  13   2.0000     -11.259366      -306.3829
  14   2.0000     -11.257101      -306.3213
  15   2.0000     -11.252502      -306.1961
  16   2.0000     -11.244799      -305.9865
  17   2.0000     -11.239727      -305.8485
  18   2.0000     -11.239562      -305.8440
  19   2.0000     -11.220435      -305.3236
  20   2.0000      -8.894378      -242.0283
  21   2.0000      -6.575951      -178.9407
  22   2.0000      -6.573948      -178.8862
  23   2.0000      -6.573360      -178.8702
  24   2.0000      -1.449614       -39.4460
  25   2.0000      -1.417921       -38.5836
  26   2.0000      -1.353116       -36.8202
  27   2.0000      -1.340681       -36.4818
  28   2.0000      -1.239161       -33.7193
  29   2.0000      -1.159126       -31.5414
  30   2.0000      -1.120972       -30.5032
  31   2.0000      -1.043685       -28.4001
  32   2.0000      -1.033199       -28.1148
  33   2.0000      -1.016777       -27.6679
  34   2.0000      -0.996109       -27.1055
  35   2.0000      -0.984754       -26.7965
  36   2.0000      -0.923432       -25.1279
  37   2.0000      -0.894012       -24.3273
  38   2.0000      -0.847588       -23.0640
  39   2.0000      -0.839289       -22.8382
  40   2.0000      -0.835372       -22.7316
  41   2.0000      -0.814896       -22.1745
  42   2.0000      -0.753716       -20.5097
  43   2.0000      -0.733600       -19.9623
  44   2.0000      -0.723289       -19.6817
  45   2.0000      -0.697398       -18.9772
  46   2.0000      -0.689432       -18.7604
  47   2.0000      -0.677639       -18.4395
  48   2.0000      -0.670221       -18.2376
  49   2.0000      -0.663311       -18.0496
  50   2.0000      -0.648875       -17.6568
  51   2.0000      -0.642067       -17.4715
  52   2.0000      -0.633723       -17.2445
  53   2.0000      -0.609997       -16.5989
  54   2.0000      -0.608813       -16.5666
  55   2.0000      -0.601171       -16.3587
  56   2.0000      -0.599678       -16.3181
  57   2.0000      -0.578956       -15.7542
  58   2.0000      -0.571056       -15.5392
  59   2.0000      -0.566872       -15.4254
  60   2.0000      -0.556263       -15.1367
  61   2.0000      -0.543571       -14.7913
  62   2.0000      -0.532079       -14.4786
  63   2.0000      -0.531521       -14.4634
  64   2.0000      -0.526506       -14.3270
  65   2.0000      -0.513791       -13.9810
  66   2.0000      -0.502570       -13.6756
  67   2.0000      -0.500234       -13.6121
  68   2.0000      -0.478372       -13.0172
  69   2.0000      -0.465030       -12.6541
  70   2.0000      -0.453658       -12.3447
  71   2.0000      -0.445509       -12.1229
  72   2.0000      -0.355132        -9.6636
  73   2.0000      -0.351249        -9.5580
  74   2.0000      -0.328847        -8.9484
  75   2.0000      -0.323427        -8.8009
  76   2.0000      -0.316706        -8.6180
  77   0.0000       0.074576         2.0293
  78   0.0000       0.105252         2.8641
  79   0.0000       0.123896         3.3714
  80   0.0000       0.131492         3.5781
  81   0.0000       0.137114         3.7311

MULLIKEN ATOMIC CHARGES
-----------------------
   0 C :   -0.313181
   1 C :    0.023943
   2 O :   -0.367107
   3 C :    0.459661
   4 O :   -0.430849
   5 C :   -0.228435
   6 C :    0.154744
   7 C :   -0.270864
   8 N :   -0.122848
   9 C :    0.213148
  10 S :   -0.439573
  11 N :   -0.205641
  12 C :    0.060426
  13 C :    0.053847
  14 C :   -0.186604
  15 C :   -0.132660
  16 C :   -0.279443
  17 C :    0.308451
  18 O :   -0.357826
  19 C :   -0.247855
  20 H :    0.108418
  21 H :    0.105200
  22 H :    0.110421
  23 H :    0.112714
  24 H :    0.119479
  25 H :    0.131862
  26 H :    0.095299
  27 H :    0.131599
  28 H :    0.197759
  29 H :    0.194649
  30 H :    0.150695
  31 H :    0.151046
  32 H :    0.160703
  33 H :    0.131156
  34 H :    0.241106
  35 H :    0.166562
Sum of atomic charges:    0.0000000

LOEWDIN ATOMIC CHARGES
----------------------
   0 C :    0.105537
   1 C :   -0.017109
   2 O :    0.301233
   3 C :   -0.415551
   4 O :    0.098626
   5 C :   -0.095090
   6 C :   -0.058473
   7 C :    0.131587
   8 N :    0.406858
   9 C :   -0.455972
  10 S :   -0.034943
  11 N :    0.396556
  12 C :   -0.051990
  13 C :   -0.038120
  14 C :    0.012756
  15 C :    0.039268
  16 C :   -0.002690
  17 C :   -0.189888
  18 O :    0.396263
  19 C :    0.032174
  20 H :   -0.026451
  21 H :   -0.026998
  22 H :   -0.026587
  23 H :   -0.025143
  24 H :   -0.028213
  25 H :   -0.003616
  26 H :   -0.023336
  27 H :   -0.004875
  28 H :   -0.057474
  29 H :   -0.064787
  30 H :   -0.009767
  31 H :   -0.029815
  32 H :   -0.020925
  33 H :   -0.035361
  34 H :   -0.153485
  35 H :   -0.024202

  Mayer bond orders larger than 0.100000
B(  0-C ,  1-C ) :   0.9586 B(  0-C , 20-H ) :   0.9703 B(  0-C , 21-H ) :   0.9782
B(  0-C , 22-H ) :   0.9752 B(  1-C ,  2-O ) :   0.8882 B(  1-C , 23-H ) :   0.9842
B(  1-C , 24-H ) :   0.9818 B(  2-O ,  3-C ) :   1.1498 B(  3-C ,  4-O ) :   1.9764
B(  3-C ,  5-C ) :   1.0619 B(  5-C ,  6-C ) :   1.6536 B(  5-C , 12-C ) :   0.9726
B(  6-C ,  7-C ) :   0.9667 B(  6-C ,  8-N ) :   1.1633 B(  7-C , 25-H ) :   0.9599
B(  7-C , 26-H ) :   0.9903 B(  7-C , 27-H ) :   0.9606 B(  8-N ,  9-C ) :   1.1823
B(  8-N , 28-H ) :   0.9477 B(  9-C , 10-S ) :   1.6069 B(  9-C , 11-N ) :   1.3065
B( 11-N , 12-C ) :   0.9799 B( 11-N , 29-H ) :   0.9521 B( 12-C , 13-C ) :   0.9369
B( 12-C , 30-H ) :   1.0023 B( 13-C , 14-C ) :   1.3545 B( 13-C , 19-C ) :   1.3836
B( 14-C , 15-C ) :   1.3903 B( 14-C , 31-H ) :   0.9721 B( 15-C , 16-C ) :   1.3593
B( 15-C , 32-H ) :   0.9718 B( 16-C , 17-C ) :   1.3315 B( 16-C , 33-H ) :   0.9853
B( 17-C , 18-O ) :   1.1119 B( 17-C , 19-C ) :   1.3720 B( 18-O , 34-H ) :   0.9795
B( 19-C , 35-H ) :   0.9569

MP2 TOTAL ENERGY:    -1274.349380775 Eh
FINAL SINGLE POINT ENERGY     -1274.349380774675

DIPOLE MOMENT
-------------
                                X             Y             Z
Electronic contribution:      9.34594      10.25194       6.15732
Nuclear contribution   :    -10.22113     -11.98219      -6.40927
                        -----------------------------------------
Total Dipole Moment    :     -0.87519      -1.73024      -0.25195
                        -----------------------------------------
Magnitude (a.u.)       :      1.95529
Magnitude (Debye)      :      4.96996

Rotational constants in cm-1:     0.012459     0.008893     0.006438
Rotational constants in MHz :   373.514904   266.605505   192.997963

                             ****ORCA TERMINATED NORMALLY****
TOTAL RUN TIME: 0 days 2 hours 3 minutes 10 seconds 359 msec
