                         Program Version 5.0.0 -  RELEASE  -
|  1> ! ri-mp2 cc-pvtz cc-pvtz/c TightSCF NoKeepInts
|  2>
|  3> %scf
|  4>   MaxCore 4096
|  5> end
|  6> *xyz  0  1
|  7>     C       15.0569721   14.6490133   17.3559451
|  8>     C       15.4846599   15.6054355   16.2293533
|  9>     O       16.8271290   15.2579982   15.8283314
| 10>     C       17.9870944   15.6604698   16.4479247
| 11>     O       18.9514384   14.9176887   16.4494630
| 12>     C       17.9293393   16.8429224   17.3668597
| 13>     C       17.4680050   18.0564589   16.9747530
| 14>     C       16.9623959   18.4522883   15.6016242
| 15>     N       17.5562112   19.1501891   17.8389692
| 16>     C       18.2417448   19.1535585   19.0249198
| 17>     S       18.3829177   20.5212022   19.9433441
| 18>     N       18.8106808   17.9648963   19.4080969
| 19>     C       18.6200842   16.6703100   18.7240775
| 20>     C       17.8722706   15.6822662   19.6137255
| 21>     C       18.2667378   14.3320496   19.6502487
| 22>     C       17.5819063   13.4064643   20.4549424
| 23>     C       16.4916356   13.8330861   21.2318550
| 24>     C       16.0928458   15.1759690   21.1971078
| 25>     O       15.0328863   15.5884369   21.9365555
| 26>     C       16.7749633   16.0954938   20.3936647
| 27>     H       15.7044936   14.7509923   18.2305552
| 28>     H       15.1087022   13.6070439   17.0159624
| 29>     H       14.0266453   14.8563655   17.6691358
| 30>     H       14.8085973   15.4645699   15.3760706
| 31>     H       15.3842352   16.6390566   16.5693447
| 32>     H       17.1243515   17.6681709   14.8522598
| 33>     H       17.4914683   19.3414845   15.2350305
| 34>     H       15.8913255   18.6873135   15.6218566
| 35>     H       17.1669868   20.0383283   17.5636404
| 36>     H       19.2992063   17.9915769   20.2942982
| 37>     H       19.6198394   16.2524145   18.5334230
| 38>     H       19.1020749   13.9957057   19.0392106
| 39>     H       17.8954223   12.3639203   20.4696521
| 40>     H       15.9589602   13.1205288   21.8529719
| 41>     H       14.7296801   14.8300032   22.4582501
| 42>     H       16.4430930   17.1283279   20.3805766
| 43> *
| 44>
| 45>                          ****END OF INPUT****

CARTESIAN COORDINATES (ANGSTROEM)
---------------------------------
  C     15.056972   14.649013   17.355945
  C     15.484660   15.605436   16.229353
  O     16.827129   15.257998   15.828331
  C     17.987094   15.660470   16.447925
  O     18.951438   14.917689   16.449463
  C     17.929339   16.842922   17.366860
  C     17.468005   18.056459   16.974753
  C     16.962396   18.452288   15.601624
  N     17.556211   19.150189   17.838969
  C     18.241745   19.153558   19.024920
  S     18.382918   20.521202   19.943344
  N     18.810681   17.964896   19.408097
  C     18.620084   16.670310   18.724077
  C     17.872271   15.682266   19.613726
  C     18.266738   14.332050   19.650249
  C     17.581906   13.406464   20.454942
  C     16.491636   13.833086   21.231855
  C     16.092846   15.175969   21.197108
  O     15.032886   15.588437   21.936555
  C     16.774963   16.095494   20.393665
  H     15.704494   14.750992   18.230555
  H     15.108702   13.607044   17.015962
  H     14.026645   14.856366   17.669136
  H     14.808597   15.464570   15.376071
  H     15.384235   16.639057   16.569345
  H     17.124351   17.668171   14.852260
  H     17.491468   19.341484   15.235030
  H     15.891326   18.687313   15.621857
  H     17.166987   20.038328   17.563640
  H     19.299206   17.991577   20.294298
  H     19.619839   16.252415   18.533423
  H     19.102075   13.995706   19.039211
  H     17.895422   12.363920   20.469652
  H     15.958960   13.120529   21.852972
  H     14.729680   14.830003   22.458250
  H     16.443093   17.128328   20.380577

 Total Charge           Charge          ....    0
 Multiplicity           Mult            ....    1
 Number of Electrons    NEL             ....  154
 Basis Dimension        Dim             ....  828

ORBITAL ENERGIES
----------------

  NO   OCC          E(Eh)            E(eV)
   0   2.0000     -91.891134     -2500.4849
   1   2.0000     -20.599569      -560.5428
   2   2.0000     -20.598666      -560.5182
   3   2.0000     -20.549190      -559.1719
   4   2.0000     -15.629388      -425.2973
   5   2.0000     -15.611507      -424.8107
   6   2.0000     -11.399891      -310.2068
   7   2.0000     -11.387329      -309.8650
   8   2.0000     -11.335396      -308.4518
   9   2.0000     -11.315751      -307.9173
  10   2.0000     -11.313602      -307.8587
  11   2.0000     -11.306275      -307.6594
  12   2.0000     -11.269602      -306.6615
  13   2.0000     -11.267944      -306.6163
  14   2.0000     -11.262523      -306.4688
  15   2.0000     -11.256028      -306.2921
  16   2.0000     -11.245186      -305.9971
  17   2.0000     -11.240957      -305.8820
  18   2.0000     -11.237687      -305.7930
  19   2.0000     -11.225153      -305.4519
  20   2.0000      -8.896229      -242.0787
  21   2.0000      -6.577813      -178.9914
  22   2.0000      -6.575790      -178.9364
  23   2.0000      -6.575211      -178.9206
  24   2.0000      -1.446542       -39.3624
  25   2.0000      -1.418460       -38.5982
  26   2.0000      -1.358754       -36.9736
  27   2.0000      -1.342538       -36.5323
  28   2.0000      -1.241259       -33.7764
  29   2.0000      -1.160290       -31.5731
  30   2.0000      -1.125717       -30.6323
  31   2.0000      -1.048386       -28.5280
  32   2.0000      -1.036903       -28.2156
  33   2.0000      -1.018208       -27.7069
  34   2.0000      -1.005859       -27.3708
  35   2.0000      -0.990084       -26.9415
  36   2.0000      -0.928132       -25.2558
  37   2.0000      -0.889985       -24.2177
  38   2.0000      -0.855778       -23.2869
  39   2.0000      -0.842063       -22.9137
  40   2.0000      -0.835765       -22.7423
  41   2.0000      -0.832765       -22.6607
  42   2.0000      -0.750265       -20.4158
  43   2.0000      -0.741002       -20.1637
  44   2.0000      -0.730717       -19.8838
  45   2.0000      -0.696655       -18.9570
  46   2.0000      -0.688353       -18.7310
  47   2.0000      -0.681168       -18.5355
  48   2.0000      -0.676560       -18.4101
  49   2.0000      -0.661147       -17.9907
  50   2.0000      -0.655192       -17.8287
  51   2.0000      -0.646165       -17.5830
  52   2.0000      -0.639372       -17.3982
  53   2.0000      -0.619671       -16.8621
  54   2.0000      -0.609744       -16.5920
  55   2.0000      -0.606873       -16.5139
  56   2.0000      -0.602077       -16.3833
  57   2.0000      -0.587003       -15.9732
  58   2.0000      -0.577518       -15.7151
  59   2.0000      -0.567180       -15.4337
  60   2.0000      -0.563813       -15.3421
  61   2.0000      -0.551071       -14.9954
  62   2.0000      -0.545506       -14.8440
  63   2.0000      -0.533249       -14.5105
  64   2.0000      -0.520100       -14.1526
  65   2.0000      -0.513386       -13.9699
  66   2.0000      -0.502769       -13.6810
  67   2.0000      -0.500835       -13.6284
  68   2.0000      -0.483263       -13.1503
  69   2.0000      -0.470308       -12.7977
  70   2.0000      -0.455577       -12.3969
  71   2.0000      -0.448249       -12.1975
  72   2.0000      -0.359419        -9.7803
  73   2.0000      -0.351055        -9.5527
  74   2.0000      -0.330647        -8.9974
  75   2.0000      -0.323954        -8.8152
  76   2.0000      -0.319942        -8.7061
  77   0.0000       0.080027         2.1776
  78   0.0000       0.105562         2.8725
  79   0.0000       0.113914         3.0998
  80   0.0000       0.129698         3.5293
  81   0.0000       0.131996         3.5918

MULLIKEN ATOMIC CHARGES
-----------------------
   0 C :   -0.275412
   1 C :    0.022963
   2 O :   -0.327768
   3 C :    0.417886
   4 O :   -0.384433
   5 C :   -0.209060
   6 C :    0.138602
   7 C :   -0.324218
   8 N :   -0.133848
   9 C :    0.199413
  10 S :   -0.438663
  11 N :   -0.215519
  12 C :    0.069217
  13 C :   -0.003379
  14 C :   -0.187757
  15 C :   -0.139661
  16 C :   -0.266791
  17 C :    0.303218
  18 O :   -0.358357
  19 C :   -0.238863
  20 H :    0.105552
  21 H :    0.108592
  22 H :    0.093535
  23 H :    0.118477
  24 H :    0.087509
  25 H :    0.133267
  26 H :    0.137837
  27 H :    0.121356
  28 H :    0.196750
  29 H :    0.199827
  30 H :    0.165974
  31 H :    0.173377
  32 H :    0.163177
  33 H :    0.132421
  34 H :    0.241126
  35 H :    0.173652
Sum of atomic charges:   -0.0000000

LOEWDIN ATOMIC CHARGES
----------------------
   0 C :    0.110232
   1 C :   -0.021932
   2 O :    0.301415
   3 C :   -0.414199
   4 O :    0.121679
   5 C :   -0.083633
   6 C :   -0.094770
   7 C :    0.124066
   8 N :    0.402776
   9 C :   -0.458774
  10 S :   -0.035934
  11 N :    0.397906
  12 C :   -0.043924
  13 C :   -0.046077
  14 C :    0.020042
  15 C :    0.044688
  16 C :   -0.000501
  17 C :   -0.192904
  18 O :    0.395673
  19 C :    0.025989
  20 H :   -0.028353
  21 H :   -0.023483
  22 H :   -0.026405
  23 H :   -0.022823
  24 H :   -0.040585
  25 H :   -0.007615
  26 H :   -0.009711
  27 H :   -0.017865
  28 H :   -0.056905
  29 H :   -0.063077
  30 H :   -0.002275
  31 H :   -0.021806
  32 H :   -0.018538
  33 H :   -0.034716
  34 H :   -0.153244
  35 H :   -0.024419

  Mayer bond orders larger than 0.100000
B(  0-C ,  1-C ) :   0.9777 B(  0-C , 20-H ) :   0.9677 B(  0-C , 21-H ) :   0.9794
B(  0-C , 22-H ) :   0.9762 B(  1-C ,  2-O ) :   0.8973 B(  1-C , 23-H ) :   0.9820
B(  1-C , 24-H ) :   0.9651 B(  2-O ,  3-C ) :   1.1757 B(  3-C ,  4-O ) :   2.0821
B(  3-C ,  5-C ) :   0.9315 B(  5-C ,  6-C ) :   1.6920 B(  5-C , 12-C ) :   0.9521
B(  6-C ,  7-C ) :   0.9411 B(  6-C ,  8-N ) :   1.1162 B(  7-C , 25-H ) :   0.9773
B(  7-C , 26-H ) :   0.9722 B(  7-C , 27-H ) :   0.9657 B(  8-N ,  9-C ) :   1.1907
B(  8-N , 28-H ) :   0.9515 B(  9-C , 10-S ) :   1.6127 B(  9-C , 11-N ) :   1.2918
B( 11-N , 12-C ) :   0.9922 B( 11-N , 29-H ) :   0.9490 B( 12-C , 13-C ) :   0.9479
B( 12-C , 30-H ) :   0.9958 B( 13-C , 14-C ) :   1.3951 B( 13-C , 19-C ) :   1.3546
B( 14-C , 15-C ) :   1.3939 B( 14-C , 31-H ) :   0.9580 B( 15-C , 16-C ) :   1.3611
B( 15-C , 32-H ) :   0.9709 B( 16-C , 17-C ) :   1.3316 B( 16-C , 33-H ) :   0.9845
B( 17-C , 18-O ) :   1.1113 B( 17-C , 19-C ) :   1.3687 B( 18-O , 34-H ) :   0.9794
B( 19-C , 35-H ) :   0.9576

MP2 TOTAL ENERGY:    -1274.335688914 Eh
FINAL SINGLE POINT ENERGY     -1274.335688913965

DIPOLE MOMENT
-------------
                                X             Y             Z
Electronic contribution:      9.59412       7.65239       6.13613
Nuclear contribution   :    -11.14412      -8.54704      -6.63015
                        -----------------------------------------
Total Dipole Moment    :     -1.55000      -0.89465      -0.49402
                        -----------------------------------------
Magnitude (a.u.)       :      1.85660
Magnitude (Debye)      :      4.71911

Rotational constants in cm-1:     0.011741     0.009493     0.006700
Rotational constants in MHz :   351.979543   284.589413   200.847483

                             ****ORCA TERMINATED NORMALLY****
TOTAL RUN TIME: 0 days 1 hours 41 minutes 1 seconds 95 msec
