                         Program Version 4.2.0 -  RELEASE  -
|  1> ! ri-mp2 cc-pvtz cc-pvtz/c TightSCF  NoKeepInts
|  2>
|  3> %scf
|  4>   MaxCore 4096
|  5> end
|  6> *xyz  0  1
|  7>     C       15.0592694   15.5207471   17.5609641
|  8>     C       15.6333618   15.2629959   16.1534512
|  9>     O       17.0209036   14.8672448   16.2023568
| 10>     C       18.1306391   15.6328475   16.4774254
| 11>     O       19.2187142   15.0886725   16.4393809
| 12>     C       17.9431186   16.8154779   17.3697534
| 13>     C       17.4037272   17.9770111   16.9316358
| 14>     C       16.9178041   18.2906741   15.5334648
| 15>     N       17.3548778   19.0861337   17.7789063
| 16>     C       17.9604648   19.1560520   19.0061099
| 17>     S       17.9284170   20.5386446   19.9124382
| 18>     N       18.5993820   18.0220518   19.4430236
| 19>     C       18.5686399   16.7103009   18.7646746
| 20>     C       17.8790444   15.6476555   19.6188938
| 21>     C       18.3273491   14.3144544   19.5717913
| 22>     C       17.7030668   13.3183412   20.3404940
| 23>     C       16.6194257   13.6557984   21.1683277
| 24>     C       16.1681805   14.9811490   21.2201183
| 25>     O       15.1149258   15.3085642   22.0100638
| 26>     C       16.7907916   15.9711442   20.4530703
| 27>     H       15.3594068   14.7205544   18.2492699
| 28>     H       13.9632968   15.5335564   17.5238041
| 29>     H       15.3801377   16.4809216   17.9755431
| 30>     H       15.0689645   14.4299921   15.7143119
| 31>     H       15.4773439   16.1262657   15.5001853
| 32>     H       17.2018871   17.5165021   14.8103069
| 33>     H       17.3580244   19.2285943   15.1707215
| 34>     H       15.8270397   18.4033129   15.5092980
| 35>     H       16.9103818   19.9356159   17.4678798
| 36>     H       19.0288175   18.0984759   20.3564668
| 37>     H       19.6128971   16.3912437   18.6296270
| 38>     H       19.1596868   14.0463118   18.9241347
| 39>     H       18.0585866   12.2906564   20.2882352
| 40>     H       16.1331476   12.8887564   21.7618840
| 41>     H       14.8510775   14.5082056   22.4885789
| 42>     H       16.4142009   16.9870738   20.5074088
| 43> *
| 44>
| 45>                          ****END OF INPUT****

CARTESIAN COORDINATES (ANGSTROEM)
---------------------------------
  C     15.059269   15.520747   17.560964
  C     15.633362   15.262996   16.153451
  O     17.020904   14.867245   16.202357
  C     18.130639   15.632847   16.477425
  O     19.218714   15.088672   16.439381
  C     17.943119   16.815478   17.369753
  C     17.403727   17.977011   16.931636
  C     16.917804   18.290674   15.533465
  N     17.354878   19.086134   17.778906
  C     17.960465   19.156052   19.006110
  S     17.928417   20.538645   19.912438
  N     18.599382   18.022052   19.443024
  C     18.568640   16.710301   18.764675
  C     17.879044   15.647656   19.618894
  C     18.327349   14.314454   19.571791
  C     17.703067   13.318341   20.340494
  C     16.619426   13.655798   21.168328
  C     16.168180   14.981149   21.220118
  O     15.114926   15.308564   22.010064
  C     16.790792   15.971144   20.453070
  H     15.359407   14.720554   18.249270
  H     13.963297   15.533556   17.523804
  H     15.380138   16.480922   17.975543
  H     15.068964   14.429992   15.714312
  H     15.477344   16.126266   15.500185
  H     17.201887   17.516502   14.810307
  H     17.358024   19.228594   15.170722
  H     15.827040   18.403313   15.509298
  H     16.910382   19.935616   17.467880
  H     19.028817   18.098476   20.356467
  H     19.612897   16.391244   18.629627
  H     19.159687   14.046312   18.924135
  H     18.058587   12.290656   20.288235
  H     16.133148   12.888756   21.761884
  H     14.851078   14.508206   22.488579
  H     16.414201   16.987074   20.507409

 Total Charge           Charge          ....    0
 Multiplicity           Mult            ....    1
 Number of Electrons    NEL             ....  154
 Basis Dimension        Dim             ....  828

ORBITAL ENERGIES
----------------

  NO   OCC          E(Eh)            E(eV)
   0   2.0000     -91.889868     -2500.4504
   1   2.0000     -20.600344      -560.5639
   2   2.0000     -20.597051      -560.4743
   3   2.0000     -20.551410      -559.2323
   4   2.0000     -15.626831      -425.2277
   5   2.0000     -15.611221      -424.8029
   6   2.0000     -11.400170      -310.2144
   7   2.0000     -11.386467      -309.8415
   8   2.0000     -11.328549      -308.2655
   9   2.0000     -11.315154      -307.9010
  10   2.0000     -11.313503      -307.8561
  11   2.0000     -11.308592      -307.7224
  12   2.0000     -11.272432      -306.7385
  13   2.0000     -11.267101      -306.5934
  14   2.0000     -11.261531      -306.4418
  15   2.0000     -11.254131      -306.2405
  16   2.0000     -11.243377      -305.9478
  17   2.0000     -11.238851      -305.8247
  18   2.0000     -11.235895      -305.7442
  19   2.0000     -11.228722      -305.5490
  20   2.0000      -8.894981      -242.0447
  21   2.0000      -6.576574      -178.9577
  22   2.0000      -6.574543      -178.9024
  23   2.0000      -6.573970      -178.8868
  24   2.0000      -1.447811       -39.3969
  25   2.0000      -1.416883       -38.5553
  26   2.0000      -1.358504       -36.9668
  27   2.0000      -1.340522       -36.4775
  28   2.0000      -1.239974       -33.7414
  29   2.0000      -1.158588       -31.5268
  30   2.0000      -1.125197       -30.6182
  31   2.0000      -1.047862       -28.5138
  32   2.0000      -1.038768       -28.2663
  33   2.0000      -1.016838       -27.6696
  34   2.0000      -1.005581       -27.3632
  35   2.0000      -0.989885       -26.9361
  36   2.0000      -0.927777       -25.2461
  37   2.0000      -0.895735       -24.3742
  38   2.0000      -0.854746       -23.2588
  39   2.0000      -0.840375       -22.8678
  40   2.0000      -0.833958       -22.6931
  41   2.0000      -0.830161       -22.5898
  42   2.0000      -0.750230       -20.4148
  43   2.0000      -0.739686       -20.1279
  44   2.0000      -0.730273       -19.8717
  45   2.0000      -0.694948       -18.9105
  46   2.0000      -0.687394       -18.7049
  47   2.0000      -0.679911       -18.5013
  48   2.0000      -0.675177       -18.3725
  49   2.0000      -0.664017       -18.0688
  50   2.0000      -0.652122       -17.7451
  51   2.0000      -0.645612       -17.5680
  52   2.0000      -0.640204       -17.4208
  53   2.0000      -0.615775       -16.7561
  54   2.0000      -0.610722       -16.6186
  55   2.0000      -0.605663       -16.4809
  56   2.0000      -0.601701       -16.3731
  57   2.0000      -0.591026       -16.0826
  58   2.0000      -0.580535       -15.7972
  59   2.0000      -0.573226       -15.5983
  60   2.0000      -0.565367       -15.3844
  61   2.0000      -0.557402       -15.1677
  62   2.0000      -0.540459       -14.7066
  63   2.0000      -0.529405       -14.4058
  64   2.0000      -0.517582       -14.0841
  65   2.0000      -0.512603       -13.9486
  66   2.0000      -0.504396       -13.7253
  67   2.0000      -0.500985       -13.6325
  68   2.0000      -0.484018       -13.1708
  69   2.0000      -0.463437       -12.6108
  70   2.0000      -0.454547       -12.3689
  71   2.0000      -0.452088       -12.3019
  72   2.0000      -0.356868        -9.7109
  73   2.0000      -0.347851        -9.4655
  74   2.0000      -0.329550        -8.9675
  75   2.0000      -0.322385        -8.7726
  76   2.0000      -0.318243        -8.6598
  77   0.0000       0.086684         2.3588
  78   0.0000       0.105650         2.8749
  79   0.0000       0.112030         3.0485
  80   0.0000       0.129722         3.5299
  81   0.0000       0.131092         3.5672

MULLIKEN ATOMIC CHARGES
-----------------------
   0 C :   -0.316901
   1 C :    0.008666
   2 O :   -0.317797
   3 C :    0.405545
   4 O :   -0.378936
   5 C :   -0.185370
   6 C :    0.135142
   7 C :   -0.333839
   8 N :   -0.136399
   9 C :    0.205876
  10 S :   -0.441553
  11 N :   -0.228414
  12 C :    0.087068
  13 C :    0.027183
  14 C :   -0.207632
  15 C :   -0.135251
  16 C :   -0.278349
  17 C :    0.317139
  18 O :   -0.358831
  19 C :   -0.274944
  20 H :    0.125754
  21 H :    0.113264
  22 H :    0.105462
  23 H :    0.132780
  24 H :    0.089656
  25 H :    0.122879
  26 H :    0.139498
  27 H :    0.122544
  28 H :    0.196052
  29 H :    0.202739
  30 H :    0.169253
  31 H :    0.172770
  32 H :    0.163502
  33 H :    0.131853
  34 H :    0.241011
  35 H :    0.178580
Sum of atomic charges:   -0.0000000

LOEWDIN ATOMIC CHARGES
----------------------
   0 C :    0.103823
   1 C :   -0.021444
   2 O :    0.305902
   3 C :   -0.416435
   4 O :    0.127450
   5 C :   -0.076501
   6 C :   -0.104946
   7 C :    0.121727
   8 N :    0.401451
   9 C :   -0.457481
  10 S :   -0.038428
  11 N :    0.398647
  12 C :   -0.041659
  13 C :   -0.041418
  14 C :    0.021971
  15 C :    0.043725
  16 C :   -0.002181
  17 C :   -0.194118
  18 O :    0.395339
  19 C :    0.028745
  20 H :   -0.018370
  21 H :   -0.025673
  22 H :   -0.037005
  23 H :   -0.018058
  24 H :   -0.040510
  25 H :   -0.010021
  26 H :   -0.008782
  27 H :   -0.017617
  28 H :   -0.058247
  29 H :   -0.063412
  30 H :   -0.001305
  31 H :   -0.021851
  32 H :   -0.018663
  33 H :   -0.035109
  34 H :   -0.153667
  35 H :   -0.025879

  Mayer bond orders larger than 0.100000
B(  0-C ,  1-C ) :   0.9547 B(  0-C , 20-H ) :   0.9695 B(  0-C , 21-H ) :   0.9765
B(  0-C , 22-H ) :   0.9723 B(  1-C ,  2-O ) :   0.9124 B(  1-C , 23-H ) :   0.9838
B(  1-C , 24-H ) :   0.9756 B(  2-O ,  3-C ) :   1.1538 B(  3-C ,  4-O ) :   2.0805
B(  3-C ,  5-C ) :   0.9189 B(  5-C ,  6-C ) :   1.7027 B(  5-C , 12-C ) :   0.9520
B(  6-C ,  7-C ) :   0.9435 B(  6-C ,  8-N ) :   1.1014 B(  7-C , 25-H ) :   0.9820
B(  7-C , 26-H ) :   0.9710 B(  7-C , 27-H ) :   0.9660 B(  8-N ,  9-C ) :   1.1973
B(  8-N , 28-H ) :   0.9531 B(  9-C , 10-S ) :   1.6077 B(  9-C , 11-N ) :   1.2870
B( 11-N , 12-C ) :   0.9857 B( 11-N , 29-H ) :   0.9474 B( 12-C , 13-C ) :   0.9521
B( 12-C , 30-H ) :   0.9950 B( 13-C , 14-C ) :   1.3883 B( 13-C , 19-C ) :   1.3369
B( 14-C , 15-C ) :   1.4030 B( 14-C , 31-H ) :   0.9595 B( 15-C , 16-C ) :   1.3571
B( 15-C , 32-H ) :   0.9702 B( 16-C , 17-C ) :   1.3315 B( 16-C , 33-H ) :   0.9850
B( 17-C , 18-O ) :   1.1091 B( 17-C , 19-C ) :   1.3697 B( 18-O , 34-H ) :   0.9797
B( 19-C , 35-H ) :   0.9566

MP2 TOTAL ENERGY:    -1274.323654467 Eh
FINAL SINGLE POINT ENERGY     -1274.323654467409

DIPOLE MOMENT
-------------
                                X             Y             Z
Electronic contribution:      9.13231       6.12246       6.31155
Nuclear contribution   :    -10.65062      -7.19090      -7.10625
                        -----------------------------------------
Total Dipole Moment    :     -1.51832      -1.06844      -0.79469
                        -----------------------------------------
Magnitude (a.u.)       :      2.01950
Magnitude (Debye)      :      5.13317

Rotational constants in cm-1:     0.011989     0.009568     0.006851
Rotational constants in MHz :   359.432586   286.835584   205.401636

                             ****ORCA TERMINATED NORMALLY****
TOTAL RUN TIME: 0 days 1 hours 54 minutes 38 seconds 261 msec
