                         Program Version 5.0.0 -  RELEASE  -
|  1> ! ri-mp2 cc-pvtz cc-pvtz/c TightSCF NoKeepInts
|  2>
|  3> %scf
|  4>   MaxCore 4096
|  5> end
|  6> *xyz  0  1
|  7>     C       15.5566189   14.1135174   14.6049794
|  8>     C       15.0384650   14.8307792   15.8675203
|  9>     O       15.9423854   15.8985523   16.2090722
| 10>     C       17.0921412   15.6324007   16.8985291
| 11>     O       17.4950362   14.4954701   17.0843459
| 12>     C       17.6490422   16.8089288   17.6491494
| 13>     C       17.3644415   18.1109905   17.3821675
| 14>     C       16.4652292   18.6680607   16.2973605
| 15>     N       17.9962786   19.1233512   18.1123166
| 16>     C       19.0219473   18.9274069   18.9989211
| 17>     S       19.8051323   20.1932325   19.7200214
| 18>     N       19.3657786   17.6248136   19.2562812
| 19>     C       18.6148582   16.4466749   18.7836399
| 20>     C       17.8762065   15.7842566   19.9439494
| 21>     C       18.0666877   14.4181109   20.2224066
| 22>     C       17.3883397   13.8022682   21.2875417
| 23>     C       16.5107168   14.5583499   22.0829622
| 24>     C       16.3150490   15.9183538   21.8069625
| 25>     O       15.4636000   16.6497941   22.5694936
| 26>     C       16.9912698   16.5283862   20.7457928
| 27>     H       15.6927507   14.8261884   13.7823451
| 28>     H       14.8419198   13.3477338   14.2802883
| 29>     H       16.5165222   13.6180908   14.7966693
| 30>     H       14.0475857   15.2515143   15.6539851
| 31>     H       14.9353126   14.1218119   16.7007507
| 32>     H       16.7054804   18.2217840   15.3242931
| 33>     H       16.5613577   19.7546705   16.1839411
| 34>     H       15.4126637   18.4512589   16.5184176
| 35>     H       17.7579594   20.0864162   17.9373067
| 36>     H       20.1037319   17.5056009   19.9382689
| 37>     H       19.3445190   15.7268706   18.3852971
| 38>     H       18.7316782   13.8269904   19.5974098
| 39>     H       17.5400714   12.7432310   21.4880182
| 40>     H       15.9834118   14.0863209   22.9051608
| 41>     H       15.1251192   16.0668904   23.2654593
| 42>     H       16.8276924   17.5829281   20.5529756
| 43> *
| 44>
| 45>                          ****END OF INPUT****

CARTESIAN COORDINATES (ANGSTROEM)
---------------------------------
  C     15.556619   14.113517   14.604979
  C     15.038465   14.830779   15.867520
  O     15.942385   15.898552   16.209072
  C     17.092141   15.632401   16.898529
  O     17.495036   14.495470   17.084346
  C     17.649042   16.808929   17.649149
  C     17.364442   18.110990   17.382168
  C     16.465229   18.668061   16.297360
  N     17.996279   19.123351   18.112317
  C     19.021947   18.927407   18.998921
  S     19.805132   20.193233   19.720021
  N     19.365779   17.624814   19.256281
  C     18.614858   16.446675   18.783640
  C     17.876206   15.784257   19.943949
  C     18.066688   14.418111   20.222407
  C     17.388340   13.802268   21.287542
  C     16.510717   14.558350   22.082962
  C     16.315049   15.918354   21.806963
  O     15.463600   16.649794   22.569494
  C     16.991270   16.528386   20.745793
  H     15.692751   14.826188   13.782345
  H     14.841920   13.347734   14.280288
  H     16.516522   13.618091   14.796669
  H     14.047586   15.251514   15.653985
  H     14.935313   14.121812   16.700751
  H     16.705480   18.221784   15.324293
  H     16.561358   19.754670   16.183941
  H     15.412664   18.451259   16.518418
  H     17.757959   20.086416   17.937307
  H     20.103732   17.505601   19.938269
  H     19.344519   15.726871   18.385297
  H     18.731678   13.826990   19.597410
  H     17.540071   12.743231   21.488018
  H     15.983412   14.086321   22.905161
  H     15.125119   16.066890   23.265459
  H     16.827692   17.582928   20.552976

 Total Charge           Charge          ....    0
 Multiplicity           Mult            ....    1
 Number of Electrons    NEL             ....  154
 Basis Dimension        Dim             ....  828

ORBITAL ENERGIES
----------------

  NO   OCC          E(Eh)            E(eV)
   0   2.0000     -91.887905     -2500.3970
   1   2.0000     -20.602645      -560.6265
   2   2.0000     -20.591290      -560.3175
   3   2.0000     -20.546973      -559.1116
   4   2.0000     -15.628157      -425.2638
   5   2.0000     -15.606585      -424.6768
   6   2.0000     -11.397080      -310.1303
   7   2.0000     -11.382805      -309.7419
   8   2.0000     -11.335895      -308.4654
   9   2.0000     -11.307138      -307.6829
  10   2.0000     -11.305584      -307.6406
  11   2.0000     -11.301162      -307.5203
  12   2.0000     -11.260534      -306.4147
  13   2.0000     -11.258729      -306.3656
  14   2.0000     -11.253143      -306.2136
  15   2.0000     -11.247334      -306.0555
  16   2.0000     -11.236954      -305.7731
  17   2.0000     -11.233049      -305.6668
  18   2.0000     -11.230111      -305.5869
  19   2.0000     -11.225060      -305.4494
  20   2.0000      -8.892970      -241.9900
  21   2.0000      -6.574548      -178.9025
  22   2.0000      -6.572541      -178.8479
  23   2.0000      -6.571956      -178.8320
  24   2.0000      -1.453867       -39.5617
  25   2.0000      -1.411023       -38.3959
  26   2.0000      -1.357827       -36.9484
  27   2.0000      -1.339151       -36.4402
  28   2.0000      -1.236782       -33.6545
  29   2.0000      -1.151812       -31.3424
  30   2.0000      -1.119368       -30.4595
  31   2.0000      -1.041984       -28.3538
  32   2.0000      -1.034212       -28.1423
  33   2.0000      -1.009131       -27.4599
  34   2.0000      -0.996937       -27.1280
  35   2.0000      -0.982446       -26.7337
  36   2.0000      -0.921092       -25.0642
  37   2.0000      -0.892409       -24.2837
  38   2.0000      -0.847516       -23.0621
  39   2.0000      -0.835242       -22.7281
  40   2.0000      -0.827550       -22.5188
  41   2.0000      -0.817912       -22.2565
  42   2.0000      -0.753868       -20.5138
  43   2.0000      -0.734426       -19.9848
  44   2.0000      -0.724700       -19.7201
  45   2.0000      -0.690521       -18.7900
  46   2.0000      -0.685055       -18.6413
  47   2.0000      -0.679907       -18.5012
  48   2.0000      -0.671219       -18.2648
  49   2.0000      -0.659675       -17.9507
  50   2.0000      -0.646140       -17.5824
  51   2.0000      -0.641403       -17.4535
  52   2.0000      -0.630352       -17.1528
  53   2.0000      -0.611372       -16.6363
  54   2.0000      -0.599847       -16.3227
  55   2.0000      -0.599199       -16.3050
  56   2.0000      -0.594483       -16.1767
  57   2.0000      -0.585448       -15.9309
  58   2.0000      -0.572751       -15.5853
  59   2.0000      -0.566204       -15.4072
  60   2.0000      -0.560326       -15.2472
  61   2.0000      -0.545787       -14.8516
  62   2.0000      -0.535151       -14.5622
  63   2.0000      -0.524329       -14.2677
  64   2.0000      -0.516750       -14.0615
  65   2.0000      -0.510394       -13.8885
  66   2.0000      -0.500600       -13.6220
  67   2.0000      -0.495229       -13.4759
  68   2.0000      -0.479967       -13.0606
  69   2.0000      -0.462171       -12.5763
  70   2.0000      -0.456865       -12.4319
  71   2.0000      -0.454932       -12.3793
  72   2.0000      -0.353993        -9.6326
  73   2.0000      -0.343663        -9.3515
  74   2.0000      -0.327031        -8.8990
  75   2.0000      -0.315408        -8.5827
  76   2.0000      -0.313499        -8.5307
  77   0.0000       0.076150         2.0721
  78   0.0000       0.113458         3.0873
  79   0.0000       0.121613         3.3092
  80   0.0000       0.136238         3.7072
  81   0.0000       0.141003         3.8369

MULLIKEN ATOMIC CHARGES
-----------------------
   0 C :   -0.294006
   1 C :    0.038581
   2 O :   -0.346847
   3 C :    0.438114
   4 O :   -0.433553
   5 C :   -0.157367
   6 C :    0.143820
   7 C :   -0.284956
   8 N :   -0.121422
   9 C :    0.201353
  10 S :   -0.439538
  11 N :   -0.196515
  12 C :    0.034201
  13 C :    0.056708
  14 C :   -0.161309
  15 C :   -0.134174
  16 C :   -0.278963
  17 C :    0.311531
  18 O :   -0.359032
  19 C :   -0.271213
  20 H :    0.090226
  21 H :    0.094718
  22 H :    0.119171
  23 H :    0.104756
  24 H :    0.102225
  25 H :    0.125262
  26 H :    0.101682
  27 H :    0.128543
  28 H :    0.196746
  29 H :    0.193410
  30 H :    0.153399
  31 H :    0.153211
  32 H :    0.158932
  33 H :    0.127922
  34 H :    0.239961
  35 H :    0.164422
Sum of atomic charges:    0.0000000

LOEWDIN ATOMIC CHARGES
----------------------
   0 C :    0.104392
   1 C :   -0.015568
   2 O :    0.303792
   3 C :   -0.412548
   4 O :    0.105679
   5 C :   -0.090406
   6 C :   -0.066190
   7 C :    0.124993
   8 N :    0.404746
   9 C :   -0.458897
  10 S :   -0.036169
  11 N :    0.397802
  12 C :   -0.046264
  13 C :   -0.038821
  14 C :    0.021764
  15 C :    0.040666
  16 C :   -0.002328
  17 C :   -0.192471
  18 O :    0.393051
  19 C :    0.028764
  20 H :   -0.030810
  21 H :   -0.027552
  22 H :   -0.024662
  23 H :   -0.025968
  24 H :   -0.026507
  25 H :   -0.009001
  26 H :   -0.020976
  27 H :   -0.009341
  28 H :   -0.059146
  29 H :   -0.063696
  30 H :   -0.005110
  31 H :   -0.025451
  32 H :   -0.021320
  33 H :   -0.036444
  34 H :   -0.154961
  35 H :   -0.025041

  Mayer bond orders larger than 0.100000
B(  0-C ,  1-C ) :   0.9667 B(  0-C , 20-H ) :   0.9769 B(  0-C , 21-H ) :   0.9768
B(  0-C , 22-H ) :   0.9735 B(  1-C ,  2-O ) :   0.9011 B(  1-C , 23-H ) :   0.9848
B(  1-C , 24-H ) :   0.9760 B(  2-O ,  3-C ) :   1.1480 B(  3-C ,  4-O ) :   1.9556
B(  3-C ,  5-C ) :   1.0643 B(  5-C ,  6-C ) :   1.6480 B(  5-C , 12-C ) :   0.9652
B(  6-C ,  7-C ) :   0.9550 B(  6-C ,  8-N ) :   1.1475 B(  7-C , 25-H ) :   0.9664
B(  7-C , 26-H ) :   0.9912 B(  7-C , 27-H ) :   0.9631 B(  8-N ,  9-C ) :   1.1787
B(  8-N , 28-H ) :   0.9489 B(  9-C , 10-S ) :   1.6106 B(  9-C , 11-N ) :   1.3038
B( 11-N , 12-C ) :   0.9935 B( 11-N , 29-H ) :   0.9519 B( 12-C , 13-C ) :   0.9471
B( 12-C , 30-H ) :   0.9998 B( 13-C , 14-C ) :   1.3751 B( 13-C , 19-C ) :   1.3701
B( 14-C , 15-C ) :   1.3945 B( 14-C , 31-H ) :   0.9652 B( 15-C , 16-C ) :   1.3626
B( 15-C , 32-H ) :   0.9715 B( 16-C , 17-C ) :   1.3314 B( 16-C , 33-H ) :   0.9860
B( 17-C , 18-O ) :   1.1080 B( 17-C , 19-C ) :   1.3791 B( 18-O , 34-H ) :   0.9807
B( 19-C , 35-H ) :   0.9584

MP2 TOTAL ENERGY:    -1274.345760880 Eh
FINAL SINGLE POINT ENERGY     -1274.345760880076

DIPOLE MOMENT
-------------
                                X             Y             Z
Electronic contribution:     10.13750       9.56674      11.65351
Nuclear contribution   :    -11.82441     -10.68976     -12.51231
                        -----------------------------------------
Total Dipole Moment    :     -1.68691      -1.12302      -0.85881
                        -----------------------------------------
Magnitude (a.u.)       :      2.20099
Magnitude (Debye)      :      5.59448

Rotational constants in cm-1:     0.010574     0.008849     0.005786
Rotational constants in MHz :   317.014151   265.281157   173.454681

                             ****ORCA TERMINATED NORMALLY****
TOTAL RUN TIME: 0 days 1 hours 27 minutes 41 seconds 365 msec
