                         Program Version 4.2.0 -  RELEASE  -
|  1> ! ri-mp2 cc-pvtz cc-pvtz/c TightSCF  NoKeepInts
|  2>
|  3> %scf
|  4>   MaxCore 4096
|  5> end
|  6> *xyz  0  1
|  7>     C       14.9668536   14.1685538   15.8991693
|  8>     C       16.3609658   13.9145988   16.5112161
|  9>     O       17.2182126   15.0791069   16.6439050
| 10>     C       16.8472851   16.3956063   16.5286435
| 11>     O       16.0039690   16.7980785   15.7471649
| 12>     C       17.5962906   17.2798685   17.4895746
| 13>     C       17.4575015   18.6306466   17.4976302
| 14>     C       16.5789085   19.4699096   16.5943884
| 15>     N       18.1967047   19.4073179   18.3948083
| 16>     C       19.1514464   18.9253718   19.2493335
| 17>     S       20.0374527   19.9246429   20.2252907
| 18>     N       19.3386287   17.5671263   19.2544869
| 19>     C       18.5260141   16.5923534   18.5047075
| 20>     C       17.7565455   15.7079255   19.4818811
| 21>     C       18.1283067   14.3631651   19.6686546
| 22>     C       17.4182369   13.5424415   20.5610402
| 23>     C       16.3297245   14.0713649   21.2754030
| 24>     C       15.9613562   15.4119971   21.0971846
| 25>     O       14.9125497   15.9262140   21.7874060
| 26>     C       16.6696136   16.2261445   20.2080545
| 27>     H       14.3902246   14.8778751   16.5061282
| 28>     H       14.3981875   13.2322766   15.8509593
| 29>     H       15.0508197   14.5606791   14.8777193
| 30>     H       16.2137441   13.4840629   17.5104073
| 31>     H       16.8823278   13.1585010   15.9104270
| 32>     H       15.5232365   19.1995274   16.7250720
| 33>     H       16.8322274   19.2971734   15.5406075
| 34>     H       16.6710347   20.5457349   16.7837160
| 35>     H       18.0736942   20.4072058   18.4043516
| 36>     H       20.0222567   17.2385145   19.9241265
| 37>     H       19.2217709   15.9581910   17.9374102
| 38>     H       18.9678346   13.9513659   19.1148620
| 39>     H       17.7129465   12.5034627   20.6986028
| 40>     H       15.7788747   13.4421756   21.9668686
| 41>     H       14.5781928   15.2299513   22.3724667
| 42>     H       16.3730609   17.2628688   20.0903322
| 43> *
| 44>
| 45>                          ****END OF INPUT****

CARTESIAN COORDINATES (ANGSTROEM)
---------------------------------
  C     14.966854   14.168554   15.899169
  C     16.360966   13.914599   16.511216
  O     17.218213   15.079107   16.643905
  C     16.847285   16.395606   16.528644
  O     16.003969   16.798078   15.747165
  C     17.596291   17.279868   17.489575
  C     17.457501   18.630647   17.497630
  C     16.578909   19.469910   16.594388
  N     18.196705   19.407318   18.394808
  C     19.151446   18.925372   19.249333
  S     20.037453   19.924643   20.225291
  N     19.338629   17.567126   19.254487
  C     18.526014   16.592353   18.504707
  C     17.756546   15.707925   19.481881
  C     18.128307   14.363165   19.668655
  C     17.418237   13.542441   20.561040
  C     16.329725   14.071365   21.275403
  C     15.961356   15.411997   21.097185
  O     14.912550   15.926214   21.787406
  C     16.669614   16.226145   20.208054
  H     14.390225   14.877875   16.506128
  H     14.398187   13.232277   15.850959
  H     15.050820   14.560679   14.877719
  H     16.213744   13.484063   17.510407
  H     16.882328   13.158501   15.910427
  H     15.523236   19.199527   16.725072
  H     16.832227   19.297173   15.540608
  H     16.671035   20.545735   16.783716
  H     18.073694   20.407206   18.404352
  H     20.022257   17.238515   19.924126
  H     19.221771   15.958191   17.937410
  H     18.967835   13.951366   19.114862
  H     17.712947   12.503463   20.698603
  H     15.778875   13.442176   21.966869
  H     14.578193   15.229951   22.372467
  H     16.373061   17.262869   20.090332

 Total Charge           Charge          ....    0
 Multiplicity           Mult            ....    1
 Number of Electrons    NEL             ....  154
 Basis Dimension        Dim             ....  828

ORBITAL ENERGIES
----------------

  NO   OCC          E(Eh)            E(eV)
   0   2.0000     -91.888287     -2500.4074
   1   2.0000     -20.598275      -560.5076
   2   2.0000     -20.593871      -560.3877
   3   2.0000     -20.540822      -558.9442
   4   2.0000     -15.628289      -425.2674
   5   2.0000     -15.607686      -424.7067
   6   2.0000     -11.396634      -310.1182
   7   2.0000     -11.383366      -309.7571
   8   2.0000     -11.335075      -308.4431
   9   2.0000     -11.315689      -307.9155
  10   2.0000     -11.308220      -307.7123
  11   2.0000     -11.301003      -307.5159
  12   2.0000     -11.261195      -306.4327
  13   2.0000     -11.257653      -306.3363
  14   2.0000     -11.257172      -306.3232
  15   2.0000     -11.251440      -306.1673
  16   2.0000     -11.244743      -305.9850
  17   2.0000     -11.239801      -305.8505
  18   2.0000     -11.239659      -305.8467
  19   2.0000     -11.222054      -305.3676
  20   2.0000      -8.893361      -242.0006
  21   2.0000      -6.574938      -178.9132
  22   2.0000      -6.572931      -178.8585
  23   2.0000      -6.572347      -178.8426
  24   2.0000      -1.441331       -39.2206
  25   2.0000      -1.417917       -38.5835
  26   2.0000      -1.352892       -36.8141
  27   2.0000      -1.339434       -36.4478
  28   2.0000      -1.238076       -33.6898
  29   2.0000      -1.158855       -31.5341
  30   2.0000      -1.119491       -30.4629
  31   2.0000      -1.043141       -28.3853
  32   2.0000      -1.034771       -28.1576
  33   2.0000      -1.016786       -27.6682
  34   2.0000      -0.995255       -27.0823
  35   2.0000      -0.983424       -26.7603
  36   2.0000      -0.922496       -25.1024
  37   2.0000      -0.896374       -24.3916
  38   2.0000      -0.847130       -23.0516
  39   2.0000      -0.838937       -22.8286
  40   2.0000      -0.835467       -22.7342
  41   2.0000      -0.818745       -22.2792
  42   2.0000      -0.744242       -20.2519
  43   2.0000      -0.731405       -19.9025
  44   2.0000      -0.717512       -19.5245
  45   2.0000      -0.696922       -18.9642
  46   2.0000      -0.687627       -18.7113
  47   2.0000      -0.674324       -18.3493
  48   2.0000      -0.668937       -18.2027
  49   2.0000      -0.662741       -18.0341
  50   2.0000      -0.651112       -17.7177
  51   2.0000      -0.644393       -17.5348
  52   2.0000      -0.635975       -17.3058
  53   2.0000      -0.608608       -16.5611
  54   2.0000      -0.605695       -16.4818
  55   2.0000      -0.601225       -16.3602
  56   2.0000      -0.598923       -16.2975
  57   2.0000      -0.578555       -15.7433
  58   2.0000      -0.571599       -15.5540
  59   2.0000      -0.569991       -15.5102
  60   2.0000      -0.560453       -15.2507
  61   2.0000      -0.539121       -14.6702
  62   2.0000      -0.534704       -14.5500
  63   2.0000      -0.526232       -14.3195
  64   2.0000      -0.523174       -14.2363
  65   2.0000      -0.513121       -13.9627
  66   2.0000      -0.501387       -13.6434
  67   2.0000      -0.496597       -13.5131
  68   2.0000      -0.486450       -13.2370
  69   2.0000      -0.462937       -12.5972
  70   2.0000      -0.450785       -12.2665
  71   2.0000      -0.440371       -11.9831
  72   2.0000      -0.353282        -9.6133
  73   2.0000      -0.350749        -9.5444
  74   2.0000      -0.328037        -8.9263
  75   2.0000      -0.323131        -8.7929
  76   2.0000      -0.315847        -8.5946
  77   0.0000       0.076389         2.0787
  78   0.0000       0.104404         2.8410
  79   0.0000       0.124671         3.3925
  80   0.0000       0.132291         3.5998
  81   0.0000       0.137940         3.7535

MULLIKEN ATOMIC CHARGES
-----------------------
   0 C :   -0.289220
   1 C :    0.046449
   2 O :   -0.373957
   3 C :    0.456200
   4 O :   -0.422232
   5 C :   -0.225922
   6 C :    0.157797
   7 C :   -0.270165
   8 N :   -0.122420
   9 C :    0.213848
  10 S :   -0.441958
  11 N :   -0.207816
  12 C :    0.071902
  13 C :    0.066822
  14 C :   -0.207081
  15 C :   -0.125829
  16 C :   -0.281271
  17 C :    0.316665
  18 O :   -0.355950
  19 C :   -0.269163
  20 H :    0.103288
  21 H :    0.096814
  22 H :    0.115910
  23 H :    0.097627
  24 H :    0.097417
  25 H :    0.130445
  26 H :    0.131643
  27 H :    0.094959
  28 H :    0.197135
  29 H :    0.195353
  30 H :    0.148984
  31 H :    0.152331
  32 H :    0.162785
  33 H :    0.131265
  34 H :    0.240988
  35 H :    0.166356
Sum of atomic charges:   -0.0000000

LOEWDIN ATOMIC CHARGES
----------------------
   0 C :    0.102967
   1 C :   -0.010112
   2 O :    0.292806
   3 C :   -0.413359
   4 O :    0.109487
   5 C :   -0.095297
   6 C :   -0.059297
   7 C :    0.130898
   8 N :    0.406502
   9 C :   -0.456068
  10 S :   -0.036787
  11 N :    0.396234
  12 C :   -0.052545
  13 C :   -0.037531
  14 C :    0.014442
  15 C :    0.038647
  16 C :   -0.002780
  17 C :   -0.189497
  18 O :    0.395616
  19 C :    0.030768
  20 H :   -0.026648
  21 H :   -0.027508
  22 H :   -0.024403
  23 H :   -0.029336
  24 H :   -0.027163
  25 H :   -0.005173
  26 H :   -0.003925
  27 H :   -0.023640
  28 H :   -0.057717
  29 H :   -0.064839
  30 H :   -0.011216
  31 H :   -0.029801
  32 H :   -0.021089
  33 H :   -0.035403
  34 H :   -0.153604
  35 H :   -0.023630

  Mayer bond orders larger than 0.100000
B(  0-C ,  1-C ) :   0.9815 B(  0-C , 20-H ) :   0.9748 B(  0-C , 21-H ) :   0.9729
B(  0-C , 22-H ) :   0.9732 B(  1-C ,  2-O ) :   0.8954 B(  1-C , 23-H ) :   0.9706
B(  1-C , 24-H ) :   0.9802 B(  2-O ,  3-C ) :   1.1331 B(  3-C ,  4-O ) :   1.9933
B(  3-C ,  5-C ) :   1.0569 B(  5-C ,  6-C ) :   1.6522 B(  5-C , 12-C ) :   0.9737
B(  6-C ,  7-C ) :   0.9661 B(  6-C ,  8-N ) :   1.1604 B(  7-C , 25-H ) :   0.9603
B(  7-C , 26-H ) :   0.9602 B(  7-C , 27-H ) :   0.9909 B(  8-N ,  9-C ) :   1.1850
B(  8-N , 28-H ) :   0.9478 B(  9-C , 10-S ) :   1.6040 B(  9-C , 11-N ) :   1.3074
B( 11-N , 12-C ) :   0.9816 B( 11-N , 29-H ) :   0.9514 B( 12-C , 13-C ) :   0.9360
B( 12-C , 30-H ) :   1.0019 B( 13-C , 14-C ) :   1.3481 B( 13-C , 19-C ) :   1.3826
B( 14-C , 15-C ) :   1.3881 B( 14-C , 31-H ) :   0.9731 B( 15-C , 16-C ) :   1.3617
B( 15-C , 32-H ) :   0.9702 B( 16-C , 17-C ) :   1.3307 B( 16-C , 33-H ) :   0.9848
B( 17-C , 18-O ) :   1.1110 B( 17-C , 19-C ) :   1.3691 B( 18-O , 34-H ) :   0.9795
B( 19-C , 35-H ) :   0.9582

MP2 TOTAL ENERGY:    -1274.337805053 Eh
FINAL SINGLE POINT ENERGY     -1274.337805052894

DIPOLE MOMENT
-------------
                                X             Y             Z
Electronic contribution:     10.09720      10.08203       8.14448
Nuclear contribution   :    -11.09539     -11.87824      -8.38749
                        -----------------------------------------
Total Dipole Moment    :     -0.99819      -1.79621      -0.24301
                        -----------------------------------------
Magnitude (a.u.)       :      2.06925
Magnitude (Debye)      :      5.25963

Rotational constants in cm-1:     0.012024     0.008655     0.006206
Rotational constants in MHz :   360.462409   259.474375   186.066131

                             ****ORCA TERMINATED NORMALLY****
TOTAL RUN TIME: 0 days 1 hours 40 minutes 49 seconds 816 msec
