                         Program Version 4.2.0 -  RELEASE  -
|  1> ! ri-mp2 cc-pvtz cc-pvtz/c TightSCF  NoKeepInts
|  2>
|  3> %scf
|  4>   MaxCore 4096
|  5> end
|  6> *xyz  0  1
|  7>     C       15.2582107   14.8896483   17.2073066
|  8>     C       16.3417679   14.1689419   16.3784245
|  9>     O       17.6429449   14.7970715   16.4598420
| 10>     C       17.7806642   16.1045844   16.0940413
| 11>     O       17.4037474   16.4499018   14.9881321
| 12>     C       17.8102246   17.0400681   17.2726570
| 13>     C       17.3649642   18.3212772   17.2070134
| 14>     C       16.6343163   18.9865197   16.0603573
| 15>     N       17.6326913   19.2051039   18.2575221
| 16>     C       18.5435328   18.9657627   19.2533394
| 17>     S       18.9804352   20.1317719   20.3416566
| 18>     N       19.0768938   17.7016040   19.2979793
| 19>     C       18.5619325   16.5550669   18.5248864
| 20>     C       17.7347770   15.6555128   19.4398159
| 21>     C       18.0409185   14.2857155   19.5520503
| 22>     C       17.3030570   13.4540369   20.4110798
| 23>     C       16.2542845   13.9965399   21.1727751
| 24>     C       15.9511207   15.3610898   21.0721553
| 25>     O       14.9370856   15.8872981   21.8037319
| 26>     C       16.6846189   16.1858197   20.2133381
| 27>     H       15.4385078   14.7677601   18.2780653
| 28>     H       14.2757490   14.4517171   16.9939750
| 29>     H       15.2003699   15.9582373   16.9702317
| 30>     H       16.4199307   13.1281831   16.7178765
| 31>     H       16.0239060   14.1482126   15.3270812
| 32>     H       17.3027283   19.1089326   15.1983977
| 33>     H       16.2393557   19.9751775   16.3216710
| 34>     H       15.7869707   18.3717876   15.7317382
| 35>     H       17.2599668   20.1407192   18.2274227
| 36>     H       19.7253204   17.5431495   20.0586336
| 37>     H       19.4311151   15.9761326   18.1822002
| 38>     H       18.8508729   13.8617533   18.9640548
| 39>     H       17.5468594   12.3956683   20.4864084
| 40>     H       15.6825699   13.3584456   21.8386777
| 41>     H       14.5909997   15.1834936   22.3728038
| 42>     H       16.4335899   17.2392950   20.1566579
| 43> *
| 44>
| 45>                          ****END OF INPUT****

CARTESIAN COORDINATES (ANGSTROEM)
---------------------------------
  C     15.258211   14.889648   17.207307
  C     16.341768   14.168942   16.378425
  O     17.642945   14.797071   16.459842
  C     17.780664   16.104584   16.094041
  O     17.403747   16.449902   14.988132
  C     17.810225   17.040068   17.272657
  C     17.364964   18.321277   17.207013
  C     16.634316   18.986520   16.060357
  N     17.632691   19.205104   18.257522
  C     18.543533   18.965763   19.253339
  S     18.980435   20.131772   20.341657
  N     19.076894   17.701604   19.297979
  C     18.561932   16.555067   18.524886
  C     17.734777   15.655513   19.439816
  C     18.040918   14.285715   19.552050
  C     17.303057   13.454037   20.411080
  C     16.254285   13.996540   21.172775
  C     15.951121   15.361090   21.072155
  O     14.937086   15.887298   21.803732
  C     16.684619   16.185820   20.213338
  H     15.438508   14.767760   18.278065
  H     14.275749   14.451717   16.993975
  H     15.200370   15.958237   16.970232
  H     16.419931   13.128183   16.717876
  H     16.023906   14.148213   15.327081
  H     17.302728   19.108933   15.198398
  H     16.239356   19.975178   16.321671
  H     15.786971   18.371788   15.731738
  H     17.259967   20.140719   18.227423
  H     19.725320   17.543149   20.058634
  H     19.431115   15.976133   18.182200
  H     18.850873   13.861753   18.964055
  H     17.546859   12.395668   20.486408
  H     15.682570   13.358446   21.838678
  H     14.591000   15.183494   22.372804
  H     16.433590   17.239295   20.156658

 Total Charge           Charge          ....    0
 Multiplicity           Mult            ....    1
 Number of Electrons    NEL             ....  154
 Basis Dimension        Dim             ....  828

ORBITAL ENERGIES
----------------

  NO   OCC          E(Eh)            E(eV)
   0   2.0000     -91.891082     -2500.4835
   1   2.0000     -20.598317      -560.5087
   2   2.0000     -20.581276      -560.0450
   3   2.0000     -20.552259      -559.2554
   4   2.0000     -15.630776      -425.3350
   5   2.0000     -15.609424      -424.7540
   6   2.0000     -11.394562      -310.0618
   7   2.0000     -11.385427      -309.8132
   8   2.0000     -11.336314      -308.4768
   9   2.0000     -11.315689      -307.9155
  10   2.0000     -11.312516      -307.8292
  11   2.0000     -11.299352      -307.4710
  12   2.0000     -11.261544      -306.4422
  13   2.0000     -11.260779      -306.4214
  14   2.0000     -11.257329      -306.3275
  15   2.0000     -11.254404      -306.2479
  16   2.0000     -11.245673      -306.0103
  17   2.0000     -11.240153      -305.8601
  18   2.0000     -11.239602      -305.8451
  19   2.0000     -11.223598      -305.4096
  20   2.0000      -8.896093      -242.0750
  21   2.0000      -6.577657      -178.9871
  22   2.0000      -6.575665      -178.9329
  23   2.0000      -6.575066      -178.9166
  24   2.0000      -1.448985       -39.4289
  25   2.0000      -1.418113       -38.5888
  26   2.0000      -1.351278       -36.7701
  27   2.0000      -1.341906       -36.5151
  28   2.0000      -1.239989       -33.7418
  29   2.0000      -1.158903       -31.5353
  30   2.0000      -1.120891       -30.5010
  31   2.0000      -1.044146       -28.4126
  32   2.0000      -1.031819       -28.0772
  33   2.0000      -1.017255       -27.6809
  34   2.0000      -0.999394       -27.1949
  35   2.0000      -0.986562       -26.8457
  36   2.0000      -0.924638       -25.1607
  37   2.0000      -0.894764       -24.3478
  38   2.0000      -0.848099       -23.0779
  39   2.0000      -0.841665       -22.9029
  40   2.0000      -0.836046       -22.7500
  41   2.0000      -0.816997       -22.2316
  42   2.0000      -0.750458       -20.4210
  43   2.0000      -0.733922       -19.9710
  44   2.0000      -0.723480       -19.6869
  45   2.0000      -0.697619       -18.9832
  46   2.0000      -0.691140       -18.8069
  47   2.0000      -0.676707       -18.4141
  48   2.0000      -0.667990       -18.1769
  49   2.0000      -0.667013       -18.1503
  50   2.0000      -0.650366       -17.6973
  51   2.0000      -0.645712       -17.5707
  52   2.0000      -0.637515       -17.3477
  53   2.0000      -0.614145       -16.7117
  54   2.0000      -0.608213       -16.5503
  55   2.0000      -0.600843       -16.3498
  56   2.0000      -0.600458       -16.3393
  57   2.0000      -0.579326       -15.7643
  58   2.0000      -0.572563       -15.5802
  59   2.0000      -0.564594       -15.3634
  60   2.0000      -0.553859       -15.0713
  61   2.0000      -0.547313       -14.8932
  62   2.0000      -0.540796       -14.7158
  63   2.0000      -0.527343       -14.3497
  64   2.0000      -0.525161       -14.2903
  65   2.0000      -0.515271       -14.0212
  66   2.0000      -0.503232       -13.6936
  67   2.0000      -0.501821       -13.6552
  68   2.0000      -0.475023       -12.9260
  69   2.0000      -0.465004       -12.6534
  70   2.0000      -0.452766       -12.3204
  71   2.0000      -0.444912       -12.1067
  72   2.0000      -0.357755        -9.7350
  73   2.0000      -0.349979        -9.5234
  74   2.0000      -0.330132        -8.9833
  75   2.0000      -0.324355        -8.8261
  76   2.0000      -0.317725        -8.6457
  77   0.0000       0.066479         1.8090
  78   0.0000       0.104909         2.8547
  79   0.0000       0.119845         3.2611
  80   0.0000       0.129412         3.5215
  81   0.0000       0.132574         3.6075

MULLIKEN ATOMIC CHARGES
-----------------------
   0 C :   -0.324471
   1 C :    0.038347
   2 O :   -0.388689
   3 C :    0.472465
   4 O :   -0.401300
   5 C :   -0.225378
   6 C :    0.160864
   7 C :   -0.274812
   8 N :   -0.122467
   9 C :    0.189728
  10 S :   -0.431593
  11 N :   -0.191518
  12 C :    0.026077
  13 C :    0.045261
  14 C :   -0.183131
  15 C :   -0.137940
  16 C :   -0.271748
  17 C :    0.297589
  18 O :   -0.358615
  19 C :   -0.240722
  20 H :    0.117057
  21 H :    0.117264
  22 H :    0.099162
  23 H :    0.113493
  24 H :    0.118175
  25 H :    0.138490
  26 H :    0.094637
  27 H :    0.125216
  28 H :    0.198182
  29 H :    0.190283
  30 H :    0.149367
  31 H :    0.156839
  32 H :    0.162335
  33 H :    0.132343
  34 H :    0.240705
  35 H :    0.168506
Sum of atomic charges:   -0.0000000

LOEWDIN ATOMIC CHARGES
----------------------
   0 C :    0.108298
   1 C :   -0.013193
   2 O :    0.278241
   3 C :   -0.419845
   4 O :    0.125565
   5 C :   -0.096283
   6 C :   -0.061940
   7 C :    0.129692
   8 N :    0.406886
   9 C :   -0.459632
  10 S :   -0.031183
  11 N :    0.396481
  12 C :   -0.052176
  13 C :   -0.039610
  14 C :    0.016723
  15 C :    0.038565
  16 C :   -0.002712
  17 C :   -0.192929
  18 O :    0.396608
  19 C :    0.032387
  20 H :   -0.028466
  21 H :   -0.023672
  22 H :   -0.030942
  23 H :   -0.022283
  24 H :   -0.028776
  25 H :   -0.003220
  26 H :   -0.022790
  27 H :   -0.008861
  28 H :   -0.057956
  29 H :   -0.065166
  30 H :   -0.006113
  31 H :   -0.028312
  32 H :   -0.020571
  33 H :   -0.035019
  34 H :   -0.153559
  35 H :   -0.024236

  Mayer bond orders larger than 0.100000
B(  0-C ,  1-C ) :   0.9583 B(  0-C , 20-H ) :   0.9703 B(  0-C , 21-H ) :   0.9784
B(  0-C , 22-H ) :   0.9723 B(  1-C ,  2-O ) :   0.8801 B(  1-C , 23-H ) :   0.9819
B(  1-C , 24-H ) :   0.9848 B(  2-O ,  3-C ) :   1.1016 B(  3-C ,  4-O ) :   2.0153
B(  3-C ,  5-C ) :   1.0493 B(  5-C ,  6-C ) :   1.6596 B(  5-C , 12-C ) :   0.9696
B(  6-C ,  7-C ) :   0.9695 B(  6-C ,  8-N ) :   1.1355 B(  7-C , 25-H ) :   0.9569
B(  7-C , 26-H ) :   0.9875 B(  7-C , 27-H ) :   0.9663 B(  8-N ,  9-C ) :   1.1782
B(  8-N , 28-H ) :   0.9489 B(  9-C , 10-S ) :   1.6227 B(  9-C , 11-N ) :   1.2957
B( 11-N , 12-C ) :   0.9890 B( 11-N , 29-H ) :   0.9538 B( 12-C , 13-C ) :   0.9361
B( 12-C , 30-H ) :   1.0066 B( 13-C , 14-C ) :   1.3707 B( 13-C , 19-C ) :   1.3685
B( 14-C , 15-C ) :   1.3880 B( 14-C , 31-H ) :   0.9665 B( 15-C , 16-C ) :   1.3614
B( 15-C , 32-H ) :   0.9709 B( 16-C , 17-C ) :   1.3311 B( 16-C , 33-H ) :   0.9845
B( 17-C , 18-O ) :   1.1136 B( 17-C , 19-C ) :   1.3793 B( 18-O , 34-H ) :   0.9797
B( 19-C , 35-H ) :   0.9566

MP2 TOTAL ENERGY:    -1274.322465148 Eh
FINAL SINGLE POINT ENERGY     -1274.322465147554

DIPOLE MOMENT
-------------
                                X             Y             Z
Electronic contribution:      9.87215       8.42680       5.85274
Nuclear contribution   :    -10.97089     -10.07006      -5.90095
                        -----------------------------------------
Total Dipole Moment    :     -1.09874      -1.64327      -0.04821
                        -----------------------------------------
Magnitude (a.u.)       :      1.97734
Magnitude (Debye)      :      5.02600

Rotational constants in cm-1:     0.011700     0.010017     0.006592
Rotational constants in MHz :   350.745718   300.314297   197.625058

                             ****ORCA TERMINATED NORMALLY****
TOTAL RUN TIME: 0 days 1 hours 52 minutes 44 seconds 73 msec
