                         Program Version 4.2.0 -  RELEASE  -
|  1> ! ri-mp2 cc-pvtz cc-pvtz/c TightSCF  NoKeepInts
|  2>
|  3> %scf
|  4>   MaxCore 4096
|  5> end
|  6> *xyz  0  1
|  7>     C       14.7265425   14.5363697   16.7438140
|  8>     C       15.6767304   14.7922277   15.5594112
|  9>     O       16.4385274   15.9761592   15.8568390
| 10>     C       17.6121233   15.8644635   16.5462932
| 11>     O       18.2173571   14.8085392   16.6365719
| 12>     C       17.8739882   17.0151383   17.4728529
| 13>     C       17.3925218   18.2730577   17.2988805
| 14>     C       16.5468594   18.7939463   16.1551291
| 15>     N       17.7333185   19.2789218   18.2089669
| 16>     C       18.6424002   19.1421179   19.2247607
| 17>     S       19.0725340   20.4170205   20.1866927
| 18>     N       19.1778784   17.8915764   19.4026102
| 19>     C       18.7422369   16.6765384   18.6887989
| 20>     C       18.0002699   15.7364493   19.6352611
| 21>     C       18.4276617   14.4059393   19.7993744
| 22>     C       17.7386500   13.5328457   20.6577799
| 23>     C       16.6108660   13.9928530   21.3585884
| 24>     C       16.1794578   15.3161516   21.1949341
| 25>     O       15.0859441   15.7610885   21.8639025
| 26>     C       16.8673743   16.1828029   20.3400066
| 27>     H       15.2965549   14.3283671   17.6589505
| 28>     H       14.0824566   13.6724310   16.5403065
| 29>     H       14.0864237   15.4085482   16.9253382
| 30>     H       16.3207381   13.9215108   15.3742159
| 31>     H       15.0764437   14.9665210   14.6573404
| 32>     H       16.9463833   18.4593783   15.1896696
| 33>     H       16.5084458   19.8895605   16.1234193
| 34>     H       15.5161528   18.4271145   16.2387307
| 35>     H       17.3505358   20.2039507   18.0958399
| 36>     H       19.8213153   17.8102303   20.1793121
| 37>     H       19.6432798   16.1616603   18.3252090
| 38>     H       19.2877067   14.0421457   19.2424673
| 39>     H       18.0759899   12.5041249   20.7707765
| 40>     H       16.0743965   13.3211452   22.0203504
| 41>     H       14.7793549   15.0377289   22.4309723
| 42>     H       16.5175804   17.2033755   20.2296331
| 43> *
| 44>
| 45>                          ****END OF INPUT****

CARTESIAN COORDINATES (ANGSTROEM)
---------------------------------
  C     14.726542   14.536370   16.743814
  C     15.676730   14.792228   15.559411
  O     16.438527   15.976159   15.856839
  C     17.612123   15.864463   16.546293
  O     18.217357   14.808539   16.636572
  C     17.873988   17.015138   17.472853
  C     17.392522   18.273058   17.298880
  C     16.546859   18.793946   16.155129
  N     17.733318   19.278922   18.208967
  C     18.642400   19.142118   19.224761
  S     19.072534   20.417020   20.186693
  N     19.177878   17.891576   19.402610
  C     18.742237   16.676538   18.688799
  C     18.000270   15.736449   19.635261
  C     18.427662   14.405939   19.799374
  C     17.738650   13.532846   20.657780
  C     16.610866   13.992853   21.358588
  C     16.179458   15.316152   21.194934
  O     15.085944   15.761088   21.863902
  C     16.867374   16.182803   20.340007
  H     15.296555   14.328367   17.658950
  H     14.082457   13.672431   16.540306
  H     14.086424   15.408548   16.925338
  H     16.320738   13.921511   15.374216
  H     15.076444   14.966521   14.657340
  H     16.946383   18.459378   15.189670
  H     16.508446   19.889561   16.123419
  H     15.516153   18.427114   16.238731
  H     17.350536   20.203951   18.095840
  H     19.821315   17.810230   20.179312
  H     19.643280   16.161660   18.325209
  H     19.287707   14.042146   19.242467
  H     18.075990   12.504125   20.770777
  H     16.074396   13.321145   22.020350
  H     14.779355   15.037729   22.430972
  H     16.517580   17.203375   20.229633

 Total Charge           Charge          ....    0
 Multiplicity           Mult            ....    1
 Number of Electrons    NEL             ....  154
 Basis Dimension        Dim             ....  828

ORBITAL ENERGIES
----------------

  NO   OCC          E(Eh)            E(eV)
   0   2.0000     -91.888043     -2500.4008
   1   2.0000     -20.600033      -560.5554
   2   2.0000     -20.593236      -560.3704
   3   2.0000     -20.547764      -559.1331
   4   2.0000     -15.627931      -425.2576
   5   2.0000     -15.607155      -424.6923
   6   2.0000     -11.396077      -310.1030
   7   2.0000     -11.383230      -309.7534
   8   2.0000     -11.334647      -308.4314
   9   2.0000     -11.309269      -307.7408
  10   2.0000     -11.306600      -307.6682
  11   2.0000     -11.297815      -307.4292
  12   2.0000     -11.259916      -306.3979
  13   2.0000     -11.258881      -306.3697
  14   2.0000     -11.254918      -306.2619
  15   2.0000     -11.249486      -306.1141
  16   2.0000     -11.239153      -305.8329
  17   2.0000     -11.235026      -305.7206
  18   2.0000     -11.232258      -305.6453
  19   2.0000     -11.227211      -305.5079
  20   2.0000      -8.893111      -241.9939
  21   2.0000      -6.574690      -178.9064
  22   2.0000      -6.572681      -178.8518
  23   2.0000      -6.572097      -178.8359
  24   2.0000      -1.453709       -39.5574
  25   2.0000      -1.413001       -38.4497
  26   2.0000      -1.357419       -36.9373
  27   2.0000      -1.339031       -36.4369
  28   2.0000      -1.237021       -33.6610
  29   2.0000      -1.153816       -31.3969
  30   2.0000      -1.120217       -30.4826
  31   2.0000      -1.043069       -28.3833
  32   2.0000      -1.034256       -28.1435
  33   2.0000      -1.011042       -27.5118
  34   2.0000      -0.998057       -27.1585
  35   2.0000      -0.983559       -26.7640
  36   2.0000      -0.921985       -25.0885
  37   2.0000      -0.892273       -24.2800
  38   2.0000      -0.847295       -23.0561
  39   2.0000      -0.835859       -22.7449
  40   2.0000      -0.829540       -22.5729
  41   2.0000      -0.814796       -22.1717
  42   2.0000      -0.756210       -20.5775
  43   2.0000      -0.736428       -20.0392
  44   2.0000      -0.725982       -19.7550
  45   2.0000      -0.691974       -18.8296
  46   2.0000      -0.685465       -18.6525
  47   2.0000      -0.679123       -18.4799
  48   2.0000      -0.672417       -18.2974
  49   2.0000      -0.658858       -17.9284
  50   2.0000      -0.650170       -17.6920
  51   2.0000      -0.644825       -17.5466
  52   2.0000      -0.633297       -17.2329
  53   2.0000      -0.606296       -16.4982
  54   2.0000      -0.601120       -16.3573
  55   2.0000      -0.599583       -16.3155
  56   2.0000      -0.596644       -16.2355
  57   2.0000      -0.580782       -15.8039
  58   2.0000      -0.574903       -15.6439
  59   2.0000      -0.562544       -15.3076
  60   2.0000      -0.557053       -15.1582
  61   2.0000      -0.553158       -15.0522
  62   2.0000      -0.535659       -14.5760
  63   2.0000      -0.529791       -14.4163
  64   2.0000      -0.518534       -14.1100
  65   2.0000      -0.509918       -13.8756
  66   2.0000      -0.497665       -13.5422
  67   2.0000      -0.494939       -13.4680
  68   2.0000      -0.482146       -13.1198
  69   2.0000      -0.463727       -12.6187
  70   2.0000      -0.459769       -12.5109
  71   2.0000      -0.451552       -12.2874
  72   2.0000      -0.353871        -9.6293
  73   2.0000      -0.345549        -9.4029
  74   2.0000      -0.327268        -8.9054
  75   2.0000      -0.316568        -8.6143
  76   2.0000      -0.314835        -8.5671
  77   0.0000       0.075926         2.0660
  78   0.0000       0.110578         3.0090
  79   0.0000       0.119597         3.2544
  80   0.0000       0.134309         3.6547
  81   0.0000       0.142765         3.8848

MULLIKEN ATOMIC CHARGES
-----------------------
   0 C :   -0.283822
   1 C :    0.021605
   2 O :   -0.354193
   3 C :    0.434631
   4 O :   -0.421315
   5 C :   -0.165051
   6 C :    0.140019
   7 C :   -0.284706
   8 N :   -0.123933
   9 C :    0.204205
  10 S :   -0.440130
  11 N :   -0.199823
  12 C :    0.048313
  13 C :    0.046273
  14 C :   -0.159098
  15 C :   -0.134364
  16 C :   -0.280827
  17 C :    0.312804
  18 O :   -0.359247
  19 C :   -0.274182
  20 H :    0.116835
  21 H :    0.095499
  22 H :    0.091281
  23 H :    0.117143
  24 H :    0.103841
  25 H :    0.125388
  26 H :    0.101962
  27 H :    0.127055
  28 H :    0.196922
  29 H :    0.194097
  30 H :    0.153845
  31 H :    0.154326
  32 H :    0.159747
  33 H :    0.129297
  34 H :    0.240283
  35 H :    0.165318
Sum of atomic charges:   -0.0000000

LOEWDIN ATOMIC CHARGES
----------------------
   0 C :    0.105320
   1 C :   -0.017435
   2 O :    0.304742
   3 C :   -0.414179
   4 O :    0.107384
   5 C :   -0.091311
   6 C :   -0.069386
   7 C :    0.125456
   8 N :    0.404421
   9 C :   -0.457890
  10 S :   -0.036560
  11 N :    0.397603
  12 C :   -0.045860
  13 C :   -0.039989
  14 C :    0.021740
  15 C :    0.040693
  16 C :   -0.002591
  17 C :   -0.193197
  18 O :    0.393452
  19 C :    0.028939
  20 H :   -0.022321
  21 H :   -0.026345
  22 H :   -0.029107
  23 H :   -0.027534
  24 H :   -0.027612
  25 H :   -0.008326
  26 H :   -0.020553
  27 H :   -0.010213
  28 H :   -0.059024
  29 H :   -0.063848
  30 H :   -0.005032
  31 H :   -0.025080
  32 H :   -0.020920
  33 H :   -0.036093
  34 H :   -0.154667
  35 H :   -0.024676

  Mayer bond orders larger than 0.100000
B(  0-C ,  1-C ) :   0.9657 B(  0-C , 20-H ) :   0.9729 B(  0-C , 21-H ) :   0.9761
B(  0-C , 22-H ) :   0.9785 B(  1-C ,  2-O ) :   0.8897 B(  1-C , 23-H ) :   0.9750
B(  1-C , 24-H ) :   0.9843 B(  2-O ,  3-C ) :   1.1426 B(  3-C ,  4-O ) :   1.9948
B(  3-C ,  5-C ) :   1.0351 B(  5-C ,  6-C ) :   1.6560 B(  5-C , 12-C ) :   0.9656
B(  6-C ,  7-C ) :   0.9543 B(  6-C ,  8-N ) :   1.1432 B(  7-C , 25-H ) :   0.9680
B(  7-C , 26-H ) :   0.9899 B(  7-C , 27-H ) :   0.9630 B(  8-N ,  9-C ) :   1.1818
B(  8-N , 28-H ) :   0.9492 B(  9-C , 10-S ) :   1.6098 B(  9-C , 11-N ) :   1.3025
B( 11-N , 12-C ) :   0.9930 B( 11-N , 29-H ) :   0.9518 B( 12-C , 13-C ) :   0.9437
B( 12-C , 30-H ) :   0.9993 B( 13-C , 14-C ) :   1.3767 B( 13-C , 19-C ) :   1.3708
B( 14-C , 15-C ) :   1.3945 B( 14-C , 31-H ) :   0.9644 B( 15-C , 16-C ) :   1.3626
B( 15-C , 32-H ) :   0.9714 B( 16-C , 17-C ) :   1.3308 B( 16-C , 33-H ) :   0.9855
B( 17-C , 18-O ) :   1.1085 B( 17-C , 19-C ) :   1.3772 B( 18-O , 34-H ) :   0.9804
B( 19-C , 35-H ) :   0.9585

MP2 TOTAL ENERGY:    -1274.344479510 Eh
FINAL SINGLE POINT ENERGY     -1274.344479509738

DIPOLE MOMENT
-------------
                                X             Y             Z
Electronic contribution:     10.85611       9.36333       7.72453
Nuclear contribution   :    -12.28305     -10.66344      -8.69510
                        -----------------------------------------
Total Dipole Moment    :     -1.42694      -1.30011      -0.97057
                        -----------------------------------------
Magnitude (a.u.)       :      2.16066
Magnitude (Debye)      :      5.49196

Rotational constants in cm-1:     0.011350     0.009211     0.006393
Rotational constants in MHz :   340.256494   276.143124   191.651876

                             ****ORCA TERMINATED NORMALLY****
TOTAL RUN TIME: 0 days 1 hours 37 minutes 26 seconds 166 msec
