                         Program Version 5.0.0 -  RELEASE  -
|  1> ! ri-mp2 cc-pvtz cc-pvtz/c TightSCF NoKeepInts
|  2>
|  3> %scf
|  4>   MaxCore 4096
|  5> end
|  6> *xyz  0  1
|  7>     C       15.9556053   12.9614967   16.3413247
|  8>     C       15.6401839   14.4023971   15.9060996
|  9>     O       16.4776838   15.2742664   16.6812476
| 10>     C       16.1925048   16.6101842   16.7238300
| 11>     O       15.2573130   17.0944615   16.1085874
| 12>     C       17.2166202   17.3965115   17.4946845
| 13>     C       17.1989376   18.7521440   17.5582875
| 14>     C       16.2015872   19.6874011   16.9087069
| 15>     N       18.1975186   19.4343195   18.2598651
| 16>     C       19.2910887   18.8466902   18.8376280
| 17>     S       20.4755624   19.7362949   19.5735066
| 18>     N       19.3558679   17.4781924   18.7741824
| 19>     C       18.2954005   16.5999273   18.2467671
| 20>     C       17.7000975   15.7687452   19.3796963
| 21>     C       17.8575086   14.3700994   19.3979132
| 22>     C       17.3075710   13.6019717   20.4379145
| 23>     C       16.5970150   14.2374852   21.4704668
| 24>     C       16.4418231   15.6304833   21.4576646
| 25>     O       15.7567585   16.2469876   22.4534995
| 26>     C       16.9898613   16.3921981   20.4210171
| 27>     H       17.0075839   12.7197215   16.1461448
| 28>     H       15.3303225   12.2479259   15.7911191
| 29>     H       15.7626699   12.8323423   17.4138961
| 30>     H       15.8310072   14.5373016   14.8332155
| 31>     H       14.5798457   14.6125115   16.1036610
| 32>     H       16.2026666   19.5565007   15.8191142
| 33>     H       16.4065944   20.7442932   17.1154473
| 34>     H       15.1852138   19.4725055   17.2629299
| 35>     H       18.1671502   20.4397880   18.3159924
| 36>     H       20.1540789   17.0711606   19.2443345
| 37>     H       18.7685797   15.9173184   17.5270041
| 38>     H       18.4002151   13.8757212   18.5967537
| 39>     H       17.4317789   12.5205689   20.4410427
| 40>     H       16.1702971   13.6487596   22.2757649
| 41>     H       15.4782145   15.5638075   23.0815217
| 42>     H       16.8642726   17.4695163   20.4331690
| 43> *
| 44>
| 45>                          ****END OF INPUT****

CARTESIAN COORDINATES (ANGSTROEM)
---------------------------------
  C     15.955605   12.961497   16.341325
  C     15.640184   14.402397   15.906100
  O     16.477684   15.274266   16.681248
  C     16.192505   16.610184   16.723830
  O     15.257313   17.094462   16.108587
  C     17.216620   17.396511   17.494685
  C     17.198938   18.752144   17.558287
  C     16.201587   19.687401   16.908707
  N     18.197519   19.434319   18.259865
  C     19.291089   18.846690   18.837628
  S     20.475562   19.736295   19.573507
  N     19.355868   17.478192   18.774182
  C     18.295400   16.599927   18.246767
  C     17.700097   15.768745   19.379696
  C     17.857509   14.370099   19.397913
  C     17.307571   13.601972   20.437915
  C     16.597015   14.237485   21.470467
  C     16.441823   15.630483   21.457665
  O     15.756759   16.246988   22.453499
  C     16.989861   16.392198   20.421017
  H     17.007584   12.719722   16.146145
  H     15.330322   12.247926   15.791119
  H     15.762670   12.832342   17.413896
  H     15.831007   14.537302   14.833215
  H     14.579846   14.612512   16.103661
  H     16.202667   19.556501   15.819114
  H     16.406594   20.744293   17.115447
  H     15.185214   19.472506   17.262930
  H     18.167150   20.439788   18.315992
  H     20.154079   17.071161   19.244335
  H     18.768580   15.917318   17.527004
  H     18.400215   13.875721   18.596754
  H     17.431779   12.520569   20.441043
  H     16.170297   13.648760   22.275765
  H     15.478214   15.563807   23.081522
  H     16.864273   17.469516   20.433169

 Total Charge           Charge          ....    0
 Multiplicity           Mult            ....    1
 Number of Electrons    NEL             ....  154
 Basis Dimension        Dim             ....  828

ORBITAL ENERGIES
----------------

  NO   OCC          E(Eh)            E(eV)
   0   2.0000     -91.888557     -2500.4148
   1   2.0000     -20.603323      -560.6449
   2   2.0000     -20.595459      -560.4309
   3   2.0000     -20.541659      -558.9670
   4   2.0000     -15.628648      -425.2771
   5   2.0000     -15.607943      -424.7137
   6   2.0000     -11.394334      -310.0556
   7   2.0000     -11.383671      -309.7654
   8   2.0000     -11.335580      -308.4568
   9   2.0000     -11.312513      -307.8291
  10   2.0000     -11.308422      -307.7178
  11   2.0000     -11.296743      -307.4000
  12   2.0000     -11.258752      -306.3662
  13   2.0000     -11.258473      -306.3586
  14   2.0000     -11.253949      -306.2355
  15   2.0000     -11.251628      -306.1724
  16   2.0000     -11.242262      -305.9175
  17   2.0000     -11.237723      -305.7940
  18   2.0000     -11.237214      -305.7801
  19   2.0000     -11.231379      -305.6213
  20   2.0000      -8.893622      -242.0077
  21   2.0000      -6.575197      -178.9202
  22   2.0000      -6.573192      -178.8656
  23   2.0000      -6.572606      -178.8497
  24   2.0000      -1.453239       -39.5446
  25   2.0000      -1.415136       -38.5078
  26   2.0000      -1.355031       -36.8723
  27   2.0000      -1.339639       -36.4534
  28   2.0000      -1.238099       -33.6904
  29   2.0000      -1.156782       -31.4776
  30   2.0000      -1.120088       -30.4791
  31   2.0000      -1.043590       -28.3975
  32   2.0000      -1.040004       -28.2999
  33   2.0000      -1.014137       -27.5961
  34   2.0000      -0.995406       -27.0864
  35   2.0000      -0.984158       -26.7803
  36   2.0000      -0.921963       -25.0879
  37   2.0000      -0.889200       -24.1964
  38   2.0000      -0.846272       -23.0282
  39   2.0000      -0.836584       -22.7646
  40   2.0000      -0.833033       -22.6680
  41   2.0000      -0.817236       -22.2381
  42   2.0000      -0.765843       -20.8396
  43   2.0000      -0.731209       -19.8972
  44   2.0000      -0.720485       -19.6054
  45   2.0000      -0.695186       -18.9170
  46   2.0000      -0.687612       -18.7109
  47   2.0000      -0.679329       -18.4855
  48   2.0000      -0.676381       -18.4053
  49   2.0000      -0.666005       -18.1229
  50   2.0000      -0.645748       -17.5717
  51   2.0000      -0.644843       -17.5471
  52   2.0000      -0.635454       -17.2916
  53   2.0000      -0.605703       -16.4820
  54   2.0000      -0.599795       -16.3212
  55   2.0000      -0.598027       -16.2731
  56   2.0000      -0.587916       -15.9980
  57   2.0000      -0.578472       -15.7410
  58   2.0000      -0.571088       -15.5401
  59   2.0000      -0.570277       -15.5180
  60   2.0000      -0.562266       -15.3000
  61   2.0000      -0.552455       -15.0331
  62   2.0000      -0.539084       -14.6692
  63   2.0000      -0.524108       -14.2617
  64   2.0000      -0.520981       -14.1766
  65   2.0000      -0.512976       -13.9588
  66   2.0000      -0.504946       -13.7403
  67   2.0000      -0.498765       -13.5721
  68   2.0000      -0.485004       -13.1976
  69   2.0000      -0.463591       -12.6150
  70   2.0000      -0.459963       -12.5162
  71   2.0000      -0.448310       -12.1991
  72   2.0000      -0.353940        -9.6312
  73   2.0000      -0.348685        -9.4882
  74   2.0000      -0.327874        -8.9219
  75   2.0000      -0.320089        -8.7101
  76   2.0000      -0.315590        -8.5877
  77   0.0000       0.076810         2.0901
  78   0.0000       0.106731         2.9043
  79   0.0000       0.124826         3.3967
  80   0.0000       0.132984         3.6187
  81   0.0000       0.136919         3.7258

MULLIKEN ATOMIC CHARGES
-----------------------
   0 C :   -0.287657
   1 C :    0.047030
   2 O :   -0.338565
   3 C :    0.457326
   4 O :   -0.433954
   5 C :   -0.214218
   6 C :    0.150257
   7 C :   -0.274303
   8 N :   -0.120284
   9 C :    0.210268
  10 S :   -0.440212
  11 N :   -0.202921
  12 C :    0.045445
  13 C :    0.063859
  14 C :   -0.180024
  15 C :   -0.133294
  16 C :   -0.279516
  17 C :    0.315756
  18 O :   -0.356918
  19 C :   -0.267624
  20 H :    0.093132
  21 H :    0.105686
  22 H :    0.104358
  23 H :    0.091363
  24 H :    0.097108
  25 H :    0.131317
  26 H :    0.094814
  27 H :    0.131690
  28 H :    0.197219
  29 H :    0.194443
  30 H :    0.149369
  31 H :    0.152469
  32 H :    0.161444
  33 H :    0.129767
  34 H :    0.240474
  35 H :    0.164895
Sum of atomic charges:   -0.0000000

LOEWDIN ATOMIC CHARGES
----------------------
   0 C :    0.105892
   1 C :   -0.016877
   2 O :    0.310541
   3 C :   -0.412676
   4 O :    0.095200
   5 C :   -0.094481
   6 C :   -0.059255
   7 C :    0.131519
   8 N :    0.406436
   9 C :   -0.456756
  10 S :   -0.035808
  11 N :    0.396611
  12 C :   -0.053003
  13 C :   -0.039690
  14 C :    0.016244
  15 C :    0.038790
  16 C :   -0.001191
  17 C :   -0.189685
  18 O :    0.394967
  19 C :    0.031914
  20 H :   -0.030147
  21 H :   -0.024098
  22 H :   -0.025508
  23 H :   -0.030013
  24 H :   -0.027049
  25 H :   -0.003987
  26 H :   -0.023485
  27 H :   -0.004492
  28 H :   -0.057623
  29 H :   -0.064496
  30 H :   -0.012061
  31 H :   -0.030562
  32 H :   -0.021839
  33 H :   -0.035598
  34 H :   -0.154110
  35 H :   -0.023625

  Mayer bond orders larger than 0.100000
B(  0-C ,  1-C ) :   0.9718 B(  0-C , 20-H ) :   0.9779 B(  0-C , 21-H ) :   0.9798
B(  0-C , 22-H ) :   0.9730 B(  1-C ,  2-O ) :   0.9063 B(  1-C , 23-H ) :   0.9798
B(  1-C , 24-H ) :   0.9762 B(  2-O ,  3-C ) :   1.1819 B(  3-C ,  4-O ) :   1.9649
B(  3-C ,  5-C ) :   1.0624 B(  5-C ,  6-C ) :   1.6574 B(  5-C , 12-C ) :   0.9717
B(  6-C ,  7-C ) :   0.9675 B(  6-C ,  8-N ) :   1.1642 B(  7-C , 25-H ) :   0.9595
B(  7-C , 26-H ) :   0.9902 B(  7-C , 27-H ) :   0.9613 B(  8-N ,  9-C ) :   1.1831
B(  8-N , 28-H ) :   0.9479 B(  9-C , 10-S ) :   1.6076 B(  9-C , 11-N ) :   1.3045
B( 11-N , 12-C ) :   0.9897 B( 11-N , 29-H ) :   0.9514 B( 12-C , 13-C ) :   0.9367
B( 12-C , 30-H ) :   1.0035 B( 13-C , 14-C ) :   1.3585 B( 13-C , 19-C ) :   1.3812
B( 14-C , 15-C ) :   1.3906 B( 14-C , 31-H ) :   0.9699 B( 15-C , 16-C ) :   1.3640
B( 15-C , 32-H ) :   0.9701 B( 16-C , 17-C ) :   1.3309 B( 16-C , 33-H ) :   0.9851
B( 17-C , 18-O ) :   1.1093 B( 17-C , 19-C ) :   1.3739 B( 18-O , 34-H ) :   0.9801
B( 19-C , 35-H ) :   0.9582

MP2 TOTAL ENERGY:    -1274.352184092 Eh
FINAL SINGLE POINT ENERGY     -1274.352184092040

DIPOLE MOMENT
-------------
                                X             Y             Z
Electronic contribution:      8.76561      11.82081       7.21649
Nuclear contribution   :     -9.85983     -13.51150      -7.55803
                        -----------------------------------------
Total Dipole Moment    :     -1.09421      -1.69069      -0.34154
                        -----------------------------------------
Magnitude (a.u.)       :      2.04264
Magnitude (Debye)      :      5.19198

Rotational constants in cm-1:     0.011495     0.008532     0.006122
Rotational constants in MHz :   344.602486   255.780596   183.536014

                             ****ORCA TERMINATED NORMALLY****
TOTAL RUN TIME: 0 days 1 hours 50 minutes 20 seconds 958 msec
