                         Program Version 5.0.0 -  RELEASE  -
|  1> ! ri-mp2 cc-pvtz cc-pvtz/c TightSCF NoKeepInts
|  2>
|  3> %scf
|  4>   MaxCore 4096
|  5> end
|  6> *xyz  0  1
|  7>     C       14.5625283   14.8137805   14.7726565
|  8>     C       15.4777028   14.4873479   15.9646820
|  9>     O       16.3876537   15.5887197   16.1210836
| 10>     C       17.4900361   15.4276859   16.9089137
| 11>     O       17.9129979   14.3233668   17.2102958
| 12>     C       17.9088268   16.6714469   17.6395322
| 13>     C       17.5954449   17.9384429   17.2606650
| 14>     C       16.7969939   18.3804582   16.0511689
| 15>     N       18.0945909   19.0239197   17.9883351
| 16>     C       19.0221043   18.9344411   18.9925072
| 17>     S       19.6593619   20.2797984   19.7132981
| 18>     N       19.3953367   17.6690814   19.3681713
| 19>     C       18.7593852   16.4266691   18.8912894
| 20>     C       17.9286525   15.7919086   20.0037374
| 21>     C       18.1563241   14.4582036   20.3904364
| 22>     C       17.3931425   13.8677838   21.4116631
| 23>     C       16.3922628   14.6168015   22.0533868
| 24>     C       16.1595276   15.9442377   21.6689225
| 25>     O       15.1895641   16.6682560   22.2823977
| 26>     C       16.9204165   16.5289649   20.6517622
| 27>     H       13.9956606   15.7340125   14.9604522
| 28>     H       13.8484072   13.9989033   14.6022579
| 29>     H       15.1529380   14.9496356   13.8579396
| 30>     H       14.8889637   14.3422647   16.8802054
| 31>     H       16.0246987   13.5590476   15.7488656
| 32>     H       17.1535045   17.8781458   15.1432143
| 33>     H       16.8671338   19.4596334   15.8687872
| 34>     H       15.7352120   18.1346722   16.1778557
| 35>     H       17.8329076   19.9611222   17.7272990
| 36>     H       20.0568746   17.6294004   20.1328401
| 37>     H       19.5621973   15.7262187   18.6191396
| 38>     H       18.9182459   13.8712066   19.8833351
| 39>     H       17.5755482   12.8332781   21.6968570
| 40>     H       15.7993997   14.1641739   22.8411338
| 41>     H       14.8065143   16.1101092   22.9755797
| 42>     H       16.7259401   17.5588613   20.3733332
| 43> *
| 44>
| 45>                          ****END OF INPUT****

CARTESIAN COORDINATES (ANGSTROEM)
---------------------------------
  C     14.562528   14.813780   14.772657
  C     15.477703   14.487348   15.964682
  O     16.387654   15.588720   16.121084
  C     17.490036   15.427686   16.908914
  O     17.912998   14.323367   17.210296
  C     17.908827   16.671447   17.639532
  C     17.595445   17.938443   17.260665
  C     16.796994   18.380458   16.051169
  N     18.094591   19.023920   17.988335
  C     19.022104   18.934441   18.992507
  S     19.659362   20.279798   19.713298
  N     19.395337   17.669081   19.368171
  C     18.759385   16.426669   18.891289
  C     17.928652   15.791909   20.003737
  C     18.156324   14.458204   20.390436
  C     17.393142   13.867784   21.411663
  C     16.392263   14.616801   22.053387
  C     16.159528   15.944238   21.668923
  O     15.189564   16.668256   22.282398
  C     16.920417   16.528965   20.651762
  H     13.995661   15.734013   14.960452
  H     13.848407   13.998903   14.602258
  H     15.152938   14.949636   13.857940
  H     14.888964   14.342265   16.880205
  H     16.024699   13.559048   15.748866
  H     17.153505   17.878146   15.143214
  H     16.867134   19.459633   15.868787
  H     15.735212   18.134672   16.177856
  H     17.832908   19.961122   17.727299
  H     20.056875   17.629400   20.132840
  H     19.562197   15.726219   18.619140
  H     18.918246   13.871207   19.883335
  H     17.575548   12.833278   21.696857
  H     15.799400   14.164174   22.841134
  H     14.806514   16.110109   22.975580
  H     16.725940   17.558861   20.373333

 Total Charge           Charge          ....    0
 Multiplicity           Mult            ....    1
 Number of Electrons    NEL             ....  154
 Basis Dimension        Dim             ....  828

ORBITAL ENERGIES
----------------

  NO   OCC          E(Eh)            E(eV)
   0   2.0000     -91.888016     -2500.4000
   1   2.0000     -20.601099      -560.5844
   2   2.0000     -20.591780      -560.3308
   3   2.0000     -20.547078      -559.1144
   4   2.0000     -15.628310      -425.2679
   5   2.0000     -15.606698      -424.6798
   6   2.0000     -11.395235      -310.0801
   7   2.0000     -11.382974      -309.7465
   8   2.0000     -11.335830      -308.4636
   9   2.0000     -11.307579      -307.6949
  10   2.0000     -11.305748      -307.6450
  11   2.0000     -11.298659      -307.4521
  12   2.0000     -11.260367      -306.4102
  13   2.0000     -11.259097      -306.3756
  14   2.0000     -11.253483      -306.2229
  15   2.0000     -11.247673      -306.0647
  16   2.0000     -11.237345      -305.7837
  17   2.0000     -11.234402      -305.7036
  18   2.0000     -11.233465      -305.6781
  19   2.0000     -11.230436      -305.5957
  20   2.0000      -8.893082      -241.9931
  21   2.0000      -6.574660      -178.9056
  22   2.0000      -6.572653      -178.8510
  23   2.0000      -6.572067      -178.8350
  24   2.0000      -1.454804       -39.5872
  25   2.0000      -1.411516       -38.4093
  26   2.0000      -1.357347       -36.9353
  27   2.0000      -1.339236       -36.4425
  28   2.0000      -1.236892       -33.6575
  29   2.0000      -1.152152       -31.3516
  30   2.0000      -1.119598       -30.4658
  31   2.0000      -1.044555       -28.4238
  32   2.0000      -1.036890       -28.2152
  33   2.0000      -1.009523       -27.4705
  34   2.0000      -0.997609       -27.1463
  35   2.0000      -0.983259       -26.7558
  36   2.0000      -0.921063       -25.0634
  37   2.0000      -0.887531       -24.1509
  38   2.0000      -0.846971       -23.0473
  39   2.0000      -0.835030       -22.7223
  40   2.0000      -0.827878       -22.5277
  41   2.0000      -0.818768       -22.2798
  42   2.0000      -0.761332       -20.7169
  43   2.0000      -0.735902       -20.0249
  44   2.0000      -0.724930       -19.7263
  45   2.0000      -0.690381       -18.7862
  46   2.0000      -0.683917       -18.6103
  47   2.0000      -0.680977       -18.5303
  48   2.0000      -0.675831       -18.3903
  49   2.0000      -0.655790       -17.8450
  50   2.0000      -0.651258       -17.7216
  51   2.0000      -0.643059       -17.4985
  52   2.0000      -0.634299       -17.2602
  53   2.0000      -0.605074       -16.4649
  54   2.0000      -0.600758       -16.3474
  55   2.0000      -0.599874       -16.3234
  56   2.0000      -0.595134       -16.1944
  57   2.0000      -0.578475       -15.7411
  58   2.0000      -0.573290       -15.6000
  59   2.0000      -0.563100       -15.3227
  60   2.0000      -0.561852       -15.2888
  61   2.0000      -0.547041       -14.8858
  62   2.0000      -0.542788       -14.7700
  63   2.0000      -0.524670       -14.2770
  64   2.0000      -0.517170       -14.0729
  65   2.0000      -0.509376       -13.8608
  66   2.0000      -0.502881       -13.6841
  67   2.0000      -0.495442       -13.4817
  68   2.0000      -0.481319       -13.0974
  69   2.0000      -0.463201       -12.6044
  70   2.0000      -0.461837       -12.5672
  71   2.0000      -0.452873       -12.3233
  72   2.0000      -0.354074        -9.6348
  73   2.0000      -0.344014        -9.3611
  74   2.0000      -0.327154        -8.9023
  75   2.0000      -0.315565        -8.5870
  76   2.0000      -0.313880        -8.5411
  77   0.0000       0.075356         2.0505
  78   0.0000       0.112386         3.0582
  79   0.0000       0.120375         3.2756
  80   0.0000       0.135656         3.6914
  81   0.0000       0.138528         3.7695

MULLIKEN ATOMIC CHARGES
-----------------------
   0 C :   -0.270397
   1 C :    0.038927
   2 O :   -0.344191
   3 C :    0.443487
   4 O :   -0.421618
   5 C :   -0.177591
   6 C :    0.142589
   7 C :   -0.288011
   8 N :   -0.123039
   9 C :    0.201811
  10 S :   -0.439457
  11 N :   -0.197496
  12 C :    0.037874
  13 C :    0.055561
  14 C :   -0.160271
  15 C :   -0.133887
  16 C :   -0.279329
  17 C :    0.311083
  18 O :   -0.359151
  19 C :   -0.272710
  20 H :    0.091263
  21 H :    0.097645
  22 H :    0.097704
  23 H :    0.092500
  24 H :    0.109753
  25 H :    0.126286
  26 H :    0.103891
  27 H :    0.127074
  28 H :    0.196862
  29 H :    0.193660
  30 H :    0.153761
  31 H :    0.153357
  32 H :    0.159108
  33 H :    0.128104
  34 H :    0.240073
  35 H :    0.164775
Sum of atomic charges:   -0.0000000

LOEWDIN ATOMIC CHARGES
----------------------
   0 C :    0.106688
   1 C :   -0.015820
   2 O :    0.303951
   3 C :   -0.413878
   4 O :    0.107607
   5 C :   -0.091546
   6 C :   -0.067155
   7 C :    0.125098
   8 N :    0.404692
   9 C :   -0.458695
  10 S :   -0.036129
  11 N :    0.397720
  12 C :   -0.046241
  13 C :   -0.038907
  14 C :    0.022175
  15 C :    0.040973
  16 C :   -0.002440
  17 C :   -0.192820
  18 O :    0.392935
  19 C :    0.028278
  20 H :   -0.029988
  21 H :   -0.023500
  22 H :   -0.026093
  23 H :   -0.029477
  24 H :   -0.027199
  25 H :   -0.008523
  26 H :   -0.020744
  27 H :   -0.010355
  28 H :   -0.059107
  29 H :   -0.063740
  30 H :   -0.004888
  31 H :   -0.025274
  32 H :   -0.021195
  33 H :   -0.036413
  34 H :   -0.154909
  35 H :   -0.025086

  Mayer bond orders larger than 0.100000
B(  0-C ,  1-C ) :   0.9720 B(  0-C , 20-H ) :   0.9790 B(  0-C , 21-H ) :   0.9778
B(  0-C , 22-H ) :   0.9772 B(  1-C ,  2-O ) :   0.8993 B(  1-C , 23-H ) :   0.9749
B(  1-C , 24-H ) :   0.9775 B(  2-O ,  3-C ) :   1.1487 B(  3-C ,  4-O ) :   1.9959
B(  3-C ,  5-C ) :   1.0459 B(  5-C ,  6-C ) :   1.6502 B(  5-C , 12-C ) :   0.9662
B(  6-C ,  7-C ) :   0.9539 B(  6-C ,  8-N ) :   1.1437 B(  7-C , 25-H ) :   0.9667
B(  7-C , 26-H ) :   0.9918 B(  7-C , 27-H ) :   0.9629 B(  8-N ,  9-C ) :   1.1795
B(  8-N , 28-H ) :   0.9490 B(  9-C , 10-S ) :   1.6106 B(  9-C , 11-N ) :   1.3037
B( 11-N , 12-C ) :   0.9915 B( 11-N , 29-H ) :   0.9520 B( 12-C , 13-C ) :   0.9474
B( 12-C , 30-H ) :   0.9995 B( 13-C , 14-C ) :   1.3765 B( 13-C , 19-C ) :   1.3692
B( 14-C , 15-C ) :   1.3948 B( 14-C , 31-H ) :   0.9648 B( 15-C , 16-C ) :   1.3627
B( 15-C , 32-H ) :   0.9714 B( 16-C , 17-C ) :   1.3314 B( 16-C , 33-H ) :   0.9860
B( 17-C , 18-O ) :   1.1080 B( 17-C , 19-C ) :   1.3790 B( 18-O , 34-H ) :   0.9806
B( 19-C , 35-H ) :   0.9584

MP2 TOTAL ENERGY:    -1274.344246483 Eh
FINAL SINGLE POINT ENERGY     -1274.344246483458

DIPOLE MOMENT
-------------
                                X             Y             Z
Electronic contribution:     11.96337       8.43900      11.29851
Nuclear contribution   :    -13.57476      -9.64653     -12.18809
                        -----------------------------------------
Total Dipole Moment    :     -1.61139      -1.20753      -0.88958
                        -----------------------------------------
Magnitude (a.u.)       :      2.20137
Magnitude (Debye)      :      5.59545

Rotational constants in cm-1:     0.010359     0.008919     0.005886
Rotational constants in MHz :   310.551538   267.381999   176.455321

                             ****ORCA TERMINATED NORMALLY****
TOTAL RUN TIME: 0 days 1 hours 45 minutes 38 seconds 868 msec
