                         Program Version 4.2.0 -  RELEASE  -
|  1> ! ri-mp2 cc-pvtz cc-pvtz/c TightSCF  NoKeepInts
|  2>
|  3> %scf
|  4>   MaxCore 4096
|  5> end
|  6> *xyz  0  1
|  7>     C       15.1462020   15.0672873   16.9962089
|  8>     C       16.3268855   14.1278058   16.6544406
|  9>     O       17.5931785   14.8083546   16.4644148
| 10>     C       17.6526286   16.1221463   16.1018601
| 11>     O       17.2124524   16.4715472   15.0209982
| 12>     C       17.8138542   17.0470377   17.2792984
| 13>     C       17.4368794   18.3507400   17.2409660
| 14>     C       16.6981407   19.0627044   16.1282027
| 15>     N       17.7810907   19.2073363   18.2915070
| 16>     C       18.6830876   18.9011944   19.2764679
| 17>     S       19.1949757   20.0247506   20.3767280
| 18>     N       19.1454745   17.6092342   19.2982878
| 19>     C       18.5766444   16.5050299   18.5026176
| 20>     C       17.7371465   15.6104060   19.4115211
| 21>     C       18.0610837   14.2486827   19.5630464
| 22>     C       17.3015068   13.4208610   20.4066756
| 23>     C       16.2133664   13.9600212   21.1134041
| 24>     C       15.8970251   15.3185568   20.9787165
| 25>     O       14.8478687   15.8429475   21.6603261
| 26>     C       16.6553184   16.1399168   20.1388664
| 27>     H       15.3545302   15.6827383   17.8751852
| 28>     H       14.2483429   14.4757145   17.2116750
| 29>     H       14.9086842   15.7288451   16.1537679
| 30>     H       16.4363017   13.3749826   17.4452630
| 31>     H       16.0762374   13.5931328   15.7289079
| 32>     H       17.3241877   19.1239475   15.2287172
| 33>     H       16.3985183   20.0823337   16.3970905
| 34>     H       15.7877186   18.5141170   15.8556158
| 35>     H       17.4616520   20.1628746   18.2789919
| 36>     H       19.7896323   17.4044134   20.0514455
| 37>     H       19.4182229   15.9076396   18.1244763
| 38>     H       18.9004347   13.8273272   19.0157194
| 39>     H       17.5582958   12.3680886   20.5123668
| 40>     H       15.6235640   13.3248847   21.7663055
| 41>     H       14.4893474   15.1444716   22.2283854
| 42>     H       16.3965206   17.1899280   20.0555324
| 43> *
| 44>
| 45>                          ****END OF INPUT****

CARTESIAN COORDINATES (ANGSTROEM)
---------------------------------
  C     15.146202   15.067287   16.996209
  C     16.326885   14.127806   16.654441
  O     17.593178   14.808355   16.464415
  C     17.652629   16.122146   16.101860
  O     17.212452   16.471547   15.020998
  C     17.813854   17.047038   17.279298
  C     17.436879   18.350740   17.240966
  C     16.698141   19.062704   16.128203
  N     17.781091   19.207336   18.291507
  C     18.683088   18.901194   19.276468
  S     19.194976   20.024751   20.376728
  N     19.145474   17.609234   19.298288
  C     18.576644   16.505030   18.502618
  C     17.737146   15.610406   19.411521
  C     18.061084   14.248683   19.563046
  C     17.301507   13.420861   20.406676
  C     16.213366   13.960021   21.113404
  C     15.897025   15.318557   20.978717
  O     14.847869   15.842947   21.660326
  C     16.655318   16.139917   20.138866
  H     15.354530   15.682738   17.875185
  H     14.248343   14.475714   17.211675
  H     14.908684   15.728845   16.153768
  H     16.436302   13.374983   17.445263
  H     16.076237   13.593133   15.728908
  H     17.324188   19.123947   15.228717
  H     16.398518   20.082334   16.397091
  H     15.787719   18.514117   15.855616
  H     17.461652   20.162875   18.278992
  H     19.789632   17.404413   20.051445
  H     19.418223   15.907640   18.124476
  H     18.900435   13.827327   19.015719
  H     17.558296   12.368089   20.512367
  H     15.623564   13.324885   21.766306
  H     14.489347   15.144472   22.228385
  H     16.396521   17.189928   20.055532

 Total Charge           Charge          ....    0
 Multiplicity           Mult            ....    1
 Number of Electrons    NEL             ....  154
 Basis Dimension        Dim             ....  828

ORBITAL ENERGIES
----------------

  NO   OCC          E(Eh)            E(eV)
   0   2.0000     -91.891210     -2500.4870
   1   2.0000     -20.600000      -560.5545
   2   2.0000     -20.579076      -559.9851
   3   2.0000     -20.549830      -559.1893
   4   2.0000     -15.631046      -425.3424
   5   2.0000     -15.609838      -424.7653
   6   2.0000     -11.394076      -310.0486
   7   2.0000     -11.385697      -309.8206
   8   2.0000     -11.336728      -308.4881
   9   2.0000     -11.317422      -307.9627
  10   2.0000     -11.312796      -307.8368
  11   2.0000     -11.299953      -307.4874
  12   2.0000     -11.263181      -306.4867
  13   2.0000     -11.260011      -306.4005
  14   2.0000     -11.258762      -306.3665
  15   2.0000     -11.253964      -306.2359
  16   2.0000     -11.247061      -306.0481
  17   2.0000     -11.241934      -305.9086
  18   2.0000     -11.241351      -305.8927
  19   2.0000     -11.225228      -305.4540
  20   2.0000      -8.896229      -242.0787
  21   2.0000      -6.577793      -178.9909
  22   2.0000      -6.575800      -178.9366
  23   2.0000      -6.575203      -178.9204
  24   2.0000      -1.445203       -39.3260
  25   2.0000      -1.419752       -38.6334
  26   2.0000      -1.350316       -36.7440
  27   2.0000      -1.342203       -36.5232
  28   2.0000      -1.240494       -33.7556
  29   2.0000      -1.160474       -31.5781
  30   2.0000      -1.121096       -30.5066
  31   2.0000      -1.045241       -28.4425
  32   2.0000      -1.031068       -28.0568
  33   2.0000      -1.019087       -27.7308
  34   2.0000      -0.999440       -27.1961
  35   2.0000      -0.986894       -26.8547
  36   2.0000      -0.925159       -25.1749
  37   2.0000      -0.896814       -24.4035
  38   2.0000      -0.848734       -23.0952
  39   2.0000      -0.842875       -22.9358
  40   2.0000      -0.837897       -22.8003
  41   2.0000      -0.818544       -22.2737
  42   2.0000      -0.745686       -20.2911
  43   2.0000      -0.734641       -19.9906
  44   2.0000      -0.722048       -19.6479
  45   2.0000      -0.699107       -19.0237
  46   2.0000      -0.691320       -18.8118
  47   2.0000      -0.673287       -18.3211
  48   2.0000      -0.670720       -18.2512
  49   2.0000      -0.661948       -18.0125
  50   2.0000      -0.652740       -17.7620
  51   2.0000      -0.645083       -17.5536
  52   2.0000      -0.637413       -17.3449
  53   2.0000      -0.625566       -17.0225
  54   2.0000      -0.610177       -16.6038
  55   2.0000      -0.602721       -16.4009
  56   2.0000      -0.600917       -16.3518
  57   2.0000      -0.580403       -15.7936
  58   2.0000      -0.572576       -15.5806
  59   2.0000      -0.565320       -15.3831
  60   2.0000      -0.547997       -14.9117
  61   2.0000      -0.544149       -14.8070
  62   2.0000      -0.535912       -14.5829
  63   2.0000      -0.531974       -14.4758
  64   2.0000      -0.527686       -14.3591
  65   2.0000      -0.515990       -14.0408
  66   2.0000      -0.504124       -13.7179
  67   2.0000      -0.496553       -13.5119
  68   2.0000      -0.481321       -13.0974
  69   2.0000      -0.464514       -12.6401
  70   2.0000      -0.454369       -12.3640
  71   2.0000      -0.443737       -12.0747
  72   2.0000      -0.357325        -9.7233
  73   2.0000      -0.351207        -9.5568
  74   2.0000      -0.330408        -8.9909
  75   2.0000      -0.325445        -8.8558
  76   2.0000      -0.318224        -8.6593
  77   0.0000       0.067529         1.8376
  78   0.0000       0.102348         2.7850
  79   0.0000       0.120697         3.2843
  80   0.0000       0.128773         3.5041
  81   0.0000       0.133234         3.6255

MULLIKEN ATOMIC CHARGES
-----------------------
   0 C :   -0.341434
   1 C :    0.040211
   2 O :   -0.396809
   3 C :    0.504152
   4 O :   -0.407744
   5 C :   -0.253843
   6 C :    0.153819
   7 C :   -0.272551
   8 N :   -0.122666
   9 C :    0.196690
  10 S :   -0.433004
  11 N :   -0.193761
  12 C :    0.044894
  13 C :    0.069431
  14 C :   -0.204434
  15 C :   -0.130734
  16 C :   -0.276742
  17 C :    0.318849
  18 O :   -0.357345
  19 C :   -0.284701
  20 H :    0.112050
  21 H :    0.113074
  22 H :    0.117267
  23 H :    0.114251
  24 H :    0.120532
  25 H :    0.137310
  26 H :    0.094979
  27 H :    0.126941
  28 H :    0.198139
  29 H :    0.191403
  30 H :    0.150341
  31 H :    0.157386
  32 H :    0.166433
  33 H :    0.133267
  34 H :    0.240995
  35 H :    0.173354
Sum of atomic charges:   -0.0000000

LOEWDIN ATOMIC CHARGES
----------------------
   0 C :    0.106920
   1 C :   -0.008148
   2 O :    0.277417
   3 C :   -0.422552
   4 O :    0.122615
   5 C :   -0.097384
   6 C :   -0.060819
   7 C :    0.130703
   8 N :    0.406683
   9 C :   -0.458976
  10 S :   -0.031486
  11 N :    0.396441
  12 C :   -0.052029
  13 C :   -0.039089
  14 C :    0.018428
  15 C :    0.039280
  16 C :   -0.002042
  17 C :   -0.191055
  18 O :    0.396368
  19 C :    0.032583
  20 H :   -0.035043
  21 H :   -0.022280
  22 H :   -0.028423
  23 H :   -0.027047
  24 H :   -0.028015
  25 H :   -0.003046
  26 H :   -0.023021
  27 H :   -0.007161
  28 H :   -0.057772
  29 H :   -0.064885
  30 H :   -0.006439
  31 H :   -0.027900
  32 H :   -0.020562
  33 H :   -0.034773
  34 H :   -0.153188
  35 H :   -0.024302

  Mayer bond orders larger than 0.100000
B(  0-C ,  1-C ) :   0.9571 B(  0-C , 20-H ) :   0.9687 B(  0-C , 21-H ) :   0.9771
B(  0-C , 22-H ) :   0.9728 B(  1-C ,  2-O ) :   0.8787 B(  1-C , 23-H ) :   0.9751
B(  1-C , 24-H ) :   0.9867 B(  2-O ,  3-C ) :   1.1016 B(  3-C ,  4-O ) :   2.0199
B(  3-C ,  5-C ) :   1.0420 B(  5-C ,  6-C ) :   1.6583 B(  5-C , 12-C ) :   0.9658
B(  6-C ,  7-C ) :   0.9678 B(  6-C ,  8-N ) :   1.1441 B(  7-C , 25-H ) :   0.9570
B(  7-C , 26-H ) :   0.9883 B(  7-C , 27-H ) :   0.9660 B(  8-N ,  9-C ) :   1.1788
B(  8-N , 28-H ) :   0.9486 B(  9-C , 10-S ) :   1.6203 B(  9-C , 11-N ) :   1.2974
B( 11-N , 12-C ) :   0.9892 B( 11-N , 29-H ) :   0.9535 B( 12-C , 13-C ) :   0.9413
B( 12-C , 30-H ) :   1.0043 B( 13-C , 14-C ) :   1.3510 B( 13-C , 19-C ) :   1.3621
B( 14-C , 15-C ) :   1.3851 B( 14-C , 31-H ) :   0.9706 B( 15-C , 16-C ) :   1.3636
B( 15-C , 32-H ) :   0.9694 B( 16-C , 17-C ) :   1.3290 B( 16-C , 33-H ) :   0.9837
B( 17-C , 18-O ) :   1.1132 B( 17-C , 19-C ) :   1.3736 B( 18-O , 34-H ) :   0.9797
B( 19-C , 35-H ) :   0.9584

MP2 TOTAL ENERGY:    -1274.324276540 Eh
FINAL SINGLE POINT ENERGY     -1274.324276540276

DIPOLE MOMENT
-------------
                                X             Y             Z
Electronic contribution:     10.08069       7.91010       5.84910
Nuclear contribution   :    -11.21164      -9.49929      -5.76554
                        -----------------------------------------
Total Dipole Moment    :     -1.13096      -1.58919       0.08356
                        -----------------------------------------
Magnitude (a.u.)       :      1.95232
Magnitude (Debye)      :      4.96242

Rotational constants in cm-1:     0.011922     0.009823     0.006662
Rotational constants in MHz :   357.401745   294.498998   199.724004

                             ****ORCA TERMINATED NORMALLY****
TOTAL RUN TIME: 0 days 2 hours 27 minutes 30 seconds 466 msec
