                         Program Version 4.2.0 -  RELEASE  -
|  1> ! ri-mp2 cc-pvtz cc-pvtz/c TightSCF  NoKeepInts
|  2>
|  3> %scf
|  4>   MaxCore 4096
|  5> end
|  6> *xyz  0  1
|  7>     C       15.0603621   14.0126756   15.8490897
|  8>     C       16.0605600   14.3365291   16.9760913
|  9>     O       17.1402074   15.1398169   16.4580672
| 10>     C       16.9566339   16.4861340   16.3169611
| 11>     O       16.1177073   16.9303674   15.5541789
| 12>     C       17.6031396   17.2907321   17.4142931
| 13>     C       17.4163351   18.6304732   17.5391636
| 14>     C       16.5389733   19.5215132   16.6856852
| 15>     N       18.1125918   19.3469730   18.5175785
| 16>     C       19.1258343   18.8378404   19.2851367
| 17>     S       20.0039865   19.7849411   20.3182829
| 18>     N       19.3839564   17.4984710   19.1433821
| 19>     C       18.5442282   16.5542808   18.3846643
| 20>     C       17.7976242   15.6538731   19.3637346
| 21>     C       18.2000660   14.3172381   19.5454673
| 22>     C       17.5136096   13.4792687   20.4402109
| 23>     C       16.4200423   13.9832875   21.1646567
| 24>     C       16.0242854   15.3171012   20.9957287
| 25>     O       14.9703664   15.8076228   21.6948799
| 26>     C       16.7075889   16.1480210   20.1025982
| 27>     H       14.5186513   14.9104156   15.5274125
| 28>     H       14.3204396   13.2803209   16.1933855
| 29>     H       15.5801022   13.5924683   14.9791611
| 30>     H       15.5495422   14.8477438   17.8028572
| 31>     H       16.4704992   13.3943565   17.3617099
| 32>     H       15.4925300   19.1943702   16.7359634
| 33>     H       16.8463035   19.4719372   15.6332174
| 34>     H       16.5708984   20.5743879   16.9894177
| 35>     H       17.9419545   20.3339967   18.6265992
| 36>     H       20.1184602   17.1459363   19.7434686
| 37>     H       19.2157817   15.9268311   17.7815224
| 38>     H       19.0448132   13.9243324   18.9854751
| 39>     H       17.8313745   12.4462248   20.5726528
| 40>     H       15.8879292   13.3404657   21.8584886
| 41>     H       14.6696454   15.1116245   22.2986295
| 42>     H       16.3899760   17.1794279   19.9941883
| 43> *
| 44>
| 45>                          ****END OF INPUT****

CARTESIAN COORDINATES (ANGSTROEM)
---------------------------------
  C     15.060362   14.012676   15.849090
  C     16.060560   14.336529   16.976091
  O     17.140207   15.139817   16.458067
  C     16.956634   16.486134   16.316961
  O     16.117707   16.930367   15.554179
  C     17.603140   17.290732   17.414293
  C     17.416335   18.630473   17.539164
  C     16.538973   19.521513   16.685685
  N     18.112592   19.346973   18.517578
  C     19.125834   18.837840   19.285137
  S     20.003986   19.784941   20.318283
  N     19.383956   17.498471   19.143382
  C     18.544228   16.554281   18.384664
  C     17.797624   15.653873   19.363735
  C     18.200066   14.317238   19.545467
  C     17.513610   13.479269   20.440211
  C     16.420042   13.983287   21.164657
  C     16.024285   15.317101   20.995729
  O     14.970366   15.807623   21.694880
  C     16.707589   16.148021   20.102598
  H     14.518651   14.910416   15.527412
  H     14.320440   13.280321   16.193386
  H     15.580102   13.592468   14.979161
  H     15.549542   14.847744   17.802857
  H     16.470499   13.394357   17.361710
  H     15.492530   19.194370   16.735963
  H     16.846304   19.471937   15.633217
  H     16.570898   20.574388   16.989418
  H     17.941955   20.333997   18.626599
  H     20.118460   17.145936   19.743469
  H     19.215782   15.926831   17.781522
  H     19.044813   13.924332   18.985475
  H     17.831374   12.446225   20.572653
  H     15.887929   13.340466   21.858489
  H     14.669645   15.111624   22.298630
  H     16.389976   17.179428   19.994188

 Total Charge           Charge          ....    0
 Multiplicity           Mult            ....    1
 Number of Electrons    NEL             ....  154
 Basis Dimension        Dim             ....  828

ORBITAL ENERGIES
----------------

  NO   OCC          E(Eh)            E(eV)
   0   2.0000     -91.890602     -2500.4704
   1   2.0000     -20.601478      -560.5947
   2   2.0000     -20.583090      -560.0944
   3   2.0000     -20.547655      -559.1301
   4   2.0000     -15.631190      -425.3463
   5   2.0000     -15.609737      -424.7625
   6   2.0000     -11.394355      -310.0562
   7   2.0000     -11.385392      -309.8123
   8   2.0000     -11.337845      -308.5184
   9   2.0000     -11.319202      -308.0111
  10   2.0000     -11.311450      -307.8002
  11   2.0000     -11.295948      -307.3784
  12   2.0000     -11.263947      -306.5076
  13   2.0000     -11.260552      -306.4152
  14   2.0000     -11.259592      -306.3891
  15   2.0000     -11.253681      -306.2282
  16   2.0000     -11.248280      -306.0813
  17   2.0000     -11.242850      -305.9335
  18   2.0000     -11.242794      -305.9320
  19   2.0000     -11.215522      -305.1899
  20   2.0000      -8.895645      -242.0628
  21   2.0000      -6.577214      -178.9751
  22   2.0000      -6.575215      -178.9207
  23   2.0000      -6.574623      -178.9046
  24   2.0000      -1.446768       -39.3686
  25   2.0000      -1.421172       -38.6721
  26   2.0000      -1.353593       -36.8331
  27   2.0000      -1.342240       -36.5242
  28   2.0000      -1.240667       -33.7603
  29   2.0000      -1.162060       -31.6213
  30   2.0000      -1.121496       -30.5175
  31   2.0000      -1.046021       -28.4637
  32   2.0000      -1.029961       -28.0267
  33   2.0000      -1.020326       -27.7645
  34   2.0000      -0.997147       -27.1338
  35   2.0000      -0.985530       -26.8176
  36   2.0000      -0.925337       -25.1797
  37   2.0000      -0.883708       -24.0469
  38   2.0000      -0.849674       -23.1208
  39   2.0000      -0.842688       -22.9307
  40   2.0000      -0.838602       -22.8195
  41   2.0000      -0.826646       -22.4942
  42   2.0000      -0.754010       -20.5177
  43   2.0000      -0.735144       -20.0043
  44   2.0000      -0.720255       -19.5991
  45   2.0000      -0.700412       -19.0592
  46   2.0000      -0.691329       -18.8120
  47   2.0000      -0.679852       -18.4997
  48   2.0000      -0.669541       -18.2191
  49   2.0000      -0.659706       -17.9515
  50   2.0000      -0.649355       -17.6699
  51   2.0000      -0.647961       -17.6319
  52   2.0000      -0.637827       -17.3561
  53   2.0000      -0.612101       -16.6561
  54   2.0000      -0.605635       -16.4802
  55   2.0000      -0.601567       -16.3695
  56   2.0000      -0.590332       -16.0638
  57   2.0000      -0.582627       -15.8541
  58   2.0000      -0.576653       -15.6915
  59   2.0000      -0.571823       -15.5601
  60   2.0000      -0.564742       -15.3674
  61   2.0000      -0.540319       -14.7028
  62   2.0000      -0.535239       -14.5646
  63   2.0000      -0.528797       -14.3893
  64   2.0000      -0.517229       -14.0745
  65   2.0000      -0.513709       -13.9787
  66   2.0000      -0.504421       -13.7260
  67   2.0000      -0.497712       -13.5434
  68   2.0000      -0.484593       -13.1864
  69   2.0000      -0.463680       -12.6174
  70   2.0000      -0.455081       -12.3834
  71   2.0000      -0.441377       -12.0105
  72   2.0000      -0.356882        -9.7113
  73   2.0000      -0.354118        -9.6360
  74   2.0000      -0.330522        -8.9940
  75   2.0000      -0.326407        -8.8820
  76   2.0000      -0.317842        -8.6489
  77   0.0000       0.069800         1.8994
  78   0.0000       0.100176         2.7259
  79   0.0000       0.122517         3.3338
  80   0.0000       0.129057         3.5118
  81   0.0000       0.133231         3.6254

MULLIKEN ATOMIC CHARGES
-----------------------
   0 C :   -0.268705
   1 C :    0.025396
   2 O :   -0.387572
   3 C :    0.499920
   4 O :   -0.412842
   5 C :   -0.267712
   6 C :    0.160129
   7 C :   -0.270204
   8 N :   -0.123689
   9 C :    0.213742
  10 S :   -0.437848
  11 N :   -0.203821
  12 C :    0.057418
  13 C :    0.050153
  14 C :   -0.187920
  15 C :   -0.127417
  16 C :   -0.276060
  17 C :    0.315869
  18 O :   -0.356301
  19 C :   -0.264906
  20 H :    0.112438
  21 H :    0.087376
  22 H :    0.095191
  23 H :    0.098447
  24 H :    0.108374
  25 H :    0.129984
  26 H :    0.133273
  27 H :    0.095371
  28 H :    0.198061
  29 H :    0.193869
  30 H :    0.151167
  31 H :    0.149464
  32 H :    0.165044
  33 H :    0.133381
  34 H :    0.241836
  35 H :    0.169093
Sum of atomic charges:   -0.0000000

LOEWDIN ATOMIC CHARGES
----------------------
   0 C :    0.105397
   1 C :   -0.020251
   2 O :    0.285635
   3 C :   -0.416494
   4 O :    0.120011
   5 C :   -0.098579
   6 C :   -0.057573
   7 C :    0.131166
   8 N :    0.407107
   9 C :   -0.456436
  10 S :   -0.033482
  11 N :    0.396270
  12 C :   -0.052864
  13 C :   -0.037396
  14 C :    0.015857
  15 C :    0.041647
  16 C :   -0.001488
  17 C :   -0.190828
  18 O :    0.396425
  19 C :    0.030279
  20 H :   -0.027798
  21 H :   -0.030960
  22 H :   -0.026505
  23 H :   -0.031097
  24 H :   -0.024663
  25 H :   -0.005238
  26 H :   -0.003291
  27 H :   -0.023198
  28 H :   -0.057310
  29 H :   -0.065074
  30 H :   -0.008149
  31 H :   -0.029317
  32 H :   -0.020084
  33 H :   -0.034478
  34 H :   -0.152680
  35 H :   -0.024561

  Mayer bond orders larger than 0.100000
B(  0-C ,  1-C ) :   0.9856 B(  0-C , 20-H ) :   0.9722 B(  0-C , 21-H ) :   0.9773
B(  0-C , 22-H ) :   0.9783 B(  1-C ,  2-O ) :   0.8767 B(  1-C , 23-H ) :   0.9660
B(  1-C , 24-H ) :   0.9790 B(  2-O ,  3-C ) :   1.0873 B(  3-C ,  4-O ) :   1.9980
B(  3-C ,  5-C ) :   1.0772 B(  5-C ,  6-C ) :   1.6475 B(  5-C , 12-C ) :   0.9697
B(  6-C ,  7-C ) :   0.9681 B(  6-C ,  8-N ) :   1.1605 B(  7-C , 25-H ) :   0.9608
B(  7-C , 26-H ) :   0.9588 B(  7-C , 27-H ) :   0.9902 B(  8-N ,  9-C ) :   1.1802
B(  8-N , 28-H ) :   0.9477 B(  9-C , 10-S ) :   1.6090 B(  9-C , 11-N ) :   1.3059
B( 11-N , 12-C ) :   0.9723 B( 11-N , 29-H ) :   0.9528 B( 12-C , 13-C ) :   0.9464
B( 12-C , 30-H ) :   1.0009 B( 13-C , 14-C ) :   1.3402 B( 13-C , 19-C ) :   1.3740
B( 14-C , 15-C ) :   1.3872 B( 14-C , 31-H ) :   0.9774 B( 15-C , 16-C ) :   1.3657
B( 15-C , 32-H ) :   0.9691 B( 16-C , 17-C ) :   1.3285 B( 16-C , 33-H ) :   0.9837
B( 17-C , 18-O ) :   1.1137 B( 17-C , 19-C ) :   1.3702 B( 18-O , 34-H ) :   0.9789
B( 19-C , 35-H ) :   0.9579

MP2 TOTAL ENERGY:    -1274.332496922 Eh
FINAL SINGLE POINT ENERGY     -1274.332496921915

DIPOLE MOMENT
-------------
                                X             Y             Z
Electronic contribution:     10.46345       9.71754       7.24248
Nuclear contribution   :    -11.43724     -11.24251      -7.08877
                        -----------------------------------------
Total Dipole Moment    :     -0.97380      -1.52498       0.15371
                        -----------------------------------------
Magnitude (a.u.)       :      1.81589
Magnitude (Debye)      :      4.61563

Rotational constants in cm-1:     0.012106     0.008943     0.006334
Rotational constants in MHz :   362.934618   268.089579   189.893534

                             ****ORCA TERMINATED NORMALLY****
TOTAL RUN TIME: 0 days 1 hours 43 minutes 53 seconds 195 msec
