                         Program Version 5.0.0 -  RELEASE  -
|  1> ! ri-mp2 cc-pvtz cc-pvtz/c TightSCF NoKeepInts
|  2>
|  3> %scf
|  4>   MaxCore 4096
|  5> end
|  6> *xyz  0  1
|  7>     C       15.1827895   13.9851264   15.3624725
|  8>     C       15.8371144   14.1559585   16.7499025
|  9>     O       16.9022715   15.1268478   16.7025193
| 10>     C       16.6440293   16.4667492   16.5916784
| 11>     O       15.6570148   16.9029231   16.0260505
| 12>     C       17.5030878   17.2875913   17.5156112
| 13>     C       17.4150405   18.6409366   17.5791761
| 14>     C       16.4948992   19.5393720   16.7803073
| 15>     N       18.2635546   19.3604229   18.4259839
| 16>     C       19.2920316   18.8191203   19.1497943
| 17>     S       20.3144452   19.7548457   20.0525711
| 18>     N       19.4355003   17.4568742   19.0843419
| 19>     C       18.5000799   16.5354351   18.4142270
| 20>     C       17.7939513   15.6743819   19.4582518
| 21>     C       18.0900432   14.3025849   19.5682114
| 22>     C       17.4363242   13.5041139   20.5217259
| 23>     C       16.4812605   14.0823727   21.3751702
| 24>     C       16.1885723   15.4493096   21.2727633
| 25>     O       15.2682060   16.0108177   22.0964475
| 26>     C       16.8399170   16.2410663   20.3220394
| 27>     H       14.5683226   14.8526045   15.0944487
| 28>     H       14.5292825   13.1046158   15.3573059
| 29>     H       15.9468066   13.8475366   14.5875080
| 30>     H       15.0825778   14.4515200   17.4914482
| 31>     H       16.2554330   13.1908818   17.0630321
| 32>     H       15.4462352   19.3382796   17.0345611
| 33>     H       16.6112942   19.3547674   15.7048395
| 34>     H       16.6802173   20.6060179   16.9527311
| 35>     H       18.1736077   20.3621438   18.4854030
| 36>     H       20.1801231   17.0835444   19.6587645
| 37>     H       19.0972871   15.8769007   17.7678893
| 38>     H       18.8253852   13.8524525   18.9065910
| 39>     H       17.6716282   12.4439447   20.5985869
| 40>     H       15.9747042   13.4704178   22.1143173
| 41>     H       14.9603731   15.3214410   22.7037822
| 42>     H       16.6035891   17.2980815   20.2635457
| 43> *
| 44>
| 45>                          ****END OF INPUT****

CARTESIAN COORDINATES (ANGSTROEM)
---------------------------------
  C     15.182790   13.985126   15.362472
  C     15.837114   14.155958   16.749903
  O     16.902272   15.126848   16.702519
  C     16.644029   16.466749   16.591678
  O     15.657015   16.902923   16.026051
  C     17.503088   17.287591   17.515611
  C     17.415040   18.640937   17.579176
  C     16.494899   19.539372   16.780307
  N     18.263555   19.360423   18.425984
  C     19.292032   18.819120   19.149794
  S     20.314445   19.754846   20.052571
  N     19.435500   17.456874   19.084342
  C     18.500080   16.535435   18.414227
  C     17.793951   15.674382   19.458252
  C     18.090043   14.302585   19.568211
  C     17.436324   13.504114   20.521726
  C     16.481261   14.082373   21.375170
  C     16.188572   15.449310   21.272763
  O     15.268206   16.010818   22.096448
  C     16.839917   16.241066   20.322039
  H     14.568323   14.852604   15.094449
  H     14.529283   13.104616   15.357306
  H     15.946807   13.847537   14.587508
  H     15.082578   14.451520   17.491448
  H     16.255433   13.190882   17.063032
  H     15.446235   19.338280   17.034561
  H     16.611294   19.354767   15.704839
  H     16.680217   20.606018   16.952731
  H     18.173608   20.362144   18.485403
  H     20.180123   17.083544   19.658765
  H     19.097287   15.876901   17.767889
  H     18.825385   13.852453   18.906591
  H     17.671628   12.443945   20.598587
  H     15.974704   13.470418   22.114317
  H     14.960373   15.321441   22.703782
  H     16.603589   17.298081   20.263546

 Total Charge           Charge          ....    0
 Multiplicity           Mult            ....    1
 Number of Electrons    NEL             ....  154
 Basis Dimension        Dim             ....  828

ORBITAL ENERGIES
----------------

  NO   OCC          E(Eh)            E(eV)
   0   2.0000     -91.888863     -2500.4231
   1   2.0000     -20.597620      -560.4897
   2   2.0000     -20.594314      -560.3998
   3   2.0000     -20.544480      -559.0437
   4   2.0000     -15.629029      -425.2875
   5   2.0000     -15.608215      -424.7211
   6   2.0000     -11.396082      -310.1032
   7   2.0000     -11.383936      -309.7727
   8   2.0000     -11.335534      -308.4556
   9   2.0000     -11.314947      -307.8954
  10   2.0000     -11.309217      -307.7394
  11   2.0000     -11.298751      -307.4546
  12   2.0000     -11.260635      -306.4174
  13   2.0000     -11.258775      -306.3668
  14   2.0000     -11.256416      -306.3026
  15   2.0000     -11.252362      -306.1923
  16   2.0000     -11.243959      -305.9637
  17   2.0000     -11.239209      -305.8344
  18   2.0000     -11.238979      -305.8282
  19   2.0000     -11.218154      -305.2615
  20   2.0000      -8.893927      -242.0161
  21   2.0000      -6.575502      -178.9285
  22   2.0000      -6.573497      -178.8739
  23   2.0000      -6.572910      -178.8580
  24   2.0000      -1.448237       -39.4085
  25   2.0000      -1.417267       -38.5658
  26   2.0000      -1.355214       -36.8772
  27   2.0000      -1.340070       -36.4651
  28   2.0000      -1.238591       -33.7038
  29   2.0000      -1.158322       -31.5195
  30   2.0000      -1.120074       -30.4788
  31   2.0000      -1.043045       -28.3827
  32   2.0000      -1.033601       -28.1257
  33   2.0000      -1.016098       -27.6494
  34   2.0000      -0.995076       -27.0774
  35   2.0000      -0.983617       -26.7656
  36   2.0000      -0.922810       -25.1109
  37   2.0000      -0.890658       -24.2360
  38   2.0000      -0.847465       -23.0607
  39   2.0000      -0.838729       -22.8230
  40   2.0000      -0.834912       -22.7191
  41   2.0000      -0.820824       -22.3357
  42   2.0000      -0.753185       -20.4952
  43   2.0000      -0.732111       -19.9218
  44   2.0000      -0.721416       -19.6307
  45   2.0000      -0.696516       -18.9532
  46   2.0000      -0.688734       -18.7414
  47   2.0000      -0.680539       -18.5184
  48   2.0000      -0.669819       -18.2267
  49   2.0000      -0.654626       -17.8133
  50   2.0000      -0.648732       -17.6529
  51   2.0000      -0.645852       -17.5745
  52   2.0000      -0.633436       -17.2367
  53   2.0000      -0.608039       -16.5456
  54   2.0000      -0.602725       -16.4010
  55   2.0000      -0.599339       -16.3088
  56   2.0000      -0.598023       -16.2730
  57   2.0000      -0.581924       -15.8350
  58   2.0000      -0.574753       -15.6398
  59   2.0000      -0.570897       -15.5349
  60   2.0000      -0.563495       -15.3335
  61   2.0000      -0.538854       -14.6630
  62   2.0000      -0.535186       -14.5631
  63   2.0000      -0.525644       -14.3035
  64   2.0000      -0.517854       -14.0915
  65   2.0000      -0.512971       -13.9586
  66   2.0000      -0.501437       -13.6448
  67   2.0000      -0.499107       -13.5814
  68   2.0000      -0.485712       -13.2169
  69   2.0000      -0.463865       -12.6224
  70   2.0000      -0.455992       -12.4082
  71   2.0000      -0.441769       -12.0211
  72   2.0000      -0.353982        -9.6323
  73   2.0000      -0.350281        -9.5316
  74   2.0000      -0.328364        -8.9353
  75   2.0000      -0.322424        -8.7736
  76   2.0000      -0.316139        -8.6026
  77   0.0000       0.074244         2.0203
  78   0.0000       0.105222         2.8632
  79   0.0000       0.124731         3.3941
  80   0.0000       0.131940         3.5903
  81   0.0000       0.137612         3.7446

MULLIKEN ATOMIC CHARGES
-----------------------
   0 C :   -0.287978
   1 C :    0.045784
   2 O :   -0.370250
   3 C :    0.461322
   4 O :   -0.426321
   5 C :   -0.217929
   6 C :    0.153440
   7 C :   -0.272580
   8 N :   -0.121578
   9 C :    0.212941
  10 S :   -0.440455
  11 N :   -0.205943
  12 C :    0.063822
  13 C :    0.057675
  14 C :   -0.188927
  15 C :   -0.128435
  16 C :   -0.281286
  17 C :    0.315464
  18 O :   -0.356112
  19 C :   -0.267085
  20 H :    0.124461
  21 H :    0.091808
  22 H :    0.091769
  23 H :    0.094811
  24 H :    0.103267
  25 H :    0.132553
  26 H :    0.129259
  27 H :    0.095518
  28 H :    0.197283
  29 H :    0.194747
  30 H :    0.149514
  31 H :    0.150001
  32 H :    0.161642
  33 H :    0.130974
  34 H :    0.240930
  35 H :    0.165894
Sum of atomic charges:   -0.0000000

LOEWDIN ATOMIC CHARGES
----------------------
   0 C :    0.104735
   1 C :   -0.014493
   2 O :    0.297046
   3 C :   -0.413013
   4 O :    0.109499
   5 C :   -0.095107
   6 C :   -0.059453
   7 C :    0.131008
   8 N :    0.406529
   9 C :   -0.456322
  10 S :   -0.035732
  11 N :    0.396220
  12 C :   -0.052322
  13 C :   -0.037613
  14 C :    0.014553
  15 C :    0.038918
  16 C :   -0.002546
  17 C :   -0.189746
  18 O :    0.395560
  19 C :    0.030830
  20 H :   -0.027117
  21 H :   -0.030121
  22 H :   -0.028368
  23 H :   -0.028472
  24 H :   -0.025115
  25 H :   -0.004776
  26 H :   -0.004351
  27 H :   -0.023296
  28 H :   -0.057601
  29 H :   -0.064754
  30 H :   -0.010339
  31 H :   -0.030087
  32 H :   -0.021222
  33 H :   -0.035515
  34 H :   -0.153705
  35 H :   -0.023711

  Mayer bond orders larger than 0.100000
B(  0-C ,  1-C ) :   0.9792 B(  0-C , 20-H ) :   0.9719 B(  0-C , 21-H ) :   0.9784
B(  0-C , 22-H ) :   0.9755 B(  1-C ,  2-O ) :   0.8882 B(  1-C , 23-H ) :   0.9716
B(  1-C , 24-H ) :   0.9817 B(  2-O ,  3-C ) :   1.1268 B(  3-C ,  4-O ) :   1.9725
B(  3-C ,  5-C ) :   1.0651 B(  5-C ,  6-C ) :   1.6533 B(  5-C , 12-C ) :   0.9727
B(  6-C ,  7-C ) :   0.9670 B(  6-C ,  8-N ) :   1.1616 B(  7-C , 25-H ) :   0.9593
B(  7-C , 26-H ) :   0.9614 B(  7-C , 27-H ) :   0.9909 B(  8-N ,  9-C ) :   1.1830
B(  8-N , 28-H ) :   0.9479 B(  9-C , 10-S ) :   1.6063 B(  9-C , 11-N ) :   1.3061
B( 11-N , 12-C ) :   0.9821 B( 11-N , 29-H ) :   0.9517 B( 12-C , 13-C ) :   0.9354
B( 12-C , 30-H ) :   1.0021 B( 13-C , 14-C ) :   1.3547 B( 13-C , 19-C ) :   1.3839
B( 14-C , 15-C ) :   1.3900 B( 14-C , 31-H ) :   0.9729 B( 15-C , 16-C ) :   1.3639
B( 15-C , 32-H ) :   0.9704 B( 16-C , 17-C ) :   1.3308 B( 16-C , 33-H ) :   0.9847
B( 17-C , 18-O ) :   1.1111 B( 17-C , 19-C ) :   1.3713 B( 18-O , 34-H ) :   0.9796
B( 19-C , 35-H ) :   0.9581

MP2 TOTAL ENERGY:    -1274.340329813 Eh
FINAL SINGLE POINT ENERGY     -1274.340329812851

DIPOLE MOMENT
-------------
                                X             Y             Z
Electronic contribution:     10.43119       9.93069       8.74662
Nuclear contribution   :    -11.47217     -11.56930      -8.95965
                        -----------------------------------------
Total Dipole Moment    :     -1.04098      -1.63861      -0.21303
                        -----------------------------------------
Magnitude (a.u.)       :      1.95297
Magnitude (Debye)      :      4.96404

Rotational constants in cm-1:     0.011751     0.008698     0.006132
Rotational constants in MHz :   352.280753   260.748547   183.820922

                             ****ORCA TERMINATED NORMALLY****
TOTAL RUN TIME: 0 days 1 hours 31 minutes 29 seconds 706 msec
