                         Program Version 5.0.0 -  RELEASE  -
|  1> ! ri-mp2 cc-pvtz cc-pvtz/c TightSCF NoKeepInts
|  2>
|  3> %scf
|  4>   MaxCore 4096
|  5> end
|  6> *xyz  0  1
|  7>     C       15.5133336   13.4202554   16.7620247
|  8>     C       16.5003964   14.1290383   15.8180769
|  9>     O       17.1748115   15.1435837   16.5835034
| 10>     C       16.7915327   16.4535712   16.4881704
| 11>     O       15.9582650   16.8378164   15.6849663
| 12>     C       17.5242293   17.3415159   17.4558159
| 13>     C       17.3796389   18.6910877   17.4599228
| 14>     C       16.5074489   19.5225697   16.5437297
| 15>     N       18.1069514   19.4717445   18.3633398
| 16>     C       19.0573955   18.9938575   19.2253449
| 17>     S       19.9339898   19.9979247   20.2048560
| 18>     N       19.2483289   17.6358321   19.2346084
| 19>     C       18.4404247   16.6573909   18.4839540
| 20>     C       17.6522217   15.7848410   19.4567873
| 21>     C       17.9700757   14.4223078   19.6108111
| 22>     C       17.2429691   13.6146151   20.5013971
| 23>     C       16.1906869   14.1740359   21.2460820
| 24>     C       15.8748235   15.5316809   21.0988920
| 25>     O       14.8603369   16.0750126   21.8176641
| 26>     C       16.6007007   16.3331666   20.2124539
| 27>     H       16.0377757   13.0021606   17.6301760
| 28>     H       15.0009581   12.6025429   16.2411043
| 29>     H       14.7542656   14.1250333   17.1244585
| 30>     H       17.2356997   13.3967732   15.4610256
| 31>     H       15.9796151   14.5398568   14.9424422
| 32>     H       15.4523046   19.2432744   16.6594381
| 33>     H       16.7774239   19.3521405   15.4937879
| 34>     H       16.5876301   20.5990410   16.7349431
| 35>     H       17.9804022   20.4712198   18.3707233
| 36>     H       19.9272792   17.3098772   19.9103211
| 37>     H       19.1397510   16.0152603   17.9303409
| 38>     H       18.7785217   13.9857790   19.0306309
| 39>     H       17.4946735   12.5612946   20.6113842
| 40>     H       15.6258688   13.5544540   21.9347812
| 41>     H       14.5013223   15.3784080   22.3873916
| 42>     H       16.3449473   17.3830363   20.1186502
| 43> *
| 44>
| 45>                          ****END OF INPUT****

CARTESIAN COORDINATES (ANGSTROEM)
---------------------------------
  C     15.513334   13.420255   16.762025
  C     16.500396   14.129038   15.818077
  O     17.174811   15.143584   16.583503
  C     16.791533   16.453571   16.488170
  O     15.958265   16.837816   15.684966
  C     17.524229   17.341516   17.455816
  C     17.379639   18.691088   17.459923
  C     16.507449   19.522570   16.543730
  N     18.106951   19.471744   18.363340
  C     19.057395   18.993857   19.225345
  S     19.933990   19.997925   20.204856
  N     19.248329   17.635832   19.234608
  C     18.440425   16.657391   18.483954
  C     17.652222   15.784841   19.456787
  C     17.970076   14.422308   19.610811
  C     17.242969   13.614615   20.501397
  C     16.190687   14.174036   21.246082
  C     15.874823   15.531681   21.098892
  O     14.860337   16.075013   21.817664
  C     16.600701   16.333167   20.212454
  H     16.037776   13.002161   17.630176
  H     15.000958   12.602543   16.241104
  H     14.754266   14.125033   17.124458
  H     17.235700   13.396773   15.461026
  H     15.979615   14.539857   14.942442
  H     15.452305   19.243274   16.659438
  H     16.777424   19.352141   15.493788
  H     16.587630   20.599041   16.734943
  H     17.980402   20.471220   18.370723
  H     19.927279   17.309877   19.910321
  H     19.139751   16.015260   17.930341
  H     18.778522   13.985779   19.030631
  H     17.494674   12.561295   20.611384
  H     15.625869   13.554454   21.934781
  H     14.501322   15.378408   22.387392
  H     16.344947   17.383036   20.118650

 Total Charge           Charge          ....    0
 Multiplicity           Mult            ....    1
 Number of Electrons    NEL             ....  154
 Basis Dimension        Dim             ....  828

ORBITAL ENERGIES
----------------

  NO   OCC          E(Eh)            E(eV)
   0   2.0000     -91.888600     -2500.4159
   1   2.0000     -20.602061      -560.6106
   2   2.0000     -20.596353      -560.4553
   3   2.0000     -20.541258      -558.9561
   4   2.0000     -15.628764      -425.2803
   5   2.0000     -15.608057      -424.7168
   6   2.0000     -11.395501      -310.0874
   7   2.0000     -11.383768      -309.7681
   8   2.0000     -11.335814      -308.4632
   9   2.0000     -11.313535      -307.8569
  10   2.0000     -11.308609      -307.7229
  11   2.0000     -11.295106      -307.3555
  12   2.0000     -11.259307      -306.3813
  13   2.0000     -11.258866      -306.3693
  14   2.0000     -11.254801      -306.2587
  15   2.0000     -11.251810      -306.1773
  16   2.0000     -11.242952      -305.9363
  17   2.0000     -11.238317      -305.8102
  18   2.0000     -11.237812      -305.7964
  19   2.0000     -11.224020      -305.4211
  20   2.0000      -8.893665      -242.0089
  21   2.0000      -6.575240      -178.9214
  22   2.0000      -6.573235      -178.8668
  23   2.0000      -6.572649      -178.8509
  24   2.0000      -1.451110       -39.4867
  25   2.0000      -1.416018       -38.5318
  26   2.0000      -1.354860       -36.8676
  27   2.0000      -1.339768       -36.4569
  28   2.0000      -1.238280       -33.6953
  29   2.0000      -1.157461       -31.4961
  30   2.0000      -1.120284       -30.4845
  31   2.0000      -1.042746       -28.3746
  32   2.0000      -1.037176       -28.2230
  33   2.0000      -1.014917       -27.6173
  34   2.0000      -0.995157       -27.0796
  35   2.0000      -0.984012       -26.7763
  36   2.0000      -0.922285       -25.0967
  37   2.0000      -0.891819       -24.2676
  38   2.0000      -0.846665       -23.0389
  39   2.0000      -0.837367       -22.7859
  40   2.0000      -0.833766       -22.6879
  41   2.0000      -0.815593       -22.1934
  42   2.0000      -0.760956       -20.7067
  43   2.0000      -0.732192       -19.9240
  44   2.0000      -0.722748       -19.6670
  45   2.0000      -0.695710       -18.9312
  46   2.0000      -0.688508       -18.7353
  47   2.0000      -0.679697       -18.4955
  48   2.0000      -0.670320       -18.2403
  49   2.0000      -0.661165       -17.9912
  50   2.0000      -0.647366       -17.6157
  51   2.0000      -0.641716       -17.4620
  52   2.0000      -0.631799       -17.1921
  53   2.0000      -0.607045       -16.5185
  54   2.0000      -0.605850       -16.4860
  55   2.0000      -0.599087       -16.3020
  56   2.0000      -0.598525       -16.2867
  57   2.0000      -0.577618       -15.7178
  58   2.0000      -0.570439       -15.5224
  59   2.0000      -0.567229       -15.4351
  60   2.0000      -0.561790       -15.2871
  61   2.0000      -0.544786       -14.8244
  62   2.0000      -0.534608       -14.5474
  63   2.0000      -0.530677       -14.4405
  64   2.0000      -0.524847       -14.2818
  65   2.0000      -0.513093       -13.9620
  66   2.0000      -0.501008       -13.6331
  67   2.0000      -0.498598       -13.5675
  68   2.0000      -0.483015       -13.1435
  69   2.0000      -0.463494       -12.6123
  70   2.0000      -0.453097       -12.3294
  71   2.0000      -0.449062       -12.2196
  72   2.0000      -0.354079        -9.6350
  73   2.0000      -0.349364        -9.5067
  74   2.0000      -0.327998        -8.9253
  75   2.0000      -0.320904        -8.7323
  76   2.0000      -0.315900        -8.5961
  77   0.0000       0.077008         2.0955
  78   0.0000       0.106204         2.8900
  79   0.0000       0.124822         3.3966
  80   0.0000       0.132877         3.6158
  81   0.0000       0.138480         3.7682

MULLIKEN ATOMIC CHARGES
-----------------------
   0 C :   -0.280006
   1 C :    0.014193
   2 O :   -0.349539
   3 C :    0.471199
   4 O :   -0.436770
   5 C :   -0.229646
   6 C :    0.151773
   7 C :   -0.273660
   8 N :   -0.120457
   9 C :    0.212183
  10 S :   -0.440710
  11 N :   -0.205469
  12 C :    0.057176
  13 C :    0.073303
  14 C :   -0.194968
  15 C :   -0.131403
  16 C :   -0.278201
  17 C :    0.316689
  18 O :   -0.356661
  19 C :   -0.268922
  20 H :    0.094882
  21 H :    0.098305
  22 H :    0.102873
  23 H :    0.102855
  24 H :    0.122575
  25 H :    0.131963
  26 H :    0.130880
  27 H :    0.094923
  28 H :    0.197075
  29 H :    0.195000
  30 H :    0.149532
  31 H :    0.149220
  32 H :    0.163594
  33 H :    0.130303
  34 H :    0.240681
  35 H :    0.165236
Sum of atomic charges:    0.0000000

LOEWDIN ATOMIC CHARGES
----------------------
   0 C :    0.104796
   1 C :   -0.015240
   2 O :    0.310629
   3 C :   -0.413641
   4 O :    0.094103
   5 C :   -0.094223
   6 C :   -0.059301
   7 C :    0.131468
   8 N :    0.406543
   9 C :   -0.456202
  10 S :   -0.035971
  11 N :    0.396492
  12 C :   -0.052437
  13 C :   -0.038815
  14 C :    0.014571
  15 C :    0.039917
  16 C :   -0.001429
  17 C :   -0.189251
  18 O :    0.395275
  19 C :    0.031884
  20 H :   -0.028530
  21 H :   -0.027721
  22 H :   -0.024783
  23 H :   -0.028476
  24 H :   -0.028306
  25 H :   -0.004548
  26 H :   -0.004016
  27 H :   -0.023474
  28 H :   -0.057598
  29 H :   -0.064574
  30 H :   -0.011556
  31 H :   -0.030616
  32 H :   -0.021790
  33 H :   -0.035507
  34 H :   -0.153944
  35 H :   -0.023730

  Mayer bond orders larger than 0.100000
B(  0-C ,  1-C ) :   0.9674 B(  0-C , 20-H ) :   0.9731 B(  0-C , 21-H ) :   0.9768
B(  0-C , 22-H ) :   0.9779 B(  1-C ,  2-O ) :   0.8908 B(  1-C , 23-H ) :   0.9849
B(  1-C , 24-H ) :   0.9758 B(  2-O ,  3-C ) :   1.1759 B(  3-C ,  4-O ) :   1.9664
B(  3-C ,  5-C ) :   1.0568 B(  5-C ,  6-C ) :   1.6549 B(  5-C , 12-C ) :   0.9719
B(  6-C ,  7-C ) :   0.9670 B(  6-C ,  8-N ) :   1.1662 B(  7-C , 25-H ) :   0.9605
B(  7-C , 26-H ) :   0.9603 B(  7-C , 27-H ) :   0.9903 B(  8-N ,  9-C ) :   1.1833
B(  8-N , 28-H ) :   0.9479 B(  9-C , 10-S ) :   1.6061 B(  9-C , 11-N ) :   1.3059
B( 11-N , 12-C ) :   0.9866 B( 11-N , 29-H ) :   0.9515 B( 12-C , 13-C ) :   0.9364
B( 12-C , 30-H ) :   1.0025 B( 13-C , 14-C ) :   1.3516 B( 13-C , 19-C ) :   1.3817
B( 14-C , 15-C ) :   1.3883 B( 14-C , 31-H ) :   0.9719 B( 15-C , 16-C ) :   1.3616
B( 15-C , 32-H ) :   0.9701 B( 16-C , 17-C ) :   1.3312 B( 16-C , 33-H ) :   0.9850
B( 17-C , 18-O ) :   1.1100 B( 17-C , 19-C ) :   1.3715 B( 18-O , 34-H ) :   0.9798
B( 19-C , 35-H ) :   0.9583

MP2 TOTAL ENERGY:    -1274.351628619 Eh
FINAL SINGLE POINT ENERGY     -1274.351628619249

DIPOLE MOMENT
-------------
                                X             Y             Z
Electronic contribution:      8.68100      11.49784       7.31464
Nuclear contribution   :     -9.54548     -13.26457      -7.79043
                        -----------------------------------------
Total Dipole Moment    :     -0.86448      -1.76673      -0.47580
                        -----------------------------------------
Magnitude (a.u.)       :      2.02362
Magnitude (Debye)      :      5.14363

Rotational constants in cm-1:     0.012153     0.008600     0.006210
Rotational constants in MHz :   364.326910   257.831000   186.170254

                             ****ORCA TERMINATED NORMALLY****
TOTAL RUN TIME: 0 days 2 hours 27 minutes 25 seconds 57 msec
