                         Program Version 4.2.0 -  RELEASE  -
|  1> ! ri-mp2 cc-pvtz cc-pvtz/c TightSCF  NoKeepInts
|  2>
|  3> %scf
|  4>   MaxCore 4096
|  5> end
|  6> *xyz  0  1
|  7>     C       15.3335938   14.8738053   17.2709884
|  8>     C       15.5915608   15.1638508   15.7753900
|  9>     O       16.8819165   15.7630810   15.5044843
| 10>     C       17.9017054   15.7592569   16.4119225
| 11>     O       18.5497112   14.7449096   16.6013532
| 12>     C       17.9123370   16.9103795   17.3792157
| 13>     C       17.3422920   18.1208945   17.1445264
| 14>     C       16.6025287   18.5783877   15.9043306
| 15>     N       17.4843549   19.1483671   18.0829411
| 16>     C       18.3201766   19.1062645   19.1676345
| 17>     S       18.5436751   20.4198620   20.1470517
| 18>     N       18.9603583   17.9151590   19.3988273
| 19>     C       18.6739603   16.6554710   18.6863652
| 20>     C       17.9168983   15.6865976   19.5922679
| 21>     C       18.3479539   14.3535401   19.7240739
| 22>     C       17.6500579   13.4511608   20.5438998
| 23>     C       16.5097048   13.8841073   21.2411676
| 24>     C       16.0763190   15.2104805   21.1137773
| 25>     O       14.9698343   15.6296563   21.7776945
| 26>     C       16.7734070   16.1065865   20.2974540
| 27>     H       16.0801499   14.1821991   17.6824025
| 28>     H       14.3496410   14.4070059   17.3994280
| 29>     H       15.3394662   15.7982977   17.8597321
| 30>     H       15.5338008   14.2113349   15.2323052
| 31>     H       14.7975864   15.8111321   15.3818837
| 32>     H       15.5944736   18.1492420   15.8710070
| 33>     H       17.1339077   18.2719272   14.9944447
| 34>     H       16.4995413   19.6694163   15.8560075
| 35>     H       17.0262063   20.0322802   17.9279560
| 36>     H       19.5513641   17.9006783   20.2202328
| 37>     H       19.6389409   16.1958499   18.4272106
| 38>     H       19.2190940   14.0102145   19.1706597
| 39>     H       17.9911000   12.4209421   20.6298780
| 40>     H       15.9659414   13.1894798   21.8727195
| 41>     H       14.6646316   14.8919817   22.3270403
| 42>     H       16.4188088   17.1282002   20.2157265
| 43> *
| 44>
| 45>                          ****END OF INPUT****

CARTESIAN COORDINATES (ANGSTROEM)
---------------------------------
  C     15.333594   14.873805   17.270988
  C     15.591561   15.163851   15.775390
  O     16.881916   15.763081   15.504484
  C     17.901705   15.759257   16.411922
  O     18.549711   14.744910   16.601353
  C     17.912337   16.910380   17.379216
  C     17.342292   18.120894   17.144526
  C     16.602529   18.578388   15.904331
  N     17.484355   19.148367   18.082941
  C     18.320177   19.106265   19.167634
  S     18.543675   20.419862   20.147052
  N     18.960358   17.915159   19.398827
  C     18.673960   16.655471   18.686365
  C     17.916898   15.686598   19.592268
  C     18.347954   14.353540   19.724074
  C     17.650058   13.451161   20.543900
  C     16.509705   13.884107   21.241168
  C     16.076319   15.210480   21.113777
  O     14.969834   15.629656   21.777694
  C     16.773407   16.106586   20.297454
  H     16.080150   14.182199   17.682402
  H     14.349641   14.407006   17.399428
  H     15.339466   15.798298   17.859732
  H     15.533801   14.211335   15.232305
  H     14.797586   15.811132   15.381884
  H     15.594474   18.149242   15.871007
  H     17.133908   18.271927   14.994445
  H     16.499541   19.669416   15.856007
  H     17.026206   20.032280   17.927956
  H     19.551364   17.900678   20.220233
  H     19.638941   16.195850   18.427211
  H     19.219094   14.010215   19.170660
  H     17.991100   12.420942   20.629878
  H     15.965941   13.189480   21.872719
  H     14.664632   14.891982   22.327040
  H     16.418809   17.128200   20.215726

 Total Charge           Charge          ....    0
 Multiplicity           Mult            ....    1
 Number of Electrons    NEL             ....  154
 Basis Dimension        Dim             ....  828

ORBITAL ENERGIES
----------------

  NO   OCC          E(Eh)            E(eV)
   0   2.0000     -91.890776     -2500.4751
   1   2.0000     -20.595460      -560.4310
   2   2.0000     -20.581737      -560.0575
   3   2.0000     -20.552026      -559.2491
   4   2.0000     -15.631486      -425.3544
   5   2.0000     -15.609093      -424.7450
   6   2.0000     -11.395587      -310.0897
   7   2.0000     -11.385662      -309.8196
   8   2.0000     -11.338978      -308.5493
   9   2.0000     -11.311417      -307.7993
  10   2.0000     -11.308347      -307.7158
  11   2.0000     -11.306954      -307.6779
  12   2.0000     -11.262943      -306.4803
  13   2.0000     -11.262425      -306.4662
  14   2.0000     -11.257090      -306.3210
  15   2.0000     -11.251471      -306.1681
  16   2.0000     -11.241270      -305.8905
  17   2.0000     -11.236866      -305.7707
  18   2.0000     -11.233427      -305.6771
  19   2.0000     -11.228700      -305.5485
  20   2.0000      -8.895825      -242.0677
  21   2.0000      -6.577397      -178.9801
  22   2.0000      -6.575393      -178.9255
  23   2.0000      -6.574802      -178.9095
  24   2.0000      -1.446037       -39.3487
  25   2.0000      -1.415266       -38.5113
  26   2.0000      -1.353876       -36.8408
  27   2.0000      -1.342329       -36.5266
  28   2.0000      -1.239683       -33.7335
  29   2.0000      -1.155649       -31.4468
  30   2.0000      -1.121657       -30.5218
  31   2.0000      -1.044029       -28.4095
  32   2.0000      -1.033119       -28.1126
  33   2.0000      -1.013567       -27.5805
  34   2.0000      -1.001954       -27.2646
  35   2.0000      -0.987470       -26.8704
  36   2.0000      -0.925062       -25.1722
  37   2.0000      -0.897152       -24.4128
  38   2.0000      -0.851283       -23.1646
  39   2.0000      -0.839443       -22.8424
  40   2.0000      -0.831759       -22.6333
  41   2.0000      -0.819884       -22.3102
  42   2.0000      -0.744785       -20.2666
  43   2.0000      -0.730450       -19.8766
  44   2.0000      -0.727763       -19.8034
  45   2.0000      -0.693415       -18.8688
  46   2.0000      -0.687596       -18.7104
  47   2.0000      -0.676930       -18.4202
  48   2.0000      -0.673769       -18.3342
  49   2.0000      -0.662267       -18.0212
  50   2.0000      -0.651756       -17.7352
  51   2.0000      -0.648420       -17.6444
  52   2.0000      -0.637973       -17.3601
  53   2.0000      -0.625136       -17.0108
  54   2.0000      -0.604187       -16.4408
  55   2.0000      -0.603398       -16.4193
  56   2.0000      -0.599414       -16.3109
  57   2.0000      -0.580966       -15.8089
  58   2.0000      -0.575569       -15.6620
  59   2.0000      -0.563917       -15.3450
  60   2.0000      -0.553379       -15.0582
  61   2.0000      -0.545858       -14.8536
  62   2.0000      -0.537416       -14.6238
  63   2.0000      -0.534745       -14.5511
  64   2.0000      -0.520443       -14.1620
  65   2.0000      -0.512240       -13.9388
  66   2.0000      -0.499780       -13.5997
  67   2.0000      -0.493680       -13.4337
  68   2.0000      -0.481556       -13.1038
  69   2.0000      -0.467405       -12.7187
  70   2.0000      -0.454024       -12.3546
  71   2.0000      -0.449449       -12.2301
  72   2.0000      -0.356789        -9.7087
  73   2.0000      -0.346769        -9.4361
  74   2.0000      -0.329828        -8.9751
  75   2.0000      -0.319749        -8.7008
  76   2.0000      -0.317323        -8.6348
  77   0.0000       0.068502         1.8640
  78   0.0000       0.107344         2.9210
  79   0.0000       0.118147         3.2149
  80   0.0000       0.132373         3.6021
  81   0.0000       0.137275         3.7354

MULLIKEN ATOMIC CHARGES
-----------------------
   0 C :   -0.347048
   1 C :    0.043100
   2 O :   -0.390086
   3 C :    0.501854
   4 O :   -0.401058
   5 C :   -0.239497
   6 C :    0.161289
   7 C :   -0.298004
   8 N :   -0.123043
   9 C :    0.191321
  10 S :   -0.435023
  11 N :   -0.199837
  12 C :    0.045520
  13 C :    0.055051
  14 C :   -0.181406
  15 C :   -0.133896
  16 C :   -0.278874
  17 C :    0.320379
  18 O :   -0.359938
  19 C :   -0.291213
  20 H :    0.132992
  21 H :    0.119089
  22 H :    0.104690
  23 H :    0.117449
  24 H :    0.100526
  25 H :    0.116562
  26 H :    0.139092
  27 H :    0.111090
  28 H :    0.197504
  29 H :    0.194148
  30 H :    0.157199
  31 H :    0.162696
  32 H :    0.162135
  33 H :    0.130645
  34 H :    0.240755
  35 H :    0.173838
Sum of atomic charges:   -0.0000000

LOEWDIN ATOMIC CHARGES
----------------------
   0 C :    0.106163
   1 C :   -0.014026
   2 O :    0.280597
   3 C :   -0.421979
   4 O :    0.125245
   5 C :   -0.094163
   6 C :   -0.068714
   7 C :    0.127357
   8 N :    0.405547
   9 C :   -0.460094
  10 S :   -0.033310
  11 N :    0.397763
  12 C :   -0.045692
  13 C :   -0.040227
  14 C :    0.021197
  15 C :    0.040866
  16 C :   -0.002353
  17 C :   -0.193595
  18 O :    0.393964
  19 C :    0.029696
  20 H :   -0.019602
  21 H :   -0.022326
  22 H :   -0.033409
  23 H :   -0.025157
  24 H :   -0.031056
  25 H :   -0.012955
  26 H :   -0.005314
  27 H :   -0.018827
  28 H :   -0.058667
  29 H :   -0.063544
  30 H :   -0.003374
  31 H :   -0.024079
  32 H :   -0.020217
  33 H :   -0.035681
  34 H :   -0.154098
  35 H :   -0.025937

  Mayer bond orders larger than 0.100000
B(  0-C ,  1-C ) :   0.9621 B(  0-C , 20-H ) :   0.9640 B(  0-C , 21-H ) :   0.9746
B(  0-C , 22-H ) :   0.9704 B(  1-C ,  2-O ) :   0.8921 B(  1-C , 23-H ) :   0.9850
B(  1-C , 24-H ) :   0.9795 B(  2-O ,  3-C ) :   1.0954 B(  3-C ,  4-O ) :   2.0359
B(  3-C ,  5-C ) :   1.0134 B(  5-C ,  6-C ) :   1.6510 B(  5-C , 12-C ) :   0.9647
B(  6-C ,  7-C ) :   0.9530 B(  6-C ,  8-N ) :   1.1415 B(  7-C , 25-H ) :   0.9671
B(  7-C , 26-H ) :   0.9640 B(  7-C , 27-H ) :   0.9896 B(  8-N ,  9-C ) :   1.1783
B(  8-N , 28-H ) :   0.9488 B(  9-C , 10-S ) :   1.6162 B(  9-C , 11-N ) :   1.3014
B( 11-N , 12-C ) :   0.9878 B( 11-N , 29-H ) :   0.9521 B( 12-C , 13-C ) :   0.9475
B( 12-C , 30-H ) :   0.9994 B( 13-C , 14-C ) :   1.3829 B( 13-C , 19-C ) :   1.3459
B( 14-C , 15-C ) :   1.3947 B( 14-C , 31-H ) :   0.9612 B( 15-C , 16-C ) :   1.3617
B( 15-C , 32-H ) :   0.9707 B( 16-C , 17-C ) :   1.3316 B( 16-C , 33-H ) :   0.9850
B( 17-C , 18-O ) :   1.1105 B( 17-C , 19-C ) :   1.3693 B( 18-O , 34-H ) :   0.9802
B( 19-C , 35-H ) :   0.9584

MP2 TOTAL ENERGY:    -1274.327693432 Eh
FINAL SINGLE POINT ENERGY     -1274.327693431607

DIPOLE MOMENT
-------------
                                X             Y             Z
Electronic contribution:      9.69924       8.11417       6.30507
Nuclear contribution   :    -11.16952      -9.20603      -6.94674
                        -----------------------------------------
Total Dipole Moment    :     -1.47028      -1.09186      -0.64167
                        -----------------------------------------
Magnitude (a.u.)       :      1.94052
Magnitude (Debye)      :      4.93242

Rotational constants in cm-1:     0.011451     0.009859     0.006751
Rotational constants in MHz :   343.285938   295.575210   202.389549

                             ****ORCA TERMINATED NORMALLY****
TOTAL RUN TIME: 0 days 1 hours 49 minutes 42 seconds 138 msec
