                         Program Version 4.2.0 -  RELEASE  -
|  1> ! ri-mp2 cc-pvtz cc-pvtz/c TightSCF  NoKeepInts
|  2>
|  3> %scf
|  4>   MaxCore 4096
|  5> end
|  6> *xyz  0  1
|  7>     C       15.2045380   13.6267214   16.1908484
|  8>     C       16.2834692   14.4890985   16.8654401
|  9>     O       16.8571275   15.3152671   15.8433317
| 10>     C       17.0284404   16.6701941   15.9544086
| 11>     O       16.8273419   17.3579343   14.9712039
| 12>     C       17.4928204   17.2531664   17.2701071
| 13>     C       17.3212859   18.5748362   17.5398086
| 14>     C       16.4962564   19.5753142   16.7590659
| 15>     N       18.0102742   19.1657471   18.6048837
| 16>     C       19.1058861   18.6020051   19.2062575
| 17>     S       20.0724701   19.4460369   20.2497246
| 18>     N       19.3729571   17.2988186   18.8671807
| 19>     C       18.3946023   16.4189373   18.2037002
| 20>     C       17.6594521   15.6535227   19.3036259
| 21>     C       18.1265676   14.3852907   19.6994490
| 22>     C       17.4722111   13.6631443   20.7112603
| 23>     C       16.3469266   14.2172820   21.3438515
| 24>     C       15.8896340   15.4872560   20.9685482
| 25>     O       14.8072267   16.0292919   21.5805898
| 26>     C       16.5401987   16.2022219   19.9582099
| 27>     H       14.7181215   12.9733356   16.9252821
| 28>     H       15.6464112   12.9968179   15.4085906
| 29>     H       14.4353895   14.2595394   15.7301628
| 30>     H       15.7907804   15.0956646   17.6343377
| 31>     H       17.0458860   13.8465292   17.3215578
| 32>     H       15.5416704   19.1357373   16.4434748
| 33>     H       17.0287312   19.8843332   15.8500001
| 34>     H       16.2639042   20.4767835   17.3380790
| 35>     H       17.8408558   20.1327612   18.8323287
| 36>     H       20.1819195   16.9020613   19.3274302
| 37>     H       18.9485562   15.6992528   17.5839912
| 38>     H       19.0025383   13.9558557   19.2198554
| 39>     H       17.8411572   12.6823505   21.0077277
| 40>     H       15.8400388   13.6647584   22.1285501
| 41>     H       14.5404756   15.4265440   22.2915149
| 42>     H       16.1708776   17.1875886   19.6996214
| 43> *
| 44>
| 45>                          ****END OF INPUT****

CARTESIAN COORDINATES (ANGSTROEM)
---------------------------------
  C     15.204538   13.626721   16.190848
  C     16.283469   14.489098   16.865440
  O     16.857128   15.315267   15.843332
  C     17.028440   16.670194   15.954409
  O     16.827342   17.357934   14.971204
  C     17.492820   17.253166   17.270107
  C     17.321286   18.574836   17.539809
  C     16.496256   19.575314   16.759066
  N     18.010274   19.165747   18.604884
  C     19.105886   18.602005   19.206257
  S     20.072470   19.446037   20.249725
  N     19.372957   17.298819   18.867181
  C     18.394602   16.418937   18.203700
  C     17.659452   15.653523   19.303626
  C     18.126568   14.385291   19.699449
  C     17.472211   13.663144   20.711260
  C     16.346927   14.217282   21.343851
  C     15.889634   15.487256   20.968548
  O     14.807227   16.029292   21.580590
  C     16.540199   16.202222   19.958210
  H     14.718122   12.973336   16.925282
  H     15.646411   12.996818   15.408591
  H     14.435389   14.259539   15.730163
  H     15.790780   15.095665   17.634338
  H     17.045886   13.846529   17.321558
  H     15.541670   19.135737   16.443475
  H     17.028731   19.884333   15.850000
  H     16.263904   20.476783   17.338079
  H     17.840856   20.132761   18.832329
  H     20.181919   16.902061   19.327430
  H     18.948556   15.699253   17.583991
  H     19.002538   13.955856   19.219855
  H     17.841157   12.682350   21.007728
  H     15.840039   13.664758   22.128550
  H     14.540476   15.426544   22.291515
  H     16.170878   17.187589   19.699621

 Total Charge           Charge          ....    0
 Multiplicity           Mult            ....    1
 Number of Electrons    NEL             ....  154
 Basis Dimension        Dim             ....  828

ORBITAL ENERGIES
----------------

  NO   OCC          E(Eh)            E(eV)
   0   2.0000     -91.892719     -2500.5280
   1   2.0000     -20.604987      -560.6902
   2   2.0000     -20.593130      -560.3676
   3   2.0000     -20.540134      -558.9255
   4   2.0000     -15.632619      -425.3852
   5   2.0000     -15.612179      -424.8290
   6   2.0000     -11.393619      -310.0361
   7   2.0000     -11.386885      -309.8529
   8   2.0000     -11.337811      -308.5175
   9   2.0000     -11.322995      -308.1144
  10   2.0000     -11.319620      -308.0225
  11   2.0000     -11.297307      -307.4153
  12   2.0000     -11.269758      -306.6657
  13   2.0000     -11.264995      -306.5361
  14   2.0000     -11.262446      -306.4667
  15   2.0000     -11.253903      -306.2343
  16   2.0000     -11.250843      -306.1510
  17   2.0000     -11.246963      -306.0454
  18   2.0000     -11.245593      -306.0081
  19   2.0000     -11.226790      -305.4965
  20   2.0000      -8.897680      -242.1182
  21   2.0000      -6.579232      -179.0300
  22   2.0000      -6.577253      -178.9762
  23   2.0000      -6.576646      -178.9596
  24   2.0000      -1.444551       -39.3082
  25   2.0000      -1.424555       -38.7641
  26   2.0000      -1.353592       -36.8331
  27   2.0000      -1.344682       -36.5906
  28   2.0000      -1.243375       -33.8340
  29   2.0000      -1.165546       -31.7161
  30   2.0000      -1.122485       -30.5444
  31   2.0000      -1.049349       -28.5542
  32   2.0000      -1.035447       -28.1759
  33   2.0000      -1.024461       -27.8770
  34   2.0000      -1.001360       -27.2484
  35   2.0000      -0.987669       -26.8758
  36   2.0000      -0.928516       -25.2662
  37   2.0000      -0.880160       -23.9504
  38   2.0000      -0.852919       -23.2091
  39   2.0000      -0.849981       -23.1292
  40   2.0000      -0.842315       -22.9206
  41   2.0000      -0.833996       -22.6942
  42   2.0000      -0.763112       -20.7653
  43   2.0000      -0.738772       -20.1030
  44   2.0000      -0.717286       -19.5184
  45   2.0000      -0.704991       -19.1838
  46   2.0000      -0.696470       -18.9519
  47   2.0000      -0.677585       -18.4380
  48   2.0000      -0.674514       -18.3545
  49   2.0000      -0.668777       -18.1984
  50   2.0000      -0.654191       -17.8014
  51   2.0000      -0.646630       -17.5957
  52   2.0000      -0.642430       -17.4814
  53   2.0000      -0.616839       -16.7850
  54   2.0000      -0.608103       -16.5473
  55   2.0000      -0.603155       -16.4127
  56   2.0000      -0.587764       -15.9939
  57   2.0000      -0.584736       -15.9115
  58   2.0000      -0.574794       -15.6409
  59   2.0000      -0.572393       -15.5756
  60   2.0000      -0.563706       -15.3392
  61   2.0000      -0.549567       -14.9545
  62   2.0000      -0.540877       -14.7180
  63   2.0000      -0.534330       -14.5399
  64   2.0000      -0.522083       -14.2066
  65   2.0000      -0.517074       -14.0703
  66   2.0000      -0.510929       -13.9031
  67   2.0000      -0.504092       -13.7170
  68   2.0000      -0.482775       -13.1370
  69   2.0000      -0.465070       -12.6552
  70   2.0000      -0.450886       -12.2692
  71   2.0000      -0.444475       -12.0948
  72   2.0000      -0.363123        -9.8811
  73   2.0000      -0.356607        -9.7038
  74   2.0000      -0.333728        -9.0812
  75   2.0000      -0.328533        -8.9398
  76   2.0000      -0.318993        -8.6802
  77   0.0000       0.072172         1.9639
  78   0.0000       0.098509         2.6806
  79   0.0000       0.116533         3.1710
  80   0.0000       0.124247         3.3809
  81   0.0000       0.128844         3.5060

MULLIKEN ATOMIC CHARGES
-----------------------
   0 C :   -0.255260
   1 C :    0.023120
   2 O :   -0.316325
   3 C :    0.438934
   4 O :   -0.386987
   5 C :   -0.252037
   6 C :    0.121824
   7 C :   -0.271623
   8 N :   -0.122476
   9 C :    0.215727
  10 S :   -0.433473
  11 N :   -0.202032
  12 C :    0.053883
  13 C :    0.056537
  14 C :   -0.230098
  15 C :   -0.127320
  16 C :   -0.274892
  17 C :    0.313641
  18 O :   -0.355474
  19 C :   -0.253424
  20 H :    0.087416
  21 H :    0.100845
  22 H :    0.099844
  23 H :    0.100529
  24 H :    0.092313
  25 H :    0.123267
  26 H :    0.143503
  27 H :    0.093654
  28 H :    0.199709
  29 H :    0.189694
  30 H :    0.156513
  31 H :    0.157454
  32 H :    0.163791
  33 H :    0.133328
  34 H :    0.242997
  35 H :    0.172898
Sum of atomic charges:    0.0000000

LOEWDIN ATOMIC CHARGES
----------------------
   0 C :    0.109666
   1 C :   -0.030433
   2 O :    0.307008
   3 C :   -0.424457
   4 O :    0.117020
   5 C :   -0.098769
   6 C :   -0.061117
   7 C :    0.129291
   8 N :    0.408539
   9 C :   -0.453525
  10 S :   -0.028876
  11 N :    0.395992
  12 C :   -0.051712
  13 C :   -0.037763
  14 C :    0.006500
  15 C :    0.043598
  16 C :   -0.000385
  17 C :   -0.189261
  18 O :    0.396783
  19 C :    0.028421
  20 H :   -0.027050
  21 H :   -0.025867
  22 H :   -0.024221
  23 H :   -0.032136
  24 H :   -0.033697
  25 H :   -0.006626
  26 H :   -0.001610
  27 H :   -0.022836
  28 H :   -0.056700
  29 H :   -0.067361
  30 H :   -0.004355
  31 H :   -0.031947
  32 H :   -0.018709
  33 H :   -0.033912
  34 H :   -0.151465
  35 H :   -0.028029

  Mayer bond orders larger than 0.100000
B(  0-C ,  1-C ) :   0.9812 B(  0-C , 20-H ) :   0.9778 B(  0-C , 21-H ) :   0.9809
B(  0-C , 22-H ) :   0.9777 B(  1-C ,  2-O ) :   0.8934 B(  1-C , 23-H ) :   0.9627
B(  1-C , 24-H ) :   0.9734 B(  2-O ,  3-C ) :   1.1847 B(  3-C ,  4-O ) :   2.0725
B(  3-C ,  5-C ) :   0.9838 B(  5-C ,  6-C ) :   1.6581 B(  5-C , 12-C ) :   0.9612
B(  6-C ,  7-C ) :   0.9779 B(  6-C ,  8-N ) :   1.1453 B(  7-C , 25-H ) :   0.9689
B(  7-C , 26-H ) :   0.9524 B(  7-C , 27-H ) :   0.9845 B(  8-N ,  9-C ) :   1.1833
B(  8-N , 28-H ) :   0.9493 B(  9-C , 10-S ) :   1.6179 B(  9-C , 11-N ) :   1.2934
B( 11-N , 12-C ) :   0.9568 B( 11-N , 29-H ) :   0.9542 B( 12-C , 13-C ) :   0.9602
B( 12-C , 30-H ) :   0.9987 B( 13-C , 14-C ) :   1.3448 B( 13-C , 19-C ) :   1.3607
B( 14-C , 15-C ) :   1.3959 B( 14-C , 31-H ) :   0.9724 B( 15-C , 16-C ) :   1.3678
B( 15-C , 32-H ) :   0.9693 B( 16-C , 17-C ) :   1.3302 B( 16-C , 33-H ) :   0.9836
B( 17-C , 18-O ) :   1.1176 B( 17-C , 19-C ) :   1.3712 B( 18-O , 34-H ) :   0.9783
B( 19-C , 35-H ) :   0.9528

MP2 TOTAL ENERGY:    -1274.332194052 Eh
FINAL SINGLE POINT ENERGY     -1274.332194051532

DIPOLE MOMENT
-------------
                                X             Y             Z
Electronic contribution:      9.74841       9.92746       5.15246
Nuclear contribution   :    -10.96476     -11.53703      -4.25365
                        -----------------------------------------
Total Dipole Moment    :     -1.21635      -1.60957       0.89880
                        -----------------------------------------
Magnitude (a.u.)       :      2.20864
Magnitude (Debye)      :      5.61391

Rotational constants in cm-1:     0.011086     0.009555     0.006436
Rotational constants in MHz :   332.362129   286.449526   192.940031

                             ****ORCA TERMINATED NORMALLY****
TOTAL RUN TIME: 0 days 1 hours 51 minutes 24 seconds 555 msec
