                         Program Version 4.2.0 -  RELEASE  -
|  1> ! ri-mp2 cc-pvtz cc-pvtz/c TightSCF  NoKeepInts
|  2>
|  3> %scf
|  4>   MaxCore 4096
|  5> end
|  6> *xyz  0  1
|  7>     C       15.3035691   14.2695918   17.1983938
|  8>     C       16.4610907   14.0281261   16.2088801
|  9>     O       17.5333090   14.9645703   16.4435647
| 10>     C       17.3319307   16.2867322   16.1614721
| 11>     O       16.6389868   16.6285640   15.2183005
| 12>     C       17.7007751   17.1932753   17.3047148
| 13>     C       17.3878148   18.5148584   17.3175864
| 14>     C       16.5900331   19.2825291   16.2850887
| 15>     N       17.8637598   19.3360697   18.3447626
| 16>     C       18.8025220   18.9611158   19.2690359
| 17>     S       19.4465911   20.0350177   20.3496429
| 18>     N       19.1912579   17.6458498   19.2429334
| 19>     C       18.5311095   16.5916285   18.4513737
| 20>     C       17.7080465   15.7094822   19.3845277
| 21>     C       18.1151597   14.3895190   19.6562252
| 22>     C       17.3792337   13.5814785   20.5395130
| 23>     C       16.2283343   14.0979980   21.1591390
| 24>     C       15.8229596   15.4135814   20.8950498
| 25>     O       14.7123777   15.9151871   21.4913752
| 26>     C       16.5573538   16.2153863   20.0158553
| 27>     H       15.6254542   14.0805399   18.2272885
| 28>     H       14.4705125   13.5911250   16.9792071
| 29>     H       14.9262800   15.2975161   17.1315392
| 30>     H       16.8365266   13.0054157   16.3409990
| 31>     H       16.0955580   14.1202020   15.1768758
| 32>     H       17.0845405   19.2407403   15.3062156
| 33>     H       16.4569518   20.3393854   16.5441642
| 34>     H       15.5911357   18.8438019   16.1658514
| 35>     H       17.5961714   20.3070845   18.3696399
| 36>     H       19.8629477   17.3908176   19.9553601
| 37>     H       19.3210594   15.9740659   18.0012242
| 38>     H       19.0051137   13.9877726   19.1791737
| 39>     H       17.7021871   12.5618486   20.7426250
| 40>     H       15.6571991   13.4782346   21.8425736
| 41>     H       14.3754082   15.2382158   22.0972909
| 42>     H       16.2337391   17.2346728   19.8365370
| 43> *
| 44>
| 45>                          ****END OF INPUT****

CARTESIAN COORDINATES (ANGSTROEM)
---------------------------------
  C     15.303569   14.269592   17.198394
  C     16.461091   14.028126   16.208880
  O     17.533309   14.964570   16.443565
  C     17.331931   16.286732   16.161472
  O     16.638987   16.628564   15.218300
  C     17.700775   17.193275   17.304715
  C     17.387815   18.514858   17.317586
  C     16.590033   19.282529   16.285089
  N     17.863760   19.336070   18.344763
  C     18.802522   18.961116   19.269036
  S     19.446591   20.035018   20.349643
  N     19.191258   17.645850   19.242933
  C     18.531109   16.591628   18.451374
  C     17.708046   15.709482   19.384528
  C     18.115160   14.389519   19.656225
  C     17.379234   13.581478   20.539513
  C     16.228334   14.097998   21.159139
  C     15.822960   15.413581   20.895050
  O     14.712378   15.915187   21.491375
  C     16.557354   16.215386   20.015855
  H     15.625454   14.080540   18.227289
  H     14.470512   13.591125   16.979207
  H     14.926280   15.297516   17.131539
  H     16.836527   13.005416   16.340999
  H     16.095558   14.120202   15.176876
  H     17.084540   19.240740   15.306216
  H     16.456952   20.339385   16.544164
  H     15.591136   18.843802   16.165851
  H     17.596171   20.307084   18.369640
  H     19.862948   17.390818   19.955360
  H     19.321059   15.974066   18.001224
  H     19.005114   13.987773   19.179174
  H     17.702187   12.561849   20.742625
  H     15.657199   13.478235   21.842574
  H     14.375408   15.238216   22.097291
  H     16.233739   17.234673   19.836537

 Total Charge           Charge          ....    0
 Multiplicity           Mult            ....    1
 Number of Electrons    NEL             ....  154
 Basis Dimension        Dim             ....  828

ORBITAL ENERGIES
----------------

  NO   OCC          E(Eh)            E(eV)
   0   2.0000     -91.889962     -2500.4530
   1   2.0000     -20.598625      -560.5171
   2   2.0000     -20.591650      -560.3273
   3   2.0000     -20.544148      -559.0347
   4   2.0000     -15.630504      -425.3276
   5   2.0000     -15.608728      -424.7351
   6   2.0000     -11.394436      -310.0584
   7   2.0000     -11.384637      -309.7917
   8   2.0000     -11.337177      -308.5003
   9   2.0000     -11.315988      -307.9237
  10   2.0000     -11.310265      -307.7680
  11   2.0000     -11.295703      -307.3717
  12   2.0000     -11.261226      -306.4335
  13   2.0000     -11.260034      -306.4011
  14   2.0000     -11.257588      -306.3345
  15   2.0000     -11.252936      -306.2080
  16   2.0000     -11.245328      -306.0009
  17   2.0000     -11.239932      -305.8541
  18   2.0000     -11.239838      -305.8515
  19   2.0000     -11.220806      -305.3337
  20   2.0000      -8.894994      -242.0451
  21   2.0000      -6.576561      -178.9573
  22   2.0000      -6.574566      -178.9030
  23   2.0000      -6.573972      -178.8869
  24   2.0000      -1.448985       -39.4289
  25   2.0000      -1.418309       -38.5942
  26   2.0000      -1.352082       -36.7920
  27   2.0000      -1.341429       -36.5021
  28   2.0000      -1.239613       -33.7316
  29   2.0000      -1.159229       -31.5442
  30   2.0000      -1.120896       -30.5011
  31   2.0000      -1.043828       -28.4040
  32   2.0000      -1.032211       -28.0879
  33   2.0000      -1.017145       -27.6779
  34   2.0000      -0.997051       -27.1311
  35   2.0000      -0.985257       -26.8102
  36   2.0000      -0.923866       -25.1397
  37   2.0000      -0.893709       -24.3191
  38   2.0000      -0.847821       -23.0704
  39   2.0000      -0.840302       -22.8658
  40   2.0000      -0.835720       -22.7411
  41   2.0000      -0.814883       -22.1741
  42   2.0000      -0.752925       -20.4881
  43   2.0000      -0.733809       -19.9680
  44   2.0000      -0.722759       -19.6673
  45   2.0000      -0.697986       -18.9932
  46   2.0000      -0.690247       -18.7826
  47   2.0000      -0.677206       -18.4277
  48   2.0000      -0.668944       -18.2029
  49   2.0000      -0.665437       -18.1075
  50   2.0000      -0.648932       -17.6583
  51   2.0000      -0.643490       -17.5103
  52   2.0000      -0.635873       -17.3030
  53   2.0000      -0.609274       -16.5792
  54   2.0000      -0.609171       -16.5764
  55   2.0000      -0.601045       -16.3553
  56   2.0000      -0.599871       -16.3233
  57   2.0000      -0.579446       -15.7675
  58   2.0000      -0.571261       -15.5448
  59   2.0000      -0.565872       -15.3981
  60   2.0000      -0.553733       -15.0679
  61   2.0000      -0.544212       -14.8088
  62   2.0000      -0.535980       -14.5848
  63   2.0000      -0.529591       -14.4109
  64   2.0000      -0.526968       -14.3395
  65   2.0000      -0.514606       -14.0032
  66   2.0000      -0.503318       -13.6960
  67   2.0000      -0.500798       -13.6274
  68   2.0000      -0.476131       -12.9562
  69   2.0000      -0.464993       -12.6531
  70   2.0000      -0.452694       -12.3184
  71   2.0000      -0.444608       -12.0984
  72   2.0000      -0.356533        -9.7018
  73   2.0000      -0.351393        -9.5619
  74   2.0000      -0.329348        -8.9620
  75   2.0000      -0.324161        -8.8209
  76   2.0000      -0.316913        -8.6237
  77   0.0000       0.071264         1.9392
  78   0.0000       0.105423         2.8687
  79   0.0000       0.122493         3.3332
  80   0.0000       0.130643         3.5550
  81   0.0000       0.136238         3.7072

MULLIKEN ATOMIC CHARGES
-----------------------
   0 C :   -0.316722
   1 C :    0.030153
   2 O :   -0.378067
   3 C :    0.459628
   4 O :   -0.424182
   5 C :   -0.216774
   6 C :    0.150455
   7 C :   -0.270054
   8 N :   -0.123904
   9 C :    0.209883
  10 S :   -0.436987
  11 N :   -0.199615
  12 C :    0.041866
  13 C :    0.058181
  14 C :   -0.184802
  15 C :   -0.131126
  16 C :   -0.277925
  17 C :    0.303693
  18 O :   -0.358510
  19 C :   -0.245448
  20 H :    0.107829
  21 H :    0.111706
  22 H :    0.106473
  23 H :    0.112264
  24 H :    0.119549
  25 H :    0.133584
  26 H :    0.094852
  27 H :    0.129996
  28 H :    0.198500
  29 H :    0.192757
  30 H :    0.150974
  31 H :    0.152139
  32 H :    0.160952
  33 H :    0.131461
  34 H :    0.241218
  35 H :    0.166002
Sum of atomic charges:   -0.0000000

LOEWDIN ATOMIC CHARGES
----------------------
   0 C :    0.106552
   1 C :   -0.015891
   2 O :    0.292119
   3 C :   -0.416788
   4 O :    0.105248
   5 C :   -0.096308
   6 C :   -0.057943
   7 C :    0.131112
   8 N :    0.406940
   9 C :   -0.456918
  10 S :   -0.033275
  11 N :    0.396724
  12 C :   -0.052601
  13 C :   -0.037873
  14 C :    0.012982
  15 C :    0.039337
  16 C :   -0.002699
  17 C :   -0.190425
  18 O :    0.396423
  19 C :    0.033199
  20 H :   -0.027352
  21 H :   -0.025748
  22 H :   -0.027559
  23 H :   -0.024372
  24 H :   -0.028574
  25 H :   -0.003322
  26 H :   -0.023324
  27 H :   -0.005538
  28 H :   -0.057565
  29 H :   -0.065070
  30 H :   -0.007798
  31 H :   -0.029461
  32 H :   -0.020747
  33 H :   -0.035240
  34 H :   -0.153385
  35 H :   -0.024860

  Mayer bond orders larger than 0.100000
B(  0-C ,  1-C ) :   0.9575 B(  0-C , 20-H ) :   0.9720 B(  0-C , 21-H ) :   0.9782
B(  0-C , 22-H ) :   0.9737 B(  1-C ,  2-O ) :   0.8857 B(  1-C , 23-H ) :   0.9840
B(  1-C , 24-H ) :   0.9822 B(  2-O ,  3-C ) :   1.1225 B(  3-C ,  4-O ) :   1.9844
B(  3-C ,  5-C ) :   1.0687 B(  5-C ,  6-C ) :   1.6527 B(  5-C , 12-C ) :   0.9723
B(  6-C ,  7-C ) :   0.9696 B(  6-C ,  8-N ) :   1.1566 B(  7-C , 25-H ) :   0.9583
B(  7-C , 26-H ) :   0.9897 B(  7-C , 27-H ) :   0.9623 B(  8-N ,  9-C ) :   1.1793
B(  8-N , 28-H ) :   0.9480 B(  9-C , 10-S ) :   1.6121 B(  9-C , 11-N ) :   1.3037
B( 11-N , 12-C ) :   0.9787 B( 11-N , 29-H ) :   0.9535 B( 12-C , 13-C ) :   0.9391
B( 12-C , 30-H ) :   1.0036 B( 13-C , 14-C ) :   1.3558 B( 13-C , 19-C ) :   1.3778
B( 14-C , 15-C ) :   1.3878 B( 14-C , 31-H ) :   0.9714 B( 15-C , 16-C ) :   1.3610
B( 15-C , 32-H ) :   0.9718 B( 16-C , 17-C ) :   1.3310 B( 16-C , 33-H ) :   0.9851
B( 17-C , 18-O ) :   1.1129 B( 17-C , 19-C ) :   1.3759 B( 18-O , 34-H ) :   0.9795
B( 19-C , 35-H ) :   0.9569

MP2 TOTAL ENERGY:    -1274.342001308 Eh
FINAL SINGLE POINT ENERGY     -1274.342001307906

DIPOLE MOMENT
-------------
                                X             Y             Z
Electronic contribution:      9.40820       9.73746       5.67299
Nuclear contribution   :    -10.33890     -11.42561      -5.78751
                        -----------------------------------------
Total Dipole Moment    :     -0.93071      -1.68815      -0.11452
                        -----------------------------------------
Magnitude (a.u.)       :      1.93111
Magnitude (Debye)      :      4.90848

Rotational constants in cm-1:     0.012138     0.009325     0.006544
Rotational constants in MHz :   363.898549   279.550145   196.170740

                             ****ORCA TERMINATED NORMALLY****
TOTAL RUN TIME: 0 days 1 hours 46 minutes 19 seconds 292 msec
