                         Program Version 4.2.0 -  RELEASE  -
|  1> ! ri-mp2 cc-pvtz cc-pvtz/c TightSCF  NoKeepInts
|  2>
|  3> %scf
|  4>   MaxCore 4096
|  5> end
|  6> *xyz  0  1
|  7>     C       14.5180829   14.5575440   16.2254603
|  8>     C       15.7549812   14.7832068   15.3385675
|  9>     O       16.4427284   15.9429671   15.8427488
| 10>     C       17.5459316   15.7960338   16.6343015
| 11>     O       18.1377674   14.7343770   16.7429629
| 12>     C       17.8238180   16.9652158   17.5361356
| 13>     C       17.3305047   18.2203561   17.3656967
| 14>     C       16.4306480   18.7296589   16.2582097
| 15>     N       17.7082298   19.2398325   18.2461723
| 16>     C       18.6720696   19.1248449   19.2127112
| 17>     S       19.1495226   20.4183536   20.1262592
| 18>     N       19.2207732   17.8793938   19.3826135
| 19>     C       18.7408042   16.6503995   18.7236782
| 20>     C       18.0377447   15.7441980   19.7311863
| 21>     C       18.4553092   14.4115612   19.9037795
| 22>     C       17.8079759   13.5712811   20.8250895
| 23>     C       16.7324401   14.0666903   21.5816507
| 24>     C       16.3107544   15.3921452   21.4102066
| 25>     O       15.2681241   15.8715627   22.1344076
| 26>     C       16.9568803   16.2260008   20.4922725
| 27>     H       14.8197595   14.3398772   17.2581565
| 28>     H       13.9292590   13.7093874   15.8556593
| 29>     H       13.8756962   15.4467662   16.2314426
| 30>     H       16.3925201   13.8887605   15.3217871
| 31>     H       15.4222539   14.9788032   14.3111630
| 32>     H       16.8287267   18.4525870   15.2741297
| 33>     H       16.3251738   19.8212625   16.2658216
| 34>     H       15.4248636   18.3007423   16.3493879
| 35>     H       17.3167608   20.1617296   18.1377458
| 36>     H       19.9063240   17.8131875   20.1239110
| 37>     H       19.6205580   16.1167887   18.3357346
| 38>     H       19.2751647   14.0205805   19.3061309
| 39>     H       18.1369477   12.5405519   20.9440834
| 40>     H       16.2283650   13.4205476   22.2924863
| 41>     H       14.9833595   15.1655925   22.7337924
| 42>     H       16.6161772   17.2492125   20.3784580
| 43> *
| 44>
| 45>                          ****END OF INPUT****

CARTESIAN COORDINATES (ANGSTROEM)
---------------------------------
  C     14.518083   14.557544   16.225460
  C     15.754981   14.783207   15.338567
  O     16.442728   15.942967   15.842749
  C     17.545932   15.796034   16.634301
  O     18.137767   14.734377   16.742963
  C     17.823818   16.965216   17.536136
  C     17.330505   18.220356   17.365697
  C     16.430648   18.729659   16.258210
  N     17.708230   19.239832   18.246172
  C     18.672070   19.124845   19.212711
  S     19.149523   20.418354   20.126259
  N     19.220773   17.879394   19.382614
  C     18.740804   16.650399   18.723678
  C     18.037745   15.744198   19.731186
  C     18.455309   14.411561   19.903779
  C     17.807976   13.571281   20.825090
  C     16.732440   14.066690   21.581651
  C     16.310754   15.392145   21.410207
  O     15.268124   15.871563   22.134408
  C     16.956880   16.226001   20.492272
  H     14.819759   14.339877   17.258156
  H     13.929259   13.709387   15.855659
  H     13.875696   15.446766   16.231443
  H     16.392520   13.888761   15.321787
  H     15.422254   14.978803   14.311163
  H     16.828727   18.452587   15.274130
  H     16.325174   19.821262   16.265822
  H     15.424864   18.300742   16.349388
  H     17.316761   20.161730   18.137746
  H     19.906324   17.813188   20.123911
  H     19.620558   16.116789   18.335735
  H     19.275165   14.020580   19.306131
  H     18.136948   12.540552   20.944083
  H     16.228365   13.420548   22.292486
  H     14.983360   15.165593   22.733792
  H     16.616177   17.249212   20.378458

 Total Charge           Charge          ....    0
 Multiplicity           Mult            ....    1
 Number of Electrons    NEL             ....  154
 Basis Dimension        Dim             ....  828

ORBITAL ENERGIES
----------------

  NO   OCC          E(Eh)            E(eV)
   0   2.0000     -91.888086     -2500.4019
   1   2.0000     -20.602858      -560.6323
   2   2.0000     -20.591971      -560.3360
   3   2.0000     -20.545762      -559.0786
   4   2.0000     -15.628419      -425.2709
   5   2.0000     -15.606770      -424.6818
   6   2.0000     -11.396476      -310.1139
   7   2.0000     -11.383000      -309.7472
   8   2.0000     -11.336322      -308.4770
   9   2.0000     -11.307840      -307.7020
  10   2.0000     -11.305617      -307.6415
  11   2.0000     -11.298434      -307.4460
  12   2.0000     -11.260541      -306.4149
  13   2.0000     -11.258941      -306.3714
  14   2.0000     -11.253632      -306.2269
  15   2.0000     -11.247926      -306.0716
  16   2.0000     -11.237617      -305.7911
  17   2.0000     -11.233705      -305.6846
  18   2.0000     -11.230649      -305.6015
  19   2.0000     -11.230046      -305.5851
  20   2.0000      -8.893149      -241.9949
  21   2.0000      -6.574726      -178.9074
  22   2.0000      -6.572720      -178.8528
  23   2.0000      -6.572134      -178.8369
  24   2.0000      -1.453757       -39.5587
  25   2.0000      -1.411719       -38.4148
  26   2.0000      -1.357452       -36.9381
  27   2.0000      -1.339367       -36.4460
  28   2.0000      -1.237006       -33.6607
  29   2.0000      -1.152409       -31.3587
  30   2.0000      -1.119614       -30.4663
  31   2.0000      -1.043180       -28.3864
  32   2.0000      -1.035737       -28.1838
  33   2.0000      -1.009742       -27.4765
  34   2.0000      -0.997777       -27.1509
  35   2.0000      -0.983253       -26.7557
  36   2.0000      -0.921345       -25.0711
  37   2.0000      -0.892364       -24.2825
  38   2.0000      -0.847360       -23.0578
  39   2.0000      -0.835120       -22.7248
  40   2.0000      -0.828110       -22.5340
  41   2.0000      -0.815194       -22.1826
  42   2.0000      -0.758954       -20.6522
  43   2.0000      -0.736318       -20.0362
  44   2.0000      -0.724991       -19.7280
  45   2.0000      -0.691156       -18.8073
  46   2.0000      -0.685303       -18.6480
  47   2.0000      -0.679290       -18.4844
  48   2.0000      -0.671858       -18.2822
  49   2.0000      -0.658084       -17.9074
  50   2.0000      -0.649245       -17.6668
  51   2.0000      -0.644375       -17.5343
  52   2.0000      -0.633015       -17.2252
  53   2.0000      -0.605464       -16.4755
  54   2.0000      -0.600300       -16.3350
  55   2.0000      -0.598428       -16.2840
  56   2.0000      -0.595040       -16.1919
  57   2.0000      -0.582574       -15.8526
  58   2.0000      -0.574066       -15.6211
  59   2.0000      -0.562175       -15.2976
  60   2.0000      -0.558804       -15.2058
  61   2.0000      -0.554426       -15.0867
  62   2.0000      -0.535895       -14.5824
  63   2.0000      -0.530080       -14.4242
  64   2.0000      -0.517395       -14.0790
  65   2.0000      -0.509622       -13.8675
  66   2.0000      -0.498332       -13.5603
  67   2.0000      -0.495500       -13.4832
  68   2.0000      -0.481562       -13.1040
  69   2.0000      -0.463279       -12.6065
  70   2.0000      -0.458618       -12.4796
  71   2.0000      -0.453141       -12.3306
  72   2.0000      -0.354280        -9.6404
  73   2.0000      -0.344272        -9.3681
  74   2.0000      -0.327222        -8.9042
  75   2.0000      -0.315774        -8.5926
  76   2.0000      -0.314013        -8.5447
  77   0.0000       0.075950         2.0667
  78   0.0000       0.112609         3.0642
  79   0.0000       0.119991         3.2651
  80   0.0000       0.135648         3.6912
  81   0.0000       0.141091         3.8393

MULLIKEN ATOMIC CHARGES
-----------------------
   0 C :   -0.274838
   1 C :    0.014915
   2 O :   -0.347883
   3 C :    0.448424
   4 O :   -0.428056
   5 C :   -0.174803
   6 C :    0.141897
   7 C :   -0.284841
   8 N :   -0.122450
   9 C :    0.202068
  10 S :   -0.439316
  11 N :   -0.197653
  12 C :    0.038259
  13 C :    0.055973
  14 C :   -0.160442
  15 C :   -0.133807
  16 C :   -0.280099
  17 C :    0.312291
  18 O :   -0.359025
  19 C :   -0.274797
  20 H :    0.107999
  21 H :    0.095456
  22 H :    0.090095
  23 H :    0.121943
  24 H :    0.102467
  25 H :    0.126834
  26 H :    0.102039
  27 H :    0.127100
  28 H :    0.196850
  29 H :    0.193730
  30 H :    0.153804
  31 H :    0.153532
  32 H :    0.159186
  33 H :    0.128383
  34 H :    0.240101
  35 H :    0.164667
Sum of atomic charges:   -0.0000000

LOEWDIN ATOMIC CHARGES
----------------------
   0 C :    0.104552
   1 C :   -0.015032
   2 O :    0.307599
   3 C :   -0.414720
   4 O :    0.103375
   5 C :   -0.091299
   6 C :   -0.066089
   7 C :    0.125053
   8 N :    0.404793
   9 C :   -0.458745
  10 S :   -0.035996
  11 N :    0.397869
  12 C :   -0.046431
  13 C :   -0.039043
  14 C :    0.022169
  15 C :    0.040800
  16 C :   -0.002540
  17 C :   -0.192966
  18 O :    0.393050
  19 C :    0.028339
  20 H :   -0.023402
  21 H :   -0.025712
  22 H :   -0.029689
  23 H :   -0.027209
  24 H :   -0.028665
  25 H :   -0.008232
  26 H :   -0.020999
  27 H :   -0.010298
  28 H :   -0.059155
  29 H :   -0.063684
  30 H :   -0.005015
  31 H :   -0.025232
  32 H :   -0.021184
  33 H :   -0.036351
  34 H :   -0.154876
  35 H :   -0.025036

  Mayer bond orders larger than 0.100000
B(  0-C ,  1-C ) :   0.9688 B(  0-C , 20-H ) :   0.9762 B(  0-C , 21-H ) :   0.9759
B(  0-C , 22-H ) :   0.9791 B(  1-C ,  2-O ) :   0.8864 B(  1-C , 23-H ) :   0.9733
B(  1-C , 24-H ) :   0.9839 B(  2-O ,  3-C ) :   1.1588 B(  3-C ,  4-O ) :   1.9862
B(  3-C ,  5-C ) :   1.0438 B(  5-C ,  6-C ) :   1.6494 B(  5-C , 12-C ) :   0.9659
B(  6-C ,  7-C ) :   0.9555 B(  6-C ,  8-N ) :   1.1471 B(  7-C , 25-H ) :   0.9662
B(  7-C , 26-H ) :   0.9908 B(  7-C , 27-H ) :   0.9635 B(  8-N ,  9-C ) :   1.1790
B(  8-N , 28-H ) :   0.9488 B(  9-C , 10-S ) :   1.6106 B(  9-C , 11-N ) :   1.3041
B( 11-N , 12-C ) :   0.9921 B( 11-N , 29-H ) :   0.9520 B( 12-C , 13-C ) :   0.9470
B( 12-C , 30-H ) :   0.9999 B( 13-C , 14-C ) :   1.3761 B( 13-C , 19-C ) :   1.3689
B( 14-C , 15-C ) :   1.3947 B( 14-C , 31-H ) :   0.9647 B( 15-C , 16-C ) :   1.3625
B( 15-C , 32-H ) :   0.9714 B( 16-C , 17-C ) :   1.3314 B( 16-C , 33-H ) :   0.9859
B( 17-C , 18-O ) :   1.1081 B( 17-C , 19-C ) :   1.3785 B( 18-O , 34-H ) :   0.9806
B( 19-C , 35-H ) :   0.9585

MP2 TOTAL ENERGY:    -1274.346986601 Eh
FINAL SINGLE POINT ENERGY     -1274.346986601164

DIPOLE MOMENT
-------------
                                X             Y             Z
Electronic contribution:     11.35368       9.27104       8.98386
Nuclear contribution   :    -12.81066     -10.55731     -10.02935
                        -----------------------------------------
Total Dipole Moment    :     -1.45698      -1.28627      -1.04549
                        -----------------------------------------
Magnitude (a.u.)       :      2.20688
Magnitude (Debye)      :      5.60944

Rotational constants in cm-1:     0.010707     0.009193     0.006167
Rotational constants in MHz :   320.990861   275.604762   184.889573

                             ****ORCA TERMINATED NORMALLY****
TOTAL RUN TIME: 0 days 1 hours 38 minutes 11 seconds 471 msec
