                         Program Version 5.0.0 -  RELEASE  -
|  1> ! ri-mp2 cc-pvtz cc-pvtz/c TightSCF NoKeepInts
|  2>
|  3> %scf
|  4>   MaxCore 4096
|  5> end
|  6> *xyz  0  1
|  7>     C       15.2922088   14.0170704   15.1541396
|  8>     C       15.7351469   14.1359910   16.6280166
|  9>     O       16.7880387   15.1107309   16.7661966
| 10>     C       16.5385189   16.4533889   16.6664566
| 11>     O       15.5472471   16.9013845   16.1170177
| 12>     C       17.4437025   17.2670928   17.5514026
| 13>     C       17.3775323   18.6218251   17.6103582
| 14>     C       16.4381643   19.5289519   16.8444338
| 15>     N       18.2708362   19.3334012   18.4169067
| 16>     C       19.3226289   18.7811797   19.0978257
| 17>     S       20.3972507   19.7069844   19.9487197
| 18>     N       19.4434707   17.4165754   19.0344475
| 19>     C       18.4641928   16.5054732   18.4144663
| 20>     C       17.7860521   15.6685391   19.4959425
| 21>     C       18.0354079   14.2862110   19.5885835
| 22>     C       17.4093893   13.5114460   20.5795482
| 23>     C       16.5291576   14.1239979   21.4877921
| 24>     C       16.2825759   15.5011282   21.4017667
| 25>     O       15.4344414   16.0956490   22.2782259
| 26>     C       16.9065068   16.2693520   20.4140557
| 27>     H       14.7469614   14.9079331   14.8209228
| 28>     H       14.6258188   13.1555630   15.0269067
| 29>     H       16.1604209   13.8762121   14.4987625
| 30>     H       14.8786347   14.4052940   17.2608258
| 31>     H       16.1097085   13.1609110   16.9646937
| 32>     H       15.3972394   19.3367799   17.1348197
| 33>     H       16.5156997   19.3442535   15.7654953
| 34>     H       16.6384226   20.5937756   17.0112909
| 35>     H       18.1978897   20.3366239   18.4740689
| 36>     H       20.2071416   17.0353331   19.5778194
| 37>     H       19.0220180   15.8295871   17.7511365
| 38>     H       18.7124088   13.8096243   18.8846651
| 39>     H       17.6078576   12.4429156   20.6424214
| 40>     H       16.0440497   13.5303398   22.2556262
| 41>     H       15.1328479   15.4158535   22.8992653
| 42>     H       16.7074107   17.3346280   20.3689777
| 43> *
| 44>
| 45>                          ****END OF INPUT****

CARTESIAN COORDINATES (ANGSTROEM)
---------------------------------
  C     15.292209   14.017070   15.154140
  C     15.735147   14.135991   16.628017
  O     16.788039   15.110731   16.766197
  C     16.538519   16.453389   16.666457
  O     15.547247   16.901384   16.117018
  C     17.443702   17.267093   17.551403
  C     17.377532   18.621825   17.610358
  C     16.438164   19.528952   16.844434
  N     18.270836   19.333401   18.416907
  C     19.322629   18.781180   19.097826
  S     20.397251   19.706984   19.948720
  N     19.443471   17.416575   19.034447
  C     18.464193   16.505473   18.414466
  C     17.786052   15.668539   19.495942
  C     18.035408   14.286211   19.588583
  C     17.409389   13.511446   20.579548
  C     16.529158   14.123998   21.487792
  C     16.282576   15.501128   21.401767
  O     15.434441   16.095649   22.278226
  C     16.906507   16.269352   20.414056
  H     14.746961   14.907933   14.820923
  H     14.625819   13.155563   15.026907
  H     16.160421   13.876212   14.498762
  H     14.878635   14.405294   17.260826
  H     16.109708   13.160911   16.964694
  H     15.397239   19.336780   17.134820
  H     16.515700   19.344254   15.765495
  H     16.638423   20.593776   17.011291
  H     18.197890   20.336624   18.474069
  H     20.207142   17.035333   19.577819
  H     19.022018   15.829587   17.751137
  H     18.712409   13.809624   18.884665
  H     17.607858   12.442916   20.642421
  H     16.044050   13.530340   22.255626
  H     15.132848   15.415853   22.899265
  H     16.707411   17.334628   20.368978

 Total Charge           Charge          ....    0
 Multiplicity           Mult            ....    1
 Number of Electrons    NEL             ....  154
 Basis Dimension        Dim             ....  828

ORBITAL ENERGIES
----------------

  NO   OCC          E(Eh)            E(eV)
   0   2.0000     -91.888644     -2500.4171
   1   2.0000     -20.597624      -560.4898
   2   2.0000     -20.596483      -560.4588
   3   2.0000     -20.543601      -559.0198
   4   2.0000     -15.628826      -425.2820
   5   2.0000     -15.607932      -424.7134
   6   2.0000     -11.396294      -310.1089
   7   2.0000     -11.383703      -309.7663
   8   2.0000     -11.335440      -308.4530
   9   2.0000     -11.313656      -307.8602
  10   2.0000     -11.308809      -307.7283
  11   2.0000     -11.299146      -307.4654
  12   2.0000     -11.259527      -306.3873
  13   2.0000     -11.258833      -306.3684
  14   2.0000     -11.255177      -306.2689
  15   2.0000     -11.252122      -306.1858
  16   2.0000     -11.242775      -305.9315
  17   2.0000     -11.238117      -305.8047
  18   2.0000     -11.237921      -305.7994
  19   2.0000     -11.219719      -305.3041
  20   2.0000      -8.893707      -242.0101
  21   2.0000      -6.575282      -178.9225
  22   2.0000      -6.573278      -178.8680
  23   2.0000      -6.572691      -178.8520
  24   2.0000      -1.449233       -39.4356
  25   2.0000      -1.416124       -38.5347
  26   2.0000      -1.355429       -36.8831
  27   2.0000      -1.339829       -36.4586
  28   2.0000      -1.238270       -33.6950
  29   2.0000      -1.157294       -31.4916
  30   2.0000      -1.119864       -30.4731
  31   2.0000      -1.042363       -28.3641
  32   2.0000      -1.034677       -28.1550
  33   2.0000      -1.014893       -27.6166
  34   2.0000      -0.994814       -27.0703
  35   2.0000      -0.983398       -26.7596
  36   2.0000      -0.922298       -25.0970
  37   2.0000      -0.892319       -24.2812
  38   2.0000      -0.847055       -23.0495
  39   2.0000      -0.837825       -22.7984
  40   2.0000      -0.833839       -22.6899
  41   2.0000      -0.819639       -22.3035
  42   2.0000      -0.753925       -20.5153
  43   2.0000      -0.731433       -19.9033
  44   2.0000      -0.721799       -19.6412
  45   2.0000      -0.695551       -18.9269
  46   2.0000      -0.688358       -18.7312
  47   2.0000      -0.680652       -18.5215
  48   2.0000      -0.669852       -18.2276
  49   2.0000      -0.653100       -17.7717
  50   2.0000      -0.648837       -17.6558
  51   2.0000      -0.645435       -17.5632
  52   2.0000      -0.632380       -17.2079
  53   2.0000      -0.607188       -16.5224
  54   2.0000      -0.605127       -16.4663
  55   2.0000      -0.598975       -16.2989
  56   2.0000      -0.598570       -16.2879
  57   2.0000      -0.580957       -15.8087
  58   2.0000      -0.573669       -15.6103
  59   2.0000      -0.570689       -15.5292
  60   2.0000      -0.562986       -15.3196
  61   2.0000      -0.538711       -14.6591
  62   2.0000      -0.535872       -14.5818
  63   2.0000      -0.524816       -14.2810
  64   2.0000      -0.519338       -14.1319
  65   2.0000      -0.513002       -13.9595
  66   2.0000      -0.501241       -13.6395
  67   2.0000      -0.499119       -13.5817
  68   2.0000      -0.485359       -13.2073
  69   2.0000      -0.463858       -12.6222
  70   2.0000      -0.455850       -12.4043
  71   2.0000      -0.443100       -12.0574
  72   2.0000      -0.353878        -9.6295
  73   2.0000      -0.349169        -9.5014
  74   2.0000      -0.328036        -8.9263
  75   2.0000      -0.321222        -8.7409
  76   2.0000      -0.315785        -8.5930
  77   0.0000       0.075301         2.0490
  78   0.0000       0.106679         2.9029
  79   0.0000       0.125174         3.4061
  80   0.0000       0.132580         3.6077
  81   0.0000       0.137900         3.7525

MULLIKEN ATOMIC CHARGES
-----------------------
   0 C :   -0.292552
   1 C :    0.047278
   2 O :   -0.362874
   3 C :    0.459442
   4 O :   -0.431366
   5 C :   -0.208405
   6 C :    0.150177
   7 C :   -0.273847
   8 N :   -0.120856
   9 C :    0.212000
  10 S :   -0.440380
  11 N :   -0.204595
  12 C :    0.056613
  13 C :    0.066519
  14 C :   -0.188742
  15 C :   -0.129637
  16 C :   -0.279970
  17 C :    0.315858
  18 O :   -0.356492
  19 C :   -0.269455
  20 H :    0.125365
  21 H :    0.093159
  22 H :    0.090713
  23 H :    0.093453
  24 H :    0.103896
  25 H :    0.132809
  26 H :    0.129112
  27 H :    0.095467
  28 H :    0.197252
  29 H :    0.194491
  30 H :    0.149636
  31 H :    0.149492
  32 H :    0.160643
  33 H :    0.130080
  34 H :    0.240716
  35 H :    0.164996
Sum of atomic charges:   -0.0000000

LOEWDIN ATOMIC CHARGES
----------------------
   0 C :    0.104826
   1 C :   -0.013698
   2 O :    0.300752
   3 C :   -0.412535
   4 O :    0.105075
   5 C :   -0.094252
   6 C :   -0.059408
   7 C :    0.131027
   8 N :    0.406480
   9 C :   -0.456512
  10 S :   -0.035751
  11 N :    0.396332
  12 C :   -0.052412
  13 C :   -0.037823
  14 C :    0.014146
  15 C :    0.038586
  16 C :   -0.002323
  17 C :   -0.189524
  18 O :    0.395269
  19 C :    0.031135
  20 H :   -0.026606
  21 H :   -0.029323
  22 H :   -0.029451
  23 H :   -0.028180
  24 H :   -0.025211
  25 H :   -0.004684
  26 H :   -0.004430
  27 H :   -0.023346
  28 H :   -0.057638
  29 H :   -0.064710
  30 H :   -0.010554
  31 H :   -0.030321
  32 H :   -0.021481
  33 H :   -0.035707
  34 H :   -0.153931
  35 H :   -0.023814

  Mayer bond orders larger than 0.100000
B(  0-C ,  1-C ) :   0.9761 B(  0-C , 20-H ) :   0.9721 B(  0-C , 21-H ) :   0.9783
B(  0-C , 22-H ) :   0.9753 B(  1-C ,  2-O ) :   0.8925 B(  1-C , 23-H ) :   0.9735
B(  1-C , 24-H ) :   0.9825 B(  2-O ,  3-C ) :   1.1424 B(  3-C ,  4-O ) :   1.9623
B(  3-C ,  5-C ) :   1.0618 B(  5-C ,  6-C ) :   1.6553 B(  5-C , 12-C ) :   0.9735
B(  6-C ,  7-C ) :   0.9674 B(  6-C ,  8-N ) :   1.1622 B(  7-C , 25-H ) :   0.9595
B(  7-C , 26-H ) :   0.9612 B(  7-C , 27-H ) :   0.9909 B(  8-N ,  9-C ) :   1.1828
B(  8-N , 28-H ) :   0.9480 B(  9-C , 10-S ) :   1.6068 B(  9-C , 11-N ) :   1.3055
B( 11-N , 12-C ) :   0.9846 B( 11-N , 29-H ) :   0.9517 B( 12-C , 13-C ) :   0.9355
B( 12-C , 30-H ) :   1.0024 B( 13-C , 14-C ) :   1.3554 B( 13-C , 19-C ) :   1.3836
B( 14-C , 15-C ) :   1.3908 B( 14-C , 31-H ) :   0.9720 B( 15-C , 16-C ) :   1.3640
B( 15-C , 32-H ) :   0.9706 B( 16-C , 17-C ) :   1.3314 B( 16-C , 33-H ) :   0.9849
B( 17-C , 18-O ) :   1.1104 B( 17-C , 19-C ) :   1.3722 B( 18-O , 34-H ) :   0.9799
B( 19-C , 35-H ) :   0.9582

MP2 TOTAL ENERGY:    -1274.343619171 Eh
FINAL SINGLE POINT ENERGY     -1274.343619171178

DIPOLE MOMENT
-------------
                                X             Y             Z
Electronic contribution:     10.31983       9.78311       9.30539
Nuclear contribution   :    -11.40355     -11.43383      -9.58028
                        -----------------------------------------
Total Dipole Moment    :     -1.08372      -1.65073      -0.27489
                        -----------------------------------------
Magnitude (a.u.)       :      1.99372
Magnitude (Debye)      :      5.06762

Rotational constants in cm-1:     0.011405     0.008741     0.006071
Rotational constants in MHz :   341.910933   262.052169   182.012883

                             ****ORCA TERMINATED NORMALLY****
TOTAL RUN TIME: 0 days 1 hours 29 minutes 59 seconds 424 msec
