                         Program Version 4.2.0 -  RELEASE  -
|  1> ! ri-mp2 cc-pvtz cc-pvtz/c TightSCF  NoKeepInts
|  2>
|  3> %scf
|  4>   MaxCore 4096
|  5> end
|  6> *xyz  0  1
|  7>     C       15.3655443   14.6325265   17.2034663
|  8>     C       15.5677105   15.1184729   15.7497103
|  9>     O       16.7960049   15.8573205   15.5453945
| 10>     C       17.8359350   15.8049590   16.4271058
| 11>     O       18.4578781   14.7703344   16.5967230
| 12>     C       17.9055674   16.9538587   17.3930655
| 13>     C       17.3609209   18.1797644   17.1786723
| 14>     C       16.5987393   18.6609722   15.9611922
| 15>     N       17.5511925   19.1974542   18.1193451
| 16>     C       18.4013585   19.1231517   19.1911596
| 17>     S       18.6777655   20.4225943   20.1760569
| 18>     N       19.0095880   17.9122268   19.4051756
| 19>     C       18.6811624   16.6676315   18.6845459
| 20>     C       17.9087628   15.7104985   19.5897718
| 21>     C       18.3183062   14.3707637   19.7220140
| 22>     C       17.6043459   13.4795437   20.5402244
| 23>     C       16.4694692   13.9305845   21.2350019
| 24>     C       16.0571235   15.2635717   21.1063409
| 25>     O       14.9558775   15.7001094   21.7678027
| 26>     C       16.7698535   16.1484056   20.2911944
| 27>     H       16.1470996   13.9246508   17.5076913
| 28>     H       14.4025854   14.1165190   17.2976989
| 29>     H       15.3596737   15.4765843   17.9029677
| 30>     H       15.5785968   14.2368566   15.0953960
| 31>     H       14.7155544   15.7402643   15.4471188
| 32>     H       15.5937776   18.2231995   15.9337828
| 33>     H       17.1180761   18.3769717   15.0371593
| 34>     H       16.4855038   19.7517482   15.9389836
| 35>     H       17.1159401   20.0950391   17.9777967
| 36>     H       19.6108367   17.8745112   20.2183178
| 37>     H       19.6297077   16.1855076   18.4064369
| 38>     H       19.1847304   14.0137844   19.1699720
| 39>     H       17.9287005   12.4440336   20.6269306
| 40>     H       15.9134374   13.2447457   21.8654589
| 41>     H       14.6378997   14.9673604   22.3164631
| 42>     H       16.4317741   17.1754793   20.2078623
| 43> *
| 44>
| 45>                          ****END OF INPUT****

CARTESIAN COORDINATES (ANGSTROEM)
---------------------------------
  C     15.365544   14.632526   17.203466
  C     15.567711   15.118473   15.749710
  O     16.796005   15.857321   15.545395
  C     17.835935   15.804959   16.427106
  O     18.457878   14.770334   16.596723
  C     17.905567   16.953859   17.393065
  C     17.360921   18.179764   17.178672
  C     16.598739   18.660972   15.961192
  N     17.551192   19.197454   18.119345
  C     18.401359   19.123152   19.191160
  S     18.677765   20.422594   20.176057
  N     19.009588   17.912227   19.405176
  C     18.681162   16.667631   18.684546
  C     17.908763   15.710498   19.589772
  C     18.318306   14.370764   19.722014
  C     17.604346   13.479544   20.540224
  C     16.469469   13.930585   21.235002
  C     16.057123   15.263572   21.106341
  O     14.955877   15.700109   21.767803
  C     16.769853   16.148406   20.291194
  H     16.147100   13.924651   17.507691
  H     14.402585   14.116519   17.297699
  H     15.359674   15.476584   17.902968
  H     15.578597   14.236857   15.095396
  H     14.715554   15.740264   15.447119
  H     15.593778   18.223199   15.933783
  H     17.118076   18.376972   15.037159
  H     16.485504   19.751748   15.938984
  H     17.115940   20.095039   17.977797
  H     19.610837   17.874511   20.218318
  H     19.629708   16.185508   18.406437
  H     19.184730   14.013784   19.169972
  H     17.928700   12.444034   20.626931
  H     15.913437   13.244746   21.865459
  H     14.637900   14.967360   22.316463
  H     16.431774   17.175479   20.207862

 Total Charge           Charge          ....    0
 Multiplicity           Mult            ....    1
 Number of Electrons    NEL             ....  154
 Basis Dimension        Dim             ....  828

ORBITAL ENERGIES
----------------

  NO   OCC          E(Eh)            E(eV)
   0   2.0000     -91.890278     -2500.4616
   1   2.0000     -20.595246      -560.4251
   2   2.0000     -20.582949      -560.0905
   3   2.0000     -20.551377      -559.2314
   4   2.0000     -15.630913      -425.3388
   5   2.0000     -15.608704      -424.7344
   6   2.0000     -11.395482      -310.0868
   7   2.0000     -11.385176      -309.8064
   8   2.0000     -11.338413      -308.5339
   9   2.0000     -11.311224      -307.7941
  10   2.0000     -11.307846      -307.7021
  11   2.0000     -11.305844      -307.6476
  12   2.0000     -11.261671      -306.4457
  13   2.0000     -11.261611      -306.4440
  14   2.0000     -11.256834      -306.3140
  15   2.0000     -11.251286      -306.1631
  16   2.0000     -11.241006      -305.8833
  17   2.0000     -11.236652      -305.7649
  18   2.0000     -11.233271      -305.6728
  19   2.0000     -11.226630      -305.4921
  20   2.0000      -8.895327      -242.0542
  21   2.0000      -6.576900      -178.9665
  22   2.0000      -6.574896      -178.9120
  23   2.0000      -6.574306      -178.8960
  24   2.0000      -1.446575       -39.3633
  25   2.0000      -1.415050       -38.5055
  26   2.0000      -1.353990       -36.8439
  27   2.0000      -1.341679       -36.5089
  28   2.0000      -1.239130       -33.7184
  29   2.0000      -1.155398       -31.4400
  30   2.0000      -1.121247       -30.5107
  31   2.0000      -1.043673       -28.3998
  32   2.0000      -1.031998       -28.0821
  33   2.0000      -1.013229       -27.5714
  34   2.0000      -1.000889       -27.2356
  35   2.0000      -0.986543       -26.8452
  36   2.0000      -0.924415       -25.1546
  37   2.0000      -0.896662       -24.3994
  38   2.0000      -0.850417       -23.1410
  39   2.0000      -0.838938       -22.8287
  40   2.0000      -0.831483       -22.6258
  41   2.0000      -0.818998       -22.2861
  42   2.0000      -0.744513       -20.2592
  43   2.0000      -0.730168       -19.8689
  44   2.0000      -0.727416       -19.7940
  45   2.0000      -0.693196       -18.8628
  46   2.0000      -0.687158       -18.6985
  47   2.0000      -0.676523       -18.4091
  48   2.0000      -0.673410       -18.3244
  49   2.0000      -0.661796       -18.0084
  50   2.0000      -0.651816       -17.7368
  51   2.0000      -0.647247       -17.6125
  52   2.0000      -0.635963       -17.3054
  53   2.0000      -0.625329       -17.0161
  54   2.0000      -0.603764       -16.4293
  55   2.0000      -0.602785       -16.4026
  56   2.0000      -0.599141       -16.3035
  57   2.0000      -0.579755       -15.7759
  58   2.0000      -0.575435       -15.6584
  59   2.0000      -0.563899       -15.3445
  60   2.0000      -0.551909       -15.0182
  61   2.0000      -0.545852       -14.8534
  62   2.0000      -0.536524       -14.5996
  63   2.0000      -0.531285       -14.4570
  64   2.0000      -0.519978       -14.1493
  65   2.0000      -0.511692       -13.9238
  66   2.0000      -0.499834       -13.6012
  67   2.0000      -0.494957       -13.4685
  68   2.0000      -0.480697       -13.0804
  69   2.0000      -0.465936       -12.6788
  70   2.0000      -0.454491       -12.3673
  71   2.0000      -0.449633       -12.2351
  72   2.0000      -0.356171        -9.6919
  73   2.0000      -0.346786        -9.4365
  74   2.0000      -0.329348        -8.9620
  75   2.0000      -0.319160        -8.6848
  76   2.0000      -0.316817        -8.6210
  77   0.0000       0.069298         1.8857
  78   0.0000       0.107121         2.9149
  79   0.0000       0.118798         3.2326
  80   0.0000       0.132544         3.6067
  81   0.0000       0.138160         3.7595

MULLIKEN ATOMIC CHARGES
-----------------------
   0 C :   -0.341412
   1 C :    0.050437
   2 O :   -0.391546
   3 C :    0.503246
   4 O :   -0.407488
   5 C :   -0.228334
   6 C :    0.152244
   7 C :   -0.290097
   8 N :   -0.122085
   9 C :    0.193778
  10 S :   -0.435715
  11 N :   -0.200039
  12 C :    0.045394
  13 C :    0.061765
  14 C :   -0.182759
  15 C :   -0.133864
  16 C :   -0.277553
  17 C :    0.321314
  18 O :   -0.360061
  19 C :   -0.295533
  20 H :    0.130659
  21 H :    0.115118
  22 H :    0.103112
  23 H :    0.112803
  24 H :    0.099057
  25 H :    0.118141
  26 H :    0.135303
  27 H :    0.108065
  28 H :    0.197368
  29 H :    0.194017
  30 H :    0.156398
  31 H :    0.162062
  32 H :    0.162325
  33 H :    0.130601
  34 H :    0.240615
  35 H :    0.172663
Sum of atomic charges:   -0.0000000

LOEWDIN ATOMIC CHARGES
----------------------
   0 C :    0.106791
   1 C :   -0.012961
   2 O :    0.282812
   3 C :   -0.420971
   4 O :    0.122784
   5 C :   -0.094985
   6 C :   -0.067543
   7 C :    0.126579
   8 N :    0.405403
   9 C :   -0.459678
  10 S :   -0.033751
  11 N :    0.397719
  12 C :   -0.045822
  13 C :   -0.039792
  14 C :    0.022004
  15 C :    0.041261
  16 C :   -0.002274
  17 C :   -0.193655
  18 O :    0.393934
  19 C :    0.028723
  20 H :   -0.021564
  21 H :   -0.023391
  22 H :   -0.031602
  23 H :   -0.026233
  24 H :   -0.030179
  25 H :   -0.011662
  26 H :   -0.005673
  27 H :   -0.019748
  28 H :   -0.058739
  29 H :   -0.063693
  30 H :   -0.003745
  31 H :   -0.024353
  32 H :   -0.020409
  33 H :   -0.035758
  34 H :   -0.154151
  35 H :   -0.025676

  Mayer bond orders larger than 0.100000
B(  0-C ,  1-C ) :   0.9617 B(  0-C , 20-H ) :   0.9654 B(  0-C , 21-H ) :   0.9748
B(  0-C , 22-H ) :   0.9703 B(  1-C ,  2-O ) :   0.8939 B(  1-C , 23-H ) :   0.9854
B(  1-C , 24-H ) :   0.9797 B(  2-O ,  3-C ) :   1.0886 B(  3-C ,  4-O ) :   2.0255
B(  3-C ,  5-C ) :   1.0293 B(  5-C ,  6-C ) :   1.6501 B(  5-C , 12-C ) :   0.9631
B(  6-C ,  7-C ) :   0.9544 B(  6-C ,  8-N ) :   1.1440 B(  7-C , 25-H ) :   0.9670
B(  7-C , 26-H ) :   0.9644 B(  7-C , 27-H ) :   0.9900 B(  8-N ,  9-C ) :   1.1785
B(  8-N , 28-H ) :   0.9487 B(  9-C , 10-S ) :   1.6154 B(  9-C , 11-N ) :   1.3020
B( 11-N , 12-C ) :   0.9884 B( 11-N , 29-H ) :   0.9521 B( 12-C , 13-C ) :   0.9469
B( 12-C , 30-H ) :   0.9996 B( 13-C , 14-C ) :   1.3791 B( 13-C , 19-C ) :   1.3495
B( 14-C , 15-C ) :   1.3936 B( 14-C , 31-H ) :   0.9617 B( 15-C , 16-C ) :   1.3619
B( 15-C , 32-H ) :   0.9705 B( 16-C , 17-C ) :   1.3319 B( 16-C , 33-H ) :   0.9848
B( 17-C , 18-O ) :   1.1101 B( 17-C , 19-C ) :   1.3679 B( 18-O , 34-H ) :   0.9803
B( 19-C , 35-H ) :   0.9591

MP2 TOTAL ENERGY:    -1274.329608956 Eh
FINAL SINGLE POINT ENERGY     -1274.329608956099

DIPOLE MOMENT
-------------
                                X             Y             Z
Electronic contribution:      9.73808       8.74083       6.48369
Nuclear contribution   :    -11.21240      -9.88573      -7.16505
                        -----------------------------------------
Total Dipole Moment    :     -1.47432      -1.14490      -0.68136
                        -----------------------------------------
Magnitude (a.u.)       :      1.98713
Magnitude (Debye)      :      5.05087

Rotational constants in cm-1:     0.011542     0.009728     0.006676
Rotational constants in MHz :   346.023338   291.633561   200.130283

                             ****ORCA TERMINATED NORMALLY****
TOTAL RUN TIME: 0 days 1 hours 48 minutes 22 seconds 25 msec
