                         Program Version 4.2.0 -  RELEASE  -
|  1> ! ri-mp2 cc-pvtz cc-pvtz/c TightSCF  NoKeepInts
|  2>
|  3> %scf
|  4>   MaxCore 4096
|  5> end
|  6> *xyz  0  1
|  7>     C       15.0224285   14.1046886   15.6421754
|  8>     C       16.2398461   13.9176546   16.5721853
|  9>     O       17.1191058   15.0659080   16.6923393
| 10>     C       16.7699429   16.3877588   16.5655713
| 11>     O       15.8784683   16.7936264   15.8418640
| 12>     C       17.5560780   17.2679981   17.5006422
| 13>     C       17.4293856   18.6200404   17.5090046
| 14>     C       16.5305684   19.4648110   16.6310935
| 15>     N       18.2060131   19.3928390   18.3775459
| 16>     C       19.1915693   18.9059015   19.1934522
| 17>     S       20.1243201   19.9008791   20.1294090
| 18>     N       19.3692303   17.5463443   19.1938503
| 19>     C       18.5143390   16.5762433   18.4860988
| 20>     C       17.7687274   15.7142531   19.5012741
| 21>     C       18.1083726   14.3586632   19.6703560
| 22>     C       17.4195731   13.5593362   20.5981323
| 23>     C       16.3850326   14.1206292   21.3659982
| 24>     C       16.0486899   15.4718151   21.2049695
| 25>     O       15.0519503   16.0171428   21.9465769
| 26>     C       16.7354462   16.2645029   20.2802872
| 27>     H       14.3025878   14.8150539   16.0675752
| 28>     H       14.5009334   13.1501335   15.5037003
| 29>     H       15.3350302   14.4651325   14.6539911
| 30>     H       15.8630424   13.6633181   17.5717395
| 31>     H       16.8295345   13.0604110   16.2232774
| 32>     H       15.4764003   19.2146375   16.8066508
| 33>     H       16.7387408   19.2760788   15.5702302
| 34>     H       16.6490228   20.5408558   16.8038166
| 35>     H       18.0902874   20.3935659   18.3899103
| 36>     H       20.0777744   17.2141300   19.8352181
| 37>     H       19.1785190   15.9256927   17.8998691
| 38>     H       18.9058927   13.9218399   19.0752303
| 39>     H       17.6891180   12.5118021   20.7215548
| 40>     H       15.8509523   13.5080741   22.0849951
| 41>     H       14.7256907   15.3306303   22.5474815
| 42>     H       16.4643858   17.3096083   20.1759336
| 43> *
| 44>
| 45>                          ****END OF INPUT****

CARTESIAN COORDINATES (ANGSTROEM)
---------------------------------
  C     15.022429   14.104689   15.642175
  C     16.239846   13.917655   16.572185
  O     17.119106   15.065908   16.692339
  C     16.769943   16.387759   16.565571
  O     15.878468   16.793626   15.841864
  C     17.556078   17.267998   17.500642
  C     17.429386   18.620040   17.509005
  C     16.530568   19.464811   16.631093
  N     18.206013   19.392839   18.377546
  C     19.191569   18.905901   19.193452
  S     20.124320   19.900879   20.129409
  N     19.369230   17.546344   19.193850
  C     18.514339   16.576243   18.486099
  C     17.768727   15.714253   19.501274
  C     18.108373   14.358663   19.670356
  C     17.419573   13.559336   20.598132
  C     16.385033   14.120629   21.365998
  C     16.048690   15.471815   21.204969
  O     15.051950   16.017143   21.946577
  C     16.735446   16.264503   20.280287
  H     14.302588   14.815054   16.067575
  H     14.500933   13.150134   15.503700
  H     15.335030   14.465132   14.653991
  H     15.863042   13.663318   17.571739
  H     16.829535   13.060411   16.223277
  H     15.476400   19.214637   16.806651
  H     16.738741   19.276079   15.570230
  H     16.649023   20.540856   16.803817
  H     18.090287   20.393566   18.389910
  H     20.077774   17.214130   19.835218
  H     19.178519   15.925693   17.899869
  H     18.905893   13.921840   19.075230
  H     17.689118   12.511802   20.721555
  H     15.850952   13.508074   22.084995
  H     14.725691   15.330630   22.547481
  H     16.464386   17.309608   20.175934

 Total Charge           Charge          ....    0
 Multiplicity           Mult            ....    1
 Number of Electrons    NEL             ....  154
 Basis Dimension        Dim             ....  828

ORBITAL ENERGIES
----------------

  NO   OCC          E(Eh)            E(eV)
   0   2.0000     -91.888218     -2500.4055
   1   2.0000     -20.597652      -560.4906
   2   2.0000     -20.594645      -560.4088
   3   2.0000     -20.541220      -558.9550
   4   2.0000     -15.628236      -425.2659
   5   2.0000     -15.607547      -424.7029
   6   2.0000     -11.397175      -310.1329
   7   2.0000     -11.383257      -309.7542
   8   2.0000     -11.334950      -308.4397
   9   2.0000     -11.314990      -307.8965
  10   2.0000     -11.308098      -307.7090
  11   2.0000     -11.301414      -307.5271
  12   2.0000     -11.260522      -306.4144
  13   2.0000     -11.257722      -306.3382
  14   2.0000     -11.256453      -306.3037
  15   2.0000     -11.251427      -306.1669
  16   2.0000     -11.244082      -305.9670
  17   2.0000     -11.239197      -305.8341
  18   2.0000     -11.238991      -305.8285
  19   2.0000     -11.220864      -305.3352
  20   2.0000      -8.893291      -241.9987
  21   2.0000      -6.574868      -178.9113
  22   2.0000      -6.572861      -178.8567
  23   2.0000      -6.572277      -178.8407
  24   2.0000      -1.441968       -39.2380
  25   2.0000      -1.417294       -38.5665
  26   2.0000      -1.353802       -36.8388
  27   2.0000      -1.339361       -36.4459
  28   2.0000      -1.237935       -33.6859
  29   2.0000      -1.158225       -31.5169
  30   2.0000      -1.119285       -30.4573
  31   2.0000      -1.042710       -28.3736
  32   2.0000      -1.034910       -28.1613
  33   2.0000      -1.016091       -27.6493
  34   2.0000      -0.994916       -27.0731
  35   2.0000      -0.983161       -26.7532
  36   2.0000      -0.922222       -25.0949
  37   2.0000      -0.895554       -24.3693
  38   2.0000      -0.846951       -23.0467
  39   2.0000      -0.838502       -22.8168
  40   2.0000      -0.834880       -22.7182
  41   2.0000      -0.819111       -22.2892
  42   2.0000      -0.745360       -20.2823
  43   2.0000      -0.730978       -19.8909
  44   2.0000      -0.717615       -19.5273
  45   2.0000      -0.696366       -18.9491
  46   2.0000      -0.687631       -18.7114
  47   2.0000      -0.676131       -18.3985
  48   2.0000      -0.667895       -18.1743
  49   2.0000      -0.661880       -18.0107
  50   2.0000      -0.650592       -17.7035
  51   2.0000      -0.644627       -17.5412
  52   2.0000      -0.635423       -17.2907
  53   2.0000      -0.607868       -16.5409
  54   2.0000      -0.601499       -16.3676
  55   2.0000      -0.599707       -16.3189
  56   2.0000      -0.598067       -16.2742
  57   2.0000      -0.579469       -15.7681
  58   2.0000      -0.575161       -15.6509
  59   2.0000      -0.570292       -15.5184
  60   2.0000      -0.561733       -15.2855
  61   2.0000      -0.538739       -14.6598
  62   2.0000      -0.534616       -14.5476
  63   2.0000      -0.525062       -14.2877
  64   2.0000      -0.523560       -14.2468
  65   2.0000      -0.512804       -13.9541
  66   2.0000      -0.501106       -13.6358
  67   2.0000      -0.497508       -13.5379
  68   2.0000      -0.484987       -13.1972
  69   2.0000      -0.463034       -12.5998
  70   2.0000      -0.451189       -12.2775
  71   2.0000      -0.439645       -11.9634
  72   2.0000      -0.353219        -9.6116
  73   2.0000      -0.350199        -9.5294
  74   2.0000      -0.327850        -8.9213
  75   2.0000      -0.322482        -8.7752
  76   2.0000      -0.315659        -8.5895
  77   0.0000       0.076159         2.0724
  78   0.0000       0.105581         2.8730
  79   0.0000       0.124829         3.3968
  80   0.0000       0.132484         3.6051
  81   0.0000       0.138203         3.7607

MULLIKEN ATOMIC CHARGES
-----------------------
   0 C :   -0.281262
   1 C :    0.044472
   2 O :   -0.375371
   3 C :    0.458315
   4 O :   -0.425418
   5 C :   -0.216112
   6 C :    0.154167
   7 C :   -0.271045
   8 N :   -0.121909
   9 C :    0.213405
  10 S :   -0.441719
  11 N :   -0.206581
  12 C :    0.067584
  13 C :    0.064057
  14 C :   -0.198687
  15 C :   -0.128392
  16 C :   -0.281410
  17 C :    0.316284
  18 O :   -0.356011
  19 C :   -0.268802
  20 H :    0.108052
  21 H :    0.094973
  22 H :    0.108013
  23 H :    0.096661
  24 H :    0.097025
  25 H :    0.131155
  26 H :    0.130891
  27 H :    0.095007
  28 H :    0.197217
  29 H :    0.194883
  30 H :    0.148951
  31 H :    0.152256
  32 H :    0.161637
  33 H :    0.130920
  34 H :    0.240845
  35 H :    0.165952
Sum of atomic charges:   -0.0000000

LOEWDIN ATOMIC CHARGES
----------------------
   0 C :    0.102532
   1 C :   -0.011089
   2 O :    0.292550
   3 C :   -0.412132
   4 O :    0.110242
   5 C :   -0.094885
   6 C :   -0.059314
   7 C :    0.130760
   8 N :    0.406444
   9 C :   -0.456340
  10 S :   -0.036701
  11 N :    0.396278
  12 C :   -0.052567
  13 C :   -0.037722
  14 C :    0.014359
  15 C :    0.038589
  16 C :   -0.002951
  17 C :   -0.189624
  18 O :    0.395539
  19 C :    0.030842
  20 H :   -0.026455
  21 H :   -0.028596
  22 H :   -0.024357
  23 H :   -0.029006
  24 H :   -0.025824
  25 H :   -0.005081
  26 H :   -0.004141
  27 H :   -0.023622
  28 H :   -0.057732
  29 H :   -0.064806
  30 H :   -0.011137
  31 H :   -0.030000
  32 H :   -0.021220
  33 H :   -0.035520
  34 H :   -0.153733
  35 H :   -0.023581

  Mayer bond orders larger than 0.100000
B(  0-C ,  1-C ) :   0.9839 B(  0-C , 20-H ) :   0.9734 B(  0-C , 21-H ) :   0.9738
B(  0-C , 22-H ) :   0.9746 B(  1-C ,  2-O ) :   0.8933 B(  1-C , 23-H ) :   0.9707
B(  1-C , 24-H ) :   0.9805 B(  2-O ,  3-C ) :   1.1246 B(  3-C ,  4-O ) :   1.9874
B(  3-C ,  5-C ) :   1.0670 B(  5-C ,  6-C ) :   1.6534 B(  5-C , 12-C ) :   0.9749
B(  6-C ,  7-C ) :   0.9666 B(  6-C ,  8-N ) :   1.1600 B(  7-C , 25-H ) :   0.9600
B(  7-C , 26-H ) :   0.9606 B(  7-C , 27-H ) :   0.9910 B(  8-N ,  9-C ) :   1.1843
B(  8-N , 28-H ) :   0.9478 B(  9-C , 10-S ) :   1.6047 B(  9-C , 11-N ) :   1.3068
B( 11-N , 12-C ) :   0.9827 B( 11-N , 29-H ) :   0.9515 B( 12-C , 13-C ) :   0.9351
B( 12-C , 30-H ) :   1.0020 B( 13-C , 14-C ) :   1.3508 B( 13-C , 19-C ) :   1.3837
B( 14-C , 15-C ) :   1.3899 B( 14-C , 31-H ) :   0.9728 B( 15-C , 16-C ) :   1.3616
B( 15-C , 32-H ) :   0.9706 B( 16-C , 17-C ) :   1.3310 B( 16-C , 33-H ) :   0.9850
B( 17-C , 18-O ) :   1.1111 B( 17-C , 19-C ) :   1.3704 B( 18-O , 34-H ) :   0.9797
B( 19-C , 35-H ) :   0.9581

MP2 TOTAL ENERGY:    -1274.337627614 Eh
FINAL SINGLE POINT ENERGY     -1274.337627614392

DIPOLE MOMENT
-------------
                                X             Y             Z
Electronic contribution:     10.18650      10.15361       8.50841
Nuclear contribution   :    -11.19398     -11.93667      -8.76130
                        -----------------------------------------
Total Dipole Moment    :     -1.00748      -1.78307      -0.25289
                        -----------------------------------------
Magnitude (a.u.)       :      2.06356
Magnitude (Debye)      :      5.24516

Rotational constants in cm-1:     0.011812     0.008674     0.006147
Rotational constants in MHz :   354.103521   260.053182   184.293387

                             ****ORCA TERMINATED NORMALLY****
TOTAL RUN TIME: 0 days 1 hours 38 minutes 58 seconds 664 msec
