                         Program Version 5.0.0 -  RELEASE  -
|  1> ! ri-mp2 cc-pvtz cc-pvtz/c TightSCF NoKeepInts
|  2>
|  3> %scf
|  4>   MaxCore 4096
|  5> end
|  6> *xyz  0  1
|  7>     C       15.4039567   13.8891402   16.7814448
|  8>     C       15.2407750   15.3626230   16.3527884
|  9>     O       16.4628829   15.9310976   15.8291933
| 10>     C       17.6392084   15.8120759   16.5119271
| 11>     O       18.2251124   14.7486077   16.6214726
| 12>     C       17.9340116   16.9838755   17.3988313
| 13>     C       17.5365988   18.2568418   17.1469801
| 14>     C       16.7876585   18.7685829   15.9340602
| 15>     N       17.8814959   19.2804418   18.0348247
| 16>     C       18.7043651   19.1326408   19.1203301
| 17>     S       19.1325178   20.4179315   20.0689198
| 18>     N       19.1528864   17.8624585   19.3818887
| 19>     C       18.7191324   16.6461408   18.6689328
| 20>     C       17.8877564   15.7534236   19.5858240
| 21>     C       18.2591283   14.4145673   19.8071800
| 22>     C       17.4816916   13.5824980   20.6299772
| 23>     C       16.3209587   14.0922782   21.2361855
| 24>     C       15.9456971   15.4242372   21.0151212
| 25>     O       14.8195328   15.9167938   21.5895974
| 26>     C       16.7216143   16.2501992   20.1960317
| 27>     H       15.8741068   13.3008970   15.9831872
| 28>     H       14.4261465   13.4450431   17.0025327
| 29>     H       16.0192784   13.8041852   17.6863103
| 30>     H       14.4609601   15.4291734   15.5833050
| 31>     H       14.9046305   15.9470782   17.2196031
| 32>     H       17.1762885   18.3150778   15.0133734
| 33>     H       16.8765803   19.8552996   15.8143954
| 34>     H       15.7203992   18.5259970   16.0043346
| 35>     H       17.5652189   20.2209585   17.8595685
| 36>     H       19.7339262   17.7770185   20.2060517
| 37>     H       19.6210505   16.0929512   18.3688712
| 38>     H       19.1441265   14.0115811   19.3205202
| 39>     H       17.7764539   12.5464463   20.7874888
| 40>     H       15.7160106   13.4517523   21.8693402
| 41>     H       14.4598361   15.2232695   22.1631676
| 42>     H       16.4150062   17.2788161   20.0404393
| 43> *
| 44>
| 45>                          ****END OF INPUT****

CARTESIAN COORDINATES (ANGSTROEM)
---------------------------------
  C     15.403957   13.889140   16.781445
  C     15.240775   15.362623   16.352788
  O     16.462883   15.931098   15.829193
  C     17.639208   15.812076   16.511927
  O     18.225112   14.748608   16.621473
  C     17.934012   16.983875   17.398831
  C     17.536599   18.256842   17.146980
  C     16.787658   18.768583   15.934060
  N     17.881496   19.280442   18.034825
  C     18.704365   19.132641   19.120330
  S     19.132518   20.417932   20.068920
  N     19.152886   17.862458   19.381889
  C     18.719132   16.646141   18.668933
  C     17.887756   15.753424   19.585824
  C     18.259128   14.414567   19.807180
  C     17.481692   13.582498   20.629977
  C     16.320959   14.092278   21.236186
  C     15.945697   15.424237   21.015121
  O     14.819533   15.916794   21.589597
  C     16.721614   16.250199   20.196032
  H     15.874107   13.300897   15.983187
  H     14.426146   13.445043   17.002533
  H     16.019278   13.804185   17.686310
  H     14.460960   15.429173   15.583305
  H     14.904630   15.947078   17.219603
  H     17.176288   18.315078   15.013373
  H     16.876580   19.855300   15.814395
  H     15.720399   18.525997   16.004335
  H     17.565219   20.220958   17.859568
  H     19.733926   17.777019   20.206052
  H     19.621050   16.092951   18.368871
  H     19.144126   14.011581   19.320520
  H     17.776454   12.546446   20.787489
  H     15.716011   13.451752   21.869340
  H     14.459836   15.223269   22.163168
  H     16.415006   17.278816   20.040439

 Total Charge           Charge          ....    0
 Multiplicity           Mult            ....    1
 Number of Electrons    NEL             ....  154
 Basis Dimension        Dim             ....  828

ORBITAL ENERGIES
----------------

  NO   OCC          E(Eh)            E(eV)
   0   2.0000     -91.889482     -2500.4399
   1   2.0000     -20.597152      -560.4770
   2   2.0000     -20.584527      -560.1335
   3   2.0000     -20.553522      -559.2898
   4   2.0000     -15.629402      -425.2976
   5   2.0000     -15.608857      -424.7386
   6   2.0000     -11.395146      -310.0777
   7   2.0000     -11.384937      -309.7999
   8   2.0000     -11.335717      -308.4605
   9   2.0000     -11.313443      -307.8544
  10   2.0000     -11.308270      -307.7137
  11   2.0000     -11.304848      -307.6206
  12   2.0000     -11.260692      -306.4190
  13   2.0000     -11.259535      -306.3875
  14   2.0000     -11.258655      -306.3636
  15   2.0000     -11.253287      -306.2175
  16   2.0000     -11.242989      -305.9373
  17   2.0000     -11.239085      -305.8310
  18   2.0000     -11.235983      -305.7466
  19   2.0000     -11.220905      -305.3363
  20   2.0000      -8.894557      -242.0332
  21   2.0000      -6.576134      -178.9457
  22   2.0000      -6.574125      -178.8910
  23   2.0000      -6.573540      -178.8751
  24   2.0000      -1.447071       -39.3768
  25   2.0000      -1.416922       -38.5564
  26   2.0000      -1.356909       -36.9234
  27   2.0000      -1.340484       -36.4764
  28   2.0000      -1.238684       -33.7063
  29   2.0000      -1.157513       -31.4975
  30   2.0000      -1.121662       -30.5220
  31   2.0000      -1.044805       -28.4306
  32   2.0000      -1.030868       -28.0513
  33   2.0000      -1.014918       -27.6173
  34   2.0000      -1.000237       -27.2178
  35   2.0000      -0.985337       -26.8124
  36   2.0000      -0.924385       -25.1538
  37   2.0000      -0.889521       -24.2051
  38   2.0000      -0.850447       -23.1418
  39   2.0000      -0.839626       -22.8474
  40   2.0000      -0.833459       -22.6796
  41   2.0000      -0.825265       -22.4566
  42   2.0000      -0.745328       -20.2814
  43   2.0000      -0.729193       -19.8424
  44   2.0000      -0.727907       -19.8074
  45   2.0000      -0.695049       -18.9133
  46   2.0000      -0.685755       -18.6603
  47   2.0000      -0.680236       -18.5102
  48   2.0000      -0.673965       -18.3395
  49   2.0000      -0.667098       -18.1527
  50   2.0000      -0.648670       -17.6512
  51   2.0000      -0.646663       -17.5966
  52   2.0000      -0.637079       -17.3358
  53   2.0000      -0.611134       -16.6298
  54   2.0000      -0.605865       -16.4864
  55   2.0000      -0.602728       -16.4011
  56   2.0000      -0.600424       -16.3384
  57   2.0000      -0.578151       -15.7323
  58   2.0000      -0.574425       -15.6309
  59   2.0000      -0.568417       -15.4674
  60   2.0000      -0.556964       -15.1558
  61   2.0000      -0.549465       -14.9517
  62   2.0000      -0.535753       -14.5786
  63   2.0000      -0.526171       -14.3178
  64   2.0000      -0.520172       -14.1546
  65   2.0000      -0.511931       -13.9303
  66   2.0000      -0.500393       -13.6164
  67   2.0000      -0.491891       -13.3850
  68   2.0000      -0.482335       -13.1250
  69   2.0000      -0.465985       -12.6801
  70   2.0000      -0.456140       -12.4122
  71   2.0000      -0.448611       -12.2073
  72   2.0000      -0.355317        -9.6687
  73   2.0000      -0.349248        -9.5035
  74   2.0000      -0.328824        -8.9477
  75   2.0000      -0.320505        -8.7214
  76   2.0000      -0.316768        -8.6197
  77   0.0000       0.071752         1.9525
  78   0.0000       0.103966         2.8290
  79   0.0000       0.119918         3.2631
  80   0.0000       0.131292         3.5727
  81   0.0000       0.138134         3.7588

MULLIKEN ATOMIC CHARGES
-----------------------
   0 C :   -0.280399
   1 C :    0.026945
   2 O :   -0.379906
   3 C :    0.457602
   4 O :   -0.393962
   5 C :   -0.216156
   6 C :    0.153432
   7 C :   -0.283660
   8 N :   -0.124755
   9 C :    0.204597
  10 S :   -0.439094
  11 N :   -0.203119
  12 C :    0.062436
  13 C :    0.043181
  14 C :   -0.170064
  15 C :   -0.132553
  16 C :   -0.277346
  17 C :    0.311768
  18 O :   -0.359232
  19 C :   -0.282749
  20 H :    0.110179
  21 H :    0.094218
  22 H :    0.115116
  23 H :    0.111866
  24 H :    0.086288
  25 H :    0.130625
  26 H :    0.106105
  27 H :    0.121494
  28 H :    0.197218
  29 H :    0.194862
  30 H :    0.154297
  31 H :    0.156451
  32 H :    0.161649
  33 H :    0.131086
  34 H :    0.241331
  35 H :    0.170249
Sum of atomic charges:   -0.0000000

LOEWDIN ATOMIC CHARGES
----------------------
   0 C :    0.107405
   1 C :   -0.018419
   2 O :    0.283972
   3 C :   -0.415797
   4 O :    0.131611
   5 C :   -0.095219
   6 C :   -0.071987
   7 C :    0.126145
   8 N :    0.404495
   9 C :   -0.457513
  10 S :   -0.035639
  11 N :    0.397231
  12 C :   -0.046182
  13 C :   -0.041751
  14 C :    0.021650
  15 C :    0.041913
  16 C :   -0.001548
  17 C :   -0.193920
  18 O :    0.393476
  19 C :    0.027922
  20 H :   -0.022469
  21 H :   -0.028068
  22 H :   -0.025268
  23 H :   -0.022907
  24 H :   -0.036440
  25 H :   -0.006364
  26 H :   -0.019555
  27 H :   -0.010996
  28 H :   -0.058566
  29 H :   -0.063877
  30 H :   -0.004992
  31 H :   -0.024496
  32 H :   -0.020119
  33 H :   -0.035370
  34 H :   -0.153678
  35 H :   -0.024680

  Mayer bond orders larger than 0.100000
B(  0-C ,  1-C ) :   0.9824 B(  0-C , 20-H ) :   0.9735 B(  0-C , 21-H ) :   0.9747
B(  0-C , 22-H ) :   0.9674 B(  1-C ,  2-O ) :   0.9007 B(  1-C , 23-H ) :   0.9786
B(  1-C , 24-H ) :   0.9718 B(  2-O ,  3-C ) :   1.0873 B(  3-C ,  4-O ) :   2.0463
B(  3-C ,  5-C ) :   1.0125 B(  5-C ,  6-C ) :   1.6606 B(  5-C , 12-C ) :   0.9656
B(  6-C ,  7-C ) :   0.9519 B(  6-C ,  8-N ) :   1.1442 B(  7-C , 25-H ) :   0.9680
B(  7-C , 26-H ) :   0.9880 B(  7-C , 27-H ) :   0.9656 B(  8-N ,  9-C ) :   1.1833
B(  8-N , 28-H ) :   0.9491 B(  9-C , 10-S ) :   1.6107 B(  9-C , 11-N ) :   1.3016
B( 11-N , 12-C ) :   0.9928 B( 11-N , 29-H ) :   0.9515 B( 12-C , 13-C ) :   0.9412
B( 12-C , 30-H ) :   0.9985 B( 13-C , 14-C ) :   1.3772 B( 13-C , 19-C ) :   1.3654
B( 14-C , 15-C ) :   1.3924 B( 14-C , 31-H ) :   0.9648 B( 15-C , 16-C ) :   1.3626
B( 15-C , 32-H ) :   0.9711 B( 16-C , 17-C ) :   1.3320 B( 16-C , 33-H ) :   0.9849
B( 17-C , 18-O ) :   1.1099 B( 17-C , 19-C ) :   1.3700 B( 18-O , 34-H ) :   0.9797
B( 19-C , 35-H ) :   0.9576

MP2 TOTAL ENERGY:    -1274.330142616 Eh
FINAL SINGLE POINT ENERGY     -1274.330142615890

DIPOLE MOMENT
-------------
                                X             Y             Z
Electronic contribution:     10.04262       9.79299       6.57794
Nuclear contribution   :    -11.55254     -10.87029      -7.10724
                        -----------------------------------------
Total Dipole Moment    :     -1.50992      -1.07730      -0.52929
                        -----------------------------------------
Magnitude (a.u.)       :      1.92889
Magnitude (Debye)      :      4.90284

Rotational constants in cm-1:     0.012257     0.009125     0.006589
Rotational constants in MHz :   367.453026   273.565582   197.519633

                             ****ORCA TERMINATED NORMALLY****
TOTAL RUN TIME: 0 days 2 hours 5 minutes 4 seconds 189 msec
