                         Program Version 5.0.0 -  RELEASE  -
|  1> ! ri-mp2 cc-pvtz cc-pvtz/c TightSCF NoKeepInts
|  2>
|  3> %scf
|  4>   MaxCore 4096
|  5> end
|  6> *xyz  0  1
|  7>     C       14.9013439   15.6815091   17.2169430
|  8>     C       15.7881926   14.8240299   16.2924588
|  9>     O       16.8341336   15.5966344   15.6636584
| 10>     C       17.9989590   15.8306110   16.3408225
| 11>     O       18.7999841   14.9213293   16.4647819
| 12>     C       17.9224127   16.9284810   17.3567965
| 13>     C       17.3125585   18.1133406   17.1089481
| 14>     C       16.6527646   18.5499884   15.8171824
| 15>     N       17.3541996   19.1297699   18.0672039
| 16>     C       18.1315677   19.1038573   19.1956571
| 17>     S       18.2294604   20.4020539   20.2152313
| 18>     N       18.8260023   17.9440217   19.4362525
| 19>     C       18.6604787   16.6869437   18.6796390
| 20>     C       17.9634031   15.6238194   19.5290759
| 21>     C       18.4209393   14.2929254   19.5128066
| 22>     C       17.7827920   13.3031931   20.2785927
| 23>     C       16.6759401   13.6448930   21.0732825
| 24>     C       16.2176147   14.9685741   21.0972615
| 25>     O       15.1440033   15.3012389   21.8570517
| 26>     C       16.8555848   15.9516358   20.3342939
| 27>     H       15.4704367   16.1304871   18.0341395
| 28>     H       14.1205393   15.0571972   17.6682578
| 29>     H       14.4033397   16.4772789   16.6523292
| 30>     H       16.2264590   13.9925340   16.8623189
| 31>     H       15.1531999   14.3879966   15.5105563
| 32>     H       15.6003164   18.2487253   15.7876594
| 33>     H       17.1513275   18.1092613   14.9449113
| 34>     H       16.6930456   19.6381033   15.6834427
| 35>     H       16.8582374   19.9916299   17.9035610
| 36>     H       19.3758436   17.9449345   20.2860007
| 37>     H       19.6666419   16.3152052   18.4362621
| 38>     H       19.2708792   14.0209949   18.8907176
| 39>     H       18.1460386   12.2772841   20.2504202
| 40>     H       16.1787710   12.8831963   21.6647521
| 41>     H       14.8805491   14.5099239   22.3505489
| 42>     H       16.4790399   16.9683974   20.3701823
| 43> *
| 44>
| 45>                          ****END OF INPUT****

CARTESIAN COORDINATES (ANGSTROEM)
---------------------------------
  C     14.901344   15.681509   17.216943
  C     15.788193   14.824030   16.292459
  O     16.834134   15.596634   15.663658
  C     17.998959   15.830611   16.340823
  O     18.799984   14.921329   16.464782
  C     17.922413   16.928481   17.356796
  C     17.312559   18.113341   17.108948
  C     16.652765   18.549988   15.817182
  N     17.354200   19.129770   18.067204
  C     18.131568   19.103857   19.195657
  S     18.229460   20.402054   20.215231
  N     18.826002   17.944022   19.436252
  C     18.660479   16.686944   18.679639
  C     17.963403   15.623819   19.529076
  C     18.420939   14.292925   19.512807
  C     17.782792   13.303193   20.278593
  C     16.675940   13.644893   21.073283
  C     16.217615   14.968574   21.097261
  O     15.144003   15.301239   21.857052
  C     16.855585   15.951636   20.334294
  H     15.470437   16.130487   18.034139
  H     14.120539   15.057197   17.668258
  H     14.403340   16.477279   16.652329
  H     16.226459   13.992534   16.862319
  H     15.153200   14.387997   15.510556
  H     15.600316   18.248725   15.787659
  H     17.151327   18.109261   14.944911
  H     16.693046   19.638103   15.683443
  H     16.858237   19.991630   17.903561
  H     19.375844   17.944934   20.286001
  H     19.666642   16.315205   18.436262
  H     19.270879   14.020995   18.890718
  H     18.146039   12.277284   20.250420
  H     16.178771   12.883196   21.664752
  H     14.880549   14.509924   22.350549
  H     16.479040   16.968397   20.370182

 Total Charge           Charge          ....    0
 Multiplicity           Mult            ....    1
 Number of Electrons    NEL             ....  154
 Basis Dimension        Dim             ....  828

ORBITAL ENERGIES
----------------

  NO   OCC          E(Eh)            E(eV)
   0   2.0000     -91.891094     -2500.4838
   1   2.0000     -20.597038      -560.4739
   2   2.0000     -20.580662      -560.0283
   3   2.0000     -20.556029      -559.3580
   4   2.0000     -15.630460      -425.3264
   5   2.0000     -15.610357      -424.7794
   6   2.0000     -11.394867      -310.0701
   7   2.0000     -11.386626      -309.8458
   8   2.0000     -11.334916      -308.4387
   9   2.0000     -11.313543      -307.8572
  10   2.0000     -11.311747      -307.8083
  11   2.0000     -11.303064      -307.5720
  12   2.0000     -11.262152      -306.4587
  13   2.0000     -11.261800      -306.4491
  14   2.0000     -11.260590      -306.4162
  15   2.0000     -11.253671      -306.2280
  16   2.0000     -11.243235      -305.9440
  17   2.0000     -11.239375      -305.8389
  18   2.0000     -11.235567      -305.7353
  19   2.0000     -11.228083      -305.5317
  20   2.0000      -8.896155      -242.0767
  21   2.0000      -6.577730      -178.9891
  22   2.0000      -6.575721      -178.9345
  23   2.0000      -6.575133      -178.9185
  24   2.0000      -1.448904       -39.4267
  25   2.0000      -1.416856       -38.5546
  26   2.0000      -1.354257       -36.8512
  27   2.0000      -1.341787       -36.5119
  28   2.0000      -1.239948       -33.7407
  29   2.0000      -1.157625       -31.5006
  30   2.0000      -1.123130       -30.5619
  31   2.0000      -1.045635       -28.4532
  32   2.0000      -1.033315       -28.1179
  33   2.0000      -1.015712       -27.6389
  34   2.0000      -1.001912       -27.2634
  35   2.0000      -0.988932       -26.9102
  36   2.0000      -0.925817       -25.1928
  37   2.0000      -0.890049       -24.2195
  38   2.0000      -0.850605       -23.1461
  39   2.0000      -0.840521       -22.8717
  40   2.0000      -0.833919       -22.6921
  41   2.0000      -0.823845       -22.4180
  42   2.0000      -0.753295       -20.4982
  43   2.0000      -0.735167       -20.0049
  44   2.0000      -0.729317       -19.8457
  45   2.0000      -0.695846       -18.9349
  46   2.0000      -0.687369       -18.7043
  47   2.0000      -0.676860       -18.4183
  48   2.0000      -0.674606       -18.3570
  49   2.0000      -0.661404       -17.9977
  50   2.0000      -0.653847       -17.7921
  51   2.0000      -0.646550       -17.5935
  52   2.0000      -0.639134       -17.3917
  53   2.0000      -0.609788       -16.5932
  54   2.0000      -0.604665       -16.4538
  55   2.0000      -0.601112       -16.3571
  56   2.0000      -0.593954       -16.1623
  57   2.0000      -0.589438       -16.0394
  58   2.0000      -0.575548       -15.6615
  59   2.0000      -0.571295       -15.5457
  60   2.0000      -0.563422       -15.3315
  61   2.0000      -0.553194       -15.0532
  62   2.0000      -0.545073       -14.8322
  63   2.0000      -0.524356       -14.2685
  64   2.0000      -0.519537       -14.1373
  65   2.0000      -0.513044       -13.9606
  66   2.0000      -0.501104       -13.6357
  67   2.0000      -0.492906       -13.4127
  68   2.0000      -0.483708       -13.1624
  69   2.0000      -0.465536       -12.6679
  70   2.0000      -0.454454       -12.3663
  71   2.0000      -0.454101       -12.3567
  72   2.0000      -0.356267        -9.6945
  73   2.0000      -0.348525        -9.4838
  74   2.0000      -0.330296        -8.9878
  75   2.0000      -0.321558        -8.7500
  76   2.0000      -0.318446        -8.6653
  77   0.0000       0.069471         1.8904
  78   0.0000       0.104505         2.8437
  79   0.0000       0.119448         3.2503
  80   0.0000       0.130423         3.5490
  81   0.0000       0.132300         3.6001

MULLIKEN ATOMIC CHARGES
-----------------------
   0 C :   -0.327579
   1 C :    0.048067
   2 O :   -0.380666
   3 C :    0.467706
   4 O :   -0.390773
   5 C :   -0.235292
   6 C :    0.165908
   7 C :   -0.287278
   8 N :   -0.128925
   9 C :    0.190807
  10 S :   -0.435090
  11 N :   -0.211936
  12 C :    0.070627
  13 C :    0.040208
  14 C :   -0.202280
  15 C :   -0.136869
  16 C :   -0.277842
  17 C :    0.323613
  18 O :   -0.357507
  19 C :   -0.288270
  20 H :    0.113951
  21 H :    0.121746
  22 H :    0.096177
  23 H :    0.101450
  24 H :    0.115102
  25 H :    0.123663
  26 H :    0.127622
  27 H :    0.111550
  28 H :    0.198336
  29 H :    0.196972
  30 H :    0.161828
  31 H :    0.170895
  32 H :    0.163627
  33 H :    0.131565
  34 H :    0.240681
  35 H :    0.178203
Sum of atomic charges:    0.0000000

LOEWDIN ATOMIC CHARGES
----------------------
   0 C :    0.106400
   1 C :   -0.011917
   2 O :    0.275514
   3 C :   -0.416988
   4 O :    0.134091
   5 C :   -0.092602
   6 C :   -0.074262
   7 C :    0.128341
   8 N :    0.405343
   9 C :   -0.458742
  10 S :   -0.034022
  11 N :    0.397023
  12 C :   -0.044025
  13 C :   -0.041787
  14 C :    0.020511
  15 C :    0.041049
  16 C :   -0.002168
  17 C :   -0.193617
  18 O :    0.394813
  19 C :    0.028250
  20 H :   -0.036471
  21 H :   -0.021271
  22 H :   -0.034655
  23 H :   -0.026812
  24 H :   -0.021334
  25 H :   -0.014797
  26 H :   -0.007060
  27 H :   -0.017061
  28 H :   -0.057778
  29 H :   -0.063823
  30 H :   -0.002895
  31 H :   -0.023372
  32 H :   -0.019647
  33 H :   -0.035337
  34 H :   -0.153763
  35 H :   -0.025132

  Mayer bond orders larger than 0.100000
B(  0-C ,  1-C ) :   0.9607 B(  0-C , 20-H ) :   0.9690 B(  0-C , 21-H ) :   0.9780
B(  0-C , 22-H ) :   0.9794 B(  1-C ,  2-O ) :   0.8931 B(  1-C , 23-H ) :   0.9741
B(  1-C , 24-H ) :   0.9838 B(  2-O ,  3-C ) :   1.0974 B(  3-C ,  4-O ) :   2.0462
B(  3-C ,  5-C ) :   0.9971 B(  5-C ,  6-C ) :   1.6628 B(  5-C , 12-C ) :   0.9540
B(  6-C ,  7-C ) :   0.9528 B(  6-C ,  8-N ) :   1.1332 B(  7-C , 25-H ) :   0.9632
B(  7-C , 26-H ) :   0.9699 B(  7-C , 27-H ) :   0.9853 B(  8-N ,  9-C ) :   1.1839
B(  8-N , 28-H ) :   0.9502 B(  9-C , 10-S ) :   1.6166 B(  9-C , 11-N ) :   1.2922
B( 11-N , 12-C ) :   0.9833 B( 11-N , 29-H ) :   0.9510 B( 12-C , 13-C ) :   0.9507
B( 12-C , 30-H ) :   0.9973 B( 13-C , 14-C ) :   1.3861 B( 13-C , 19-C ) :   1.3407
B( 14-C , 15-C ) :   1.3995 B( 14-C , 31-H ) :   0.9585 B( 15-C , 16-C ) :   1.3604
B( 15-C , 32-H ) :   0.9701 B( 16-C , 17-C ) :   1.3314 B( 16-C , 33-H ) :   0.9847
B( 17-C , 18-O ) :   1.1115 B( 17-C , 19-C ) :   1.3682 B( 18-O , 34-H ) :   0.9800
B( 19-C , 35-H ) :   0.9572

MP2 TOTAL ENERGY:    -1274.321807322 Eh
FINAL SINGLE POINT ENERGY     -1274.321807321658

DIPOLE MOMENT
-------------
                                X             Y             Z
Electronic contribution:      9.80544       6.89149       6.12798
Nuclear contribution   :    -11.07791      -8.10028      -6.69846
                        -----------------------------------------
Total Dipole Moment    :     -1.27246      -1.20879      -0.57048
                        -----------------------------------------
Magnitude (a.u.)       :      1.84547
Magnitude (Debye)      :      4.69082

Rotational constants in cm-1:     0.011693     0.009751     0.006895
Rotational constants in MHz :   350.533945   292.335332   206.698865

                             ****ORCA TERMINATED NORMALLY****
TOTAL RUN TIME: 0 days 1 hours 46 minutes 19 seconds 556 msec
