                         Program Version 4.2.0 -  RELEASE  -
|  1> ! ri-mp2 cc-pvtz cc-pvtz/c TightSCF  NoKeepInts
|  2>
|  3> %scf
|  4>   MaxCore 4096
|  5> end
|  6> *xyz  0  1
|  7>     C       14.3252750   15.7079793   16.2119391
|  8>     C       15.4562415   15.3813087   17.2039101
|  9>     O       16.6446040   15.0703502   16.4454386
| 10>     C       17.8449477   15.7378083   16.5056313
| 11>     O       18.8610778   15.1620148   16.1640410
| 12>     C       17.9208478   16.8957139   17.4438097
| 13>     C       17.3447441   18.0897205   17.1803010
| 14>     C       16.5845169   18.4748361   15.9323429
| 15>     N       17.4898044   19.1457601   18.0822797
| 16>     C       18.2625760   19.1032749   19.2140197
| 17>     S       18.4147029   20.4139285   20.2104219
| 18>     N       18.8985209   17.9157691   19.4841933
| 19>     C       18.7495197   16.6692773   18.7062257
| 20>     C       18.1412014   15.5508876   19.5467044
| 21>     C       18.6470742   14.2418616   19.4487749
| 22>     C       18.0742317   13.1952474   20.1901480
| 23>     C       16.9824249   13.4576503   21.0348382
| 24>     C       16.4704748   14.7584712   21.1296545
| 25>     O       15.4058931   15.0127813   21.9310132
| 26>     C       17.0422290   15.7987982   20.3903737
| 27>     H       14.5881177   16.5425125   15.5551743
| 28>     H       13.4063718   15.9694886   16.7507713
| 29>     H       14.1116246   14.8360742   15.5807959
| 30>     H       15.5917136   16.2178258   17.8981236
| 31>     H       15.1720657   14.5050884   17.8015935
| 32>     H       16.6395141   17.7004298   15.1575136
| 33>     H       16.9996070   19.3898590   15.4907416
| 34>     H       15.5269903   18.6593516   16.1565542
| 35>     H       17.0439390   20.0302798   17.8949313
| 36>     H       19.4455560   17.9086920   20.3359750
| 37>     H       19.7541802   16.3511826   18.3900543
| 38>     H       19.4783909   14.0316863   18.7788000
| 39>     H       18.4725755   12.1858441   20.1009844
| 40>     H       16.5349789   12.6507173   21.6058550
| 41>     H       15.1944931   14.1925581   22.4025380
| 42>     H       16.6259736   16.7969705   20.4775329
| 43> *
| 44>
| 45>                          ****END OF INPUT****

CARTESIAN COORDINATES (ANGSTROEM)
---------------------------------
  C     14.325275   15.707979   16.211939
  C     15.456242   15.381309   17.203910
  O     16.644604   15.070350   16.445439
  C     17.844948   15.737808   16.505631
  O     18.861078   15.162015   16.164041
  C     17.920848   16.895714   17.443810
  C     17.344744   18.089720   17.180301
  C     16.584517   18.474836   15.932343
  N     17.489804   19.145760   18.082280
  C     18.262576   19.103275   19.214020
  S     18.414703   20.413928   20.210422
  N     18.898521   17.915769   19.484193
  C     18.749520   16.669277   18.706226
  C     18.141201   15.550888   19.546704
  C     18.647074   14.241862   19.448775
  C     18.074232   13.195247   20.190148
  C     16.982425   13.457650   21.034838
  C     16.470475   14.758471   21.129655
  O     15.405893   15.012781   21.931013
  C     17.042229   15.798798   20.390374
  H     14.588118   16.542513   15.555174
  H     13.406372   15.969489   16.750771
  H     14.111625   14.836074   15.580796
  H     15.591714   16.217826   17.898124
  H     15.172066   14.505088   17.801593
  H     16.639514   17.700430   15.157514
  H     16.999607   19.389859   15.490742
  H     15.526990   18.659352   16.156554
  H     17.043939   20.030280   17.894931
  H     19.445556   17.908692   20.335975
  H     19.754180   16.351183   18.390054
  H     19.478391   14.031686   18.778800
  H     18.472576   12.185844   20.100984
  H     16.534979   12.650717   21.605855
  H     15.194493   14.192558   22.402538
  H     16.625974   16.796971   20.477533

 Total Charge           Charge          ....    0
 Multiplicity           Mult            ....    1
 Number of Electrons    NEL             ....  154
 Basis Dimension        Dim             ....  828

ORBITAL ENERGIES
----------------

  NO   OCC          E(Eh)            E(eV)
   0   2.0000     -91.890047     -2500.4553
   1   2.0000     -20.600633      -560.5717
   2   2.0000     -20.600631      -560.5717
   3   2.0000     -20.550550      -559.2089
   4   2.0000     -15.626535      -425.2196
   5   2.0000     -15.612116      -424.8273
   6   2.0000     -11.398687      -310.1740
   7   2.0000     -11.387006      -309.8562
   8   2.0000     -11.327706      -308.2425
   9   2.0000     -11.317377      -307.9615
  10   2.0000     -11.315997      -307.9239
  11   2.0000     -11.303444      -307.5824
  12   2.0000     -11.269296      -306.6531
  13   2.0000     -11.265072      -306.5382
  14   2.0000     -11.264228      -306.5152
  15   2.0000     -11.257379      -306.3289
  16   2.0000     -11.246742      -306.0394
  17   2.0000     -11.242923      -305.9355
  18   2.0000     -11.240017      -305.8564
  19   2.0000     -11.235068      -305.7217
  20   2.0000      -8.895168      -242.0498
  21   2.0000      -6.576757      -178.9627
  22   2.0000      -6.574729      -178.9075
  23   2.0000      -6.574156      -178.8919
  24   2.0000      -1.447163       -39.3793
  25   2.0000      -1.420442       -38.6522
  26   2.0000      -1.358803       -36.9749
  27   2.0000      -1.340257       -36.4703
  28   2.0000      -1.240248       -33.7489
  29   2.0000      -1.162162       -31.6240
  30   2.0000      -1.126384       -30.6505
  31   2.0000      -1.049841       -28.5676
  32   2.0000      -1.040857       -28.3231
  33   2.0000      -1.019561       -27.7437
  34   2.0000      -1.005739       -27.3675
  35   2.0000      -0.990020       -26.9398
  36   2.0000      -0.928392       -25.2628
  37   2.0000      -0.888882       -24.1877
  38   2.0000      -0.853980       -23.2380
  39   2.0000      -0.842248       -22.9187
  40   2.0000      -0.837602       -22.7923
  41   2.0000      -0.836735       -22.7687
  42   2.0000      -0.756645       -20.5894
  43   2.0000      -0.737573       -20.0704
  44   2.0000      -0.732750       -19.9392
  45   2.0000      -0.698281       -19.0012
  46   2.0000      -0.688998       -18.7486
  47   2.0000      -0.680272       -18.5111
  48   2.0000      -0.677271       -18.4295
  49   2.0000      -0.667368       -18.1600
  50   2.0000      -0.653606       -17.7855
  51   2.0000      -0.640729       -17.4351
  52   2.0000      -0.639055       -17.3896
  53   2.0000      -0.616552       -16.7772
  54   2.0000      -0.609160       -16.5761
  55   2.0000      -0.607061       -16.5190
  56   2.0000      -0.604034       -16.4366
  57   2.0000      -0.589428       -16.0392
  58   2.0000      -0.578998       -15.7553
  59   2.0000      -0.570462       -15.5231
  60   2.0000      -0.566495       -15.4151
  61   2.0000      -0.559937       -15.2367
  62   2.0000      -0.540875       -14.7180
  63   2.0000      -0.536212       -14.5911
  64   2.0000      -0.523508       -14.2454
  65   2.0000      -0.516472       -14.0539
  66   2.0000      -0.503012       -13.6876
  67   2.0000      -0.500676       -13.6241
  68   2.0000      -0.488965       -13.3054
  69   2.0000      -0.471211       -12.8223
  70   2.0000      -0.453267       -12.3340
  71   2.0000      -0.448704       -12.2099
  72   2.0000      -0.356817        -9.7095
  73   2.0000      -0.352425        -9.5900
  74   2.0000      -0.329779        -8.9738
  75   2.0000      -0.325219        -8.8496
  76   2.0000      -0.318625        -8.6702
  77   0.0000       0.086972         2.3666
  78   0.0000       0.104408         2.8411
  79   0.0000       0.113870         3.0986
  80   0.0000       0.127607         3.4724
  81   0.0000       0.129684         3.5289

MULLIKEN ATOMIC CHARGES
-----------------------
   0 C :   -0.270743
   1 C :    0.016124
   2 O :   -0.317148
   3 C :    0.392153
   4 O :   -0.380386
   5 C :   -0.174502
   6 C :    0.131823
   7 C :   -0.337881
   8 N :   -0.137140
   9 C :    0.205042
  10 S :   -0.441410
  11 N :   -0.215807
  12 C :    0.072934
  13 C :    0.025698
  14 C :   -0.191741
  15 C :   -0.129789
  16 C :   -0.277216
  17 C :    0.314628
  18 O :   -0.357511
  19 C :   -0.284698
  20 H :    0.087501
  21 H :    0.094918
  22 H :    0.111491
  23 H :    0.098565
  24 H :    0.128281
  25 H :    0.124425
  26 H :    0.144595
  27 H :    0.124117
  28 H :    0.196272
  29 H :    0.199220
  30 H :    0.164447
  31 H :    0.166653
  32 H :    0.163807
  33 H :    0.132930
  34 H :    0.241978
  35 H :    0.178368
Sum of atomic charges:   -0.0000000

LOEWDIN ATOMIC CHARGES
----------------------
   0 C :    0.104749
   1 C :   -0.016417
   2 O :    0.308329
   3 C :   -0.417130
   4 O :    0.125143
   5 C :   -0.081516
   6 C :   -0.105954
   7 C :    0.124743
   8 N :    0.401051
   9 C :   -0.455778
  10 S :   -0.038191
  11 N :    0.397339
  12 C :   -0.044281
  13 C :   -0.043430
  14 C :    0.023570
  15 C :    0.046227
  16 C :   -0.000149
  17 C :   -0.194126
  18 O :    0.394538
  19 C :    0.027744
  20 H :   -0.034688
  21 H :   -0.025062
  22 H :   -0.023397
  23 H :   -0.040874
  24 H :   -0.021525
  25 H :   -0.009405
  26 H :   -0.009314
  27 H :   -0.016216
  28 H :   -0.057993
  29 H :   -0.063626
  30 H :   -0.002199
  31 H :   -0.021755
  32 H :   -0.018229
  33 H :   -0.034489
  34 H :   -0.152746
  35 H :   -0.024946

  Mayer bond orders larger than 0.100000
B(  0-C ,  1-C ) :   0.9721 B(  0-C , 20-H ) :   0.9777 B(  0-C , 21-H ) :   0.9755
B(  0-C , 22-H ) :   0.9799 B(  1-C ,  2-O ) :   0.8980 B(  1-C , 23-H ) :   0.9604
B(  1-C , 24-H ) :   0.9787 B(  2-O ,  3-C ) :   1.1854 B(  3-C ,  4-O ) :   2.0945
B(  3-C ,  5-C ) :   0.9203 B(  5-C ,  6-C ) :   1.6941 B(  5-C , 12-C ) :   0.9599
B(  6-C ,  7-C ) :   0.9440 B(  6-C ,  8-N ) :   1.1116 B(  7-C , 25-H ) :   0.9817
B(  7-C , 26-H ) :   0.9705 B(  7-C , 27-H ) :   0.9656 B(  8-N ,  9-C ) :   1.1969
B(  8-N , 28-H ) :   0.9524 B(  9-C , 10-S ) :   1.6111 B(  9-C , 11-N ) :   1.2863
B( 11-N , 12-C ) :   0.9971 B( 11-N , 29-H ) :   0.9485 B( 12-C , 13-C ) :   0.9425
B( 12-C , 30-H ) :   0.9972 B( 13-C , 14-C ) :   1.3875 B( 13-C , 19-C ) :   1.3420
B( 14-C , 15-C ) :   1.3974 B( 14-C , 31-H ) :   0.9618 B( 15-C , 16-C ) :   1.3637
B( 15-C , 32-H ) :   0.9699 B( 16-C , 17-C ) :   1.3287 B( 16-C , 33-H ) :   0.9842
B( 17-C , 18-O ) :   1.1109 B( 17-C , 19-C ) :   1.3700 B( 18-O , 34-H ) :   0.9789
B( 19-C , 35-H ) :   0.9567

MP2 TOTAL ENERGY:    -1274.329937276 Eh
FINAL SINGLE POINT ENERGY     -1274.329937276480

DIPOLE MOMENT
-------------
                                X             Y             Z
Electronic contribution:     11.41190       5.42123       7.89818
Nuclear contribution   :    -12.95726      -6.47511      -8.18608
                        -----------------------------------------
Total Dipole Moment    :     -1.54536      -1.05388      -0.28790
                        -----------------------------------------
Magnitude (a.u.)       :      1.89253
Magnitude (Debye)      :      4.81044

Rotational constants in cm-1:     0.011570     0.009244     0.006863
Rotational constants in MHz :   346.871823   277.123563   205.736641

                             ****ORCA TERMINATED NORMALLY****
TOTAL RUN TIME: 0 days 1 hours 46 minutes 52 seconds 500 msec
