                         Program Version 4.2.0 -  RELEASE  -
|  1> ! ri-mp2 cc-pvtz cc-pvtz/c TightSCF  NoKeepInts
|  2>
|  3> %scf
|  4>   MaxCore 4096
|  5> end
|  6> *xyz  0  1
|  7>     C       15.0589982   13.8771758   16.9225774
|  8>     C       15.5513810   15.3014564   16.6116629
|  9>     O       16.9536924   15.2291950   16.2867684
| 10>     C       17.5574812   16.4096886   15.9823652
| 11>     O       17.3514166   16.9477583   14.9086286
| 12>     C       17.7885566   17.1934132   17.2407084
| 13>     C       17.4012701   18.4849477   17.3764817
| 14>     C       16.5929583   19.3198240   16.4150609
| 15>     N       17.8079853   19.2205826   18.4890122
| 16>     C       18.8034705   18.8251412   19.3447213
| 17>     S       19.4986362   19.8682474   20.4226985
| 18>     N       19.2443932   17.5323618   19.2075316
| 19>     C       18.5920046   16.5140912   18.3619217
| 20>     C       17.8028909   15.5527924   19.2517013
| 21>     C       18.2767561   14.2388161   19.4135396
| 22>     C       17.6829060   13.3668579   20.3388862
| 23>     C       16.5923245   13.8033796   21.1076267
| 24>     C       16.1020621   15.1054484   20.9400945
| 25>     O       15.0573714   15.5254226   21.7006635
| 26>     C       16.7034586   15.9812472   20.0228523
| 27>     H       14.3150747   13.9132157   17.7263986
| 28>     H       15.8791744   13.2297686   17.2665430
| 29>     H       14.5876600   13.4228889   16.0439247
| 30>     H       14.9743331   15.7214622   15.7730115
| 31>     H       15.3915013   15.9552658   17.4767279
| 32>     H       15.7974523   18.7388713   15.9282827
| 33>     H       17.2580281   19.7100074   15.6351909
| 34>     H       16.1109609   20.1709571   16.9142164
| 35>     H       17.5004709   20.1765991   18.5800234
| 36>     H       19.9883277   17.2658803   19.8404550
| 37>     H       19.4004654   15.9397021   17.8886767
| 38>     H       19.1328072   13.8992464   18.8395822
| 39>     H       18.0819814   12.3630304   20.4733835
| 40>     H       16.1344649   13.1354210   21.8349737
| 41>     H       14.8325812   14.8099321   22.3178334
| 42>     H       16.3417030   17.0019043   19.9492735
| 43> *
| 44>
| 45>                          ****END OF INPUT****

CARTESIAN COORDINATES (ANGSTROEM)
---------------------------------
  C     15.058998   13.877176   16.922577
  C     15.551381   15.301456   16.611663
  O     16.953692   15.229195   16.286768
  C     17.557481   16.409689   15.982365
  O     17.351417   16.947758   14.908629
  C     17.788557   17.193413   17.240708
  C     17.401270   18.484948   17.376482
  C     16.592958   19.319824   16.415061
  N     17.807985   19.220583   18.489012
  C     18.803470   18.825141   19.344721
  S     19.498636   19.868247   20.422698
  N     19.244393   17.532362   19.207532
  C     18.592005   16.514091   18.361922
  C     17.802891   15.552792   19.251701
  C     18.276756   14.238816   19.413540
  C     17.682906   13.366858   20.338886
  C     16.592325   13.803380   21.107627
  C     16.102062   15.105448   20.940094
  O     15.057371   15.525423   21.700664
  C     16.703459   15.981247   20.022852
  H     14.315075   13.913216   17.726399
  H     15.879174   13.229769   17.266543
  H     14.587660   13.422889   16.043925
  H     14.974333   15.721462   15.773012
  H     15.391501   15.955266   17.476728
  H     15.797452   18.738871   15.928283
  H     17.258028   19.710007   15.635191
  H     16.110961   20.170957   16.914216
  H     17.500471   20.176599   18.580023
  H     19.988328   17.265880   19.840455
  H     19.400465   15.939702   17.888677
  H     19.132807   13.899246   18.839582
  H     18.081981   12.363030   20.473384
  H     16.134465   13.135421   21.834974
  H     14.832581   14.809932   22.317833
  H     16.341703   17.001904   19.949274

 Total Charge           Charge          ....    0
 Multiplicity           Mult            ....    1
 Number of Electrons    NEL             ....  154
 Basis Dimension        Dim             ....  828

ORBITAL ENERGIES
----------------

  NO   OCC          E(Eh)            E(eV)
   0   2.0000     -91.889461     -2500.4393
   1   2.0000     -20.600579      -560.5702
   2   2.0000     -20.581113      -560.0406
   3   2.0000     -20.561964      -559.5195
   4   2.0000     -15.628113      -425.2626
   5   2.0000     -15.609929      -424.7678
   6   2.0000     -11.394367      -310.0565
   7   2.0000     -11.384547      -309.7893
   8   2.0000     -11.330841      -308.3278
   9   2.0000     -11.319456      -308.0181
  10   2.0000     -11.314996      -307.8967
  11   2.0000     -11.298761      -307.4549
  12   2.0000     -11.265149      -306.5403
  13   2.0000     -11.258815      -306.3679
  14   2.0000     -11.258703      -306.3649
  15   2.0000     -11.255454      -306.2765
  16   2.0000     -11.246932      -306.0446
  17   2.0000     -11.244356      -305.9745
  18   2.0000     -11.241220      -305.8891
  19   2.0000     -11.226434      -305.4868
  20   2.0000      -8.894537      -242.0326
  21   2.0000      -6.576111      -178.9451
  22   2.0000      -6.574107      -178.8906
  23   2.0000      -6.573517      -178.8745
  24   2.0000      -1.453164       -39.5426
  25   2.0000      -1.418861       -38.6092
  26   2.0000      -1.358370       -36.9631
  27   2.0000      -1.341540       -36.5052
  28   2.0000      -1.240206       -33.7477
  29   2.0000      -1.160303       -31.5734
  30   2.0000      -1.120904       -30.5013
  31   2.0000      -1.045526       -28.4502
  32   2.0000      -1.034820       -28.1589
  33   2.0000      -1.018852       -27.7244
  34   2.0000      -1.000825       -27.2338
  35   2.0000      -0.985448       -26.8154
  36   2.0000      -0.925442       -25.1826
  37   2.0000      -0.878102       -23.8944
  38   2.0000      -0.849041       -23.1036
  39   2.0000      -0.843477       -22.9522
  40   2.0000      -0.837521       -22.7901
  41   2.0000      -0.831976       -22.6392
  42   2.0000      -0.759982       -20.6802
  43   2.0000      -0.734724       -19.9928
  44   2.0000      -0.726197       -19.7608
  45   2.0000      -0.699778       -19.0419
  46   2.0000      -0.691946       -18.8288
  47   2.0000      -0.685654       -18.6576
  48   2.0000      -0.673737       -18.3333
  49   2.0000      -0.658096       -17.9077
  50   2.0000      -0.649639       -17.6776
  51   2.0000      -0.642647       -17.4873
  52   2.0000      -0.631143       -17.1743
  53   2.0000      -0.624592       -16.9960
  54   2.0000      -0.610748       -16.6193
  55   2.0000      -0.602955       -16.4072
  56   2.0000      -0.602372       -16.3914
  57   2.0000      -0.580791       -15.8041
  58   2.0000      -0.574171       -15.6240
  59   2.0000      -0.565791       -15.3960
  60   2.0000      -0.550571       -14.9818
  61   2.0000      -0.540904       -14.7188
  62   2.0000      -0.535974       -14.5846
  63   2.0000      -0.530562       -14.4373
  64   2.0000      -0.522509       -14.2182
  65   2.0000      -0.516043       -14.0422
  66   2.0000      -0.505279       -13.7493
  67   2.0000      -0.501373       -13.6431
  68   2.0000      -0.483131       -13.1467
  69   2.0000      -0.465092       -12.6558
  70   2.0000      -0.458563       -12.4781
  71   2.0000      -0.447667       -12.1816
  72   2.0000      -0.358266        -9.7489
  73   2.0000      -0.352297        -9.5865
  74   2.0000      -0.329393        -8.9632
  75   2.0000      -0.325153        -8.8479
  76   2.0000      -0.316604        -8.6152
  77   0.0000       0.071107         1.9349
  78   0.0000       0.101076         2.7504
  79   0.0000       0.117899         3.2082
  80   0.0000       0.125978         3.4280
  81   0.0000       0.130158         3.5418

MULLIKEN ATOMIC CHARGES
-----------------------
   0 C :   -0.277453
   1 C :    0.030030
   2 O :   -0.363821
   3 C :    0.480976
   4 O :   -0.379634
   5 C :   -0.259496
   6 C :    0.152673
   7 C :   -0.277513
   8 N :   -0.123725
   9 C :    0.206975
  10 S :   -0.439352
  11 N :   -0.195621
  12 C :    0.024305
  13 C :    0.100462
  14 C :   -0.197270
  15 C :   -0.122821
  16 C :   -0.275708
  17 C :    0.317622
  18 O :   -0.359086
  19 C :   -0.295742
  20 H :    0.091089
  21 H :    0.111459
  22 H :    0.105347
  23 H :    0.110088
  24 H :    0.090359
  25 H :    0.122557
  26 H :    0.139022
  27 H :    0.092259
  28 H :    0.196823
  29 H :    0.194850
  30 H :    0.147766
  31 H :    0.144825
  32 H :    0.161879
  33 H :    0.129970
  34 H :    0.243473
  35 H :    0.172435
Sum of atomic charges:   -0.0000000

LOEWDIN ATOMIC CHARGES
----------------------
   0 C :    0.112947
   1 C :   -0.016712
   2 O :    0.284806
   3 C :   -0.420136
   4 O :    0.141673
   5 C :   -0.096255
   6 C :   -0.079812
   7 C :    0.127644
   8 N :    0.405694
   9 C :   -0.456098
  10 S :   -0.034415
  11 N :    0.397385
  12 C :   -0.051899
  13 C :   -0.033275
  14 C :    0.011349
  15 C :    0.042926
  16 C :   -0.002284
  17 C :   -0.187885
  18 O :    0.390298
  19 C :    0.031285
  20 H :   -0.025564
  21 H :   -0.020200
  22 H :   -0.027924
  23 H :   -0.029205
  24 H :   -0.041447
  25 H :   -0.008834
  26 H :   -0.004126
  27 H :   -0.020580
  28 H :   -0.056886
  29 H :   -0.065051
  30 H :   -0.007160
  31 H :   -0.030714
  32 H :   -0.019714
  33 H :   -0.032912
  34 H :   -0.150209
  35 H :   -0.026711

  Mayer bond orders larger than 0.100000
B(  0-C ,  1-C ) :   0.9571 B(  0-C , 20-H ) :   0.9811 B(  0-C , 21-H ) :   0.9726
B(  0-C , 22-H ) :   0.9879 B(  1-C ,  2-O ) :   0.8852 B(  1-C , 23-H ) :   0.9812
B(  1-C , 24-H ) :   0.9659 B(  2-O ,  3-C ) :   1.1067 B(  3-C ,  4-O ) :   2.0660
B(  3-C ,  5-C ) :   0.9998 B(  5-C ,  6-C ) :   1.6922 B(  5-C , 12-C ) :   0.9826
B(  6-C ,  7-C ) :   0.9624 B(  6-C ,  8-N ) :   1.1324 B(  7-C , 25-H ) :   0.9719
B(  7-C , 26-H ) :   0.9591 B(  7-C , 27-H ) :   0.9843 B(  8-N ,  9-C ) :   1.1825
B(  8-N , 28-H ) :   0.9512 B(  9-C , 10-S ) :   1.6134 B(  9-C , 11-N ) :   1.2992
B( 11-N , 12-C ) :   0.9808 B( 11-N , 29-H ) :   0.9519 B( 12-C , 13-C ) :   0.9457
B( 12-C , 30-H ) :   1.0092 B( 13-C , 14-C ) :   1.3513 B( 13-C , 19-C ) :   1.3542
B( 14-C , 15-C ) :   1.3877 B( 14-C , 31-H ) :   0.9749 B( 15-C , 16-C ) :   1.3680
B( 15-C , 32-H ) :   0.9702 B( 16-C , 17-C ) :   1.3262 B( 16-C , 33-H ) :   0.9854
B( 17-C , 18-O ) :   1.1090 B( 17-C , 19-C ) :   1.3817 B( 18-O , 34-H ) :   0.9775
B( 19-C , 35-H ) :   0.9567

MP2 TOTAL ENERGY:    -1274.310007755 Eh
FINAL SINGLE POINT ENERGY     -1274.310007755433

DIPOLE MOMENT
-------------
                                X             Y             Z
Electronic contribution:     10.92783       8.63841       5.11965
Nuclear contribution   :    -12.16005     -10.11628      -4.93625
                        -----------------------------------------
Total Dipole Moment    :     -1.23222      -1.47787       0.18340
                        -----------------------------------------
Magnitude (a.u.)       :      1.93290
Magnitude (Debye)      :      4.91303

Rotational constants in cm-1:     0.011740     0.009516     0.006429
Rotational constants in MHz :   351.942102   285.268929   192.746041

                             ****ORCA TERMINATED NORMALLY****
TOTAL RUN TIME: 0 days 2 hours 12 minutes 56 seconds 608 msec
