                         Program Version 4.2.0 -  RELEASE  -
|  1> ! ri-mp2 cc-pvtz cc-pvtz/c TightSCF  NoKeepInts
|  2>
|  3> %scf
|  4>   MaxCore 4096
|  5> end
|  6> *xyz  0  1
|  7>     C       14.1768298   15.1125516   16.3385583
|  8>     C       15.4296212   15.5597127   17.1087930
|  9>     O       16.5654422   15.2872221   16.2634684
| 10>     C       17.8210043   15.8023283   16.4695669
| 11>     O       18.7988340   15.1360379   16.1850116
| 12>     C       17.9263100   16.9441090   17.4266356
| 13>     C       17.3565806   18.1486790   17.1909140
| 14>     C       16.5615002   18.5568958   15.9685906
| 15>     N       17.5423240   19.1946608   18.0971205
| 16>     C       18.3597664   19.1368904   19.1963549
| 17>     S       18.5682936   20.4404768   20.1917875
| 18>     N       18.9927876   17.9408176   19.4336562
| 19>     C       18.7894457   16.6983229   18.6616732
| 20>     C       18.1719595   15.5999007   19.5211030
| 21>     C       18.6543318   14.2813090   19.4345125
| 22>     C       18.0714986   13.2541339   20.1950820
| 23>     C       16.9932837   13.5459166   21.0476047
| 24>     C       16.5044252   14.8563919   21.1309347
| 25>     O       15.4527802   15.1390461   21.9398527
| 26>     C       17.0857515   15.8771478   20.3720626
| 27>     H       13.2748888   15.2744412   16.9412877
| 28>     H       14.2375776   14.0448927   16.0921069
| 29>     H       14.0735664   15.6772272   15.4036866
| 30>     H       15.3230626   16.6214174   17.3494566
| 31>     H       15.5177100   14.9982654   18.0487396
| 32>     H       16.5512825   17.7781503   15.1960940
| 33>     H       16.9925076   19.4538787   15.5057191
| 34>     H       15.5196388   18.7795055   16.2297182
| 35>     H       17.1003596   20.0856563   17.9323359
| 36>     H       19.5734788   17.9225338   20.2626829
| 37>     H       19.7753263   16.3519639   18.3173361
| 38>     H       19.4750936   14.0485812   18.7590189
| 39>     H       18.4517393   12.2370171   20.1149511
| 40>     H       16.5382782   12.7541004   21.6336205
| 41>     H       15.2319404   14.3283933   22.4234304
| 42>     H       16.6877794   16.8834244   20.4505327
| 43> *
| 44>
| 45>                          ****END OF INPUT****

CARTESIAN COORDINATES (ANGSTROEM)
---------------------------------
  C     14.176830   15.112552   16.338558
  C     15.429621   15.559713   17.108793
  O     16.565442   15.287222   16.263468
  C     17.821004   15.802328   16.469567
  O     18.798834   15.136038   16.185012
  C     17.926310   16.944109   17.426636
  C     17.356581   18.148679   17.190914
  C     16.561500   18.556896   15.968591
  N     17.542324   19.194661   18.097120
  C     18.359766   19.136890   19.196355
  S     18.568294   20.440477   20.191788
  N     18.992788   17.940818   19.433656
  C     18.789446   16.698323   18.661673
  C     18.171959   15.599901   19.521103
  C     18.654332   14.281309   19.434512
  C     18.071499   13.254134   20.195082
  C     16.993284   13.545917   21.047605
  C     16.504425   14.856392   21.130935
  O     15.452780   15.139046   21.939853
  C     17.085752   15.877148   20.372063
  H     13.274889   15.274441   16.941288
  H     14.237578   14.044893   16.092107
  H     14.073566   15.677227   15.403687
  H     15.323063   16.621417   17.349457
  H     15.517710   14.998265   18.048740
  H     16.551282   17.778150   15.196094
  H     16.992508   19.453879   15.505719
  H     15.519639   18.779505   16.229718
  H     17.100360   20.085656   17.932336
  H     19.573479   17.922534   20.262683
  H     19.775326   16.351964   18.317336
  H     19.475094   14.048581   18.759019
  H     18.451739   12.237017   20.114951
  H     16.538278   12.754100   21.633620
  H     15.231940   14.328393   22.423430
  H     16.687779   16.883424   20.450533

 Total Charge           Charge          ....    0
 Multiplicity           Mult            ....    1
 Number of Electrons    NEL             ....  154
 Basis Dimension        Dim             ....  828

ORBITAL ENERGIES
----------------

  NO   OCC          E(Eh)            E(eV)
   0   2.0000     -91.890416     -2500.4653
   1   2.0000     -20.600263      -560.5617
   2   2.0000     -20.599409      -560.5384
   3   2.0000     -20.550873      -559.2177
   4   2.0000     -15.627753      -425.2528
   5   2.0000     -15.611826      -424.8194
   6   2.0000     -11.397435      -310.1400
   7   2.0000     -11.387224      -309.8621
   8   2.0000     -11.330305      -308.3133
   9   2.0000     -11.317013      -307.9516
  10   2.0000     -11.314620      -307.8865
  11   2.0000     -11.302671      -307.5613
  12   2.0000     -11.269455      -306.6575
  13   2.0000     -11.264418      -306.5204
  14   2.0000     -11.263552      -306.4968
  15   2.0000     -11.257175      -306.3233
  16   2.0000     -11.246608      -306.0358
  17   2.0000     -11.242411      -305.9215
  18   2.0000     -11.239706      -305.8480
  19   2.0000     -11.233993      -305.6925
  20   2.0000      -8.895527      -242.0596
  21   2.0000      -6.577113      -178.9723
  22   2.0000      -6.575089      -178.9173
  23   2.0000      -6.574512      -178.9016
  24   2.0000      -1.447990       -39.4018
  25   2.0000      -1.420094       -38.6427
  26   2.0000      -1.359554       -36.9953
  27   2.0000      -1.340756       -36.4838
  28   2.0000      -1.240325       -33.7510
  29   2.0000      -1.161833       -31.6151
  30   2.0000      -1.126070       -30.6419
  31   2.0000      -1.049418       -28.5561
  32   2.0000      -1.040682       -28.3184
  33   2.0000      -1.019212       -27.7342
  34   2.0000      -1.005482       -27.3606
  35   2.0000      -0.989781       -26.9333
  36   2.0000      -0.928178       -25.2570
  37   2.0000      -0.881081       -23.9754
  38   2.0000      -0.855509       -23.2796
  39   2.0000      -0.842595       -22.9282
  40   2.0000      -0.837623       -22.7929
  41   2.0000      -0.836700       -22.7678
  42   2.0000      -0.757702       -20.6181
  43   2.0000      -0.740040       -20.1375
  44   2.0000      -0.732426       -19.9303
  45   2.0000      -0.697761       -18.9870
  46   2.0000      -0.688434       -18.7332
  47   2.0000      -0.681805       -18.5529
  48   2.0000      -0.676974       -18.4214
  49   2.0000      -0.665202       -18.1011
  50   2.0000      -0.653098       -17.7717
  51   2.0000      -0.648995       -17.6601
  52   2.0000      -0.640450       -17.4275
  53   2.0000      -0.612218       -16.6593
  54   2.0000      -0.608346       -16.5539
  55   2.0000      -0.604216       -16.4416
  56   2.0000      -0.600743       -16.3470
  57   2.0000      -0.587385       -15.9835
  58   2.0000      -0.578498       -15.7417
  59   2.0000      -0.568885       -15.4801
  60   2.0000      -0.561896       -15.2900
  61   2.0000      -0.559230       -15.2174
  62   2.0000      -0.546097       -14.8601
  63   2.0000      -0.528500       -14.3812
  64   2.0000      -0.524555       -14.2739
  65   2.0000      -0.515977       -14.0405
  66   2.0000      -0.502853       -13.6833
  67   2.0000      -0.502580       -13.6759
  68   2.0000      -0.489817       -13.3286
  69   2.0000      -0.469876       -12.7860
  70   2.0000      -0.455808       -12.4032
  71   2.0000      -0.449747       -12.2382
  72   2.0000      -0.357602        -9.7309
  73   2.0000      -0.352170        -9.5830
  74   2.0000      -0.330055        -8.9812
  75   2.0000      -0.325042        -8.8449
  76   2.0000      -0.318743        -8.6734
  77   0.0000       0.083188         2.2637
  78   0.0000       0.104527         2.8443
  79   0.0000       0.112554         3.0627
  80   0.0000       0.128146         3.4870
  81   0.0000       0.130728         3.5573

MULLIKEN ATOMIC CHARGES
-----------------------
   0 C :   -0.258593
   1 C :    0.015096
   2 O :   -0.315844
   3 C :    0.401080
   4 O :   -0.381413
   5 C :   -0.192591
   6 C :    0.133135
   7 C :   -0.321566
   8 N :   -0.133687
   9 C :    0.203747
  10 S :   -0.440181
  11 N :   -0.212704
  12 C :    0.065608
  13 C :    0.024513
  14 C :   -0.191291
  15 C :   -0.132095
  16 C :   -0.275302
  17 C :    0.319283
  18 O :   -0.359188
  19 C :   -0.281995
  20 H :    0.090233
  21 H :    0.108076
  22 H :    0.093599
  23 H :    0.089714
  24 H :    0.124923
  25 H :    0.129020
  26 H :    0.139699
  27 H :    0.119564
  28 H :    0.196211
  29 H :    0.197871
  30 H :    0.163843
  31 H :    0.168331
  32 H :    0.163929
  33 H :    0.132957
  34 H :    0.241817
  35 H :    0.174203
Sum of atomic charges:   -0.0000000

LOEWDIN ATOMIC CHARGES
----------------------
   0 C :    0.110282
   1 C :   -0.021215
   2 O :    0.304092
   3 C :   -0.415932
   4 O :    0.125568
   5 C :   -0.083668
   6 C :   -0.102217
   7 C :    0.125060
   8 N :    0.401604
   9 C :   -0.455895
  10 S :   -0.037062
  11 N :    0.397208
  12 C :   -0.044612
  13 C :   -0.044386
  14 C :    0.022259
  15 C :    0.045422
  16 C :   -0.000542
  17 C :   -0.195113
  18 O :    0.394593
  19 C :    0.027703
  20 H :   -0.024698
  21 H :   -0.023076
  22 H :   -0.028545
  23 H :   -0.039610
  24 H :   -0.026924
  25 H :   -0.007948
  26 H :   -0.009813
  27 H :   -0.017196
  28 H :   -0.057448
  29 H :   -0.063668
  30 H :   -0.002527
  31 H :   -0.021759
  32 H :   -0.018325
  33 H :   -0.034473
  34 H :   -0.152824
  35 H :   -0.024313

  Mayer bond orders larger than 0.100000
B(  0-C ,  1-C ) :   0.9813 B(  0-C , 20-H ) :   0.9767 B(  0-C , 21-H ) :   0.9791
B(  0-C , 22-H ) :   0.9782 B(  1-C ,  2-O ) :   0.9045 B(  1-C , 23-H ) :   0.9658
B(  1-C , 24-H ) :   0.9706 B(  2-O ,  3-C ) :   1.1856 B(  3-C ,  4-O ) :   2.0994
B(  3-C ,  5-C ) :   0.9229 B(  5-C ,  6-C ) :   1.6892 B(  5-C , 12-C ) :   0.9612
B(  6-C ,  7-C ) :   0.9436 B(  6-C ,  8-N ) :   1.1168 B(  7-C , 25-H ) :   0.9790
B(  7-C , 26-H ) :   0.9703 B(  7-C , 27-H ) :   0.9659 B(  8-N ,  9-C ) :   1.1930
B(  8-N , 28-H ) :   0.9519 B(  9-C , 10-S ) :   1.6120 B(  9-C , 11-N ) :   1.2890
B( 11-N , 12-C ) :   0.9986 B( 11-N , 29-H ) :   0.9493 B( 12-C , 13-C ) :   0.9433
B( 12-C , 30-H ) :   0.9974 B( 13-C , 14-C ) :   1.3866 B( 13-C , 19-C ) :   1.3492
B( 14-C , 15-C ) :   1.3955 B( 14-C , 31-H ) :   0.9607 B( 15-C , 16-C ) :   1.3643
B( 15-C , 32-H ) :   0.9700 B( 16-C , 17-C ) :   1.3276 B( 16-C , 33-H ) :   0.9842
B( 17-C , 18-O ) :   1.1094 B( 17-C , 19-C ) :   1.3673 B( 18-O , 34-H ) :   0.9790
B( 19-C , 35-H ) :   0.9587

MP2 TOTAL ENERGY:    -1274.333667688 Eh
FINAL SINGLE POINT ENERGY     -1274.333667688467

DIPOLE MOMENT
-------------
                                X             Y             Z
Electronic contribution:     11.96241       6.66941       7.44316
Nuclear contribution   :    -13.51024      -7.66748      -7.70857
                        -----------------------------------------
Total Dipole Moment    :     -1.54783      -0.99807      -0.26541
                        -----------------------------------------
Magnitude (a.u.)       :      1.86074
Magnitude (Debye)      :      4.72962

Rotational constants in cm-1:     0.011457     0.009168     0.006771
Rotational constants in MHz :   343.462796   274.848771   202.979946

                             ****ORCA TERMINATED NORMALLY****
TOTAL RUN TIME: 0 days 1 hours 44 minutes 20 seconds 639 msec
