                         Program Version 4.2.0 -  RELEASE  -
|  1> ! ri-mp2 cc-pvtz cc-pvtz/c TightSCF  NoKeepInts
|  2>
|  3> %scf
|  4>   MaxCore 4096
|  5> end
|  6> *xyz  0  1
|  7>     C       14.5057537   15.1819806   16.4289444
|  8>     C       15.7262034   15.0548221   17.3559712
|  9>     O       16.8964312   14.9815362   16.5166285
| 10>     C       17.7662429   16.0225759   16.3228703
| 11>     O       18.2965268   16.1906023   15.2409780
| 12>     C       17.8501350   17.0524970   17.4026385
| 13>     C       17.4563834   18.3231896   17.1659283
| 14>     C       16.7915393   18.8214053   15.9023008
| 15>     N       17.6679162   19.3136778   18.1271911
| 16>     C       18.3572804   19.1273828   19.2966088
| 17>     S       18.6008138   20.3600703   20.3713372
| 18>     N       18.8341795   17.8621832   19.5384529
| 19>     C       18.5983512   16.6758953   18.6906425
| 20>     C       17.9501257   15.5527797   19.4948696
| 21>     C       18.3835518   14.2245778   19.3235977
| 22>     C       17.7906209   13.1784165   20.0498059
| 23>     C       16.7578233   13.4610822   20.9595091
| 24>     C       16.3266831   14.7821335   21.1384367
| 25>     O       15.3241455   15.0579540   22.0092250
| 26>     C       16.9169049   15.8219964   20.4129411
| 27>     H       14.5604403   16.1014687   15.8340825
| 28>     H       13.5785535   15.2054319   17.0143844
| 29>     H       14.4551347   14.3290511   15.7403240
| 30>     H       15.7408511   15.9053852   18.0454878
| 31>     H       15.6385187   14.1328415   17.9456862
| 32>     H       15.9962302   18.1392321   15.5793519
| 33>     H       17.5234833   18.8772300   15.0854088
| 34>     H       16.3452334   19.8155847   16.0233097
| 35>     H       17.3459374   20.2534378   17.9571625
| 36>     H       19.3220226   17.7559000   20.4193052
| 37>     H       19.5883560   16.3137657   18.3774539
| 38>     H       19.1765158   13.9990039   18.6143801
| 39>     H       18.1311144   12.1542082   19.9046163
| 40>     H       16.2967636   12.6552206   21.5215963
| 41>     H       15.0877342   14.2309169   22.4564054
| 42>     H       16.5624988   16.8365630   20.5661673
| 43> *
| 44>
| 45>                          ****END OF INPUT****

CARTESIAN COORDINATES (ANGSTROEM)
---------------------------------
  C     14.505754   15.181981   16.428944
  C     15.726203   15.054822   17.355971
  O     16.896431   14.981536   16.516628
  C     17.766243   16.022576   16.322870
  O     18.296527   16.190602   15.240978
  C     17.850135   17.052497   17.402638
  C     17.456383   18.323190   17.165928
  C     16.791539   18.821405   15.902301
  N     17.667916   19.313678   18.127191
  C     18.357280   19.127383   19.296609
  S     18.600814   20.360070   20.371337
  N     18.834179   17.862183   19.538453
  C     18.598351   16.675895   18.690642
  C     17.950126   15.552780   19.494870
  C     18.383552   14.224578   19.323598
  C     17.790621   13.178416   20.049806
  C     16.757823   13.461082   20.959509
  C     16.326683   14.782133   21.138437
  O     15.324146   15.057954   22.009225
  C     16.916905   15.821996   20.412941
  H     14.560440   16.101469   15.834082
  H     13.578553   15.205432   17.014384
  H     14.455135   14.329051   15.740324
  H     15.740851   15.905385   18.045488
  H     15.638519   14.132841   17.945686
  H     15.996230   18.139232   15.579352
  H     17.523483   18.877230   15.085409
  H     16.345233   19.815585   16.023310
  H     17.345937   20.253438   17.957162
  H     19.322023   17.755900   20.419305
  H     19.588356   16.313766   18.377454
  H     19.176516   13.999004   18.614380
  H     18.131114   12.154208   19.904616
  H     16.296764   12.655221   21.521596
  H     15.087734   14.230917   22.456405
  H     16.562499   16.836563   20.566167

 Total Charge           Charge          ....    0
 Multiplicity           Mult            ....    1
 Number of Electrons    NEL             ....  154
 Basis Dimension        Dim             ....  828

ORBITAL ENERGIES
----------------

  NO   OCC          E(Eh)            E(eV)
   0   2.0000     -91.890530     -2500.4684
   1   2.0000     -20.604648      -560.6810
   2   2.0000     -20.596994      -560.4727
   3   2.0000     -20.551232      -559.2275
   4   2.0000     -15.626821      -425.2274
   5   2.0000     -15.612756      -424.8447
   6   2.0000     -11.396191      -310.1061
   7   2.0000     -11.386814      -309.8510
   8   2.0000     -11.328100      -308.2533
   9   2.0000     -11.322660      -308.1052
  10   2.0000     -11.320113      -308.0359
  11   2.0000     -11.299043      -307.4626
  12   2.0000     -11.269934      -306.6705
  13   2.0000     -11.263874      -306.5056
  14   2.0000     -11.260302      -306.4084
  15   2.0000     -11.258446      -306.3579
  16   2.0000     -11.252356      -306.1922
  17   2.0000     -11.247504      -306.0601
  18   2.0000     -11.247217      -306.0523
  19   2.0000     -11.230737      -305.6039
  20   2.0000      -8.895633      -242.0625
  21   2.0000      -6.577218      -178.9752
  22   2.0000      -6.575196      -178.9202
  23   2.0000      -6.574618      -178.9045
  24   2.0000      -1.446709       -39.3670
  25   2.0000      -1.424478       -38.7620
  26   2.0000      -1.359203       -36.9858
  27   2.0000      -1.339942       -36.4617
  28   2.0000      -1.240852       -33.7653
  29   2.0000      -1.166186       -31.7335
  30   2.0000      -1.125206       -30.6184
  31   2.0000      -1.051273       -28.6066
  32   2.0000      -1.037030       -28.2190
  33   2.0000      -1.024515       -27.8785
  34   2.0000      -1.003366       -27.3030
  35   2.0000      -0.989679       -26.9305
  36   2.0000      -0.928988       -25.2791
  37   2.0000      -0.885898       -24.1065
  38   2.0000      -0.853062       -23.2130
  39   2.0000      -0.844549       -22.9814
  40   2.0000      -0.842707       -22.9312
  41   2.0000      -0.837594       -22.7921
  42   2.0000      -0.757258       -20.6060
  43   2.0000      -0.738201       -20.0875
  44   2.0000      -0.727663       -19.8007
  45   2.0000      -0.703192       -19.1348
  46   2.0000      -0.692926       -18.8555
  47   2.0000      -0.679817       -18.4988
  48   2.0000      -0.675504       -18.3814
  49   2.0000      -0.670237       -18.2381
  50   2.0000      -0.654884       -17.8203
  51   2.0000      -0.645962       -17.5775
  52   2.0000      -0.637479       -17.3467
  53   2.0000      -0.613866       -16.7041
  54   2.0000      -0.609189       -16.5769
  55   2.0000      -0.605561       -16.4782
  56   2.0000      -0.600931       -16.3522
  57   2.0000      -0.583859       -15.8876
  58   2.0000      -0.579381       -15.7658
  59   2.0000      -0.570048       -15.5118
  60   2.0000      -0.561527       -15.2799
  61   2.0000      -0.559384       -15.2216
  62   2.0000      -0.548517       -14.9259
  63   2.0000      -0.531024       -14.4499
  64   2.0000      -0.525743       -14.3062
  65   2.0000      -0.518091       -14.0980
  66   2.0000      -0.506395       -13.7797
  67   2.0000      -0.503689       -13.7061
  68   2.0000      -0.487882       -13.2759
  69   2.0000      -0.471053       -12.8180
  70   2.0000      -0.452979       -12.3262
  71   2.0000      -0.448194       -12.1960
  72   2.0000      -0.358554        -9.7568
  73   2.0000      -0.352249        -9.5852
  74   2.0000      -0.331450        -9.0192
  75   2.0000      -0.329564        -8.9679
  76   2.0000      -0.319162        -8.6848
  77   0.0000       0.085781         2.3342
  78   0.0000       0.097219         2.6455
  79   0.0000       0.118554         3.2260
  80   0.0000       0.126731         3.4485
  81   0.0000       0.127509         3.4697

MULLIKEN ATOMIC CHARGES
-----------------------
   0 C :   -0.262072
   1 C :    0.011888
   2 O :   -0.316248
   3 C :    0.380675
   4 O :   -0.371992
   5 C :   -0.212685
   6 C :    0.157069
   7 C :   -0.289097
   8 N :   -0.130461
   9 C :    0.212194
  10 S :   -0.440101
  11 N :   -0.224807
  12 C :    0.061952
  13 C :   -0.003385
  14 C :   -0.167710
  15 C :   -0.147659
  16 C :   -0.274872
  17 C :    0.311766
  18 O :   -0.354098
  19 C :   -0.249890
  20 H :    0.086287
  21 H :    0.093505
  22 H :    0.108366
  23 H :    0.102746
  24 H :    0.120525
  25 H :    0.115048
  26 H :    0.146693
  27 H :    0.099029
  28 H :    0.196325
  29 H :    0.201690
  30 H :    0.163252
  31 H :    0.151257
  32 H :    0.164854
  33 H :    0.135580
  34 H :    0.242137
  35 H :    0.182235
Sum of atomic charges:   -0.0000000

LOEWDIN ATOMIC CHARGES
----------------------
   0 C :    0.106321
   1 C :   -0.022699
   2 O :    0.308753
   3 C :   -0.419597
   4 O :    0.127882
   5 C :   -0.088504
   6 C :   -0.090216
   7 C :    0.130674
   8 N :    0.403158
   9 C :   -0.455277
  10 S :   -0.036721
  11 N :    0.396455
  12 C :   -0.051391
  13 C :   -0.043142
  14 C :    0.019523
  15 C :    0.044513
  16 C :    0.000028
  17 C :   -0.193124
  18 O :    0.397101
  19 C :    0.030517
  20 H :   -0.032511
  21 H :   -0.025906
  22 H :   -0.023408
  23 H :   -0.040204
  24 H :   -0.022741
  25 H :   -0.012218
  26 H :   -0.002269
  27 H :   -0.020120
  28 H :   -0.058865
  29 H :   -0.064514
  30 H :   -0.008404
  31 H :   -0.026524
  32 H :   -0.018073
  33 H :   -0.033558
  34 H :   -0.152013
  35 H :   -0.022925

  Mayer bond orders larger than 0.100000
B(  0-C ,  1-C ) :   0.9811 B(  0-C , 20-H ) :   0.9777 B(  0-C , 21-H ) :   0.9768
B(  0-C , 22-H ) :   0.9799 B(  1-C ,  2-O ) :   0.8843 B(  1-C , 23-H ) :   0.9568
B(  1-C , 24-H ) :   0.9763 B(  2-O ,  3-C ) :   1.1950 B(  3-C ,  4-O ) :   2.1203
B(  3-C ,  5-C ) :   0.9033 B(  5-C ,  6-C ) :   1.7163 B(  5-C , 12-C ) :   0.9563
B(  6-C ,  7-C ) :   0.9406 B(  6-C ,  8-N ) :   1.1241 B(  7-C , 25-H ) :   0.9750
B(  7-C , 26-H ) :   0.9605 B(  7-C , 27-H ) :   0.9867 B(  8-N ,  9-C ) :   1.2002
B(  8-N , 28-H ) :   0.9496 B(  9-C , 10-S ) :   1.6097 B(  9-C , 11-N ) :   1.2834
B( 11-N , 12-C ) :   0.9908 B( 11-N , 29-H ) :   0.9462 B( 12-C , 13-C ) :   0.9456
B( 12-C , 30-H ) :   1.0058 B( 13-C , 14-C ) :   1.3723 B( 13-C , 19-C ) :   1.3431
B( 14-C , 15-C ) :   1.4021 B( 14-C , 31-H ) :   0.9724 B( 15-C , 16-C ) :   1.3616
B( 15-C , 32-H ) :   0.9700 B( 16-C , 17-C ) :   1.3276 B( 16-C , 33-H ) :   0.9832
B( 17-C , 18-O ) :   1.1128 B( 17-C , 19-C ) :   1.3678 B( 18-O , 34-H ) :   0.9784
B( 19-C , 35-H ) :   0.9567

MP2 TOTAL ENERGY:    -1274.329649695 Eh
FINAL SINGLE POINT ENERGY     -1274.329649695109

DIPOLE MOMENT
-------------
                                X             Y             Z
Electronic contribution:     10.64227       6.94484       7.38124
Nuclear contribution   :    -11.94245      -8.51677      -7.15537
                        -----------------------------------------
Total Dipole Moment    :     -1.30018      -1.57193       0.22586
                        -----------------------------------------
Magnitude (a.u.)       :      2.05243
Magnitude (Debye)      :      5.21686

Rotational constants in cm-1:     0.011815     0.009272     0.006422
Rotational constants in MHz :   354.203327   277.975536   192.514317

                             ****ORCA TERMINATED NORMALLY****
TOTAL RUN TIME: 0 days 1 hours 46 minutes 9 seconds 701 msec
