                         Program Version 4.2.0 -  RELEASE  -
|  1> ! ri-mp2 cc-pvtz cc-pvtz/c TightSCF  NoKeepInts
|  2>
|  3> %scf
|  4>   MaxCore 4096
|  5> end
|  6> *xyz  0  1
|  7>     C       15.1452726   14.0201152   16.2788844
|  8>     C       15.6076900   15.0272035   15.2004030
|  9>     O       16.4341282   16.0799680   15.7471712
| 10>     C       17.4320101   15.8473395   16.6512815
| 11>     O       18.0018851   14.7722430   16.7385843
| 12>     C       17.7624824   17.0073680   17.5486019
| 13>     C       17.3198909   18.2830310   17.3875322
| 14>     C       16.4239719   18.8360148   16.2978348
| 15>     N       17.7472536   19.2820037   18.2691093
| 16>     C       18.7085327   19.1221553   19.2316139
| 17>     S       19.2443283   20.3905419   20.1480233
| 18>     N       19.2021969   17.8534526   19.3961350
| 19>     C       18.6688963   16.6494999   18.7323480
| 20>     C       17.9313855   15.7669147   19.7363350
| 21>     C       18.2835264   14.4130284   19.8882579
| 22>     C       17.6030785   13.5938578   20.8046498
| 23>     C       16.5600953   14.1320852   21.5773323
| 24>     C       16.2034807   15.4789838   21.4266268
| 25>     O       15.1921736   16.0000098   22.1663098
| 26>     C       16.8822017   16.2916743   20.5132038
| 27>     H       15.9578581   13.3518048   16.5882646
| 28>     H       14.3386727   13.3900999   15.8852064
| 29>     H       14.7651400   14.5426789   17.1656081
| 30>     H       16.1698447   14.4834691   14.4295692
| 31>     H       14.7297981   15.4767614   14.7190676
| 32>     H       15.4192839   18.4004035   16.3644393
| 33>     H       16.8300640   18.6034150   15.3054616
| 34>     H       16.3121573   19.9256571   16.3520983
| 35>     H       17.3971992   20.2208299   18.1647011
| 36>     H       19.8872175   17.7546508   20.1342851
| 37>     H       19.5250695   16.0823170   18.3391400
| 38>     H       19.0777535   13.9896855   19.2780459
| 39>     H       17.8814874   12.5466195   20.9075311
| 40>     H       16.0306567   13.5024988   22.2845896
| 41>     H       14.8786857   15.3017232   22.7603663
| 42>     H       16.5916309   17.3318949   20.4153874
| 43> *
| 44>
| 45>                          ****END OF INPUT****

CARTESIAN COORDINATES (ANGSTROEM)
---------------------------------
  C     15.145273   14.020115   16.278884
  C     15.607690   15.027203   15.200403
  O     16.434128   16.079968   15.747171
  C     17.432010   15.847340   16.651281
  O     18.001885   14.772243   16.738584
  C     17.762482   17.007368   17.548602
  C     17.319891   18.283031   17.387532
  C     16.423972   18.836015   16.297835
  N     17.747254   19.282004   18.269109
  C     18.708533   19.122155   19.231614
  S     19.244328   20.390542   20.148023
  N     19.202197   17.853453   19.396135
  C     18.668896   16.649500   18.732348
  C     17.931386   15.766915   19.736335
  C     18.283526   14.413028   19.888258
  C     17.603078   13.593858   20.804650
  C     16.560095   14.132085   21.577332
  C     16.203481   15.478984   21.426627
  O     15.192174   16.000010   22.166310
  C     16.882202   16.291674   20.513204
  H     15.957858   13.351805   16.588265
  H     14.338673   13.390100   15.885206
  H     14.765140   14.542679   17.165608
  H     16.169845   14.483469   14.429569
  H     14.729798   15.476761   14.719068
  H     15.419284   18.400403   16.364439
  H     16.830064   18.603415   15.305462
  H     16.312157   19.925657   16.352098
  H     17.397199   20.220830   18.164701
  H     19.887217   17.754651   20.134285
  H     19.525070   16.082317   18.339140
  H     19.077753   13.989686   19.278046
  H     17.881487   12.546620   20.907531
  H     16.030657   13.502499   22.284590
  H     14.878686   15.301723   22.760366
  H     16.591631   17.331895   20.415387

 Total Charge           Charge          ....    0
 Multiplicity           Mult            ....    1
 Number of Electrons    NEL             ....  154
 Basis Dimension        Dim             ....  828

ORBITAL ENERGIES
----------------

  NO   OCC          E(Eh)            E(eV)
   0   2.0000     -91.888054     -2500.4011
   1   2.0000     -20.599654      -560.5451
   2   2.0000     -20.592045      -560.3380
   3   2.0000     -20.544871      -559.0544
   4   2.0000     -15.628450      -425.2718
   5   2.0000     -15.606670      -424.6791
   6   2.0000     -11.396641      -310.1184
   7   2.0000     -11.382844      -309.7429
   8   2.0000     -11.336778      -308.4894
   9   2.0000     -11.307877      -307.7030
  10   2.0000     -11.305123      -307.6280
  11   2.0000     -11.304405      -307.6085
  12   2.0000     -11.260470      -306.4130
  13   2.0000     -11.258482      -306.3589
  14   2.0000     -11.253623      -306.2267
  15   2.0000     -11.247940      -306.0720
  16   2.0000     -11.237626      -305.7914
  17   2.0000     -11.233788      -305.6869
  18   2.0000     -11.230575      -305.5995
  19   2.0000     -11.225996      -305.4749
  20   2.0000      -8.893117      -241.9940
  21   2.0000      -6.574694      -178.9065
  22   2.0000      -6.572688      -178.8519
  23   2.0000      -6.572102      -178.8360
  24   2.0000      -1.449878       -39.4532
  25   2.0000      -1.411794       -38.4169
  26   2.0000      -1.355976       -36.8980
  27   2.0000      -1.339370       -36.4461
  28   2.0000      -1.236958       -33.6593
  29   2.0000      -1.152358       -31.3573
  30   2.0000      -1.119119       -30.4528
  31   2.0000      -1.041726       -28.3468
  32   2.0000      -1.033645       -28.1269
  33   2.0000      -1.009757       -27.4769
  34   2.0000      -0.997465       -27.1424
  35   2.0000      -0.982868       -26.7452
  36   2.0000      -0.921542       -25.0764
  37   2.0000      -0.897093       -24.4111
  38   2.0000      -0.847903       -23.0726
  39   2.0000      -0.835644       -22.7390
  40   2.0000      -0.828157       -22.5353
  41   2.0000      -0.816223       -22.2106
  42   2.0000      -0.746504       -20.3134
  43   2.0000      -0.733018       -19.9464
  44   2.0000      -0.724855       -19.7243
  45   2.0000      -0.690552       -18.7909
  46   2.0000      -0.685178       -18.6446
  47   2.0000      -0.677900       -18.4466
  48   2.0000      -0.671303       -18.2671
  49   2.0000      -0.658194       -17.9104
  50   2.0000      -0.651237       -17.7211
  51   2.0000      -0.644189       -17.5293
  52   2.0000      -0.632070       -17.1995
  53   2.0000      -0.616881       -16.7862
  54   2.0000      -0.600592       -16.3429
  55   2.0000      -0.599750       -16.3200
  56   2.0000      -0.595492       -16.2042
  57   2.0000      -0.579252       -15.7623
  58   2.0000      -0.573688       -15.6108
  59   2.0000      -0.564483       -15.3604
  60   2.0000      -0.556733       -15.1495
  61   2.0000      -0.543388       -14.7863
  62   2.0000      -0.537939       -14.6381
  63   2.0000      -0.525405       -14.2970
  64   2.0000      -0.516710       -14.0604
  65   2.0000      -0.509958       -13.8767
  66   2.0000      -0.501340       -13.6422
  67   2.0000      -0.495413       -13.4809
  68   2.0000      -0.479172       -13.0389
  69   2.0000      -0.463206       -12.6045
  70   2.0000      -0.457430       -12.4473
  71   2.0000      -0.450058       -12.2467
  72   2.0000      -0.354004        -9.6330
  73   2.0000      -0.344296        -9.3688
  74   2.0000      -0.327192        -8.9034
  75   2.0000      -0.315764        -8.5924
  76   2.0000      -0.313888        -8.5413
  77   0.0000       0.075364         2.0508
  78   0.0000       0.112361         3.0575
  79   0.0000       0.121377         3.3028
  80   0.0000       0.135658         3.6914
  81   0.0000       0.141035         3.8377

MULLIKEN ATOMIC CHARGES
-----------------------
   0 C :   -0.314045
   1 C :    0.045150
   2 O :   -0.355033
   3 C :    0.456303
   4 O :   -0.432052
   5 C :   -0.180542
   6 C :    0.144292
   7 C :   -0.281915
   8 N :   -0.121068
   9 C :    0.201640
  10 S :   -0.439206
  11 N :   -0.198310
  12 C :    0.039668
  13 C :    0.057680
  14 C :   -0.164954
  15 C :   -0.133399
  16 C :   -0.279449
  17 C :    0.312162
  18 O :   -0.359101
  19 C :   -0.275898
  20 H :    0.130213
  21 H :    0.098052
  22 H :    0.098418
  23 H :    0.100193
  24 H :    0.104182
  25 H :    0.124354
  26 H :    0.128760
  27 H :    0.101698
  28 H :    0.196710
  29 H :    0.193895
  30 H :    0.154173
  31 H :    0.154643
  32 H :    0.159315
  33 H :    0.128260
  34 H :    0.240139
  35 H :    0.165071
Sum of atomic charges:   -0.0000000

LOEWDIN ATOMIC CHARGES
----------------------
   0 C :    0.105504
   1 C :   -0.012499
   2 O :    0.297804
   3 C :   -0.415006
   4 O :    0.107240
   5 C :   -0.091380
   6 C :   -0.064496
   7 C :    0.124987
   8 N :    0.404956
   9 C :   -0.459051
  10 S :   -0.035959
  11 N :    0.398058
  12 C :   -0.046614
  13 C :   -0.039095
  14 C :    0.022197
  15 C :    0.040557
  16 C :   -0.002414
  17 C :   -0.193052
  18 O :    0.392968
  19 C :    0.027923
  20 H :   -0.024183
  21 H :   -0.026771
  22 H :   -0.027676
  23 H :   -0.028426
  24 H :   -0.025458
  25 H :   -0.010200
  26 H :   -0.007744
  27 H :   -0.021430
  28 H :   -0.059248
  29 H :   -0.063612
  30 H :   -0.005250
  31 H :   -0.025158
  32 H :   -0.021223
  33 H :   -0.036369
  34 H :   -0.154843
  35 H :   -0.025039

  Mayer bond orders larger than 0.100000
B(  0-C ,  1-C ) :   0.9593 B(  0-C , 20-H ) :   0.9716 B(  0-C , 21-H ) :   0.9763
B(  0-C , 22-H ) :   0.9742 B(  1-C ,  2-O ) :   0.9004 B(  1-C , 23-H ) :   0.9831
B(  1-C , 24-H ) :   0.9839 B(  2-O ,  3-C ) :   1.1501 B(  3-C ,  4-O ) :   1.9769
B(  3-C ,  5-C ) :   1.0527 B(  5-C ,  6-C ) :   1.6453 B(  5-C , 12-C ) :   0.9650
B(  6-C ,  7-C ) :   0.9560 B(  6-C ,  8-N ) :   1.1516 B(  7-C , 25-H ) :   0.9647
B(  7-C , 26-H ) :   0.9642 B(  7-C , 27-H ) :   0.9916 B(  8-N ,  9-C ) :   1.1780
B(  8-N , 28-H ) :   0.9486 B(  9-C , 10-S ) :   1.6107 B(  9-C , 11-N ) :   1.3049
B( 11-N , 12-C ) :   0.9918 B( 11-N , 29-H ) :   0.9519 B( 12-C , 13-C ) :   0.9465
B( 12-C , 30-H ) :   1.0004 B( 13-C , 14-C ) :   1.3759 B( 13-C , 19-C ) :   1.3679
B( 14-C , 15-C ) :   1.3942 B( 14-C , 31-H ) :   0.9643 B( 15-C , 16-C ) :   1.3622
B( 15-C , 32-H ) :   0.9713 B( 16-C , 17-C ) :   1.3319 B( 16-C , 33-H ) :   0.9859
B( 17-C , 18-O ) :   1.1082 B( 17-C , 19-C ) :   1.3778 B( 18-O , 34-H ) :   0.9805
B( 19-C , 35-H ) :   0.9584

MP2 TOTAL ENERGY:    -1274.343652286 Eh
FINAL SINGLE POINT ENERGY     -1274.343652285647

DIPOLE MOMENT
-------------
                                X             Y             Z
Electronic contribution:     10.26597      10.12833       9.04874
Nuclear contribution   :    -11.83244     -11.37208     -10.08232
                        -----------------------------------------
Total Dipole Moment    :     -1.56647      -1.24375      -1.03358
                        -----------------------------------------
Magnitude (a.u.)       :      2.25145
Magnitude (Debye)      :      5.72273

Rotational constants in cm-1:     0.010874     0.009227     0.006089
Rotational constants in MHz :   325.994328   276.625924   182.534440

                             ****ORCA TERMINATED NORMALLY****
TOTAL RUN TIME: 0 days 1 hours 38 minutes 1 seconds 107 msec
