                         Program Version 5.0.0 -  RELEASE  -
|  1> ! ri-mp2 cc-pvtz cc-pvtz/c TightSCF NoKeepInts
|  2>
|  3> %scf
|  4>   MaxCore 4096
|  5> end
|  6> *xyz  0  1
|  7>     C       14.6379813   14.3655118   17.1460562
|  8>     C       15.5984597   15.3809021   16.5063416
|  9>     O       16.9280206   14.9808878   16.8592247
| 10>     C       17.9882618   15.7604899   16.5052785
| 11>     O       19.0276598   15.2047574   16.2047774
| 12>     C       18.0608344   16.9476438   17.4002699
| 13>     C       17.5921960   18.1523407   17.0099406
| 14>     C       16.9508781   18.4791603   15.6785665
| 15>     N       17.7139528   19.2542111   17.8591518
| 16>     C       18.3721722   19.2394675   19.0620687
| 17>     S       18.5193955   20.6035815   19.9853115
| 18>     N       18.8971236   18.0352929   19.4657918
| 19>     C       18.7276647   16.7483201   18.7610094
| 20>     C       17.9500125   15.7551946   19.6175569
| 21>     C       18.4434481   14.4530354   19.8178354
| 22>     C       17.7191019   13.5237446   20.5830423
| 23>     C       16.4886139   13.8976914   21.1495504
| 24>     C       15.9909715   15.1918013   20.9457409
| 25>     O       14.7956312   15.5508676   21.4780138
| 26>     C       16.7147680   16.1159377   20.1860883
| 27>     H       14.8379738   13.3546286   16.7691187
| 28>     H       13.5959140   14.6194754   16.9177165
| 29>     H       14.7592226   14.3556687   18.2367519
| 30>     H       15.4743460   15.3871730   15.4153391
| 31>     H       15.3738661   16.3800374   16.9001841
| 32>     H       17.2089931   17.7454979   14.9049124
| 33>     H       17.2891468   19.4550221   15.3070125
| 34>     H       15.8581360   18.5141678   15.7655202
| 35>     H       17.3435737   20.1488737   17.5794392
| 36>     H       19.3526577   18.0502023   20.3694207
| 37>     H       19.7289463   16.3322792   18.5765773
| 38>     H       19.3840800   14.1546151   19.3611341
| 39>     H       18.1080311   12.5170370   20.7251263
| 40>     H       15.9238173   13.1807383   21.7359660
| 41>     H       14.4800756   14.8040702   22.0090240
| 42>     H       16.3110724   17.1116737   20.0391402
| 43> *
| 44>
| 45>                          ****END OF INPUT****

CARTESIAN COORDINATES (ANGSTROEM)
---------------------------------
  C     14.637981   14.365512   17.146056
  C     15.598460   15.380902   16.506342
  O     16.928021   14.980888   16.859225
  C     17.988262   15.760490   16.505278
  O     19.027660   15.204757   16.204777
  C     18.060834   16.947644   17.400270
  C     17.592196   18.152341   17.009941
  C     16.950878   18.479160   15.678566
  N     17.713953   19.254211   17.859152
  C     18.372172   19.239467   19.062069
  S     18.519395   20.603581   19.985312
  N     18.897124   18.035293   19.465792
  C     18.727665   16.748320   18.761009
  C     17.950012   15.755195   19.617557
  C     18.443448   14.453035   19.817835
  C     17.719102   13.523745   20.583042
  C     16.488614   13.897691   21.149550
  C     15.990972   15.191801   20.945741
  O     14.795631   15.550868   21.478014
  C     16.714768   16.115938   20.186088
  H     14.837974   13.354629   16.769119
  H     13.595914   14.619475   16.917717
  H     14.759223   14.355669   18.236752
  H     15.474346   15.387173   15.415339
  H     15.373866   16.380037   16.900184
  H     17.208993   17.745498   14.904912
  H     17.289147   19.455022   15.307013
  H     15.858136   18.514168   15.765520
  H     17.343574   20.148874   17.579439
  H     19.352658   18.050202   20.369421
  H     19.728946   16.332279   18.576577
  H     19.384080   14.154615   19.361134
  H     18.108031   12.517037   20.725126
  H     15.923817   13.180738   21.735966
  H     14.480076   14.804070   22.009024
  H     16.311072   17.111674   20.039140

 Total Charge           Charge          ....    0
 Multiplicity           Mult            ....    1
 Number of Electrons    NEL             ....  154
 Basis Dimension        Dim             ....  828

ORBITAL ENERGIES
----------------

  NO   OCC          E(Eh)            E(eV)
   0   2.0000     -91.885658     -2500.3359
   1   2.0000     -20.598131      -560.5036
   2   2.0000     -20.597989      -560.4998
   3   2.0000     -20.564572      -559.5905
   4   2.0000     -15.620443      -425.0539
   5   2.0000     -15.608881      -424.7392
   6   2.0000     -11.393742      -310.0395
   7   2.0000     -11.382701      -309.7390
   8   2.0000     -11.318555      -307.9935
   9   2.0000     -11.315119      -307.9000
  10   2.0000     -11.313970      -307.8688
  11   2.0000     -11.305972      -307.6511
  12   2.0000     -11.268199      -306.6233
  13   2.0000     -11.262474      -306.4675
  14   2.0000     -11.260419      -306.4116
  15   2.0000     -11.254432      -306.2487
  16   2.0000     -11.243445      -305.9497
  17   2.0000     -11.238648      -305.8192
  18   2.0000     -11.237292      -305.7823
  19   2.0000     -11.231922      -305.6361
  20   2.0000      -8.890817      -241.9314
  21   2.0000      -6.572419      -178.8446
  22   2.0000      -6.570381      -178.7892
  23   2.0000      -6.569821      -178.7739
  24   2.0000      -1.460137       -39.7323
  25   2.0000      -1.417844       -38.5815
  26   2.0000      -1.366454       -37.1831
  27   2.0000      -1.335125       -36.3306
  28   2.0000      -1.235955       -33.6320
  29   2.0000      -1.158076       -31.5129
  30   2.0000      -1.122701       -30.5503
  31   2.0000      -1.046584       -28.4790
  32   2.0000      -1.041400       -28.3379
  33   2.0000      -1.015758       -27.6402
  34   2.0000      -1.002165       -27.2703
  35   2.0000      -0.985427       -26.8148
  36   2.0000      -0.925263       -25.1777
  37   2.0000      -0.882416       -24.0118
  38   2.0000      -0.851318       -23.1656
  39   2.0000      -0.838521       -22.8173
  40   2.0000      -0.834880       -22.7183
  41   2.0000      -0.833976       -22.6936
  42   2.0000      -0.760426       -20.6923
  43   2.0000      -0.735300       -20.0085
  44   2.0000      -0.729355       -19.8468
  45   2.0000      -0.697140       -18.9701
  46   2.0000      -0.691355       -18.8127
  47   2.0000      -0.683602       -18.6018
  48   2.0000      -0.676513       -18.4089
  49   2.0000      -0.662031       -18.0148
  50   2.0000      -0.653374       -17.7792
  51   2.0000      -0.644418       -17.5355
  52   2.0000      -0.636901       -17.3310
  53   2.0000      -0.617622       -16.8064
  54   2.0000      -0.609460       -16.5843
  55   2.0000      -0.605315       -16.4715
  56   2.0000      -0.601280       -16.3617
  57   2.0000      -0.586528       -15.9602
  58   2.0000      -0.576657       -15.6916
  59   2.0000      -0.564763       -15.3680
  60   2.0000      -0.560027       -15.2391
  61   2.0000      -0.549300       -14.9472
  62   2.0000      -0.541134       -14.7250
  63   2.0000      -0.529449       -14.4070
  64   2.0000      -0.521601       -14.1935
  65   2.0000      -0.512144       -13.9361
  66   2.0000      -0.500947       -13.6315
  67   2.0000      -0.499146       -13.5824
  68   2.0000      -0.490735       -13.3536
  69   2.0000      -0.466146       -12.6845
  70   2.0000      -0.460382       -12.5276
  71   2.0000      -0.454423       -12.3655
  72   2.0000      -0.353151        -9.6097
  73   2.0000      -0.347999        -9.4695
  74   2.0000      -0.325839        -8.8665
  75   2.0000      -0.321636        -8.7522
  76   2.0000      -0.313579        -8.5329
  77   0.0000       0.089862         2.4453
  78   0.0000       0.098216         2.6726
  79   0.0000       0.108480         2.9519
  80   0.0000       0.125010         3.4017
  81   0.0000       0.128156         3.4873

MULLIKEN ATOMIC CHARGES
-----------------------
   0 C :   -0.263215
   1 C :    0.005363
   2 O :   -0.304044
   3 C :    0.379833
   4 O :   -0.349801
   5 C :   -0.137988
   6 C :    0.114021
   7 C :   -0.322001
   8 N :   -0.133263
   9 C :    0.210520
  10 S :   -0.448562
  11 N :   -0.205374
  12 C :    0.030359
  13 C :    0.052733
  14 C :   -0.176127
  15 C :   -0.131591
  16 C :   -0.267692
  17 C :    0.291706
  18 O :   -0.364542
  19 C :   -0.260537
  20 H :    0.102862
  21 H :    0.085610
  22 H :    0.115639
  23 H :    0.106895
  24 H :    0.083455
  25 H :    0.118748
  26 H :    0.127321
  27 H :    0.123130
  28 H :    0.193659
  29 H :    0.195860
  30 H :    0.164324
  31 H :    0.155184
  32 H :    0.160980
  33 H :    0.131617
  34 H :    0.241332
  35 H :    0.173585
Sum of atomic charges:    0.0000000

LOEWDIN ATOMIC CHARGES
----------------------
   0 C :    0.113713
   1 C :   -0.036309
   2 O :    0.330494
   3 C :   -0.426832
   4 O :    0.153262
   5 C :   -0.078793
   6 C :   -0.118755
   7 C :    0.122092
   8 N :    0.398406
   9 C :   -0.454458
  10 S :   -0.043693
  11 N :    0.397290
  12 C :   -0.040543
  13 C :   -0.038712
  14 C :    0.022419
  15 C :    0.045926
  16 C :   -0.000952
  17 C :   -0.193831
  18 O :    0.393949
  19 C :    0.029348
  20 H :   -0.024126
  21 H :   -0.026416
  22 H :   -0.022243
  23 H :   -0.034327
  24 H :   -0.038407
  25 H :   -0.011376
  26 H :   -0.012037
  27 H :   -0.018114
  28 H :   -0.060737
  29 H :   -0.063927
  30 H :   -0.003593
  31 H :   -0.025433
  32 H :   -0.019550
  33 H :   -0.035452
  34 H :   -0.153639
  35 H :   -0.024645

  Mayer bond orders larger than 0.100000
B(  0-C ,  1-C ) :   0.9836 B(  0-C , 20-H ) :   0.9804 B(  0-C , 21-H ) :   0.9762
B(  0-C , 22-H ) :   0.9728 B(  1-C ,  2-O ) :   0.9249 B(  1-C , 23-H ) :   0.9781
B(  1-C , 24-H ) :   0.9656 B(  2-O ,  3-C ) :   1.0877 B(  3-C ,  4-O ) :   2.1103
B(  3-C ,  5-C ) :   0.9324 B(  5-C ,  6-C ) :   1.7256 B(  5-C , 12-C ) :   0.9728
B(  6-C ,  7-C ) :   0.9384 B(  6-C ,  8-N ) :   1.1022 B(  7-C , 25-H ) :   0.9815
B(  7-C , 26-H ) :   0.9768 B(  7-C , 27-H ) :   0.9667 B(  8-N ,  9-C ) :   1.2035
B(  8-N , 28-H ) :   0.9542 B(  9-C , 10-S ) :   1.6030 B(  9-C , 11-N ) :   1.2862
B( 11-N , 12-C ) :   1.0006 B( 11-N , 29-H ) :   0.9490 B( 12-C , 13-C ) :   0.9487
B( 12-C , 30-H ) :   0.9991 B( 13-C , 14-C ) :   1.3779 B( 13-C , 19-C ) :   1.3540
B( 14-C , 15-C ) :   1.3932 B( 14-C , 31-H ) :   0.9669 B( 15-C , 16-C ) :   1.3682
B( 15-C , 32-H ) :   0.9709 B( 16-C , 17-C ) :   1.3283 B( 16-C , 33-H ) :   0.9848
B( 17-C , 18-O ) :   1.0987 B( 17-C , 19-C ) :   1.3714 B( 18-O , 34-H ) :   0.9796
B( 19-C , 35-H ) :   0.9571

MP2 TOTAL ENERGY:    -1274.310753015 Eh
FINAL SINGLE POINT ENERGY     -1274.310753015299

DIPOLE MOMENT
-------------
                                X             Y             Z
Electronic contribution:     10.76562       8.30088       6.78649
Nuclear contribution   :    -12.39192      -9.58560      -7.57162
                        -----------------------------------------
Total Dipole Moment    :     -1.62630      -1.28472      -0.78513
                        -----------------------------------------
Magnitude (a.u.)       :      2.21625
Magnitude (Debye)      :      5.63327

Rotational constants in cm-1:     0.012505     0.008934     0.006833
Rotational constants in MHz :   374.900141   267.832522   204.858960

                             ****ORCA TERMINATED NORMALLY****
TOTAL RUN TIME: 0 days 1 hours 57 minutes 36 seconds 332 msec
