                         Program Version 5.0.0 -  RELEASE  -
|  1> ! ri-mp2 cc-pvtz cc-pvtz/c TightSCF NoKeepInts
|  2>
|  3> %scf
|  4>   MaxCore 4096
|  5> end
|  6> *xyz  0  1
|  7>     C       14.8255586   14.9234767   17.5052183
|  8>     C       15.7116339   15.2242926   16.2855630
|  9>     O       17.0644530   14.8825981   16.6261321
| 10>     C       18.1029060   15.7541943   16.4555687
| 11>     O       19.2076519   15.2830391   16.2614406
| 12>     C       17.9889399   16.9245362   17.3721782
| 13>     C       17.4885850   18.1104489   16.9589866
| 14>     C       16.9718139   18.4485430   15.5769526
| 15>     N       17.4901783   19.2063270   17.8245664
| 16>     C       18.0931888   19.2249278   19.0554076
| 17>     S       18.1151556   20.5889503   19.9900442
| 18>     N       18.6789800   18.0550489   19.4735327
| 19>     C       18.6051193   16.7612351   18.7641755
| 20>     C       17.8790751   15.7045657   19.5935451
| 21>     C       18.3163524   14.3674601   19.5588914
| 22>     C       17.6574016   13.3767746   20.3054136
| 23>     C       16.5503750   13.7244726   21.0974780
| 24>     C       16.1103642   15.0542150   21.1353859
| 25>     O       15.0339469   15.3908923   21.8895028
| 26>     C       16.7679232   16.0389940   20.3910821
| 27>     H       15.0079576   13.9072243   17.8775162
| 28>     H       13.7642992   15.0092013   17.2427937
| 29>     H       15.0318231   15.6304270   18.3161711
| 30>     H       15.3873370   14.6104092   15.4350960
| 31>     H       15.6025645   16.2760150   16.0071451
| 32>     H       17.2104063   17.6722576   14.8399045
| 33>     H       17.4265222   19.3773318   15.2085942
| 34>     H       15.8838891   18.5891786   15.5856440
| 35>     H       17.0809656   20.0791866   17.5304942
| 36>     H       19.1029401   18.0938690   20.3917877
| 37>     H       19.6377006   16.4104275   18.6194091
| 38>     H       19.1622977   14.0924543   18.9322504
| 39>     H       18.0025712   12.3453042   20.2616371
| 40>     H       16.0365174   12.9616853   21.6728550
| 41>     H       14.7478218   14.5927454   22.3587338
| 42>     H       16.4017838   17.0592901   20.4329026
| 43> *
| 44>
| 45>                          ****END OF INPUT****

CARTESIAN COORDINATES (ANGSTROEM)
---------------------------------
  C     14.825559   14.923477   17.505218
  C     15.711634   15.224293   16.285563
  O     17.064453   14.882598   16.626132
  C     18.102906   15.754194   16.455569
  O     19.207652   15.283039   16.261441
  C     17.988940   16.924536   17.372178
  C     17.488585   18.110449   16.958987
  C     16.971814   18.448543   15.576953
  N     17.490178   19.206327   17.824566
  C     18.093189   19.224928   19.055408
  S     18.115156   20.588950   19.990044
  N     18.678980   18.055049   19.473533
  C     18.605119   16.761235   18.764176
  C     17.879075   15.704566   19.593545
  C     18.316352   14.367460   19.558891
  C     17.657402   13.376775   20.305414
  C     16.550375   13.724473   21.097478
  C     16.110364   15.054215   21.135386
  O     15.033947   15.390892   21.889503
  C     16.767923   16.038994   20.391082
  H     15.007958   13.907224   17.877516
  H     13.764299   15.009201   17.242794
  H     15.031823   15.630427   18.316171
  H     15.387337   14.610409   15.435096
  H     15.602564   16.276015   16.007145
  H     17.210406   17.672258   14.839904
  H     17.426522   19.377332   15.208594
  H     15.883889   18.589179   15.585644
  H     17.080966   20.079187   17.530494
  H     19.102940   18.093869   20.391788
  H     19.637701   16.410428   18.619409
  H     19.162298   14.092454   18.932250
  H     18.002571   12.345304   20.261637
  H     16.036517   12.961685   21.672855
  H     14.747822   14.592745   22.358734
  H     16.401784   17.059290   20.432903

 Total Charge           Charge          ....    0
 Multiplicity           Mult            ....    1
 Number of Electrons    NEL             ....  154
 Basis Dimension        Dim             ....  828

ORBITAL ENERGIES
----------------

  NO   OCC          E(Eh)            E(eV)
   0   2.0000     -91.887159     -2500.3767
   1   2.0000     -20.599226      -560.5334
   2   2.0000     -20.596679      -560.4641
   3   2.0000     -20.561969      -559.5196
   4   2.0000     -15.622096      -425.0988
   5   2.0000     -15.609907      -424.7672
   6   2.0000     -11.396884      -310.1250
   7   2.0000     -11.384023      -309.7750
   8   2.0000     -11.322148      -308.0913
   9   2.0000     -11.315979      -307.9235
  10   2.0000     -11.312853      -307.8384
  11   2.0000     -11.305487      -307.6380
  12   2.0000     -11.270577      -306.6880
  13   2.0000     -11.266178      -306.5683
  14   2.0000     -11.260881      -306.4242
  15   2.0000     -11.253389      -306.2203
  16   2.0000     -11.242402      -305.9213
  17   2.0000     -11.238223      -305.8076
  18   2.0000     -11.235777      -305.7410
  19   2.0000     -11.227852      -305.5254
  20   2.0000      -8.892302      -241.9718
  21   2.0000      -6.573903      -178.8850
  22   2.0000      -6.571865      -178.8295
  23   2.0000      -6.571301      -178.8142
  24   2.0000      -1.457687       -39.6657
  25   2.0000      -1.416461       -38.5438
  26   2.0000      -1.364946       -37.1421
  27   2.0000      -1.336941       -36.3800
  28   2.0000      -1.237431       -33.6722
  29   2.0000      -1.157500       -31.4972
  30   2.0000      -1.123363       -30.5683
  31   2.0000      -1.046758       -28.4837
  32   2.0000      -1.039803       -28.2945
  33   2.0000      -1.015726       -27.6393
  34   2.0000      -1.003383       -27.3034
  35   2.0000      -0.987061       -26.8593
  36   2.0000      -0.925980       -25.1972
  37   2.0000      -0.886669       -24.1275
  38   2.0000      -0.852096       -23.1867
  39   2.0000      -0.838806       -22.8251
  40   2.0000      -0.833433       -22.6789
  41   2.0000      -0.833036       -22.6681
  42   2.0000      -0.759800       -20.6752
  43   2.0000      -0.736371       -20.0377
  44   2.0000      -0.729349       -19.8466
  45   2.0000      -0.695286       -18.9197
  46   2.0000      -0.690430       -18.7876
  47   2.0000      -0.683305       -18.5937
  48   2.0000      -0.676394       -18.4056
  49   2.0000      -0.663898       -18.0656
  50   2.0000      -0.651525       -17.7289
  51   2.0000      -0.638870       -17.3845
  52   2.0000      -0.630190       -17.1483
  53   2.0000      -0.626079       -17.0365
  54   2.0000      -0.610841       -16.6218
  55   2.0000      -0.604809       -16.4577
  56   2.0000      -0.600633       -16.3441
  57   2.0000      -0.589197       -16.0329
  58   2.0000      -0.575643       -15.6640
  59   2.0000      -0.569284       -15.4910
  60   2.0000      -0.563369       -15.3300
  61   2.0000      -0.556298       -15.1376
  62   2.0000      -0.538672       -14.6580
  63   2.0000      -0.527471       -14.3532
  64   2.0000      -0.518071       -14.0974
  65   2.0000      -0.511782       -13.9263
  66   2.0000      -0.500942       -13.6313
  67   2.0000      -0.500049       -13.6070
  68   2.0000      -0.489174       -13.3111
  69   2.0000      -0.466121       -12.6838
  70   2.0000      -0.458623       -12.4798
  71   2.0000      -0.452462       -12.3121
  72   2.0000      -0.355104        -9.6629
  73   2.0000      -0.347345        -9.4517
  74   2.0000      -0.327064        -8.8999
  75   2.0000      -0.320311        -8.7161
  76   2.0000      -0.315692        -8.5904
  77   0.0000       0.092035         2.5044
  78   0.0000       0.098951         2.6926
  79   0.0000       0.109113         2.9691
  80   0.0000       0.126707         3.4479
  81   0.0000       0.130411         3.5487

MULLIKEN ATOMIC CHARGES
-----------------------
   0 C :   -0.284548
   1 C :    0.012440
   2 O :   -0.309420
   3 C :    0.376915
   4 O :   -0.357883
   5 C :   -0.129341
   6 C :    0.117959
   7 C :   -0.330260
   8 N :   -0.137525
   9 C :    0.209033
  10 S :   -0.446264
  11 N :   -0.225222
  12 C :    0.053484
  13 C :    0.055607
  14 C :   -0.194906
  15 C :   -0.137455
  16 C :   -0.276205
  17 C :    0.330328
  18 O :   -0.360417
  19 C :   -0.300503
  20 H :    0.110863
  21 H :    0.100459
  22 H :    0.107820
  23 H :    0.119135
  24 H :    0.075761
  25 H :    0.117064
  26 H :    0.137109
  27 H :    0.122868
  28 H :    0.193894
  29 H :    0.201812
  30 H :    0.168648
  31 H :    0.161631
  32 H :    0.162656
  33 H :    0.131544
  34 H :    0.240855
  35 H :    0.182064
Sum of atomic charges:    0.0000000

LOEWDIN ATOMIC CHARGES
----------------------
   0 C :    0.109367
   1 C :   -0.028310
   2 O :    0.325080
   3 C :   -0.425682
   4 O :    0.145195
   5 C :   -0.075974
   6 C :   -0.116525
   7 C :    0.119046
   8 N :    0.399264
   9 C :   -0.455867
  10 S :   -0.042320
  11 N :    0.398104
  12 C :   -0.040129
  13 C :   -0.040382
  14 C :    0.024449
  15 C :    0.044367
  16 C :   -0.001582
  17 C :   -0.192739
  18 O :    0.395029
  19 C :    0.027352
  20 H :   -0.021799
  21 H :   -0.027576
  22 H :   -0.028592
  23 H :   -0.028190
  24 H :   -0.037914
  25 H :   -0.012535
  26 H :   -0.010132
  27 H :   -0.017981
  28 H :   -0.059757
  29 H :   -0.063709
  30 H :   -0.002386
  31 H :   -0.023136
  32 H :   -0.019409
  33 H :   -0.035549
  34 H :   -0.153694
  35 H :   -0.025381

  Mayer bond orders larger than 0.100000
B(  0-C ,  1-C ) :   0.9749 B(  0-C , 20-H ) :   0.9747 B(  0-C , 21-H ) :   0.9781
B(  0-C , 22-H ) :   0.9730 B(  1-C ,  2-O ) :   0.9244 B(  1-C , 23-H ) :   0.9837
B(  1-C , 24-H ) :   0.9695 B(  2-O ,  3-C ) :   1.0941 B(  3-C ,  4-O ) :   2.1010
B(  3-C ,  5-C ) :   0.9267 B(  5-C ,  6-C ) :   1.7245 B(  5-C , 12-C ) :   0.9661
B(  6-C ,  7-C ) :   0.9372 B(  6-C ,  8-N ) :   1.1018 B(  7-C , 25-H ) :   0.9838
B(  7-C , 26-H ) :   0.9717 B(  7-C , 27-H ) :   0.9680 B(  8-N ,  9-C ) :   1.2044
B(  8-N , 28-H ) :   0.9545 B(  9-C , 10-S ) :   1.6033 B(  9-C , 11-N ) :   1.2845
B( 11-N , 12-C ) :   0.9863 B( 11-N , 29-H ) :   0.9465 B( 12-C , 13-C ) :   0.9460
B( 12-C , 30-H ) :   0.9981 B( 13-C , 14-C ) :   1.3822 B( 13-C , 19-C ) :   1.3407
B( 14-C , 15-C ) :   1.4018 B( 14-C , 31-H ) :   0.9654 B( 15-C , 16-C ) :   1.3565
B( 15-C , 32-H ) :   0.9702 B( 16-C , 17-C ) :   1.3332 B( 16-C , 33-H ) :   0.9849
B( 17-C , 18-O ) :   1.1049 B( 17-C , 19-C ) :   1.3558 B( 18-O , 34-H ) :   0.9801
B( 19-C , 35-H ) :   0.9571

MP2 TOTAL ENERGY:    -1274.313130372 Eh
FINAL SINGLE POINT ENERGY     -1274.313130372358

DIPOLE MOMENT
-------------
                                X             Y             Z
Electronic contribution:      9.81273       7.36590       6.53221
Nuclear contribution   :    -11.33781      -8.63688      -7.46753
                        -----------------------------------------
Total Dipole Moment    :     -1.52507      -1.27098      -0.93531
                        -----------------------------------------
Magnitude (a.u.)       :      2.19455
Magnitude (Debye)      :      5.57810

Rotational constants in cm-1:     0.012269     0.009296     0.006799
Rotational constants in MHz :   367.802917   278.684447   203.815080

                             ****ORCA TERMINATED NORMALLY****
TOTAL RUN TIME: 0 days 1 hours 37 minutes 12 seconds 562 msec
