                         Program Version 5.0.0 -  RELEASE  -
|  1> ! ri-mp2 cc-pvtz cc-pvtz/c TightSCF NoKeepInts
|  2>
|  3> %scf
|  4>   MaxCore 4096
|  5> end
|  6> *xyz  0  1
|  7>     C       14.8616591   14.4282248   17.2728151
|  8>     C       15.5157278   15.6641586   16.6338573
|  9>     O       16.7819432   15.2320546   16.0921310
| 10>     C       18.0133723   15.6627834   16.5217883
| 11>     O       18.9664413   14.9071680   16.4754056
| 12>     C       18.0482084   16.8888770   17.3761501
| 13>     C       17.5599218   18.0843772   16.9702493
| 14>     C       16.9431225   18.4075653   15.6261602
| 15>     N       17.6642477   19.1979159   17.8066334
| 16>     C       18.3257322   19.2115044   19.0074077
| 17>     S       18.4510571   20.5892766   19.9128425
| 18>     N       18.8732462   18.0226255   19.4244727
| 19>     C       18.7229561   16.7250003   18.7359512
| 20>     C       17.9407910   15.7302751   19.5878297
| 21>     C       18.3917987   14.4044867   19.7210500
| 22>     C       17.6603118   13.4715550   20.4747300
| 23>     C       16.4637623   13.8653441   21.0974680
| 24>     C       16.0064880   15.1827260   20.9601161
| 25>     O       14.8425384   15.5621574   21.5445808
| 26>     C       16.7368924   16.1097191   20.2099754
| 27>     H       15.4940524   14.0302384   18.0767549
| 28>     H       14.7164625   13.6372711   16.5263976
| 29>     H       13.8846307   14.6841682   17.7001500
| 30>     H       14.8743511   16.0418697   15.8272530
| 31>     H       15.6083666   16.4417617   17.3998949
| 32>     H       17.1407340   17.6261078   14.8817992
| 33>     H       17.3557766   19.3388321   15.2174435
| 34>     H       15.8562653   18.5286271   15.7083383
| 35>     H       17.2810362   20.0831882   17.5138700
| 36>     H       19.3354510   18.0580799   20.3243980
| 37>     H       19.7298692   16.3163955   18.5641684
| 38>     H       19.3056151   14.0910342   19.2205748
| 39>     H       18.0181838   12.4472917   20.5654029
| 40>     H       15.8937884   13.1460794   21.6763326
| 41>     H       14.5199659   14.8098969   22.0639129
| 42>     H       16.3622332   17.1233629   20.1156944
| 43> *
| 44>
| 45>                          ****END OF INPUT****

CARTESIAN COORDINATES (ANGSTROEM)
---------------------------------
  C     14.861659   14.428225   17.272815
  C     15.515728   15.664159   16.633857
  O     16.781943   15.232055   16.092131
  C     18.013372   15.662783   16.521788
  O     18.966441   14.907168   16.475406
  C     18.048208   16.888877   17.376150
  C     17.559922   18.084377   16.970249
  C     16.943123   18.407565   15.626160
  N     17.664248   19.197916   17.806633
  C     18.325732   19.211504   19.007408
  S     18.451057   20.589277   19.912843
  N     18.873246   18.022625   19.424473
  C     18.722956   16.725000   18.735951
  C     17.940791   15.730275   19.587830
  C     18.391799   14.404487   19.721050
  C     17.660312   13.471555   20.474730
  C     16.463762   13.865344   21.097468
  C     16.006488   15.182726   20.960116
  O     14.842538   15.562157   21.544581
  C     16.736892   16.109719   20.209975
  H     15.494052   14.030238   18.076755
  H     14.716462   13.637271   16.526398
  H     13.884631   14.684168   17.700150
  H     14.874351   16.041870   15.827253
  H     15.608367   16.441762   17.399895
  H     17.140734   17.626108   14.881799
  H     17.355777   19.338832   15.217443
  H     15.856265   18.528627   15.708338
  H     17.281036   20.083188   17.513870
  H     19.335451   18.058080   20.324398
  H     19.729869   16.316395   18.564168
  H     19.305615   14.091034   19.220575
  H     18.018184   12.447292   20.565403
  H     15.893788   13.146079   21.676333
  H     14.519966   14.809897   22.063913
  H     16.362233   17.123363   20.115694

 Total Charge           Charge          ....    0
 Multiplicity           Mult            ....    1
 Number of Electrons    NEL             ....  154
 Basis Dimension        Dim             ....  828

ORBITAL ENERGIES
----------------

  NO   OCC          E(Eh)            E(eV)
   0   2.0000     -91.890994     -2500.4811
   1   2.0000     -20.600617      -560.5713
   2   2.0000     -20.600423      -560.5660
   3   2.0000     -20.548279      -559.1471
   4   2.0000     -15.628916      -425.2844
   5   2.0000     -15.612135      -424.8278
   6   2.0000     -11.397647      -310.1457
   7   2.0000     -11.387665      -309.8741
   8   2.0000     -11.331932      -308.3575
   9   2.0000     -11.317356      -307.9609
  10   2.0000     -11.314223      -307.8757
  11   2.0000     -11.304020      -307.5980
  12   2.0000     -11.268919      -306.6429
  13   2.0000     -11.264543      -306.5238
  14   2.0000     -11.263902      -306.5064
  15   2.0000     -11.257334      -306.3276
  16   2.0000     -11.246614      -306.0359
  17   2.0000     -11.243099      -305.9403
  18   2.0000     -11.239903      -305.8533
  19   2.0000     -11.226614      -305.4917
  20   2.0000      -8.896095      -242.0751
  21   2.0000      -6.577679      -178.9877
  22   2.0000      -6.575658      -178.9327
  23   2.0000      -6.575078      -178.9170
  24   2.0000      -1.446864       -39.3712
  25   2.0000      -1.420381       -38.6505
  26   2.0000      -1.358517       -36.9671
  27   2.0000      -1.341575       -36.5061
  28   2.0000      -1.240873       -33.7659
  29   2.0000      -1.162176       -31.6244
  30   2.0000      -1.126347       -30.6494
  31   2.0000      -1.049557       -28.5599
  32   2.0000      -1.037448       -28.2304
  33   2.0000      -1.019398       -27.7392
  34   2.0000      -1.005771       -27.3684
  35   2.0000      -0.990135       -26.9430
  36   2.0000      -0.928463       -25.2648
  37   2.0000      -0.883206       -24.0333
  38   2.0000      -0.855690       -23.2845
  39   2.0000      -0.842643       -22.9295
  40   2.0000      -0.837654       -22.7937
  41   2.0000      -0.836091       -22.7512
  42   2.0000      -0.754187       -20.5225
  43   2.0000      -0.741043       -20.1648
  44   2.0000      -0.731779       -19.9127
  45   2.0000      -0.698740       -19.0137
  46   2.0000      -0.688971       -18.7479
  47   2.0000      -0.680468       -18.5165
  48   2.0000      -0.677607       -18.4386
  49   2.0000      -0.659526       -17.9466
  50   2.0000      -0.657760       -17.8986
  51   2.0000      -0.648274       -17.6404
  52   2.0000      -0.640808       -17.4373
  53   2.0000      -0.612342       -16.6627
  54   2.0000      -0.609205       -16.5773
  55   2.0000      -0.605979       -16.4895
  56   2.0000      -0.599947       -16.3254
  57   2.0000      -0.583686       -15.8829
  58   2.0000      -0.579256       -15.7624
  59   2.0000      -0.570067       -15.5123
  60   2.0000      -0.560674       -15.2567
  61   2.0000      -0.558490       -15.1973
  62   2.0000      -0.547610       -14.9012
  63   2.0000      -0.529022       -14.3954
  64   2.0000      -0.519243       -14.1293
  65   2.0000      -0.514573       -14.0022
  66   2.0000      -0.503099       -13.6900
  67   2.0000      -0.501502       -13.6466
  68   2.0000      -0.488956       -13.3052
  69   2.0000      -0.471840       -12.8394
  70   2.0000      -0.452975       -12.3261
  71   2.0000      -0.449098       -12.2206
  72   2.0000      -0.357573        -9.7300
  73   2.0000      -0.353118        -9.6088
  74   2.0000      -0.330571        -8.9953
  75   2.0000      -0.325126        -8.8471
  76   2.0000      -0.319200        -8.6859
  77   0.0000       0.080896         2.2013
  78   0.0000       0.103051         2.8041
  79   0.0000       0.114361         3.1119
  80   0.0000       0.127210         3.4616
  81   0.0000       0.134842         3.6692

MULLIKEN ATOMIC CHARGES
-----------------------
   0 C :   -0.263748
   1 C :    0.003417
   2 O :   -0.318823
   3 C :    0.405619
   4 O :   -0.386224
   5 C :   -0.196233
   6 C :    0.135684
   7 C :   -0.319130
   8 N :   -0.135031
   9 C :    0.202034
  10 S :   -0.439056
  11 N :   -0.209718
  12 C :    0.069162
  13 C :    0.030308
  14 C :   -0.190367
  15 C :   -0.127724
  16 C :   -0.280499
  17 C :    0.315863
  18 O :   -0.360992
  19 C :   -0.282616
  20 H :    0.107807
  21 H :    0.108034
  22 H :    0.090543
  23 H :    0.111107
  24 H :    0.102223
  25 H :    0.133034
  26 H :    0.133347
  27 H :    0.121782
  28 H :    0.197161
  29 H :    0.197292
  30 H :    0.163034
  31 H :    0.167131
  32 H :    0.164045
  33 H :    0.132410
  34 H :    0.242092
  35 H :    0.177030
Sum of atomic charges:   -0.0000000

LOEWDIN ATOMIC CHARGES
----------------------
   0 C :    0.109034
   1 C :   -0.021870
   2 O :    0.307262
   3 C :   -0.417257
   4 O :    0.121464
   5 C :   -0.086369
   6 C :   -0.097554
   7 C :    0.126862
   8 N :    0.401929
   9 C :   -0.456397
  10 S :   -0.036151
  11 N :    0.397225
  12 C :   -0.044993
  13 C :   -0.043882
  14 C :    0.022867
  15 C :    0.045039
  16 C :   -0.000332
  17 C :   -0.193491
  18 O :    0.394934
  19 C :    0.027159
  20 H :   -0.022478
  21 H :   -0.025480
  22 H :   -0.026410
  23 H :   -0.032096
  24 H :   -0.039339
  25 H :   -0.006552
  26 H :   -0.010927
  27 H :   -0.016235
  28 H :   -0.057532
  29 H :   -0.063518
  30 H :   -0.002538
  31 H :   -0.021677
  32 H :   -0.018420
  33 H :   -0.034631
  34 H :   -0.152688
  35 H :   -0.024959

  Mayer bond orders larger than 0.100000
B(  0-C ,  1-C ) :   0.9827 B(  0-C , 20-H ) :   0.9712 B(  0-C , 21-H ) :   0.9804
B(  0-C , 22-H ) :   0.9758 B(  1-C ,  2-O ) :   0.8987 B(  1-C , 23-H ) :   0.9778
B(  1-C , 24-H ) :   0.9598 B(  2-O ,  3-C ) :   1.1911 B(  3-C ,  4-O ) :   2.0880
B(  3-C ,  5-C ) :   0.9317 B(  5-C ,  6-C ) :   1.6805 B(  5-C , 12-C ) :   0.9600
B(  6-C ,  7-C ) :   0.9449 B(  6-C ,  8-N ) :   1.1223 B(  7-C , 25-H ) :   0.9781
B(  7-C , 26-H ) :   0.9748 B(  7-C , 27-H ) :   0.9640 B(  8-N ,  9-C ) :   1.1913
B(  8-N , 28-H ) :   0.9515 B(  9-C , 10-S ) :   1.6134 B(  9-C , 11-N ) :   1.2898
B( 11-N , 12-C ) :   0.9998 B( 11-N , 29-H ) :   0.9499 B( 12-C , 13-C ) :   0.9415
B( 12-C , 30-H ) :   0.9971 B( 13-C , 14-C ) :   1.3883 B( 13-C , 19-C ) :   1.3463
B( 14-C , 15-C ) :   1.3940 B( 14-C , 31-H ) :   0.9608 B( 15-C , 16-C ) :   1.3614
B( 15-C , 32-H ) :   0.9705 B( 16-C , 17-C ) :   1.3299 B( 16-C , 33-H ) :   0.9851
B( 17-C , 18-O ) :   1.1061 B( 17-C , 19-C ) :   1.3714 B( 18-O , 34-H ) :   0.9789
B( 19-C , 35-H ) :   0.9562

MP2 TOTAL ENERGY:    -1274.336494883 Eh
FINAL SINGLE POINT ENERGY     -1274.336494883497

DIPOLE MOMENT
-------------
                                X             Y             Z
Electronic contribution:     10.24365       8.20543       5.87646
Nuclear contribution   :    -11.75997      -9.11628      -6.24567
                        -----------------------------------------
Total Dipole Moment    :     -1.51632      -0.91084      -0.36921
                        -----------------------------------------
Magnitude (a.u.)       :      1.80698
Magnitude (Debye)      :      4.59298

Rotational constants in cm-1:     0.012449     0.009130     0.006903
Rotational constants in MHz :   373.225005   273.717618   206.945735

                             ****ORCA TERMINATED NORMALLY****
TOTAL RUN TIME: 0 days 1 hours 53 minutes 16 seconds 213 msec
