                         Program Version 4.2.0 -  RELEASE  -
|  1> ! ri-mp2 cc-pvtz cc-pvtz/c TightSCF  NoKeepInts
|  2>
|  3> %scf
|  4>   MaxCore 4096
|  5> end
|  6> *xyz  0  1
|  7>     C       15.0039265   14.2714322   16.8061172
|  8>     C       16.4448080   13.9419305   16.3528477
|  9>     O       17.3629041   15.0452317   16.5318973
| 10>     C       16.9946240   16.3582398   16.4176135
| 11>     O       16.1866733   16.7406688   15.5890198
| 12>     C       17.6967870   17.2461866   17.4072413
| 13>     C       17.5708863   18.5973648   17.3908486
| 14>     C       16.7579572   19.4301130   16.4228693
| 15>     N       18.2598216   19.3774870   18.3241876
| 16>     C       19.1475023   18.8948029   19.2481784
| 17>     S       19.9760058   19.8959528   20.2715118
| 18>     N       19.3163967   17.5342755   19.2832408
| 19>     C       18.5496091   16.5592860   18.4865614
| 20>     C       17.7017272   15.6899750   19.4109345
| 21>     C       18.0140526   14.3299596   19.5954623
| 22>     C       17.2259889   13.5227192   20.4329393
| 23>     C       16.1185344   14.0803953   21.0943099
| 24>     C       15.8088536   15.4359874   20.9182862
| 25>     O       14.7402202   15.9772870   21.5551733
| 26>     C       16.5946104   16.2366978   20.0837980
| 27>     H       15.0019842   14.7212633   17.8070228
| 28>     H       14.4043673   13.3543657   16.8485883
| 29>     H       14.5043573   14.9552506   16.1094060
| 30>     H       16.8161394   13.0754625   16.9148642
| 31>     H       16.4183816   13.6636404   15.2911477
| 32>     H       17.0676561   19.2321838   15.3887610
| 33>     H       16.8561895   20.5081131   16.5961205
| 34>     H       15.6925946   19.1772750   16.4986197
| 35>     H       18.1487539   20.3787893   18.3135723
| 36>     H       19.9480235   17.2061240   20.0023973
| 37>     H       19.2769070   15.9146676   17.9731584
| 38>     H       18.8666459   13.8953702   19.0804523
| 39>     H       17.4744595   12.4714481   20.5680411
| 40>     H       15.5069867   13.4612684   21.7424556
| 41>     H       14.3505619   15.2860816   22.1113502
| 42>     H       16.3411023   17.2847038   19.9650043
| 43> *
| 44>
| 45>                          ****END OF INPUT****

CARTESIAN COORDINATES (ANGSTROEM)
---------------------------------
  C     15.003927   14.271432   16.806117
  C     16.444808   13.941930   16.352848
  O     17.362904   15.045232   16.531897
  C     16.994624   16.358240   16.417614
  O     16.186673   16.740669   15.589020
  C     17.696787   17.246187   17.407241
  C     17.570886   18.597365   17.390849
  C     16.757957   19.430113   16.422869
  N     18.259822   19.377487   18.324188
  C     19.147502   18.894803   19.248178
  S     19.976006   19.895953   20.271512
  N     19.316397   17.534275   19.283241
  C     18.549609   16.559286   18.486561
  C     17.701727   15.689975   19.410934
  C     18.014053   14.329960   19.595462
  C     17.225989   13.522719   20.432939
  C     16.118534   14.080395   21.094310
  C     15.808854   15.435987   20.918286
  O     14.740220   15.977287   21.555173
  C     16.594610   16.236698   20.083798
  H     15.001984   14.721263   17.807023
  H     14.404367   13.354366   16.848588
  H     14.504357   14.955251   16.109406
  H     16.816139   13.075462   16.914864
  H     16.418382   13.663640   15.291148
  H     17.067656   19.232184   15.388761
  H     16.856189   20.508113   16.596121
  H     15.692595   19.177275   16.498620
  H     18.148754   20.378789   18.313572
  H     19.948024   17.206124   20.002397
  H     19.276907   15.914668   17.973158
  H     18.866646   13.895370   19.080452
  H     17.474459   12.471448   20.568041
  H     15.506987   13.461268   21.742456
  H     14.350562   15.286082   22.111350
  H     16.341102   17.284704   19.965004

 Total Charge           Charge          ....    0
 Multiplicity           Mult            ....    1
 Number of Electrons    NEL             ....  154
 Basis Dimension        Dim             ....  828

ORBITAL ENERGIES
----------------

  NO   OCC          E(Eh)            E(eV)
   0   2.0000     -91.889038     -2500.4279
   1   2.0000     -20.598931      -560.5254
   2   2.0000     -20.592935      -560.3623
   3   2.0000     -20.541575      -558.9647
   4   2.0000     -15.629108      -425.2897
   5   2.0000     -15.608550      -424.7302
   6   2.0000     -11.394564      -310.0619
   7   2.0000     -11.384243      -309.7810
   8   2.0000     -11.335862      -308.4645
   9   2.0000     -11.316380      -307.9343
  10   2.0000     -11.309169      -307.7381
  11   2.0000     -11.299718      -307.4810
  12   2.0000     -11.261984      -306.4542
  13   2.0000     -11.258256      -306.3527
  14   2.0000     -11.258066      -306.3476
  15   2.0000     -11.252065      -306.1843
  16   2.0000     -11.245679      -306.0105
  17   2.0000     -11.240697      -305.8749
  18   2.0000     -11.240653      -305.8737
  19   2.0000     -11.222331      -305.3751
  20   2.0000      -8.894103      -242.0209
  21   2.0000      -6.575678      -178.9333
  22   2.0000      -6.573673      -178.8787
  23   2.0000      -6.573087      -178.8628
  24   2.0000      -1.444909       -39.3180
  25   2.0000      -1.418641       -38.6032
  26   2.0000      -1.352120       -36.7931
  27   2.0000      -1.340117       -36.4664
  28   2.0000      -1.238789       -33.7092
  29   2.0000      -1.159915       -31.5629
  30   2.0000      -1.120701       -30.4958
  31   2.0000      -1.044089       -28.4111
  32   2.0000      -1.033421       -28.1208
  33   2.0000      -1.017683       -27.6926
  34   2.0000      -0.996086       -27.1049
  35   2.0000      -0.984689       -26.7947
  36   2.0000      -0.923343       -25.1254
  37   2.0000      -0.897284       -24.4163
  38   2.0000      -0.847601       -23.0644
  39   2.0000      -0.839676       -22.8487
  40   2.0000      -0.836420       -22.7602
  41   2.0000      -0.817040       -22.2328
  42   2.0000      -0.745918       -20.2975
  43   2.0000      -0.733246       -19.9526
  44   2.0000      -0.722032       -19.6475
  45   2.0000      -0.697783       -18.9876
  46   2.0000      -0.688989       -18.7484
  47   2.0000      -0.675194       -18.3730
  48   2.0000      -0.671408       -18.2700
  49   2.0000      -0.659810       -17.9543
  50   2.0000      -0.651245       -17.7213
  51   2.0000      -0.641551       -17.4575
  52   2.0000      -0.635466       -17.2919
  53   2.0000      -0.618582       -16.8325
  54   2.0000      -0.609150       -16.5758
  55   2.0000      -0.602078       -16.3834
  56   2.0000      -0.599735       -16.3196
  57   2.0000      -0.579208       -15.7611
  58   2.0000      -0.571076       -15.5398
  59   2.0000      -0.566944       -15.4273
  60   2.0000      -0.554720       -15.0947
  61   2.0000      -0.542587       -14.7646
  62   2.0000      -0.534582       -14.5467
  63   2.0000      -0.526687       -14.3319
  64   2.0000      -0.522216       -14.2102
  65   2.0000      -0.513883       -13.9835
  66   2.0000      -0.501839       -13.6557
  67   2.0000      -0.499721       -13.5981
  68   2.0000      -0.485450       -13.2098
  69   2.0000      -0.464462       -12.6386
  70   2.0000      -0.453782       -12.3480
  71   2.0000      -0.442735       -12.0474
  72   2.0000      -0.354232        -9.6392
  73   2.0000      -0.351482        -9.5643
  74   2.0000      -0.328744        -8.9456
  75   2.0000      -0.324045        -8.8177
  76   2.0000      -0.316539        -8.6135
  77   0.0000       0.075174         2.0456
  78   0.0000       0.103304         2.8110
  79   0.0000       0.124121         3.3775
  80   0.0000       0.131449         3.5769
  81   0.0000       0.136974         3.7273

MULLIKEN ATOMIC CHARGES
-----------------------
   0 C :   -0.322559
   1 C :    0.035710
   2 O :   -0.374490
   3 C :    0.471113
   4 O :   -0.427824
   5 C :   -0.240151
   6 C :    0.158083
   7 C :   -0.272145
   8 N :   -0.121424
   9 C :    0.212588
  10 S :   -0.440418
  11 N :   -0.207612
  12 C :    0.073316
  13 C :    0.044114
  14 C :   -0.186134
  15 C :   -0.131973
  16 C :   -0.274733
  17 C :    0.315604
  18 O :   -0.358839
  19 C :   -0.269074
  20 H :    0.107517
  21 H :    0.099363
  22 H :    0.127810
  23 H :    0.106974
  24 H :    0.116443
  25 H :    0.131886
  26 H :    0.095300
  27 H :    0.131306
  28 H :    0.197206
  29 H :    0.195345
  30 H :    0.150447
  31 H :    0.154910
  32 H :    0.162502
  33 H :    0.131866
  34 H :    0.241052
  35 H :    0.166922
Sum of atomic charges:   -0.0000000

LOEWDIN ATOMIC CHARGES
----------------------
   0 C :    0.105067
   1 C :   -0.012704
   2 O :    0.295971
   3 C :   -0.415955
   4 O :    0.103282
   5 C :   -0.095694
   6 C :   -0.059055
   7 C :    0.131667
   8 N :    0.406637
   9 C :   -0.455956
  10 S :   -0.035744
  11 N :    0.396325
  12 C :   -0.051837
  13 C :   -0.039259
  14 C :    0.015874
  15 C :    0.039268
  16 C :   -0.001854
  17 C :   -0.190598
  18 O :    0.396148
  19 C :    0.030853
  20 H :   -0.027210
  21 H :   -0.026311
  22 H :   -0.025883
  23 H :   -0.027045
  24 H :   -0.028508
  25 H :   -0.003622
  26 H :   -0.023427
  27 H :   -0.004832
  28 H :   -0.057551
  29 H :   -0.064677
  30 H :   -0.010840
  31 H :   -0.029477
  32 H :   -0.020952
  33 H :   -0.035164
  34 H :   -0.153394
  35 H :   -0.023541

  Mayer bond orders larger than 0.100000
B(  0-C ,  1-C ) :   0.9577 B(  0-C , 20-H ) :   0.9703 B(  0-C , 21-H ) :   0.9774
B(  0-C , 22-H ) :   0.9730 B(  1-C ,  2-O ) :   0.8888 B(  1-C , 23-H ) :   0.9808
B(  1-C , 24-H ) :   0.9858 B(  2-O ,  3-C ) :   1.1469 B(  3-C ,  4-O ) :   1.9865
B(  3-C ,  5-C ) :   1.0505 B(  5-C ,  6-C ) :   1.6518 B(  5-C , 12-C ) :   0.9687
B(  6-C ,  7-C ) :   0.9657 B(  6-C ,  8-N ) :   1.1640 B(  7-C , 25-H ) :   0.9605
B(  7-C , 26-H ) :   0.9903 B(  7-C , 27-H ) :   0.9604 B(  8-N ,  9-C ) :   1.1840
B(  8-N , 28-H ) :   0.9478 B(  9-C , 10-S ) :   1.6063 B(  9-C , 11-N ) :   1.3062
B( 11-N , 12-C ) :   0.9858 B( 11-N , 29-H ) :   0.9513 B( 12-C , 13-C ) :   0.9362
B( 12-C , 30-H ) :   1.0016 B( 13-C , 14-C ) :   1.3553 B( 13-C , 19-C ) :   1.3826
B( 14-C , 15-C ) :   1.3859 B( 14-C , 31-H ) :   0.9711 B( 15-C , 16-C ) :   1.3639
B( 15-C , 32-H ) :   0.9704 B( 16-C , 17-C ) :   1.3311 B( 16-C , 33-H ) :   0.9843
B( 17-C , 18-O ) :   1.1097 B( 17-C , 19-C ) :   1.3676 B( 18-O , 34-H ) :   0.9795
B( 19-C , 35-H ) :   0.9589

MP2 TOTAL ENERGY:    -1274.343846485 Eh
FINAL SINGLE POINT ENERGY     -1274.343846485269

DIPOLE MOMENT
-------------
                                X             Y             Z
Electronic contribution:     10.07882       9.73077       6.62455
Nuclear contribution   :    -11.08678     -11.47845      -6.83734
                        -----------------------------------------
Total Dipole Moment    :     -1.00796      -1.74768      -0.21279
                        -----------------------------------------
Magnitude (a.u.)       :      2.02870
Magnitude (Debye)      :      5.15656

Rotational constants in cm-1:     0.012644     0.008723     0.006411
Rotational constants in MHz :   379.061127   261.503414   192.205872

                             ****ORCA TERMINATED NORMALLY****
TOTAL RUN TIME: 0 days 2 hours 32 minutes 4 seconds 899 msec
