                         Program Version 5.0.0 -  RELEASE  -
|  1> ! ri-mp2 cc-pvtz cc-pvtz/c TightSCF NoKeepInts
|  2>
|  3> %scf
|  4>   MaxCore 4096
|  5> end
|  6> *xyz  0  1
|  7>     C       15.2461650   14.1290385   15.1501908
|  8>     C       16.0352964   13.9511785   16.4657465
|  9>     O       16.9167194   15.0552036   16.7863802
| 10>     C       16.6149142   16.3887921   16.6654831
| 11>     O       15.6725745   16.8189181   16.0251435
| 12>     C       17.4702221   17.2410641   17.5649551
| 13>     C       17.3796295   18.5958193   17.5880468
| 14>     C       16.4572835   19.4697420   16.7647707
| 15>     N       18.2264625   19.3419910   18.4133316
| 16>     C       19.2549785   18.8248322   19.1544131
| 17>     S       20.2757549   19.7894430   20.0282389
| 18>     N       19.3992564   17.4613889   19.1322166
| 19>     C       18.4648479   16.5189033   18.4904160
| 20>     C       17.7539463   15.6934813   19.5595491
| 21>     C       18.0214588   14.3179417   19.6933945
| 22>     C       17.3665872   13.5542218   20.6742649
| 23>     C       16.4388206   14.1711507   21.5307743
| 24>     C       16.1738589   15.5416854   21.4037065
| 25>     O       15.2800407   16.1405036   22.2304621
| 26>     C       16.8268148   16.2989471   20.4263470
| 27>     H       14.3990854   14.8135965   15.2805252
| 28>     H       14.8385426   13.1660501   14.8202352
| 29>     H       15.8935959   14.5154361   14.3531833
| 30>     H       15.3179200   13.8139439   17.2855908
| 31>     H       16.6359524   13.0349874   16.4014581
| 32>     H       15.4082146   19.2536411   17.0045738
| 33>     H       16.5943331   19.2750890   15.6935177
| 34>     H       16.6209344   20.5412563   16.9285399
| 35>     H       18.1357178   20.3449801   18.4410380
| 36>     H       20.1429971   17.1065848   19.7193348
| 37>     H       19.0648075   15.8395669   17.8687808
| 38>     H       18.7356642   13.8380438   19.0297397
| 39>     H       17.5793348   12.4908593   20.7693343
| 40>     H       15.9311373   13.5860510   22.2905207
| 41>     H       14.9603057   15.4681766   22.8505201
| 42>     H       16.6128255   17.3594910   20.3492764
| 43> *
| 44>
| 45>                          ****END OF INPUT****

CARTESIAN COORDINATES (ANGSTROEM)
---------------------------------
  C     15.246165   14.129039   15.150191
  C     16.035296   13.951178   16.465747
  O     16.916719   15.055204   16.786380
  C     16.614914   16.388792   16.665483
  O     15.672574   16.818918   16.025143
  C     17.470222   17.241064   17.564955
  C     17.379629   18.595819   17.588047
  C     16.457283   19.469742   16.764771
  N     18.226463   19.341991   18.413332
  C     19.254978   18.824832   19.154413
  S     20.275755   19.789443   20.028239
  N     19.399256   17.461389   19.132217
  C     18.464848   16.518903   18.490416
  C     17.753946   15.693481   19.559549
  C     18.021459   14.317942   19.693395
  C     17.366587   13.554222   20.674265
  C     16.438821   14.171151   21.530774
  C     16.173859   15.541685   21.403706
  O     15.280041   16.140504   22.230462
  C     16.826815   16.298947   20.426347
  H     14.399085   14.813596   15.280525
  H     14.838543   13.166050   14.820235
  H     15.893596   14.515436   14.353183
  H     15.317920   13.813944   17.285591
  H     16.635952   13.034987   16.401458
  H     15.408215   19.253641   17.004574
  H     16.594333   19.275089   15.693518
  H     16.620934   20.541256   16.928540
  H     18.135718   20.344980   18.441038
  H     20.142997   17.106585   19.719335
  H     19.064807   15.839567   17.868781
  H     18.735664   13.838044   19.029740
  H     17.579335   12.490859   20.769334
  H     15.931137   13.586051   22.290521
  H     14.960306   15.468177   22.850520
  H     16.612825   17.359491   20.349276

 Total Charge           Charge          ....    0
 Multiplicity           Mult            ....    1
 Number of Electrons    NEL             ....  154
 Basis Dimension        Dim             ....  828

ORBITAL ENERGIES
----------------

  NO   OCC          E(Eh)            E(eV)
   0   2.0000     -91.887973     -2500.3989
   1   2.0000     -20.597940      -560.4985
   2   2.0000     -20.595918      -560.4434
   3   2.0000     -20.541298      -558.9571
   4   2.0000     -15.628036      -425.2605
   5   2.0000     -15.607182      -424.6930
   6   2.0000     -11.397392      -310.1388
   7   2.0000     -11.382965      -309.7462
   8   2.0000     -11.334712      -308.4332
   9   2.0000     -11.312997      -307.8423
  10   2.0000     -11.307734      -307.6991
  11   2.0000     -11.302100      -307.5458
  12   2.0000     -11.258810      -306.3678
  13   2.0000     -11.258087      -306.3481
  14   2.0000     -11.254542      -306.2517
  15   2.0000     -11.251309      -306.1637
  16   2.0000     -11.242181      -305.9153
  17   2.0000     -11.237451      -305.7866
  18   2.0000     -11.237320      -305.7830
  19   2.0000     -11.221044      -305.3401
  20   2.0000      -8.893043      -241.9920
  21   2.0000      -6.574621      -178.9045
  22   2.0000      -6.572614      -178.8499
  23   2.0000      -6.572030      -178.8340
  24   2.0000      -1.444479       -39.3063
  25   2.0000      -1.415556       -38.5192
  26   2.0000      -1.354846       -36.8672
  27   2.0000      -1.339110       -36.4390
  28   2.0000      -1.237542       -33.6752
  29   2.0000      -1.156580       -31.4721
  30   2.0000      -1.118923       -30.4475
  31   2.0000      -1.041671       -28.3453
  32   2.0000      -1.035573       -28.1794
  33   2.0000      -1.014225       -27.5985
  34   2.0000      -0.994356       -27.0578
  35   2.0000      -0.982732       -26.7415
  36   2.0000      -0.921519       -25.0758
  37   2.0000      -0.895980       -24.3808
  38   2.0000      -0.846461       -23.0334
  39   2.0000      -0.837241       -22.7825
  40   2.0000      -0.833208       -22.6727
  41   2.0000      -0.818629       -22.2760
  42   2.0000      -0.747447       -20.3391
  43   2.0000      -0.729990       -19.8640
  44   2.0000      -0.719010       -19.5653
  45   2.0000      -0.694944       -18.9104
  46   2.0000      -0.687532       -18.7087
  47   2.0000      -0.678631       -18.4665
  48   2.0000      -0.668154       -18.1814
  49   2.0000      -0.656841       -17.8736
  50   2.0000      -0.650668       -17.7056
  51   2.0000      -0.644314       -17.5327
  52   2.0000      -0.634095       -17.2546
  53   2.0000      -0.606228       -16.4963
  54   2.0000      -0.601200       -16.3595
  55   2.0000      -0.598108       -16.2754
  56   2.0000      -0.597235       -16.2516
  57   2.0000      -0.582558       -15.8522
  58   2.0000      -0.574642       -15.6368
  59   2.0000      -0.570130       -15.5140
  60   2.0000      -0.561706       -15.2848
  61   2.0000      -0.538358       -14.6495
  62   2.0000      -0.535394       -14.5688
  63   2.0000      -0.524092       -14.2613
  64   2.0000      -0.521373       -14.1873
  65   2.0000      -0.512136       -13.9359
  66   2.0000      -0.501902       -13.6575
  67   2.0000      -0.498775       -13.5724
  68   2.0000      -0.483400       -13.1540
  69   2.0000      -0.463269       -12.6062
  70   2.0000      -0.453905       -12.3514
  71   2.0000      -0.439303       -11.9540
  72   2.0000      -0.353124        -9.6090
  73   2.0000      -0.348530        -9.4840
  74   2.0000      -0.327404        -8.9091
  75   2.0000      -0.320584        -8.7235
  76   2.0000      -0.315129        -8.5751
  77   0.0000       0.076852         2.0913
  78   0.0000       0.107841         2.9345
  79   0.0000       0.125009         3.4017
  80   0.0000       0.133191         3.6243
  81   0.0000       0.137848         3.7510

MULLIKEN ATOMIC CHARGES
-----------------------
   0 C :   -0.286651
   1 C :    0.050228
   2 O :   -0.367173
   3 C :    0.462171
   4 O :   -0.432012
   5 C :   -0.204642
   6 C :    0.147267
   7 C :   -0.273526
   8 N :   -0.120406
   9 C :    0.212433
  10 S :   -0.441488
  11 N :   -0.204285
  12 C :    0.054429
  13 C :    0.071794
  14 C :   -0.191525
  15 C :   -0.130306
  16 C :   -0.280029
  17 C :    0.316253
  18 O :   -0.356590
  19 C :   -0.270197
  20 H :    0.119735
  21 H :    0.093940
  22 H :    0.098028
  23 H :    0.091459
  24 H :    0.098656
  25 H :    0.132286
  26 H :    0.129468
  27 H :    0.095057
  28 H :    0.197154
  29 H :    0.194219
  30 H :    0.149004
  31 H :    0.150214
  32 H :    0.159922
  33 H :    0.129752
  34 H :    0.240567
  35 H :    0.164794
Sum of atomic charges:    0.0000000

LOEWDIN ATOMIC CHARGES
----------------------
   0 C :    0.102678
   1 C :   -0.009974
   2 O :    0.295789
   3 C :   -0.412228
   4 O :    0.107682
   5 C :   -0.093561
   6 C :   -0.059522
   7 C :    0.130618
   8 N :    0.406351
   9 C :   -0.456683
  10 S :   -0.036631
  11 N :    0.396365
  12 C :   -0.052694
  13 C :   -0.037715
  14 C :    0.013854
  15 C :    0.038634
  16 C :   -0.002552
  17 C :   -0.189541
  18 O :    0.395167
  19 C :    0.031229
  20 H :   -0.025963
  21 H :   -0.029593
  22 H :   -0.025752
  23 H :   -0.028373
  24 H :   -0.025074
  25 H :   -0.004853
  26 H :   -0.004508
  27 H :   -0.023599
  28 H :   -0.057772
  29 H :   -0.064791
  30 H :   -0.011173
  31 H :   -0.030545
  32 H :   -0.021575
  33 H :   -0.035822
  34 H :   -0.154055
  35 H :   -0.023819

  Mayer bond orders larger than 0.100000
B(  0-C ,  1-C ) :   0.9777 B(  0-C , 20-H ) :   0.9723 B(  0-C , 21-H ) :   0.9767
B(  0-C , 22-H ) :   0.9758 B(  1-C ,  2-O ) :   0.8944 B(  1-C , 23-H ) :   0.9738
B(  1-C , 24-H ) :   0.9827 B(  2-O ,  3-C ) :   1.1415 B(  3-C ,  4-O ) :   1.9700
B(  3-C ,  5-C ) :   1.0670 B(  5-C ,  6-C ) :   1.6566 B(  5-C , 12-C ) :   0.9750
B(  6-C ,  7-C ) :   0.9676 B(  6-C ,  8-N ) :   1.1621 B(  7-C , 25-H ) :   0.9599
B(  7-C , 26-H ) :   0.9609 B(  7-C , 27-H ) :   0.9910 B(  8-N ,  9-C ) :   1.1832
B(  8-N , 28-H ) :   0.9480 B(  9-C , 10-S ) :   1.6057 B(  9-C , 11-N ) :   1.3058
B( 11-N , 12-C ) :   0.9850 B( 11-N , 29-H ) :   0.9517 B( 12-C , 13-C ) :   0.9363
B( 12-C , 30-H ) :   1.0024 B( 13-C , 14-C ) :   1.3525 B( 13-C , 19-C ) :   1.3838
B( 14-C , 15-C ) :   1.3914 B( 14-C , 31-H ) :   0.9720 B( 15-C , 16-C ) :   1.3634
B( 15-C , 32-H ) :   0.9708 B( 16-C , 17-C ) :   1.3316 B( 16-C , 33-H ) :   0.9852
B( 17-C , 18-O ) :   1.1103 B( 17-C , 19-C ) :   1.3722 B( 18-O , 34-H ) :   0.9800
B( 19-C , 35-H ) :   0.9583

MP2 TOTAL ENERGY:    -1274.340038845 Eh
FINAL SINGLE POINT ENERGY     -1274.340038845020

DIPOLE MOMENT
-------------
                                X             Y             Z
Electronic contribution:      9.99010       9.85375       9.66221
Nuclear contribution   :    -11.03415     -11.61081     -10.02933
                        -----------------------------------------
Total Dipole Moment    :     -1.04406      -1.75706      -0.36713
                        -----------------------------------------
Magnitude (a.u.)       :      2.07655
Magnitude (Debye)      :      5.27818

Rotational constants in cm-1:     0.011289     0.008755     0.006046
Rotational constants in MHz :   338.425285   262.481365   181.252918

                             ****ORCA TERMINATED NORMALLY****
TOTAL RUN TIME: 0 days 1 hours 36 minutes 39 seconds 441 msec
