                         Program Version 4.2.0 -  RELEASE  -
|  1> ! ri-mp2 cc-pvtz cc-pvtz/c TightSCF  NoKeepInts
|  2>
|  3> %scf
|  4>   MaxCore 4096
|  5> end
|  6> *xyz  0  1
|  7>     C       14.5524862   14.4262184   16.6639210
|  8>     C       15.6024748   15.5278571   16.8782035
|  9>     O       16.8675911   14.9926026   16.4484590
| 10>     C       18.0742144   15.6311952   16.5938146
| 11>     O       19.1011156   14.9874241   16.4852946
| 12>     C       18.0523552   16.8751493   17.4190638
| 13>     C       17.5591179   18.0459782   16.9552876
| 14>     C       16.9963529   18.3146571   15.5761269
| 15>     N       17.6256623   19.1917003   17.7506918
| 16>     C       18.2581203   19.2612235   18.9651566
| 17>     S       18.3397032   20.6736213   19.8208044
| 18>     N       18.8177172   18.0991062   19.4382065
| 19>     C       18.7080675   16.7738134   18.7954296
| 20>     C       17.9584273   15.7788233   19.6769559
| 21>     C       18.3873725   14.4406921   19.7465201
| 22>     C       17.6908975   13.5041159   20.5280285
| 23>     C       16.5522050   13.9068764   21.2458346
| 24>     C       16.1174614   15.2369606   21.1751518
| 25>     O       15.0097439   15.6261977   21.8547165
| 26>     C       16.8124284   16.1677320   20.3962730
| 27>     H       14.8074398   13.5341409   17.2501402
| 28>     H       14.5001474   14.1405763   15.6058720
| 29>     H       13.5600949   14.7713083   16.9783782
| 30>     H       15.3219003   16.4096117   16.2926876
| 31>     H       15.6312876   15.7956611   17.9419966
| 32>     H       17.0492816   17.4354157   14.9222475
| 33>     H       17.5621857   19.1119213   15.0769960
| 34>     H       15.9472896   18.6308250   15.6299802
| 35>     H       17.2389207   20.0596721   17.4139713
| 36>     H       19.2625224   18.1773068   20.3442427
| 37>     H       19.7290334   16.3913410   18.6474218
| 38>     H       19.2569527   14.1209411   19.1756901
| 39>     H       18.0311892   12.4706602   20.5677622
| 40>     H       16.0094692   13.1852053   21.8474205
| 41>     H       14.7036733   14.8652355   22.3712784
| 42>     H       16.4520978   17.1902329   20.3539748
| 43> *
| 44>
| 45>                          ****END OF INPUT****

CARTESIAN COORDINATES (ANGSTROEM)
---------------------------------
  C     14.552486   14.426218   16.663921
  C     15.602475   15.527857   16.878204
  O     16.867591   14.992603   16.448459
  C     18.074214   15.631195   16.593815
  O     19.101116   14.987424   16.485295
  C     18.052355   16.875149   17.419064
  C     17.559118   18.045978   16.955288
  C     16.996353   18.314657   15.576127
  N     17.625662   19.191700   17.750692
  C     18.258120   19.261223   18.965157
  S     18.339703   20.673621   19.820804
  N     18.817717   18.099106   19.438206
  C     18.708067   16.773813   18.795430
  C     17.958427   15.778823   19.676956
  C     18.387373   14.440692   19.746520
  C     17.690897   13.504116   20.528028
  C     16.552205   13.906876   21.245835
  C     16.117461   15.236961   21.175152
  O     15.009744   15.626198   21.854716
  C     16.812428   16.167732   20.396273
  H     14.807440   13.534141   17.250140
  H     14.500147   14.140576   15.605872
  H     13.560095   14.771308   16.978378
  H     15.321900   16.409612   16.292688
  H     15.631288   15.795661   17.941997
  H     17.049282   17.435416   14.922247
  H     17.562186   19.111921   15.076996
  H     15.947290   18.630825   15.629980
  H     17.238921   20.059672   17.413971
  H     19.262522   18.177307   20.344243
  H     19.729033   16.391341   18.647422
  H     19.256953   14.120941   19.175690
  H     18.031189   12.470660   20.567762
  H     16.009469   13.185205   21.847420
  H     14.703673   14.865235   22.371278
  H     16.452098   17.190233   20.353975

 Total Charge           Charge          ....    0
 Multiplicity           Mult            ....    1
 Number of Electrons    NEL             ....  154
 Basis Dimension        Dim             ....  828

ORBITAL ENERGIES
----------------

  NO   OCC          E(Eh)            E(eV)
   0   2.0000     -91.889928     -2500.4521
   1   2.0000     -20.601830      -560.6043
   2   2.0000     -20.599922      -560.5524
   3   2.0000     -20.550865      -559.2175
   4   2.0000     -15.626361      -425.2149
   5   2.0000     -15.611881      -424.8209
   6   2.0000     -11.397694      -310.1470
   7   2.0000     -11.386835      -309.8515
   8   2.0000     -11.328380      -308.2609
   9   2.0000     -11.316886      -307.9481
  10   2.0000     -11.315916      -307.9217
  11   2.0000     -11.302450      -307.5553
  12   2.0000     -11.270793      -306.6939
  13   2.0000     -11.265224      -306.5423
  14   2.0000     -11.264069      -306.5109
  15   2.0000     -11.256867      -306.3149
  16   2.0000     -11.246018      -306.0197
  17   2.0000     -11.242237      -305.9168
  18   2.0000     -11.239072      -305.8307
  19   2.0000     -11.232332      -305.6473
  20   2.0000      -8.895049      -242.0466
  21   2.0000      -6.576639      -178.9595
  22   2.0000      -6.574611      -178.9043
  23   2.0000      -6.574038      -178.8887
  24   2.0000      -1.449465       -39.4419
  25   2.0000      -1.419741       -38.6331
  26   2.0000      -1.360320       -37.0162
  27   2.0000      -1.340025       -36.4639
  28   2.0000      -1.240015       -33.7425
  29   2.0000      -1.161445       -31.6045
  30   2.0000      -1.125841       -30.6357
  31   2.0000      -1.049389       -28.5553
  32   2.0000      -1.040287       -28.3076
  33   2.0000      -1.019204       -27.7340
  34   2.0000      -1.005523       -27.3617
  35   2.0000      -0.989490       -26.9254
  36   2.0000      -0.928212       -25.2579
  37   2.0000      -0.880411       -23.9572
  38   2.0000      -0.856046       -23.2942
  39   2.0000      -0.842072       -22.9139
  40   2.0000      -0.837384       -22.7864
  41   2.0000      -0.836672       -22.7670
  42   2.0000      -0.757147       -20.6030
  43   2.0000      -0.739912       -20.1340
  44   2.0000      -0.731873       -19.9153
  45   2.0000      -0.697769       -18.9873
  46   2.0000      -0.688530       -18.7359
  47   2.0000      -0.681551       -18.5460
  48   2.0000      -0.677633       -18.4393
  49   2.0000      -0.663098       -18.0438
  50   2.0000      -0.657362       -17.8877
  51   2.0000      -0.651080       -17.7168
  52   2.0000      -0.639856       -17.4114
  53   2.0000      -0.612442       -16.6654
  54   2.0000      -0.608030       -16.5453
  55   2.0000      -0.603680       -16.4270
  56   2.0000      -0.595393       -16.2015
  57   2.0000      -0.583246       -15.8709
  58   2.0000      -0.577345       -15.7104
  59   2.0000      -0.572407       -15.5760
  60   2.0000      -0.564408       -15.3583
  61   2.0000      -0.557385       -15.1672
  62   2.0000      -0.552882       -15.0447
  63   2.0000      -0.527007       -14.3406
  64   2.0000      -0.518874       -14.1193
  65   2.0000      -0.515620       -14.0307
  66   2.0000      -0.506545       -13.7838
  67   2.0000      -0.502529       -13.6745
  68   2.0000      -0.488162       -13.2836
  69   2.0000      -0.469775       -12.7832
  70   2.0000      -0.453796       -12.3484
  71   2.0000      -0.451071       -12.2743
  72   2.0000      -0.357261        -9.7216
  73   2.0000      -0.351654        -9.5690
  74   2.0000      -0.329643        -8.9700
  75   2.0000      -0.324607        -8.8330
  76   2.0000      -0.318616        -8.6700
  77   0.0000       0.087467         2.3801
  78   0.0000       0.104430         2.8417
  79   0.0000       0.111741         3.0406
  80   0.0000       0.128571         3.4986
  81   0.0000       0.130976         3.5641

MULLIKEN ATOMIC CHARGES
-----------------------
   0 C :   -0.261825
   1 C :    0.020280
   2 O :   -0.302548
   3 C :    0.392155
   4 O :   -0.380890
   5 C :   -0.187429
   6 C :    0.147893
   7 C :   -0.330025
   8 N :   -0.141218
   9 C :    0.205996
  10 S :   -0.441421
  11 N :   -0.220207
  12 C :    0.078227
  13 C :    0.026544
  14 C :   -0.197943
  15 C :   -0.131730
  16 C :   -0.274821
  17 C :    0.325160
  18 O :   -0.357651
  19 C :   -0.293728
  20 H :    0.107525
  21 H :    0.101469
  22 H :    0.088407
  23 H :    0.083554
  24 H :    0.109293
  25 H :    0.122787
  26 H :    0.142805
  27 H :    0.119935
  28 H :    0.195803
  29 H :    0.200246
  30 H :    0.165997
  31 H :    0.168755
  32 H :    0.164064
  33 H :    0.132477
  34 H :    0.241525
  35 H :    0.180542
Sum of atomic charges:   -0.0000000

LOEWDIN ATOMIC CHARGES
----------------------
   0 C :    0.112518
   1 C :   -0.025856
   2 O :    0.310730
   3 C :   -0.416755
   4 O :    0.124739
   5 C :   -0.080020
   6 C :   -0.104421
   7 C :    0.122143
   8 N :    0.401100
   9 C :   -0.455773
  10 S :   -0.038209
  11 N :    0.397367
  12 C :   -0.043316
  13 C :   -0.043162
  14 C :    0.023297
  15 C :    0.046185
  16 C :   -0.000136
  17 C :   -0.194144
  18 O :    0.394867
  19 C :    0.025924
  20 H :   -0.022586
  21 H :   -0.025956
  22 H :   -0.025138
  23 H :   -0.038688
  24 H :   -0.033078
  25 H :   -0.009107
  26 H :   -0.008995
  27 H :   -0.017767
  28 H :   -0.057977
  29 H :   -0.063666
  30 H :   -0.002034
  31 H :   -0.021579
  32 H :   -0.018240
  33 H :   -0.034618
  34 H :   -0.152917
  35 H :   -0.024731

  Mayer bond orders larger than 0.100000
B(  0-C ,  1-C ) :   0.9856 B(  0-C , 20-H ) :   0.9792 B(  0-C , 21-H ) :   0.9789
B(  0-C , 22-H ) :   0.9770 B(  1-C ,  2-O ) :   0.9139 B(  1-C , 23-H ) :   0.9724
B(  1-C , 24-H ) :   0.9579 B(  2-O ,  3-C ) :   1.1824 B(  3-C ,  4-O ) :   2.0924
B(  3-C ,  5-C ) :   0.9194 B(  5-C ,  6-C ) :   1.6848 B(  5-C , 12-C ) :   0.9569
B(  6-C ,  7-C ) :   0.9449 B(  6-C ,  8-N ) :   1.1166 B(  7-C , 25-H ) :   0.9818
B(  7-C , 26-H ) :   0.9669 B(  7-C , 27-H ) :   0.9675 B(  8-N ,  9-C ) :   1.1978
B(  8-N , 28-H ) :   0.9528 B(  9-C , 10-S ) :   1.6097 B(  9-C , 11-N ) :   1.2863
B( 11-N , 12-C ) :   0.9938 B( 11-N , 29-H ) :   0.9481 B( 12-C , 13-C ) :   0.9445
B( 12-C , 30-H ) :   0.9971 B( 13-C , 14-C ) :   1.3880 B( 13-C , 19-C ) :   1.3405
B( 14-C , 15-C ) :   1.3982 B( 14-C , 31-H ) :   0.9611 B( 15-C , 16-C ) :   1.3626
B( 15-C , 32-H ) :   0.9697 B( 16-C , 17-C ) :   1.3306 B( 16-C , 33-H ) :   0.9843
B( 17-C , 18-O ) :   1.1095 B( 17-C , 19-C ) :   1.3621 B( 18-O , 34-H ) :   0.9793
B( 19-C , 35-H ) :   0.9579

MP2 TOTAL ENERGY:    -1274.331778911 Eh
FINAL SINGLE POINT ENERGY     -1274.331778911220

DIPOLE MOMENT
-------------
                                X             Y             Z
Electronic contribution:     10.64043       8.32988       7.26167
Nuclear contribution   :    -12.17777      -9.36611      -7.72018
                        -----------------------------------------
Total Dipole Moment    :     -1.53733      -1.03622      -0.45851
                        -----------------------------------------
Magnitude (a.u.)       :      1.90981
Magnitude (Debye)      :      4.85436

Rotational constants in cm-1:     0.011933     0.009065     0.006732
Rotational constants in MHz :   357.740185   271.751005   201.813551

                             ****ORCA TERMINATED NORMALLY****
TOTAL RUN TIME: 0 days 1 hours 48 minutes 46 seconds 108 msec
