                         Program Version 4.2.0 -  RELEASE  -
|  1> ! ri-mp2 cc-pvtz cc-pvtz/c TightSCF  NoKeepInts
|  2>
|  3> %scf
|  4>   MaxCore 4096
|  5> end
|  6> *xyz  0  1
|  7>     C       16.0718564   13.7779577   14.9494472
|  8>     C       15.4128451   14.3759361   16.2039547
|  9>     O       16.3742615   15.2518816   16.8206595
| 10>     C       16.1531095   16.6007694   16.8831433
| 11>     O       15.2078290   17.1384734   16.3315772
| 12>     C       17.2152081   17.3244059   17.6644840
| 13>     C       17.2486271   18.6772709   17.7700751
| 14>     C       16.2783734   19.6688591   17.1643848
| 15>     N       18.2833765   19.3002879   18.4743773
| 16>     C       19.3686720   18.6562704   19.0058070
| 17>     S       20.6008433   19.4791216   19.7410533
| 18>     N       19.3836856   17.2893265   18.8952787
| 19>     C       18.2772079   16.4669893   18.3722581
| 20>     C       17.6741172   15.6345037   19.5001381
| 21>     C       17.7795365   14.2309161   19.4865574
| 22>     C       17.2244872   13.4620635   20.5233902
| 23>     C       16.5607047   14.1015273   21.5842684
| 24>     C       16.4569569   15.4992075   21.6028155
| 25>     O       15.8172994   16.1195745   22.6260716
| 26>     C       17.0101336   16.2616483   20.5694653
| 27>     H       16.3173867   14.5691410   14.2298782
| 28>     H       15.3933640   13.0688117   14.4598883
| 29>     H       16.9952603   13.2467328   15.2112194
| 30>     H       14.4825831   14.8937239   15.9339387
| 31>     H       15.1587135   13.5670427   16.9010390
| 32>     H       15.2618942   19.4894392   17.5375446
| 33>     H       16.2492697   19.5627994   16.0724790
| 34>     H       16.5335948   20.7111071   17.3887766
| 35>     H       18.2897143   20.3037542   18.5640599
| 36>     H       20.1782597   16.8394088   19.3312280
| 37>     H       18.7059853   15.7831820   17.6262521
| 38>     H       18.2871228   13.7338085   18.6642837
| 39>     H       17.3091624   12.3770091   20.5025892
| 40>     H       16.1305079   13.5122094   22.3872993
| 41>     H       15.5297518   15.4344703   23.2479136
| 42>     H       16.9252989   17.3423693   20.6064037
| 43> *
| 44>
| 45>                          ****END OF INPUT****

CARTESIAN COORDINATES (ANGSTROEM)
---------------------------------
  C     16.071856   13.777958   14.949447
  C     15.412845   14.375936   16.203955
  O     16.374261   15.251882   16.820660
  C     16.153109   16.600769   16.883143
  O     15.207829   17.138473   16.331577
  C     17.215208   17.324406   17.664484
  C     17.248627   18.677271   17.770075
  C     16.278373   19.668859   17.164385
  N     18.283376   19.300288   18.474377
  C     19.368672   18.656270   19.005807
  S     20.600843   19.479122   19.741053
  N     19.383686   17.289327   18.895279
  C     18.277208   16.466989   18.372258
  C     17.674117   15.634504   19.500138
  C     17.779536   14.230916   19.486557
  C     17.224487   13.462063   20.523390
  C     16.560705   14.101527   21.584268
  C     16.456957   15.499208   21.602815
  O     15.817299   16.119574   22.626072
  C     17.010134   16.261648   20.569465
  H     16.317387   14.569141   14.229878
  H     15.393364   13.068812   14.459888
  H     16.995260   13.246733   15.211219
  H     14.482583   14.893724   15.933939
  H     15.158713   13.567043   16.901039
  H     15.261894   19.489439   17.537545
  H     16.249270   19.562799   16.072479
  H     16.533595   20.711107   17.388777
  H     18.289714   20.303754   18.564060
  H     20.178260   16.839409   19.331228
  H     18.705985   15.783182   17.626252
  H     18.287123   13.733809   18.664284
  H     17.309162   12.377009   20.502589
  H     16.130508   13.512209   22.387299
  H     15.529752   15.434470   23.247914
  H     16.925299   17.342369   20.606404

 Total Charge           Charge          ....    0
 Multiplicity           Mult            ....    1
 Number of Electrons    NEL             ....  154
 Basis Dimension        Dim             ....  828

ORBITAL ENERGIES
----------------

  NO   OCC          E(Eh)            E(eV)
   0   2.0000     -91.888577     -2500.4153
   1   2.0000     -20.602739      -560.6290
   2   2.0000     -20.595267      -560.4257
   3   2.0000     -20.541341      -558.9583
   4   2.0000     -15.628763      -425.2803
   5   2.0000     -15.607857      -424.7114
   6   2.0000     -11.395811      -310.0958
   7   2.0000     -11.383643      -309.7647
   8   2.0000     -11.335760      -308.4617
   9   2.0000     -11.312312      -307.8236
  10   2.0000     -11.308317      -307.7150
  11   2.0000     -11.295900      -307.3771
  12   2.0000     -11.258783      -306.3671
  13   2.0000     -11.258365      -306.3557
  14   2.0000     -11.253814      -306.2318
  15   2.0000     -11.251702      -306.1744
  16   2.0000     -11.241771      -305.9041
  17   2.0000     -11.237294      -305.7823
  18   2.0000     -11.237094      -305.7769
  19   2.0000     -11.229499      -305.5702
  20   2.0000      -8.893638      -242.0082
  21   2.0000      -6.575213      -178.9207
  22   2.0000      -6.573209      -178.8661
  23   2.0000      -6.572622      -178.8501
  24   2.0000      -1.451215       -39.4896
  25   2.0000      -1.414922       -38.5020
  26   2.0000      -1.355149       -36.8755
  27   2.0000      -1.339712       -36.4554
  28   2.0000      -1.238087       -33.6901
  29   2.0000      -1.156483       -31.4695
  30   2.0000      -1.119928       -30.4748
  31   2.0000      -1.042844       -28.3772
  32   2.0000      -1.039106       -28.2755
  33   2.0000      -1.013762       -27.5859
  34   2.0000      -0.995394       -27.0860
  35   2.0000      -0.983914       -26.7737
  36   2.0000      -0.921879       -25.0856
  37   2.0000      -0.891984       -24.2721
  38   2.0000      -0.846466       -23.0335
  39   2.0000      -0.836611       -22.7653
  40   2.0000      -0.832807       -22.6618
  41   2.0000      -0.817023       -22.2323
  42   2.0000      -0.763225       -20.7684
  43   2.0000      -0.731554       -19.9066
  44   2.0000      -0.722268       -19.6539
  45   2.0000      -0.694415       -18.8960
  46   2.0000      -0.686812       -18.6891
  47   2.0000      -0.680482       -18.5169
  48   2.0000      -0.673281       -18.3209
  49   2.0000      -0.657246       -17.8846
  50   2.0000      -0.645453       -17.5637
  51   2.0000      -0.644032       -17.5250
  52   2.0000      -0.632435       -17.2094
  53   2.0000      -0.607605       -16.5338
  54   2.0000      -0.605395       -16.4736
  55   2.0000      -0.598530       -16.2868
  56   2.0000      -0.597758       -16.2658
  57   2.0000      -0.577602       -15.7173
  58   2.0000      -0.570368       -15.5205
  59   2.0000      -0.568015       -15.4565
  60   2.0000      -0.563169       -15.3246
  61   2.0000      -0.541988       -14.7482
  62   2.0000      -0.539746       -14.6872
  63   2.0000      -0.530941       -14.4476
  64   2.0000      -0.523930       -14.2569
  65   2.0000      -0.512912       -13.9571
  66   2.0000      -0.501123       -13.6362
  67   2.0000      -0.497047       -13.5253
  68   2.0000      -0.485450       -13.2098
  69   2.0000      -0.463636       -12.6162
  70   2.0000      -0.454256       -12.3609
  71   2.0000      -0.449516       -12.2319
  72   2.0000      -0.354092        -9.6353
  73   2.0000      -0.348277        -9.4771
  74   2.0000      -0.327864        -8.9216
  75   2.0000      -0.320079        -8.7098
  76   2.0000      -0.315557        -8.5867
  77   0.0000       0.076893         2.0924
  78   0.0000       0.107843         2.9346
  79   0.0000       0.123105         3.3499
  80   0.0000       0.132682         3.6105
  81   0.0000       0.135838         3.6964

MULLIKEN ATOMIC CHARGES
-----------------------
   0 C :   -0.268447
   1 C :    0.015436
   2 O :   -0.348970
   3 C :    0.477811
   4 O :   -0.436921
   5 C :   -0.225195
   6 C :    0.148432
   7 C :   -0.274359
   8 N :   -0.119987
   9 C :    0.210069
  10 S :   -0.440004
  11 N :   -0.202882
  12 C :    0.044612
  13 C :    0.068047
  14 C :   -0.178490
  15 C :   -0.134105
  16 C :   -0.277760
  17 C :    0.315429
  18 O :   -0.356855
  19 C :   -0.268055
  20 H :    0.099099
  21 H :    0.091729
  22 H :    0.091051
  23 H :    0.124135
  24 H :    0.103768
  25 H :    0.132090
  26 H :    0.130793
  27 H :    0.094772
  28 H :    0.197321
  29 H :    0.194369
  30 H :    0.151349
  31 H :    0.148137
  32 H :    0.159350
  33 H :    0.129157
  34 H :    0.240490
  35 H :    0.164585
Sum of atomic charges:   -0.0000000

LOEWDIN ATOMIC CHARGES
----------------------
   0 C :    0.104133
   1 C :   -0.012603
   2 O :    0.311453
   3 C :   -0.413093
   4 O :    0.093993
   5 C :   -0.094183
   6 C :   -0.058830
   7 C :    0.131411
   8 N :    0.406511
   9 C :   -0.456817
  10 S :   -0.035620
  11 N :    0.396636
  12 C :   -0.052954
  13 C :   -0.038977
  14 C :    0.014277
  15 C :    0.038884
  16 C :   -0.001361
  17 C :   -0.189526
  18 O :    0.395005
  19 C :    0.031638
  20 H :   -0.025774
  21 H :   -0.025838
  22 H :   -0.029766
  23 H :   -0.028020
  24 H :   -0.028897
  25 H :   -0.004460
  26 H :   -0.004101
  27 H :   -0.023503
  28 H :   -0.057610
  29 H :   -0.064531
  30 H :   -0.011633
  31 H :   -0.030572
  32 H :   -0.021671
  33 H :   -0.035725
  34 H :   -0.154091
  35 H :   -0.023786

  Mayer bond orders larger than 0.100000
B(  0-C ,  1-C ) :   0.9706 B(  0-C , 20-H ) :   0.9789 B(  0-C , 21-H ) :   0.9754
B(  0-C , 22-H ) :   0.9791 B(  1-C ,  2-O ) :   0.8849 B(  1-C , 23-H ) :   0.9744
B(  1-C , 24-H ) :   0.9808 B(  2-O ,  3-C ) :   1.1766 B(  3-C ,  4-O ) :   1.9664
B(  3-C ,  5-C ) :   1.0571 B(  5-C ,  6-C ) :   1.6567 B(  5-C , 12-C ) :   0.9719
B(  6-C ,  7-C ) :   0.9674 B(  6-C ,  8-N ) :   1.1653 B(  7-C , 25-H ) :   0.9609
B(  7-C , 26-H ) :   0.9600 B(  7-C , 27-H ) :   0.9903 B(  8-N ,  9-C ) :   1.1825
B(  8-N , 28-H ) :   0.9480 B(  9-C , 10-S ) :   1.6078 B(  9-C , 11-N ) :   1.3047
B( 11-N , 12-C ) :   0.9896 B( 11-N , 29-H ) :   0.9517 B( 12-C , 13-C ) :   0.9362
B( 12-C , 30-H ) :   1.0036 B( 13-C , 14-C ) :   1.3558 B( 13-C , 19-C ) :   1.3825
B( 14-C , 15-C ) :   1.3935 B( 14-C , 31-H ) :   0.9718 B( 15-C , 16-C ) :   1.3640
B( 15-C , 32-H ) :   0.9709 B( 16-C , 17-C ) :   1.3316 B( 16-C , 33-H ) :   0.9854
B( 17-C , 18-O ) :   1.1096 B( 17-C , 19-C ) :   1.3737 B( 18-O , 34-H ) :   0.9801
B( 19-C , 35-H ) :   0.9583

MP2 TOTAL ENERGY:    -1274.350292791 Eh
FINAL SINGLE POINT ENERGY     -1274.350292790539

DIPOLE MOMENT
-------------
                                X             Y             Z
Electronic contribution:      8.78888       9.75670      10.10784
Nuclear contribution   :     -9.97501     -11.37448     -10.48172
                        -----------------------------------------
Total Dipole Moment    :     -1.18614      -1.61779      -0.37388
                        -----------------------------------------
Magnitude (a.u.)       :      2.04057
Magnitude (Debye)      :      5.18673

Rotational constants in cm-1:     0.010768     0.008751     0.006067
Rotational constants in MHz :   322.804614   262.359842   181.895765

                             ****ORCA TERMINATED NORMALLY****
TOTAL RUN TIME: 0 days 1 hours 44 minutes 1 seconds 869 msec
