                         Program Version 4.2.0 -  RELEASE  -
|  1> ! ri-mp2 cc-pvtz cc-pvtz/c TightSCF  NoKeepInts
|  2>
|  3> %scf
|  4>   MaxCore 4096
|  5> end
|  6> *xyz  0  1
|  7>     C       14.9769401   14.2365574   15.9552602
|  8>     C       16.2230939   14.1330778   16.8589018
|  9>     O       17.2567383   15.0839693   16.5062165
| 10>     C       17.0015655   16.4206284   16.3574854
| 11>     O       16.2219489   16.8457218   15.5236889
| 12>     C       17.6424442   17.2653310   17.4269178
| 13>     C       17.4582572   18.6091216   17.4987070
| 14>     C       16.5982913   19.4695315   16.5974639
| 15>     N       18.1321087   19.3589472   18.4675551
| 16>     C       19.1037055   18.8703356   19.2992414
| 17>     S       19.9436003   19.8484858   20.3353654
| 18>     N       19.3524008   17.5240538   19.2226071
| 19>     C       18.5542168   16.5587621   18.4458006
| 20>     C       17.7797320   15.6613423   19.4055509
| 21>     C       18.1998846   14.3370628   19.6324431
| 22>     C       17.4882575   13.5018036   20.5099359
| 23>     C       16.3507093   13.9960552   21.1706870
| 24>     C       15.9359427   15.3174932   20.9557053
| 25>     O       14.8396676   15.7984958   21.5937676
| 26>     C       16.6446982   16.1457793   20.0801212
| 27>     H       14.4019921   15.1451695   16.1727472
| 28>     H       14.3148638   13.3780435   16.1194112
| 29>     H       15.2639428   14.2490133   14.8961449
| 30>     H       15.9122926   14.2864438   17.9001162
| 31>     H       16.6373671   13.1195858   16.7844604
| 32>     H       15.5527679   19.1373280   16.6299970
| 33>     H       16.9334362   19.3913055   15.5552522
| 34>     H       16.6161280   20.5308591   16.8714098
| 35>     H       17.9674849   20.3508884   18.5314548
| 36>     H       20.0529575   17.1882173   19.8708624
| 37>     H       19.2576583   15.9323637   17.8790578
| 38>     H       19.0786576   13.9520178   19.1215895
| 39>     H       17.8203788   12.4785893   20.6783270
| 40>     H       15.7989889   13.3554660   21.8511086
| 41>     H       14.5223144   15.1063458   22.1933278
| 42>     H       16.3115659   17.1678075   19.9353114
| 43> *
| 44>
| 45>                          ****END OF INPUT****

CARTESIAN COORDINATES (ANGSTROEM)
---------------------------------
  C     14.976940   14.236557   15.955260
  C     16.223094   14.133078   16.858902
  O     17.256738   15.083969   16.506217
  C     17.001566   16.420628   16.357485
  O     16.221949   16.845722   15.523689
  C     17.642444   17.265331   17.426918
  C     17.458257   18.609122   17.498707
  C     16.598291   19.469531   16.597464
  N     18.132109   19.358947   18.467555
  C     19.103706   18.870336   19.299241
  S     19.943600   19.848486   20.335365
  N     19.352401   17.524054   19.222607
  C     18.554217   16.558762   18.445801
  C     17.779732   15.661342   19.405551
  C     18.199885   14.337063   19.632443
  C     17.488257   13.501804   20.509936
  C     16.350709   13.996055   21.170687
  C     15.935943   15.317493   20.955705
  O     14.839668   15.798496   21.593768
  C     16.644698   16.145779   20.080121
  H     14.401992   15.145169   16.172747
  H     14.314864   13.378044   16.119411
  H     15.263943   14.249013   14.896145
  H     15.912293   14.286444   17.900116
  H     16.637367   13.119586   16.784460
  H     15.552768   19.137328   16.629997
  H     16.933436   19.391305   15.555252
  H     16.616128   20.530859   16.871410
  H     17.967485   20.350888   18.531455
  H     20.052958   17.188217   19.870862
  H     19.257658   15.932364   17.879058
  H     19.078658   13.952018   19.121589
  H     17.820379   12.478589   20.678327
  H     15.798989   13.355466   21.851109
  H     14.522314   15.106346   22.193328
  H     16.311566   17.167807   19.935311

 Total Charge           Charge          ....    0
 Multiplicity           Mult            ....    1
 Number of Electrons    NEL             ....  154
 Basis Dimension        Dim             ....  828

ORBITAL ENERGIES
----------------

  NO   OCC          E(Eh)            E(eV)
   0   2.0000     -91.889851     -2500.4500
   1   2.0000     -20.601335      -560.5908
   2   2.0000     -20.585560      -560.1616
   3   2.0000     -20.545042      -559.0590
   4   2.0000     -15.630213      -425.3197
   5   2.0000     -15.609142      -424.7463
   6   2.0000     -11.394585      -310.0624
   7   2.0000     -11.384742      -309.7946
   8   2.0000     -11.336886      -308.4923
   9   2.0000     -11.319210      -308.0114
  10   2.0000     -11.310419      -307.7721
  11   2.0000     -11.297679      -307.4255
  12   2.0000     -11.263657      -306.4997
  13   2.0000     -11.260342      -306.4095
  14   2.0000     -11.258497      -306.3593
  15   2.0000     -11.252917      -306.2074
  16   2.0000     -11.248004      -306.0737
  17   2.0000     -11.242800      -305.9321
  18   2.0000     -11.242308      -305.9188
  19   2.0000     -11.218166      -305.2618
  20   2.0000      -8.894905      -242.0427
  21   2.0000      -6.576477      -178.9550
  22   2.0000      -6.574475      -178.9006
  23   2.0000      -6.573886      -178.8845
  24   2.0000      -1.442906       -39.2635
  25   2.0000      -1.421010       -38.6676
  26   2.0000      -1.352569       -36.8053
  27   2.0000      -1.341340       -36.4997
  28   2.0000      -1.239912       -33.7397
  29   2.0000      -1.161797       -31.6141
  30   2.0000      -1.120951       -30.5026
  31   2.0000      -1.045569       -28.4514
  32   2.0000      -1.031095       -28.0575
  33   2.0000      -1.019985       -27.7552
  34   2.0000      -0.996793       -27.1241
  35   2.0000      -0.984958       -26.8021
  36   2.0000      -0.924665       -25.1614
  37   2.0000      -0.889369       -24.2010
  38   2.0000      -0.848965       -23.1015
  39   2.0000      -0.842006       -22.9121
  40   2.0000      -0.838183       -22.8081
  41   2.0000      -0.823394       -22.4057
  42   2.0000      -0.748586       -20.3701
  43   2.0000      -0.734378       -19.9834
  44   2.0000      -0.717643       -19.5281
  45   2.0000      -0.699880       -19.0447
  46   2.0000      -0.690054       -18.7773
  47   2.0000      -0.677838       -18.4449
  48   2.0000      -0.667901       -18.1745
  49   2.0000      -0.662183       -18.0189
  50   2.0000      -0.650964       -17.7136
  51   2.0000      -0.646905       -17.6032
  52   2.0000      -0.637857       -17.3570
  53   2.0000      -0.611702       -16.6453
  54   2.0000      -0.606784       -16.5114
  55   2.0000      -0.601073       -16.3560
  56   2.0000      -0.600199       -16.3322
  57   2.0000      -0.581129       -15.8133
  58   2.0000      -0.572345       -15.5743
  59   2.0000      -0.569901       -15.5078
  60   2.0000      -0.560947       -15.2642
  61   2.0000      -0.539844       -14.6899
  62   2.0000      -0.534590       -14.5469
  63   2.0000      -0.528277       -14.3751
  64   2.0000      -0.521957       -14.2032
  65   2.0000      -0.515003       -14.0139
  66   2.0000      -0.503746       -13.7076
  67   2.0000      -0.495552       -13.4847
  68   2.0000      -0.483361       -13.1529
  69   2.0000      -0.463308       -12.6072
  70   2.0000      -0.453038       -12.3278
  71   2.0000      -0.440859       -11.9964
  72   2.0000      -0.356006        -9.6874
  73   2.0000      -0.353797        -9.6273
  74   2.0000      -0.330067        -8.9816
  75   2.0000      -0.326187        -8.8760
  76   2.0000      -0.317283        -8.6337
  77   0.0000       0.071678         1.9504
  78   0.0000       0.101564         2.7637
  79   0.0000       0.123044         3.3482
  80   0.0000       0.129539         3.5249
  81   0.0000       0.133889         3.6433

MULLIKEN ATOMIC CHARGES
-----------------------
   0 C :   -0.275483
   1 C :    0.033033
   2 O :   -0.388638
   3 C :    0.490827
   4 O :   -0.412840
   5 C :   -0.265778
   6 C :    0.163377
   7 C :   -0.268914
   8 N :   -0.124354
   9 C :    0.214401
  10 S :   -0.439495
  11 N :   -0.206261
  12 C :    0.069197
  13 C :    0.018293
  14 C :   -0.165650
  15 C :   -0.132754
  16 C :   -0.277057
  17 C :    0.308413
  18 O :   -0.356219
  19 C :   -0.248143
  20 H :    0.101118
  21 H :    0.093497
  22 H :    0.108335
  23 H :    0.100368
  24 H :    0.103394
  25 H :    0.129422
  26 H :    0.133745
  27 H :    0.095118
  28 H :    0.197863
  29 H :    0.194450
  30 H :    0.150298
  31 H :    0.150971
  32 H :    0.162719
  33 H :    0.133147
  34 H :    0.241730
  35 H :    0.167870
Sum of atomic charges:    0.0000000

LOEWDIN ATOMIC CHARGES
----------------------
   0 C :    0.103787
   1 C :   -0.016843
   2 O :    0.284600
   3 C :   -0.413796
   4 O :    0.117974
   5 C :   -0.098085
   6 C :   -0.058020
   7 C :    0.131169
   8 N :    0.406955
   9 C :   -0.456105
  10 S :   -0.034719
  11 N :    0.396339
  12 C :   -0.052842
  13 C :   -0.038249
  14 C :    0.014641
  15 C :    0.041194
  16 C :   -0.002154
  17 C :   -0.190683
  18 O :    0.396557
  19 C :    0.029267
  20 H :   -0.028917
  21 H :   -0.029278
  22 H :   -0.023284
  23 H :   -0.031322
  24 H :   -0.023847
  25 H :   -0.005443
  26 H :   -0.003248
  27 H :   -0.023368
  28 H :   -0.057431
  29 H :   -0.065046
  30 H :   -0.008967
  31 H :   -0.029298
  32 H :   -0.020055
  33 H :   -0.034600
  34 H :   -0.152768
  35 H :   -0.024115

  Mayer bond orders larger than 0.100000
B(  0-C ,  1-C ) :   0.9831 B(  0-C , 20-H ) :   0.9732 B(  0-C , 21-H ) :   0.9750
B(  0-C , 22-H ) :   0.9759 B(  1-C ,  2-O ) :   0.8904 B(  1-C , 23-H ) :   0.9673
B(  1-C , 24-H ) :   0.9810 B(  2-O ,  3-C ) :   1.0908 B(  3-C ,  4-O ) :   2.0065
B(  3-C ,  5-C ) :   1.0741 B(  5-C ,  6-C ) :   1.6486 B(  5-C , 12-C ) :   0.9711
B(  6-C ,  7-C ) :   0.9668 B(  6-C ,  8-N ) :   1.1597 B(  7-C , 25-H ) :   0.9613
B(  7-C , 26-H ) :   0.9585 B(  7-C , 27-H ) :   0.9905 B(  8-N ,  9-C ) :   1.1825
B(  8-N , 28-H ) :   0.9476 B(  9-C , 10-S ) :   1.6065 B(  9-C , 11-N ) :   1.3070
B( 11-N , 12-C ) :   0.9728 B( 11-N , 29-H ) :   0.9524 B( 12-C , 13-C ) :   0.9405
B( 12-C , 30-H ) :   1.0011 B( 13-C , 14-C ) :   1.3539 B( 13-C , 19-C ) :   1.3795
B( 14-C , 15-C ) :   1.3924 B( 14-C , 31-H ) :   0.9733 B( 15-C , 16-C ) :   1.3629
B( 15-C , 32-H ) :   0.9703 B( 16-C , 17-C ) :   1.3293 B( 16-C , 33-H ) :   0.9842
B( 17-C , 18-O ) :   1.1140 B( 17-C , 19-C ) :   1.3721 B( 18-O , 34-H ) :   0.9789
B( 19-C , 35-H ) :   0.9577

MP2 TOTAL ENERGY:    -1274.334674349 Eh
FINAL SINGLE POINT ENERGY     -1274.334674349315

DIPOLE MOMENT
-------------
                                X             Y             Z
Electronic contribution:     10.38820       9.50864       7.32209
Nuclear contribution   :    -11.39838     -11.14276      -7.23458
                        -----------------------------------------
Total Dipole Moment    :     -1.01018      -1.63412       0.08751
                        -----------------------------------------
Magnitude (a.u.)       :      1.92314
Magnitude (Debye)      :      4.88823

Rotational constants in cm-1:     0.012142     0.008894     0.006340
Rotational constants in MHz :   364.018605   266.648825   190.057168

                             ****ORCA TERMINATED NORMALLY****
TOTAL RUN TIME: 0 days 1 hours 50 minutes 38 seconds 438 msec
