                         Program Version 4.2.0 -  RELEASE  -
|  1> ! ri-mp2 cc-pvtz cc-pvtz/c TightSCF  NoKeepInts
|  2>
|  3> %scf
|  4>   MaxCore 4096
|  5> end
|  6> *xyz  0  1
|  7>     C       15.3200455   13.5548073   16.0343814
|  8>     C       16.2122365   14.4947852   16.8610347
|  9>     O       16.8907722   15.3549146   15.9332586
| 10>     C       16.8512521   16.7145505   16.0705395
| 11>     O       16.3593994   17.3782359   15.1775927
| 12>     C       17.4635916   17.3107445   17.3168090
| 13>     C       17.3352634   18.6339439   17.6049936
| 14>     C       16.4877393   19.6603757   16.8838037
| 15>     N       18.0912013   19.2004377   18.6374245
| 16>     C       19.1828675   18.5980766   19.2061291
| 17>     S       20.2055865   19.4055121   20.2248170
| 18>     N       19.3968277   17.2884617   18.8574665
| 19>     C       18.3843211   16.4447963   18.1986963
| 20>     C       17.6581403   15.6588959   19.2895957
| 21>     C       18.1625134   14.4082219   19.6954569
| 22>     C       17.5185930   13.6659615   20.6993564
| 23>     C       16.3656515   14.1822840   21.3138204
| 24>     C       15.8706527   15.4349968   20.9285252
| 25>     O       14.7616486   15.9408704   21.5236587
| 26>     C       16.5109849   16.1701281   19.9260932
| 27>     H       14.7758829   12.8637870   16.6895080
| 28>     H       15.9240862   12.9634416   15.3348996
| 29>     H       14.5864437   14.1299659   15.4551610
| 30>     H       15.5857746   15.0689897   17.5565669
| 31>     H       16.9341009   13.8944343   17.4258811
| 32>     H       15.4676705   19.2859055   16.7306236
| 33>     H       16.9078584   19.8772138   15.8929960
| 34>     H       16.4086370   20.6083855   17.4286601
| 35>     H       17.9571145   20.1695899   18.8785027
| 36>     H       20.2029310   16.8632427   19.2966416
| 37>     H       18.9095679   15.7334029   17.5453126
| 38>     H       19.0589560   14.0080644   19.2285771
| 39>     H       17.9165809   12.6989567   21.0034187
| 40>     H       15.8665943   13.6142782   22.0924416
| 41>     H       14.5035125   15.3289690   22.2299403
| 42>     H       16.1120004   17.1423725   19.6614161
| 43> *
| 44>
| 45>                          ****END OF INPUT****

CARTESIAN COORDINATES (ANGSTROEM)
---------------------------------
  C     15.320046   13.554807   16.034381
  C     16.212236   14.494785   16.861035
  O     16.890772   15.354915   15.933259
  C     16.851252   16.714551   16.070539
  O     16.359399   17.378236   15.177593
  C     17.463592   17.310744   17.316809
  C     17.335263   18.633944   17.604994
  C     16.487739   19.660376   16.883804
  N     18.091201   19.200438   18.637425
  C     19.182868   18.598077   19.206129
  S     20.205586   19.405512   20.224817
  N     19.396828   17.288462   18.857467
  C     18.384321   16.444796   18.198696
  C     17.658140   15.658896   19.289596
  C     18.162513   14.408222   19.695457
  C     17.518593   13.665961   20.699356
  C     16.365651   14.182284   21.313820
  C     15.870653   15.434997   20.928525
  O     14.761649   15.940870   21.523659
  C     16.510985   16.170128   19.926093
  H     14.775883   12.863787   16.689508
  H     15.924086   12.963442   15.334900
  H     14.586444   14.129966   15.455161
  H     15.585775   15.068990   17.556567
  H     16.934101   13.894434   17.425881
  H     15.467670   19.285905   16.730624
  H     16.907858   19.877214   15.892996
  H     16.408637   20.608385   17.428660
  H     17.957114   20.169590   18.878503
  H     20.202931   16.863243   19.296642
  H     18.909568   15.733403   17.545313
  H     19.058956   14.008064   19.228577
  H     17.916581   12.698957   21.003419
  H     15.866594   13.614278   22.092442
  H     14.503512   15.328969   22.229940
  H     16.112000   17.142372   19.661416

 Total Charge           Charge          ....    0
 Multiplicity           Mult            ....    1
 Number of Electrons    NEL             ....  154
 Basis Dimension        Dim             ....  828

ORBITAL ENERGIES
----------------

  NO   OCC          E(Eh)            E(eV)
   0   2.0000     -91.892399     -2500.5193
   1   2.0000     -20.604746      -560.6836
   2   2.0000     -20.587293      -560.2087
   3   2.0000     -20.542653      -558.9940
   4   2.0000     -15.632970      -425.3947
   5   2.0000     -15.611643      -424.8144
   6   2.0000     -11.392470      -310.0049
   7   2.0000     -11.386580      -309.8446
   8   2.0000     -11.339250      -308.5567
   9   2.0000     -11.322548      -308.1022
  10   2.0000     -11.316922      -307.9491
  11   2.0000     -11.297009      -307.4072
  12   2.0000     -11.268826      -306.6403
  13   2.0000     -11.264498      -306.5226
  14   2.0000     -11.261457      -306.4398
  15   2.0000     -11.253852      -306.2329
  16   2.0000     -11.250503      -306.1418
  17   2.0000     -11.246384      -306.0297
  18   2.0000     -11.245404      -306.0030
  19   2.0000     -11.224709      -305.4399
  20   2.0000      -8.897379      -242.1100
  21   2.0000      -6.578935      -179.0219
  22   2.0000      -6.576951      -178.9679
  23   2.0000      -6.576348      -178.9515
  24   2.0000      -1.445301       -39.3287
  25   2.0000      -1.424327       -38.7579
  26   2.0000      -1.353470       -36.8298
  27   2.0000      -1.344645       -36.5897
  28   2.0000      -1.243042       -33.8249
  29   2.0000      -1.165151       -31.7054
  30   2.0000      -1.122357       -30.5409
  31   2.0000      -1.048640       -28.5349
  32   2.0000      -1.034154       -28.1408
  33   2.0000      -1.024003       -27.8645
  34   2.0000      -1.000574       -27.2270
  35   2.0000      -0.987301       -26.8658
  36   2.0000      -0.927928       -25.2502
  37   2.0000      -0.878858       -23.9149
  38   2.0000      -0.852354       -23.1937
  39   2.0000      -0.848754       -23.0958
  40   2.0000      -0.841532       -22.8992
  41   2.0000      -0.833598       -22.6834
  42   2.0000      -0.762171       -20.7397
  43   2.0000      -0.738324       -20.0908
  44   2.0000      -0.719166       -19.5695
  45   2.0000      -0.704574       -19.1724
  46   2.0000      -0.696209       -18.9448
  47   2.0000      -0.677133       -18.4257
  48   2.0000      -0.669627       -18.2215
  49   2.0000      -0.668483       -18.1903
  50   2.0000      -0.652801       -17.7636
  51   2.0000      -0.647657       -17.6236
  52   2.0000      -0.642483       -17.4829
  53   2.0000      -0.616919       -16.7872
  54   2.0000      -0.607849       -16.5404
  55   2.0000      -0.603192       -16.4137
  56   2.0000      -0.590404       -16.0657
  57   2.0000      -0.584598       -15.9077
  58   2.0000      -0.574257       -15.6263
  59   2.0000      -0.571196       -15.5430
  60   2.0000      -0.566014       -15.4020
  61   2.0000      -0.545168       -14.8348
  62   2.0000      -0.539621       -14.6838
  63   2.0000      -0.534149       -14.5349
  64   2.0000      -0.520056       -14.1514
  65   2.0000      -0.513047       -13.9607
  66   2.0000      -0.510083       -13.8801
  67   2.0000      -0.502692       -13.6789
  68   2.0000      -0.484932       -13.1957
  69   2.0000      -0.465367       -12.6633
  70   2.0000      -0.452210       -12.3053
  71   2.0000      -0.444112       -12.0849
  72   2.0000      -0.362058        -9.8521
  73   2.0000      -0.356971        -9.7137
  74   2.0000      -0.333303        -9.0696
  75   2.0000      -0.328077        -8.9274
  76   2.0000      -0.318976        -8.6798
  77   0.0000       0.071442         1.9440
  78   0.0000       0.098455         2.6791
  79   0.0000       0.116584         3.1724
  80   0.0000       0.123769         3.3679
  81   0.0000       0.129239         3.5168

MULLIKEN ATOMIC CHARGES
-----------------------
   0 C :   -0.255089
   1 C :    0.016850
   2 O :   -0.344642
   3 C :    0.469600
   4 O :   -0.388917
   5 C :   -0.273967
   6 C :    0.138028
   7 C :   -0.268808
   8 N :   -0.122831
   9 C :    0.217715
  10 S :   -0.435785
  11 N :   -0.206086
  12 C :    0.056049
  13 C :    0.064105
  14 C :   -0.230989
  15 C :   -0.125319
  16 C :   -0.275621
  17 C :    0.317352
  18 O :   -0.355850
  19 C :   -0.260356
  20 H :    0.086601
  21 H :    0.097998
  22 H :    0.103537
  23 H :    0.097497
  24 H :    0.099274
  25 H :    0.125999
  26 H :    0.140936
  27 H :    0.093905
  28 H :    0.199424
  29 H :    0.190492
  30 H :    0.158124
  31 H :    0.156820
  32 H :    0.163650
  33 H :    0.133165
  34 H :    0.243077
  35 H :    0.174063
Sum of atomic charges:   -0.0000000

LOEWDIN ATOMIC CHARGES
----------------------
   0 C :    0.109044
   1 C :   -0.028493
   2 O :    0.299375
   3 C :   -0.426667
   4 O :    0.118821
   5 C :   -0.099080
   6 C :   -0.056341
   7 C :    0.130203
   8 N :    0.409064
   9 C :   -0.453740
  10 S :   -0.030264
  11 N :    0.396003
  12 C :   -0.051605
  13 C :   -0.036505
  14 C :    0.007147
  15 C :    0.043580
  16 C :   -0.000434
  17 C :   -0.189302
  18 O :    0.396558
  19 C :    0.028517
  20 H :   -0.027943
  21 H :   -0.025908
  22 H :   -0.023615
  23 H :   -0.031125
  24 H :   -0.033375
  25 H :   -0.006062
  26 H :   -0.001576
  27 H :   -0.023153
  28 H :   -0.056786
  29 H :   -0.067487
  30 H :   -0.004906
  31 H :   -0.031605
  32 H :   -0.018747
  33 H :   -0.033947
  34 H :   -0.151466
  35 H :   -0.028177

  Mayer bond orders larger than 0.100000
B(  0-C ,  1-C ) :   0.9850 B(  0-C , 20-H ) :   0.9778 B(  0-C , 21-H ) :   0.9804
B(  0-C , 22-H ) :   0.9784 B(  1-C ,  2-O ) :   0.8825 B(  1-C , 23-H ) :   0.9660
B(  1-C , 24-H ) :   0.9728 B(  2-O ,  3-C ) :   1.1411 B(  3-C ,  4-O ) :   2.0591
B(  3-C ,  5-C ) :   1.0206 B(  5-C ,  6-C ) :   1.6454 B(  5-C , 12-C ) :   0.9616
B(  6-C ,  7-C ) :   0.9766 B(  6-C ,  8-N ) :   1.1524 B(  7-C , 25-H ) :   0.9651
B(  7-C , 26-H ) :   0.9533 B(  7-C , 27-H ) :   0.9873 B(  8-N ,  9-C ) :   1.1842
B(  8-N , 28-H ) :   0.9484 B(  9-C , 10-S ) :   1.6121 B(  9-C , 11-N ) :   1.2982
B( 11-N , 12-C ) :   0.9516 B( 11-N , 29-H ) :   0.9534 B( 12-C , 13-C ) :   0.9580
B( 12-C , 30-H ) :   0.9972 B( 13-C , 14-C ) :   1.3407 B( 13-C , 19-C ) :   1.3646
B( 14-C , 15-C ) :   1.3978 B( 14-C , 31-H ) :   0.9731 B( 15-C , 16-C ) :   1.3644
B( 15-C , 32-H ) :   0.9694 B( 16-C , 17-C ) :   1.3335 B( 16-C , 33-H ) :   0.9838
B( 17-C , 18-O ) :   1.1172 B( 17-C , 19-C ) :   1.3655 B( 18-O , 34-H ) :   0.9783
B( 19-C , 35-H ) :   0.9531

MP2 TOTAL ENERGY:    -1274.331852606 Eh
FINAL SINGLE POINT ENERGY     -1274.331852605619

DIPOLE MOMENT
-------------
                                X             Y             Z
Electronic contribution:      9.50872      10.04835       5.51078
Nuclear contribution   :    -10.60298     -11.59467      -4.71417
                        -----------------------------------------
Total Dipole Moment    :     -1.09426      -1.54632       0.79661
                        -----------------------------------------
Magnitude (a.u.)       :      2.05501
Magnitude (Debye)      :      5.22343

Rotational constants in cm-1:     0.011280     0.009298     0.006448
Rotational constants in MHz :   338.160759   278.739312   193.292672

                             ****ORCA TERMINATED NORMALLY****
TOTAL RUN TIME: 0 days 1 hours 44 minutes 46 seconds 784 msec
