                         Program Version 4.2.0 -  RELEASE  -
|  1> ! ri-mp2 cc-pvtz cc-pvtz/c TightSCF  NoKeepInts
|  2>
|  3> %scf
|  4>   MaxCore 4096
|  5> end
|  6> *xyz  0  1
|  7>     C       16.1691100   13.5545052   15.1543042
|  8>     C       15.4010075   14.4533546   16.1378065
|  9>     O       16.3673516   15.3053809   16.7798227
| 10>     C       16.1813544   16.6597055   16.8372910
| 11>     O       15.2558871   17.2216016   16.2764367
| 12>     C       17.2442059   17.3542373   17.6437015
| 13>     C       17.3074646   18.7054197   17.7568835
| 14>     C       16.3732195   19.7225382   17.1370788
| 15>     N       18.3427638   19.3004237   18.4842434
| 16>     C       19.4028407   18.6284998   19.0318158
| 17>     S       20.6401791   19.4185550   19.7938639
| 18>     N       19.3880530   17.2621558   18.9139626
| 19>     C       18.2718677   16.4686918   18.3674717
| 20>     C       17.6281093   15.6470117   19.4807580
| 21>     C       17.6960431   14.2411692   19.4611482
| 22>     C       17.1032650   13.4822375   20.4843015
| 23>     C       16.4392511   14.1339040   21.5375779
| 24>     C       16.3726842   15.5337565   21.5621287
| 25>     O       15.7327732   16.1658560   22.5780235
| 26>     C       16.9632942   16.2863146   20.5423397
| 27>     H       15.4824311   12.8668883   14.6457494
| 28>     H       16.9241546   12.9589930   15.6822037
| 29>     H       16.6743783   14.1605367   14.3918776
| 30>     H       14.6452891   15.0250269   15.5825780
| 31>     H       14.8851887   13.8414836   16.8891475
| 32>     H       15.3459609   19.5670494   17.4909826
| 33>     H       16.3615542   19.6207271   16.0444516
| 34>     H       16.6498676   20.7574580   17.3698485
| 35>     H       18.3707570   20.3029916   18.5796571
| 36>     H       20.1637857   16.7915397   19.3618294
| 37>     H       18.6976478   15.7772585   17.6267982
| 38>     H       18.2034232   13.7347911   18.6444413
| 39>     H       17.1589185   12.3954193   20.4587170
| 40>     H       15.9799530   13.5522782   22.3300236
| 41>     H       15.4163165   15.4855266   23.1909971
| 42>     H       16.9066490   17.3687134   20.5837376
| 43> *
| 44>
| 45>                          ****END OF INPUT****

CARTESIAN COORDINATES (ANGSTROEM)
---------------------------------
  C     16.169110   13.554505   15.154304
  C     15.401007   14.453355   16.137806
  O     16.367352   15.305381   16.779823
  C     16.181354   16.659706   16.837291
  O     15.255887   17.221602   16.276437
  C     17.244206   17.354237   17.643701
  C     17.307465   18.705420   17.756883
  C     16.373220   19.722538   17.137079
  N     18.342764   19.300424   18.484243
  C     19.402841   18.628500   19.031816
  S     20.640179   19.418555   19.793864
  N     19.388053   17.262156   18.913963
  C     18.271868   16.468692   18.367472
  C     17.628109   15.647012   19.480758
  C     17.696043   14.241169   19.461148
  C     17.103265   13.482238   20.484302
  C     16.439251   14.133904   21.537578
  C     16.372684   15.533757   21.562129
  O     15.732773   16.165856   22.578024
  C     16.963294   16.286315   20.542340
  H     15.482431   12.866888   14.645749
  H     16.924155   12.958993   15.682204
  H     16.674378   14.160537   14.391878
  H     14.645289   15.025027   15.582578
  H     14.885189   13.841484   16.889147
  H     15.345961   19.567049   17.490983
  H     16.361554   19.620727   16.044452
  H     16.649868   20.757458   17.369848
  H     18.370757   20.302992   18.579657
  H     20.163786   16.791540   19.361829
  H     18.697648   15.777258   17.626798
  H     18.203423   13.734791   18.644441
  H     17.158918   12.395419   20.458717
  H     15.979953   13.552278   22.330024
  H     15.416317   15.485527   23.190997
  H     16.906649   17.368713   20.583738

 Total Charge           Charge          ....    0
 Multiplicity           Mult            ....    1
 Number of Electrons    NEL             ....  154
 Basis Dimension        Dim             ....  828

ORBITAL ENERGIES
----------------

  NO   OCC          E(Eh)            E(eV)
   0   2.0000     -91.888567     -2500.4150
   1   2.0000     -20.602849      -560.6320
   2   2.0000     -20.595248      -560.4252
   3   2.0000     -20.541138      -558.9528
   4   2.0000     -15.628729      -425.2793
   5   2.0000     -15.607848      -424.7111
   6   2.0000     -11.395600      -310.0900
   7   2.0000     -11.383628      -309.7643
   8   2.0000     -11.335687      -308.4597
   9   2.0000     -11.312301      -307.8234
  10   2.0000     -11.308332      -307.7153
  11   2.0000     -11.295762      -307.3733
  12   2.0000     -11.258724      -306.3655
  13   2.0000     -11.258358      -306.3555
  14   2.0000     -11.253806      -306.2316
  15   2.0000     -11.251624      -306.1723
  16   2.0000     -11.241768      -305.9040
  17   2.0000     -11.237292      -305.7823
  18   2.0000     -11.237097      -305.7770
  19   2.0000     -11.230951      -305.6097
  20   2.0000      -8.893629      -242.0080
  21   2.0000      -6.575204      -178.9204
  22   2.0000      -6.573200      -178.8659
  23   2.0000      -6.572613      -178.8499
  24   2.0000      -1.451087       -39.4861
  25   2.0000      -1.414905       -38.5015
  26   2.0000      -1.355109       -36.8744
  27   2.0000      -1.339684       -36.4546
  28   2.0000      -1.238065       -33.6895
  29   2.0000      -1.156465       -31.4690
  30   2.0000      -1.119889       -30.4737
  31   2.0000      -1.043253       -28.3884
  32   2.0000      -1.039644       -28.2902
  33   2.0000      -1.013776       -27.5862
  34   2.0000      -0.995451       -27.0876
  35   2.0000      -0.983961       -26.7750
  36   2.0000      -0.921857       -25.0850
  37   2.0000      -0.890962       -24.2443
  38   2.0000      -0.846367       -23.0308
  39   2.0000      -0.836556       -22.7638
  40   2.0000      -0.832793       -22.6614
  41   2.0000      -0.817052       -22.2331
  42   2.0000      -0.764586       -20.8054
  43   2.0000      -0.731504       -19.9052
  44   2.0000      -0.721688       -19.6381
  45   2.0000      -0.694385       -18.8952
  46   2.0000      -0.686265       -18.6742
  47   2.0000      -0.680094       -18.5063
  48   2.0000      -0.675124       -18.3711
  49   2.0000      -0.659587       -17.9483
  50   2.0000      -0.645534       -17.5659
  51   2.0000      -0.644103       -17.5269
  52   2.0000      -0.634113       -17.2551
  53   2.0000      -0.605474       -16.4758
  54   2.0000      -0.602646       -16.3988
  55   2.0000      -0.598117       -16.2756
  56   2.0000      -0.597384       -16.2556
  57   2.0000      -0.577339       -15.7102
  58   2.0000      -0.570299       -15.5186
  59   2.0000      -0.568124       -15.4594
  60   2.0000      -0.562663       -15.3108
  61   2.0000      -0.546590       -14.8735
  62   2.0000      -0.539943       -14.6926
  63   2.0000      -0.528590       -14.3837
  64   2.0000      -0.523992       -14.2585
  65   2.0000      -0.512900       -13.9567
  66   2.0000      -0.501166       -13.6374
  67   2.0000      -0.497069       -13.5259
  68   2.0000      -0.485075       -13.1996
  69   2.0000      -0.464031       -12.6269
  70   2.0000      -0.456463       -12.4210
  71   2.0000      -0.448366       -12.2007
  72   2.0000      -0.354060        -9.6345
  73   2.0000      -0.348263        -9.4767
  74   2.0000      -0.327851        -8.9213
  75   2.0000      -0.320055        -8.7091
  76   2.0000      -0.315539        -8.5862
  77   0.0000       0.076871         2.0918
  78   0.0000       0.107920         2.9366
  79   0.0000       0.123259         3.3541
  80   0.0000       0.132447         3.6041
  81   0.0000       0.135868         3.6972

MULLIKEN ATOMIC CHARGES
-----------------------
   0 C :   -0.264102
   1 C :    0.010406
   2 O :   -0.346578
   3 C :    0.476959
   4 O :   -0.436136
   5 C :   -0.224332
   6 C :    0.148191
   7 C :   -0.274637
   8 N :   -0.120138
   9 C :    0.209961
  10 S :   -0.439966
  11 N :   -0.202643
  12 C :    0.044361
  13 C :    0.068015
  14 C :   -0.179557
  15 C :   -0.134151
  16 C :   -0.277838
  17 C :    0.315647
  18 O :   -0.356812
  19 C :   -0.268320
  20 H :    0.092123
  21 H :    0.090620
  22 H :    0.096630
  23 H :    0.128464
  24 H :    0.100650
  25 H :    0.132334
  26 H :    0.130654
  27 H :    0.094725
  28 H :    0.197331
  29 H :    0.194289
  30 H :    0.151159
  31 H :    0.149243
  32 H :    0.159208
  33 H :    0.129186
  34 H :    0.240476
  35 H :    0.164577
Sum of atomic charges:   -0.0000000

LOEWDIN ATOMIC CHARGES
----------------------
   0 C :    0.104327
   1 C :   -0.011405
   2 O :    0.311135
   3 C :   -0.413079
   4 O :    0.094573
   5 C :   -0.094304
   6 C :   -0.058859
   7 C :    0.131399
   8 N :    0.406497
   9 C :   -0.456857
  10 S :   -0.035612
  11 N :    0.396619
  12 C :   -0.052945
  13 C :   -0.038933
  14 C :    0.014071
  15 C :    0.038895
  16 C :   -0.001420
  17 C :   -0.189521
  18 O :    0.395019
  19 C :    0.031687
  20 H :   -0.025229
  21 H :   -0.030510
  22 H :   -0.026235
  23 H :   -0.027853
  24 H :   -0.029488
  25 H :   -0.004415
  26 H :   -0.004123
  27 H :   -0.023518
  28 H :   -0.057614
  29 H :   -0.064540
  30 H :   -0.011577
  31 H :   -0.030918
  32 H :   -0.021680
  33 H :   -0.035731
  34 H :   -0.154102
  35 H :   -0.023755

  Mayer bond orders larger than 0.100000
B(  0-C ,  1-C ) :   0.9721 B(  0-C , 20-H ) :   0.9760 B(  0-C , 21-H ) :   0.9795
B(  0-C , 22-H ) :   0.9781 B(  1-C ,  2-O ) :   0.8862 B(  1-C , 23-H ) :   0.9750
B(  1-C , 24-H ) :   0.9792 B(  2-O ,  3-C ) :   1.1799 B(  3-C ,  4-O ) :   1.9709
B(  3-C ,  5-C ) :   1.0521 B(  5-C ,  6-C ) :   1.6578 B(  5-C , 12-C ) :   0.9714
B(  6-C ,  7-C ) :   0.9675 B(  6-C ,  8-N ) :   1.1649 B(  7-C , 25-H ) :   0.9608
B(  7-C , 26-H ) :   0.9601 B(  7-C , 27-H ) :   0.9903 B(  8-N ,  9-C ) :   1.1826
B(  8-N , 28-H ) :   0.9480 B(  9-C , 10-S ) :   1.6079 B(  9-C , 11-N ) :   1.3045
B( 11-N , 12-C ) :   0.9901 B( 11-N , 29-H ) :   0.9518 B( 12-C , 13-C ) :   0.9358
B( 12-C , 30-H ) :   1.0039 B( 13-C , 14-C ) :   1.3557 B( 13-C , 19-C ) :   1.3825
B( 14-C , 15-C ) :   1.3933 B( 14-C , 31-H ) :   0.9711 B( 15-C , 16-C ) :   1.3637
B( 15-C , 32-H ) :   0.9710 B( 16-C , 17-C ) :   1.3318 B( 16-C , 33-H ) :   0.9854
B( 17-C , 18-O ) :   1.1097 B( 17-C , 19-C ) :   1.3737 B( 18-O , 34-H ) :   0.9801
B( 19-C , 35-H ) :   0.9582

MP2 TOTAL ENERGY:    -1274.350263339 Eh
FINAL SINGLE POINT ENERGY     -1274.350263339036

DIPOLE MOMENT
-------------
                                X             Y             Z
Electronic contribution:      8.62778      10.09072       9.78667
Nuclear contribution   :     -9.83656     -11.68589     -10.19984
                        -----------------------------------------
Total Dipole Moment    :     -1.20878      -1.59517      -0.41318
                        -----------------------------------------
Magnitude (a.u.)       :      2.04363
Magnitude (Debye)      :      5.19451

Rotational constants in cm-1:     0.010894     0.008671     0.006099
Rotational constants in MHz :   326.583508   259.937574   182.836931

                             ****ORCA TERMINATED NORMALLY****
TOTAL RUN TIME: 0 days 1 hours 42 minutes 1 seconds 524 msec
