                         Program Version 4.2.0 -  RELEASE  -
|  1> ! ri-mp2 cc-pvtz cc-pvtz/c TightSCF  NoKeepInts
|  2>
|  3> %scf
|  4>   MaxCore 4096
|  5> end
|  6> *xyz  0  1
|  7>     C       15.2030230   14.7884368   17.0884398
|  8>     C       16.3912673   14.0761754   16.4045700
|  9>     O       17.6173045   14.8426548   16.4538567
| 10>     C       17.6120955   16.1628221   16.1083185
| 11>     O       17.0976086   16.5131114   15.0605547
| 12>     C       17.7972779   17.0757048   17.2911491
| 13>     C       17.4340473   18.3840809   17.2697859
| 14>     C       16.6938202   19.1174351   16.1717935
| 15>     N       17.8068172   19.2280633   18.3211881
| 16>     C       18.7284778   18.9054513   19.2826598
| 17>     S       19.2803971   20.0161495   20.3766727
| 18>     N       19.1738963   17.6072965   19.2864870
| 19>     C       18.5659115   16.5162091   18.5015765
| 20>     C       17.7085906   15.6486328   19.4193528
| 21>     C       17.9724583   14.2713791   19.5455019
| 22>     C       17.1975065   13.4684764   20.3991905
| 23>     C       16.1540582   14.0477268   21.1409056
| 24>     C       15.8940545   15.4201466   21.0270518
| 25>     O       14.8861168   15.9821154   21.7402664
| 26>     C       16.6649300   16.2162215   20.1741172
| 27>     H       15.3885634   14.9340798   18.1554877
| 28>     H       14.2979291   14.1765814   16.9942576
| 29>     H       14.9907850   15.7614689   16.6290603
| 30>     H       16.5538259   13.1001192   16.8793179
| 31>     H       16.1290801   13.8943838   15.3536054
| 32>     H       17.3010966   19.1576790   15.2584346
| 33>     H       16.4327767   20.1466001   16.4445548
| 34>     H       15.7605735   18.5973692   15.9212466
| 35>     H       17.4976135   20.1870052   18.3224840
| 36>     H       19.8321995   17.3887573   20.0233076
| 37>     H       19.3859457   15.8949117   18.1147681
| 38>     H       18.7777715   13.8195641   18.9721288
| 39>     H       17.4084167   12.4039544   20.4860318
| 40>     H       15.5535518   13.4320190   21.8025273
| 41>     H       14.5092699   15.2926566   22.3073571
| 42>     H       16.4479422   17.2765608   20.1059919
| 43> *
| 44>
| 45>                          ****END OF INPUT****

CARTESIAN COORDINATES (ANGSTROEM)
---------------------------------
  C     15.203023   14.788437   17.088440
  C     16.391267   14.076175   16.404570
  O     17.617304   14.842655   16.453857
  C     17.612095   16.162822   16.108318
  O     17.097609   16.513111   15.060555
  C     17.797278   17.075705   17.291149
  C     17.434047   18.384081   17.269786
  C     16.693820   19.117435   16.171793
  N     17.806817   19.228063   18.321188
  C     18.728478   18.905451   19.282660
  S     19.280397   20.016150   20.376673
  N     19.173896   17.607297   19.286487
  C     18.565911   16.516209   18.501576
  C     17.708591   15.648633   19.419353
  C     17.972458   14.271379   19.545502
  C     17.197506   13.468476   20.399190
  C     16.154058   14.047727   21.140906
  C     15.894054   15.420147   21.027052
  O     14.886117   15.982115   21.740266
  C     16.664930   16.216221   20.174117
  H     15.388563   14.934080   18.155488
  H     14.297929   14.176581   16.994258
  H     14.990785   15.761469   16.629060
  H     16.553826   13.100119   16.879318
  H     16.129080   13.894384   15.353605
  H     17.301097   19.157679   15.258435
  H     16.432777   20.146600   16.444555
  H     15.760573   18.597369   15.921247
  H     17.497613   20.187005   18.322484
  H     19.832200   17.388757   20.023308
  H     19.385946   15.894912   18.114768
  H     18.777772   13.819564   18.972129
  H     17.408417   12.403954   20.486032
  H     15.553552   13.432019   21.802527
  H     14.509270   15.292657   22.307357
  H     16.447942   17.276561   20.105992

 Total Charge           Charge          ....    0
 Multiplicity           Mult            ....    1
 Number of Electrons    NEL             ....  154
 Basis Dimension        Dim             ....  828

ORBITAL ENERGIES
----------------

  NO   OCC          E(Eh)            E(eV)
   0   2.0000     -91.890995     -2500.4811
   1   2.0000     -20.598676      -560.5185
   2   2.0000     -20.583773      -560.1129
   3   2.0000     -20.548137      -559.1432
   4   2.0000     -15.631075      -425.3432
   5   2.0000     -15.609328      -424.7514
   6   2.0000     -11.394318      -310.0551
   7   2.0000     -11.385380      -309.8119
   8   2.0000     -11.337116      -308.4986
   9   2.0000     -11.316153      -307.9282
  10   2.0000     -11.311703      -307.8071
  11   2.0000     -11.299277      -307.4690
  12   2.0000     -11.261816      -306.4496
  13   2.0000     -11.260349      -306.4097
  14   2.0000     -11.257800      -306.3403
  15   2.0000     -11.253764      -306.2305
  16   2.0000     -11.245868      -306.0156
  17   2.0000     -11.240512      -305.8699
  18   2.0000     -11.240040      -305.8570
  19   2.0000     -11.222985      -305.3929
  20   2.0000      -8.896006      -242.0726
  21   2.0000      -6.577569      -178.9848
  22   2.0000      -6.575578      -178.9306
  23   2.0000      -6.574979      -178.9143
  24   2.0000      -1.447797       -39.3966
  25   2.0000      -1.418451       -38.5980
  26   2.0000      -1.351019       -36.7631
  27   2.0000      -1.342004       -36.5178
  28   2.0000      -1.240008       -33.7423
  29   2.0000      -1.159321       -31.5467
  30   2.0000      -1.120900       -30.5012
  31   2.0000      -1.044226       -28.4148
  32   2.0000      -1.031556       -28.0701
  33   2.0000      -1.017662       -27.6920
  34   2.0000      -0.998415       -27.1683
  35   2.0000      -0.986320       -26.8391
  36   2.0000      -0.924440       -25.1553
  37   2.0000      -0.895905       -24.3788
  38   2.0000      -0.848176       -23.0800
  39   2.0000      -0.841621       -22.9017
  40   2.0000      -0.836427       -22.7603
  41   2.0000      -0.816533       -22.2190
  42   2.0000      -0.748712       -20.3735
  43   2.0000      -0.734028       -19.9739
  44   2.0000      -0.722805       -19.6685
  45   2.0000      -0.697944       -18.9920
  46   2.0000      -0.691302       -18.8113
  47   2.0000      -0.675467       -18.3804
  48   2.0000      -0.668652       -18.1949
  49   2.0000      -0.665042       -18.0967
  50   2.0000      -0.650392       -17.6981
  51   2.0000      -0.644413       -17.5354
  52   2.0000      -0.637153       -17.3378
  53   2.0000      -0.618486       -16.8299
  54   2.0000      -0.608760       -16.5652
  55   2.0000      -0.601609       -16.3706
  56   2.0000      -0.600251       -16.3337
  57   2.0000      -0.579590       -15.7714
  58   2.0000      -0.571886       -15.5618
  59   2.0000      -0.564943       -15.3729
  60   2.0000      -0.550575       -14.9819
  61   2.0000      -0.543408       -14.7869
  62   2.0000      -0.537709       -14.6318
  63   2.0000      -0.530776       -14.4431
  64   2.0000      -0.526610       -14.3298
  65   2.0000      -0.515428       -14.0255
  66   2.0000      -0.503346       -13.6967
  67   2.0000      -0.500923       -13.6308
  68   2.0000      -0.476755       -12.9732
  69   2.0000      -0.464606       -12.6426
  70   2.0000      -0.453504       -12.3405
  71   2.0000      -0.444089       -12.0843
  72   2.0000      -0.357461        -9.7270
  73   2.0000      -0.350682        -9.5425
  74   2.0000      -0.330097        -8.9824
  75   2.0000      -0.324675        -8.8349
  76   2.0000      -0.317694        -8.6449
  77   0.0000       0.067750         1.8436
  78   0.0000       0.104812         2.8521
  79   0.0000       0.121565         3.3080
  80   0.0000       0.129621         3.5272
  81   0.0000       0.134070         3.6482

MULLIKEN ATOMIC CHARGES
-----------------------
   0 C :   -0.330792
   1 C :    0.035426
   2 O :   -0.390113
   3 C :    0.467992
   4 O :   -0.412006
   5 C :   -0.205872
   6 C :    0.148166
   7 C :   -0.271542
   8 N :   -0.122662
   9 C :    0.194648
  10 S :   -0.432594
  11 N :   -0.192821
  12 C :    0.029926
  13 C :    0.040001
  14 C :   -0.176253
  15 C :   -0.140079
  16 C :   -0.269460
  17 C :    0.299731
  18 O :   -0.358944
  19 C :   -0.247309
  20 H :    0.117275
  21 H :    0.112371
  22 H :    0.109043
  23 H :    0.113889
  24 H :    0.120682
  25 H :    0.135724
  26 H :    0.094911
  27 H :    0.127517
  28 H :    0.198418
  29 H :    0.190717
  30 H :    0.151332
  31 H :    0.158711
  32 H :    0.162691
  33 H :    0.132535
  34 H :    0.240729
  35 H :    0.168014
Sum of atomic charges:   -0.0000000

LOEWDIN ATOMIC CHARGES
----------------------
   0 C :    0.108266
   1 C :   -0.013045
   2 O :    0.282080
   3 C :   -0.420664
   4 O :    0.116333
   5 C :   -0.096438
   6 C :   -0.058562
   7 C :    0.130718
   8 N :    0.406847
   9 C :   -0.459249
  10 S :   -0.031324
  11 N :    0.396531
  12 C :   -0.052094
  13 C :   -0.039909
  14 C :    0.016867
  15 C :    0.038947
  16 C :   -0.002153
  17 C :   -0.192249
  18 O :    0.396567
  19 C :    0.031514
  20 H :   -0.029822
  21 H :   -0.023518
  22 H :   -0.028836
  23 H :   -0.024109
  24 H :   -0.028408
  25 H :   -0.003122
  26 H :   -0.023079
  27 H :   -0.007168
  28 H :   -0.057789
  29 H :   -0.065055
  30 H :   -0.006376
  31 H :   -0.028305
  32 H :   -0.020702
  33 H :   -0.034990
  34 H :   -0.153461
  35 H :   -0.024246

  Mayer bond orders larger than 0.100000
B(  0-C ,  1-C ) :   0.9575 B(  0-C , 20-H ) :   0.9683 B(  0-C , 21-H ) :   0.9779
B(  0-C , 22-H ) :   0.9730 B(  1-C ,  2-O ) :   0.8817 B(  1-C , 23-H ) :   0.9806
B(  1-C , 24-H ) :   0.9856 B(  2-O ,  3-C ) :   1.1037 B(  3-C ,  4-O ) :   2.0041
B(  3-C ,  5-C ) :   1.0607 B(  5-C ,  6-C ) :   1.6545 B(  5-C , 12-C ) :   0.9689
B(  6-C ,  7-C ) :   0.9705 B(  6-C ,  8-N ) :   1.1425 B(  7-C , 25-H ) :   0.9569
B(  7-C , 26-H ) :   0.9886 B(  7-C , 27-H ) :   0.9653 B(  8-N ,  9-C ) :   1.1777
B(  8-N , 28-H ) :   0.9485 B(  9-C , 10-S ) :   1.6214 B(  9-C , 11-N ) :   1.2979
B( 11-N , 12-C ) :   0.9875 B( 11-N , 29-H ) :   0.9538 B( 12-C , 13-C ) :   0.9364
B( 12-C , 30-H ) :   1.0045 B( 13-C , 14-C ) :   1.3690 B( 13-C , 19-C ) :   1.3723
B( 14-C , 15-C ) :   1.3846 B( 14-C , 31-H ) :   0.9673 B( 15-C , 16-C ) :   1.3640
B( 15-C , 32-H ) :   0.9706 B( 16-C , 17-C ) :   1.3309 B( 16-C , 33-H ) :   0.9842
B( 17-C , 18-O ) :   1.1133 B( 17-C , 19-C ) :   1.3785 B( 18-O , 34-H ) :   0.9797
B( 19-C , 35-H ) :   0.9572

MP2 TOTAL ENERGY:    -1274.330130994 Eh
FINAL SINGLE POINT ENERGY     -1274.330130993680

DIPOLE MOMENT
-------------
                                X             Y             Z
Electronic contribution:     10.05604       8.56638       5.98567
Nuclear contribution   :    -11.15436     -10.19733      -6.02694
                        -----------------------------------------
Total Dipole Moment    :     -1.09832      -1.63095      -0.04126
                        -----------------------------------------
Magnitude (a.u.)       :      1.96673
Magnitude (Debye)      :      4.99903

Rotational constants in cm-1:     0.011853     0.009790     0.006584
Rotational constants in MHz :   355.347699   293.505383   197.371374

                             ****ORCA TERMINATED NORMALLY****
TOTAL RUN TIME: 0 days 1 hours 48 minutes 21 seconds 255 msec
