                         Program Version 4.2.0 -  RELEASE  -
|  1> ! ri-mp2 cc-pvtz cc-pvtz/c TightSCF  NoKeepInts
|  2>
|  3> %scf
|  4>   MaxCore 4096
|  5> end
|  6> *xyz  0  1
|  7>     C       15.0621475   15.0221716   16.7965496
|  8>     C       16.3661188   14.1906928   16.8147568
|  9>     O       17.5074431   14.8952660   16.2617762
| 10>     C       17.5066141   16.2450988   16.0469401
| 11>     O       17.1020836   16.6846518   14.9858842
| 12>     C       17.7421265   17.0878991   17.2727964
| 13>     C       17.3721643   18.3933795   17.3314159
| 14>     C       16.5676778   19.1685332   16.3102566
| 15>     N       17.7842028   19.1880257   18.4059637
| 16>     C       18.7532042   18.8276800   19.3051334
| 17>     S       19.3529739   19.8893970   20.4224848
| 18>     N       19.2159633   17.5389924   19.2148904
| 19>     C       18.5723855   16.4793526   18.4174193
| 20>     C       17.7774575   15.5861829   19.3623730
| 21>     C       18.2958821   14.3364782   19.7525189
| 22>     C       17.5776385   13.5069741   20.6301845
| 23>     C       16.3355063   13.9336844   21.1299517
| 24>     C       15.8256365   15.1853359   20.7594817
| 25>     O       14.6287927   15.6028908   21.2424728
| 26>     C       16.5426221   16.0090239   19.8865904
| 27>     H       15.1372969   15.9128103   17.4305057
| 28>     H       14.2267674   14.4190713   17.1722707
| 29>     H       14.8138087   15.3373848   15.7748400
| 30>     H       16.5719071   13.8719183   17.8409479
| 31>     H       16.2075859   13.2759069   16.2292793
| 32>     H       15.6613263   18.6170879   16.0297984
| 33>     H       17.1537569   19.3197162   15.3944655
| 34>     H       16.2523323   20.1538667   16.6728199
| 35>     H       17.4701427   20.1434694   18.4678573
| 36>     H       19.9169395   17.2949962   19.9026033
| 37>     H       19.3676631   15.8732006   17.9606084
| 38>     H       19.2569254   14.0035655   19.3688827
| 39>     H       17.9849129   12.5403543   20.9226885
| 40>     H       15.7774254   13.2965620   21.8084851
| 41>     H       14.3240253   14.9406406   21.8813528
| 42>     H       16.1355432   16.9797384   19.6267541
| 43> *
| 44>
| 45>                          ****END OF INPUT****

CARTESIAN COORDINATES (ANGSTROEM)
---------------------------------
  C     15.062147   15.022172   16.796550
  C     16.366119   14.190693   16.814757
  O     17.507443   14.895266   16.261776
  C     17.506614   16.245099   16.046940
  O     17.102084   16.684652   14.985884
  C     17.742126   17.087899   17.272796
  C     17.372164   18.393380   17.331416
  C     16.567678   19.168533   16.310257
  N     17.784203   19.188026   18.405964
  C     18.753204   18.827680   19.305133
  S     19.352974   19.889397   20.422485
  N     19.215963   17.538992   19.214890
  C     18.572385   16.479353   18.417419
  C     17.777458   15.586183   19.362373
  C     18.295882   14.336478   19.752519
  C     17.577638   13.506974   20.630184
  C     16.335506   13.933684   21.129952
  C     15.825636   15.185336   20.759482
  O     14.628793   15.602891   21.242473
  C     16.542622   16.009024   19.886590
  H     15.137297   15.912810   17.430506
  H     14.226767   14.419071   17.172271
  H     14.813809   15.337385   15.774840
  H     16.571907   13.871918   17.840948
  H     16.207586   13.275907   16.229279
  H     15.661326   18.617088   16.029798
  H     17.153757   19.319716   15.394466
  H     16.252332   20.153867   16.672820
  H     17.470143   20.143469   18.467857
  H     19.916940   17.294996   19.902603
  H     19.367663   15.873201   17.960608
  H     19.256925   14.003566   19.368883
  H     17.984913   12.540354   20.922688
  H     15.777425   13.296562   21.808485
  H     14.324025   14.940641   21.881353
  H     16.135543   16.979738   19.626754

 Total Charge           Charge          ....    0
 Multiplicity           Mult            ....    1
 Number of Electrons    NEL             ....  154
 Basis Dimension        Dim             ....  828

ORBITAL ENERGIES
----------------

  NO   OCC          E(Eh)            E(eV)
   0   2.0000     -91.891403     -2500.4922
   1   2.0000     -20.603884      -560.6602
   2   2.0000     -20.578428      -559.9675
   3   2.0000     -20.547917      -559.1372
   4   2.0000     -15.631617      -425.3579
   5   2.0000     -15.610351      -424.7792
   6   2.0000     -11.392949      -310.0179
   7   2.0000     -11.385911      -309.8264
   8   2.0000     -11.337283      -308.5031
   9   2.0000     -11.321568      -308.0755
  10   2.0000     -11.313811      -307.8644
  11   2.0000     -11.297603      -307.4234
  12   2.0000     -11.266123      -306.5668
  13   2.0000     -11.262715      -306.4741
  14   2.0000     -11.259483      -306.3861
  15   2.0000     -11.254165      -306.2414
  16   2.0000     -11.250480      -306.1411
  17   2.0000     -11.244964      -305.9910
  18   2.0000     -11.244896      -305.9892
  19   2.0000     -11.227269      -305.5095
  20   2.0000      -8.896415      -242.0838
  21   2.0000      -6.577977      -178.9959
  22   2.0000      -6.575987      -178.9417
  23   2.0000      -6.575389      -178.9254
  24   2.0000      -1.441359       -39.2214
  25   2.0000      -1.423509       -38.7357
  26   2.0000      -1.349367       -36.7181
  27   2.0000      -1.342986       -36.5445
  28   2.0000      -1.241562       -33.7846
  29   2.0000      -1.164117       -31.6772
  30   2.0000      -1.122030       -30.5320
  31   2.0000      -1.047836       -28.5131
  32   2.0000      -1.030113       -28.0308
  33   2.0000      -1.022563       -27.8254
  34   2.0000      -1.000718       -27.2309
  35   2.0000      -0.987300       -26.8658
  36   2.0000      -0.926808       -25.2197
  37   2.0000      -0.895161       -24.3586
  38   2.0000      -0.850109       -23.1326
  39   2.0000      -0.845783       -23.0149
  40   2.0000      -0.840483       -22.8707
  41   2.0000      -0.823498       -22.4085
  42   2.0000      -0.746329       -20.3086
  43   2.0000      -0.736832       -20.0502
  44   2.0000      -0.716842       -19.5063
  45   2.0000      -0.702580       -19.1182
  46   2.0000      -0.692723       -18.8500
  47   2.0000      -0.674256       -18.3474
  48   2.0000      -0.671264       -18.2660
  49   2.0000      -0.660181       -17.9644
  50   2.0000      -0.655991       -17.8504
  51   2.0000      -0.648536       -17.6476
  52   2.0000      -0.637425       -17.3452
  53   2.0000      -0.627657       -17.0794
  54   2.0000      -0.614299       -16.7159
  55   2.0000      -0.605566       -16.4783
  56   2.0000      -0.602343       -16.3906
  57   2.0000      -0.583533       -15.8787
  58   2.0000      -0.573700       -15.6112
  59   2.0000      -0.566941       -15.4272
  60   2.0000      -0.544070       -14.8049
  61   2.0000      -0.542655       -14.7664
  62   2.0000      -0.537587       -14.6285
  63   2.0000      -0.532611       -14.4931
  64   2.0000      -0.530937       -14.4475
  65   2.0000      -0.516821       -14.0634
  66   2.0000      -0.507181       -13.8011
  67   2.0000      -0.493985       -13.4420
  68   2.0000      -0.482069       -13.1178
  69   2.0000      -0.467424       -12.7192
  70   2.0000      -0.451122       -12.2757
  71   2.0000      -0.442350       -12.0370
  72   2.0000      -0.358735        -9.7617
  73   2.0000      -0.356407        -9.6983
  74   2.0000      -0.332260        -9.0412
  75   2.0000      -0.328034        -8.9263
  76   2.0000      -0.318296        -8.6613
  77   0.0000       0.068557         1.8655
  78   0.0000       0.101974         2.7749
  79   0.0000       0.120523         3.2796
  80   0.0000       0.126162         3.4331
  81   0.0000       0.130925         3.5627

MULLIKEN ATOMIC CHARGES
-----------------------
   0 C :   -0.333440
   1 C :    0.037706
   2 O :   -0.391913
   3 C :    0.513519
   4 O :   -0.398841
   5 C :   -0.296471
   6 C :    0.159528
   7 C :   -0.273013
   8 N :   -0.124407
   9 C :    0.213262
  10 S :   -0.435701
  11 N :   -0.199776
  12 C :    0.049928
  13 C :    0.061991
  14 C :   -0.182815
  15 C :   -0.130928
  16 C :   -0.275153
  17 C :    0.321169
  18 O :   -0.357758
  19 C :   -0.292480
  20 H :    0.097679
  21 H :    0.113306
  22 H :    0.126400
  23 H :    0.108857
  24 H :    0.120729
  25 H :    0.126455
  26 H :    0.139897
  27 H :    0.094324
  28 H :    0.198471
  29 H :    0.191760
  30 H :    0.150089
  31 H :    0.149284
  32 H :    0.163582
  33 H :    0.133893
  34 H :    0.242717
  35 H :    0.178151
Sum of atomic charges:   -0.0000000

LOEWDIN ATOMIC CHARGES
----------------------
   0 C :    0.105060
   1 C :   -0.008139
   2 O :    0.275485
   3 C :   -0.423626
   4 O :    0.125034
   5 C :   -0.099154
   6 C :   -0.061757
   7 C :    0.130484
   8 N :    0.407337
   9 C :   -0.455585
  10 S :   -0.031756
  11 N :    0.396325
  12 C :   -0.053097
  13 C :   -0.038214
  14 C :    0.012204
  15 C :    0.042265
  16 C :   -0.000793
  17 C :   -0.189641
  18 O :    0.396738
  19 C :    0.033492
  20 H :   -0.035041
  21 H :   -0.021973
  22 H :   -0.024522
  23 H :   -0.034525
  24 H :   -0.024980
  25 H :   -0.006910
  26 H :   -0.002367
  27 H :   -0.023011
  28 H :   -0.057399
  29 H :   -0.065891
  30 H :   -0.005488
  31 H :   -0.029238
  32 H :   -0.019252
  33 H :   -0.033919
  34 H :   -0.151993
  35 H :   -0.026152

  Mayer bond orders larger than 0.100000
B(  0-C ,  1-C ) :   0.9660 B(  0-C , 20-H ) :   0.9704 B(  0-C , 21-H ) :   0.9754
B(  0-C , 22-H ) :   0.9711 B(  1-C ,  2-O ) :   0.8894 B(  1-C , 23-H ) :   0.9682
B(  1-C , 24-H ) :   0.9838 B(  2-O ,  3-C ) :   1.1058 B(  3-C ,  4-O ) :   2.0374
B(  3-C ,  5-C ) :   1.0336 B(  5-C ,  6-C ) :   1.6529 B(  5-C , 12-C ) :   0.9744
B(  6-C ,  7-C ) :   0.9699 B(  6-C ,  8-N ) :   1.1545 B(  7-C , 25-H ) :   0.9659
B(  7-C , 26-H ) :   0.9559 B(  7-C , 27-H ) :   0.9873 B(  8-N ,  9-C ) :   1.1792
B(  8-N , 28-H ) :   0.9487 B(  9-C , 10-S ) :   1.6136 B(  9-C , 11-N ) :   1.3018
B( 11-N , 12-C ) :   0.9646 B( 11-N , 29-H ) :   0.9544 B( 12-C , 13-C ) :   0.9508
B( 12-C , 30-H ) :   1.0016 B( 13-C , 14-C ) :   1.3440 B( 13-C , 19-C ) :   1.3602
B( 14-C , 15-C ) :   1.3954 B( 14-C , 31-H ) :   0.9751 B( 15-C , 16-C ) :   1.3647
B( 15-C , 32-H ) :   0.9699 B( 16-C , 17-C ) :   1.3284 B( 16-C , 33-H ) :   0.9835
B( 17-C , 18-O ) :   1.1141 B( 17-C , 19-C ) :   1.3699 B( 18-O , 34-H ) :   0.9788
B( 19-C , 35-H ) :   0.9525

MP2 TOTAL ENERGY:    -1274.327225236 Eh
FINAL SINGLE POINT ENERGY     -1274.327225236296

DIPOLE MOMENT
-------------
                                X             Y             Z
Electronic contribution:     10.02672       7.67978       5.29282
Nuclear contribution   :    -11.17767      -9.24592      -4.85793
                        -----------------------------------------
Total Dipole Moment    :     -1.15095      -1.56614       0.43489
                        -----------------------------------------
Magnitude (a.u.)       :      1.99164
Magnitude (Debye)      :      5.06234

Rotational constants in cm-1:     0.011853     0.009721     0.006772
Rotational constants in MHz :   355.358046   291.441698   203.023158

                             ****ORCA TERMINATED NORMALLY****
TOTAL RUN TIME: 0 days 1 hours 50 minutes 53 seconds 687 msec
