                         Program Version 4.2.0 -  RELEASE  -
|  1> ! ri-mp2 cc-pvtz cc-pvtz/c TightSCF  NoKeepInts
|  2>
|  3> %scf
|  4>   MaxCore 4096
|  5> end
|  6> *xyz  0  1
|  7>     C       14.8766814   16.1990214   17.2408353
|  8>     C       15.6286255   14.8662950   17.0513683
|  9>     O       16.8446085   14.9391061   16.2640705
| 10>     C       17.9486738   15.7472037   16.4108672
| 11>     O       19.0255476   15.3788325   15.9817245
| 12>     C       17.8835216   16.8863093   17.3644309
| 13>     C       17.4328880   18.0996051   16.9748637
| 14>     C       16.9004725   18.4697423   15.6075722
| 15>     N       17.4941366   19.1810040   17.8557164
| 16>     C       18.0618007   19.1380694   19.1028201
| 17>     S       18.1020028   20.4671141   20.0857271
| 18>     N       18.5926584   17.9348037   19.5003458
| 19>     C       18.5552293   16.6800375   18.7218057
| 20>     C       17.9097941   15.5431173   19.5072996
| 21>     C       18.4179231   14.2361648   19.3895481
| 22>     C       17.8244220   13.1711533   20.0871542
| 23>     C       16.7118412   13.4132942   20.9105151
| 24>     C       16.2008075   14.7125741   21.0295729
| 25>     O       15.1187483   14.9478500   21.8128985
| 26>     C       16.7921371   15.7710732   20.3325451
| 27>     H       15.3343798   16.8269583   18.0114721
| 28>     H       13.8524287   15.9942901   17.5759244
| 29>     H       14.8068264   16.7514513   16.2976479
| 30>     H       15.8524285   14.4382298   18.0360724
| 31>     H       14.9517120   14.1613885   16.5516249
| 32>     H       16.7265875   17.5914040   14.9739942
| 33>     H       17.6163199   19.1112238   15.0779636
| 34>     H       15.9497975   19.0116791   15.6832188
| 35>     H       17.1327803   20.0785532   17.5731172
| 36>     H       18.9912409   17.9314074   20.4309041
| 37>     H       19.5973804   16.3900109   18.5209052
| 38>     H       19.2708552   14.0431527   18.7416725
| 39>     H       18.2258903   12.1640751   19.9847214
| 40>     H       16.2498741   12.5927453   21.4499430
| 41>     H       14.8930155   14.1163682   22.2572029
| 42>     H       16.3729630   16.7666910   20.4359342
| 43> *
| 44>
| 45>                          ****END OF INPUT****

CARTESIAN COORDINATES (ANGSTROEM)
---------------------------------
  C     14.876681   16.199021   17.240835
  C     15.628625   14.866295   17.051368
  O     16.844608   14.939106   16.264070
  C     17.948674   15.747204   16.410867
  O     19.025548   15.378832   15.981724
  C     17.883522   16.886309   17.364431
  C     17.432888   18.099605   16.974864
  C     16.900472   18.469742   15.607572
  N     17.494137   19.181004   17.855716
  C     18.061801   19.138069   19.102820
  S     18.102003   20.467114   20.085727
  N     18.592658   17.934804   19.500346
  C     18.555229   16.680038   18.721806
  C     17.909794   15.543117   19.507300
  C     18.417923   14.236165   19.389548
  C     17.824422   13.171153   20.087154
  C     16.711841   13.413294   20.910515
  C     16.200807   14.712574   21.029573
  O     15.118748   14.947850   21.812898
  C     16.792137   15.771073   20.332545
  H     15.334380   16.826958   18.011472
  H     13.852429   15.994290   17.575924
  H     14.806826   16.751451   16.297648
  H     15.852429   14.438230   18.036072
  H     14.951712   14.161388   16.551625
  H     16.726588   17.591404   14.973994
  H     17.616320   19.111224   15.077964
  H     15.949797   19.011679   15.683219
  H     17.132780   20.078553   17.573117
  H     18.991241   17.931407   20.430904
  H     19.597380   16.390011   18.520905
  H     19.270855   14.043153   18.741672
  H     18.225890   12.164075   19.984721
  H     16.249874   12.592745   21.449943
  H     14.893016   14.116368   22.257203
  H     16.372963   16.766691   20.435934

 Total Charge           Charge          ....    0
 Multiplicity           Mult            ....    1
 Number of Electrons    NEL             ....  154
 Basis Dimension        Dim             ....  828

ORBITAL ENERGIES
----------------

  NO   OCC          E(Eh)            E(eV)
   0   2.0000     -91.889532     -2500.4413
   1   2.0000     -20.604280      -560.6710
   2   2.0000     -20.595821      -560.4408
   3   2.0000     -20.550650      -559.2116
   4   2.0000     -15.624780      -425.1719
   5   2.0000     -15.612586      -424.8401
   6   2.0000     -11.398557      -310.1705
   7   2.0000     -11.386638      -309.8462
   8   2.0000     -11.323444      -308.1266
   9   2.0000     -11.322182      -308.0922
  10   2.0000     -11.318229      -307.9847
  11   2.0000     -11.304856      -307.6208
  12   2.0000     -11.269342      -306.6544
  13   2.0000     -11.264962      -306.5352
  14   2.0000     -11.262738      -306.4747
  15   2.0000     -11.261133      -306.4310
  16   2.0000     -11.251501      -306.1689
  17   2.0000     -11.246887      -306.0434
  18   2.0000     -11.244993      -305.9918
  19   2.0000     -11.234331      -305.7017
  20   2.0000      -8.894656      -242.0359
  21   2.0000      -6.576249      -178.9488
  22   2.0000      -6.574218      -178.8936
  23   2.0000      -6.573647      -178.8780
  24   2.0000      -1.442431       -39.2505
  25   2.0000      -1.424099       -38.7517
  26   2.0000      -1.355795       -36.8930
  27   2.0000      -1.338915       -36.4337
  28   2.0000      -1.239917       -33.7399
  29   2.0000      -1.166064       -31.7302
  30   2.0000      -1.126066       -30.6418
  31   2.0000      -1.051599       -28.6155
  32   2.0000      -1.038304       -28.2537
  33   2.0000      -1.023898       -27.8617
  34   2.0000      -1.005709       -27.3667
  35   2.0000      -0.990478       -26.9523
  36   2.0000      -0.929352       -25.2889
  37   2.0000      -0.898114       -24.4389
  38   2.0000      -0.852624       -23.2011
  39   2.0000      -0.843704       -22.9584
  40   2.0000      -0.841198       -22.8902
  41   2.0000      -0.831996       -22.6398
  42   2.0000      -0.750365       -20.4185
  43   2.0000      -0.737158       -20.0591
  44   2.0000      -0.727851       -19.8058
  45   2.0000      -0.702079       -19.1046
  46   2.0000      -0.690708       -18.7951
  47   2.0000      -0.678623       -18.4663
  48   2.0000      -0.676093       -18.3974
  49   2.0000      -0.662698       -18.0329
  50   2.0000      -0.656494       -17.8641
  51   2.0000      -0.647536       -17.6203
  52   2.0000      -0.640181       -17.4202
  53   2.0000      -0.615771       -16.7560
  54   2.0000      -0.609658       -16.5896
  55   2.0000      -0.609328       -16.5807
  56   2.0000      -0.606366       -16.5000
  57   2.0000      -0.587622       -15.9900
  58   2.0000      -0.582931       -15.8624
  59   2.0000      -0.579373       -15.7655
  60   2.0000      -0.568094       -15.4586
  61   2.0000      -0.556079       -15.1317
  62   2.0000      -0.539444       -14.6790
  63   2.0000      -0.534413       -14.5421
  64   2.0000      -0.524121       -14.2620
  65   2.0000      -0.515290       -14.0217
  66   2.0000      -0.504926       -13.7397
  67   2.0000      -0.501091       -13.6354
  68   2.0000      -0.490444       -13.3456
  69   2.0000      -0.465144       -12.6572
  70   2.0000      -0.452926       -12.3248
  71   2.0000      -0.448105       -12.1936
  72   2.0000      -0.357138        -9.7182
  73   2.0000      -0.353291        -9.6135
  74   2.0000      -0.330910        -9.0045
  75   2.0000      -0.328952        -8.9512
  76   2.0000      -0.317892        -8.6503
  77   0.0000       0.091709         2.4955
  78   0.0000       0.101741         2.7685
  79   0.0000       0.119138         3.2419
  80   0.0000       0.124936         3.3997
  81   0.0000       0.127336         3.4650

MULLIKEN ATOMIC CHARGES
-----------------------
   0 C :   -0.340868
   1 C :    0.040338
   2 O :   -0.331247
   3 C :    0.386458
   4 O :   -0.376589
   5 C :   -0.169552
   6 C :    0.128685
   7 C :   -0.329252
   8 N :   -0.138552
   9 C :    0.212655
  10 S :   -0.443527
  11 N :   -0.228674
  12 C :    0.099589
  13 C :   -0.008685
  14 C :   -0.198060
  15 C :   -0.132436
  16 C :   -0.274971
  17 C :    0.317388
  18 O :   -0.356188
  19 C :   -0.274016
  20 H :    0.113998
  21 H :    0.124767
  22 H :    0.105491
  23 H :    0.101292
  24 H :    0.126821
  25 H :    0.119281
  26 H :    0.150095
  27 H :    0.114917
  28 H :    0.196400
  29 H :    0.202583
  30 H :    0.164953
  31 H :    0.167995
  32 H :    0.165864
  33 H :    0.134554
  34 H :    0.242357
  35 H :    0.186137
Sum of atomic charges:   -0.0000000

LOEWDIN ATOMIC CHARGES
----------------------
   0 C :    0.102726
   1 C :   -0.012350
   2 O :    0.293065
   3 C :   -0.418101
   4 O :    0.126501
   5 C :   -0.080246
   6 C :   -0.103418
   7 C :    0.124621
   8 N :    0.402149
   9 C :   -0.454792
  10 S :   -0.039429
  11 N :    0.397543
  12 C :   -0.045547
  13 C :   -0.044568
  14 C :    0.020624
  15 C :    0.045770
  16 C :   -0.000323
  17 C :   -0.194033
  18 O :    0.396938
  19 C :    0.027837
  20 H :   -0.034777
  21 H :   -0.020858
  22 H :   -0.030180
  23 H :   -0.029832
  24 H :   -0.019719
  25 H :   -0.010007
  26 H :   -0.007932
  27 H :   -0.017547
  28 H :   -0.057750
  29 H :   -0.064482
  30 H :   -0.003072
  31 H :   -0.021496
  32 H :   -0.017299
  33 H :   -0.033602
  34 H :   -0.152098
  35 H :   -0.024316

  Mayer bond orders larger than 0.100000
B(  0-C ,  1-C ) :   0.9560 B(  0-C , 20-H ) :   0.9702 B(  0-C , 21-H ) :   0.9781
B(  0-C , 22-H ) :   0.9757 B(  1-C ,  2-O ) :   0.9048 B(  1-C , 23-H ) :   0.9684
B(  1-C , 24-H ) :   0.9836 B(  2-O ,  3-C ) :   1.1852 B(  3-C ,  4-O ) :   2.1095
B(  3-C ,  5-C ) :   0.9078 B(  5-C ,  6-C ) :   1.7141 B(  5-C , 12-C ) :   0.9460
B(  6-C ,  7-C ) :   0.9533 B(  6-C ,  8-N ) :   1.1077 B(  7-C , 25-H ) :   0.9799
B(  7-C , 26-H ) :   0.9656 B(  7-C , 27-H ) :   0.9698 B(  8-N ,  9-C ) :   1.2039
B(  8-N , 28-H ) :   0.9523 B(  9-C , 10-S ) :   1.6070 B(  9-C , 11-N ) :   1.2820
B( 11-N , 12-C ) :   0.9962 B( 11-N , 29-H ) :   0.9463 B( 12-C , 13-C ) :   0.9395
B( 12-C , 30-H ) :   0.9979 B( 13-C , 14-C ) :   1.3892 B( 13-C , 19-C ) :   1.3408
B( 14-C , 15-C ) :   1.3996 B( 14-C , 31-H ) :   0.9632 B( 15-C , 16-C ) :   1.3588
B( 15-C , 32-H ) :   0.9694 B( 16-C , 17-C ) :   1.3296 B( 16-C , 33-H ) :   0.9841
B( 17-C , 18-O ) :   1.1130 B( 17-C , 19-C ) :   1.3645 B( 18-O , 34-H ) :   0.9784
B( 19-C , 35-H ) :   0.9514

MP2 TOTAL ENERGY:    -1274.326494087 Eh
FINAL SINGLE POINT ENERGY     -1274.326494087261

DIPOLE MOMENT
-------------
                                X             Y             Z
Electronic contribution:      9.26794       5.15562       5.96930
Nuclear contribution   :    -10.74848      -6.53909      -6.10013
                        -----------------------------------------
Total Dipole Moment    :     -1.48054      -1.38348      -0.13083
                        -----------------------------------------
Magnitude (a.u.)       :      2.03055
Magnitude (Debye)      :      5.16124

Rotational constants in cm-1:     0.012624     0.009215     0.006876
Rotational constants in MHz :   378.470625   276.252702   206.136597

                             ****ORCA TERMINATED NORMALLY****
TOTAL RUN TIME: 0 days 1 hours 53 minutes 35 seconds 620 msec
