                         Program Version 4.2.0 -  RELEASE  -
|  1> ! ri-mp2 cc-pvtz cc-pvtz/c TightSCF  NoKeepInts
|  2>
|  3> %scf
|  4>   MaxCore 4096
|  5> end
|  6> *xyz  0  1
|  7>     C       14.9478190   16.0457781   17.2522389
|  8>     C       15.5550216   14.9693121   16.3301554
|  9>     O       16.9066715   15.1659037   15.8288273
| 10>     C       18.0251853   15.6562157   16.4631428
| 11>     O       19.0480306   14.9965010   16.4395822
| 12>     C       17.9021459   16.8211653   17.3889069
| 13>     C       17.3841847   18.0096024   16.9956907
| 14>     C       16.8753475   18.3824591   15.6178147
| 15>     N       17.4066723   19.1007921   17.8670393
| 16>     C       18.0419064   19.1183528   19.0809155
| 17>     S       18.0786362   20.4768773   20.0228760
| 18>     N       18.6527622   17.9534630   19.4739502
| 19>     C       18.5816935   16.6657486   18.7546522
| 20>     C       17.9178669   15.5817971   19.6042964
| 21>     C       18.3763740   14.2531037   19.5302937
| 22>     C       17.7739820   13.2403171   20.2947364
| 23>     C       16.7022533   13.5560634   21.1462047
| 24>     C       16.2426694   14.8769952   21.2274043
| 25>     O       15.2029624   15.1847662   22.0427427
| 26>     C       16.8445851   15.8834407   20.4653507
| 27>     H       15.5190605   16.1749760   18.1735173
| 28>     H       13.9394982   15.7358737   17.5531435
| 29>     H       14.8415821   17.0057235   16.7393572
| 30>     H       15.5487070   14.0259689   16.8925123
| 31>     H       14.8858617   14.8239055   15.4722645
| 32>     H       16.7034727   17.5128821   14.9747638
| 33>     H       17.6048651   19.0202152   15.1026288
| 34>     H       15.9297319   18.9351214   15.6762733
| 35>     H       16.9902086   19.9741732   17.5850195
| 36>     H       19.1044859   17.9926872   20.3789688
| 37>     H       19.6167129   16.3432165   18.5669716
| 38>     H       19.2020704   14.0014121   18.8678340
| 39>     H       18.1385337   12.2169063   20.2227824
| 40>     H       16.2332708   12.7764230   21.7373988
| 41>     H       14.9578797   14.3772332   22.5192919
| 42>     H       16.4642890   16.8966277   20.5444516
| 43> *
| 44>
| 45>                          ****END OF INPUT****

CARTESIAN COORDINATES (ANGSTROEM)
---------------------------------
  C     14.947819   16.045778   17.252239
  C     15.555022   14.969312   16.330155
  O     16.906672   15.165904   15.828827
  C     18.025185   15.656216   16.463143
  O     19.048031   14.996501   16.439582
  C     17.902146   16.821165   17.388907
  C     17.384185   18.009602   16.995691
  C     16.875348   18.382459   15.617815
  N     17.406672   19.100792   17.867039
  C     18.041906   19.118353   19.080915
  S     18.078636   20.476877   20.022876
  N     18.652762   17.953463   19.473950
  C     18.581694   16.665749   18.754652
  C     17.917867   15.581797   19.604296
  C     18.376374   14.253104   19.530294
  C     17.773982   13.240317   20.294736
  C     16.702253   13.556063   21.146205
  C     16.242669   14.876995   21.227404
  O     15.202962   15.184766   22.042743
  C     16.844585   15.883441   20.465351
  H     15.519061   16.174976   18.173517
  H     13.939498   15.735874   17.553144
  H     14.841582   17.005723   16.739357
  H     15.548707   14.025969   16.892512
  H     14.885862   14.823905   15.472264
  H     16.703473   17.512882   14.974764
  H     17.604865   19.020215   15.102629
  H     15.929732   18.935121   15.676273
  H     16.990209   19.974173   17.585020
  H     19.104486   17.992687   20.378969
  H     19.616713   16.343217   18.566972
  H     19.202070   14.001412   18.867834
  H     18.138534   12.216906   20.222782
  H     16.233271   12.776423   21.737399
  H     14.957880   14.377233   22.519292
  H     16.464289   16.896628   20.544452

 Total Charge           Charge          ....    0
 Multiplicity           Mult            ....    1
 Number of Electrons    NEL             ....  154
 Basis Dimension        Dim             ....  828

ORBITAL ENERGIES
----------------

  NO   OCC          E(Eh)            E(eV)
   0   2.0000     -91.890553     -2500.4691
   1   2.0000     -20.599060      -560.5289
   2   2.0000     -20.591834      -560.3323
   3   2.0000     -20.549356      -559.1764
   4   2.0000     -15.628094      -425.2621
   5   2.0000     -15.611277      -424.8045
   6   2.0000     -11.398805      -310.1772
   7   2.0000     -11.386884      -309.8529
   8   2.0000     -11.331567      -308.3476
   9   2.0000     -11.315998      -307.9240
  10   2.0000     -11.313722      -307.8620
  11   2.0000     -11.311281      -307.7956
  12   2.0000     -11.265142      -306.5401
  13   2.0000     -11.263918      -306.5068
  14   2.0000     -11.263402      -306.4928
  15   2.0000     -11.256058      -306.2929
  16   2.0000     -11.245169      -305.9966
  17   2.0000     -11.241504      -305.8969
  18   2.0000     -11.237548      -305.7892
  19   2.0000     -11.235129      -305.7234
  20   2.0000      -8.895650      -242.0629
  21   2.0000      -6.577235      -178.9757
  22   2.0000      -6.575214      -178.9207
  23   2.0000      -6.574635      -178.9049
  24   2.0000      -1.441670       -39.2298
  25   2.0000      -1.418863       -38.6092
  26   2.0000      -1.353366       -36.8270
  27   2.0000      -1.340928       -36.4885
  28   2.0000      -1.240251       -33.7489
  29   2.0000      -1.159985       -31.5648
  30   2.0000      -1.124309       -30.5940
  31   2.0000      -1.047390       -28.5009
  32   2.0000      -1.040439       -28.3118
  33   2.0000      -1.018375       -27.7114
  34   2.0000      -1.004671       -27.3385
  35   2.0000      -0.990113       -26.9423
  36   2.0000      -0.927600       -25.2413
  37   2.0000      -0.899502       -24.4767
  38   2.0000      -0.852861       -23.2075
  39   2.0000      -0.841135       -22.8884
  40   2.0000      -0.835779       -22.7427
  41   2.0000      -0.827739       -22.5239
  42   2.0000      -0.748178       -20.3590
  43   2.0000      -0.733733       -19.9659
  44   2.0000      -0.729754       -19.8576
  45   2.0000      -0.696695       -18.9580
  46   2.0000      -0.687057       -18.6958
  47   2.0000      -0.676026       -18.3956
  48   2.0000      -0.674893       -18.3648
  49   2.0000      -0.663181       -18.0461
  50   2.0000      -0.654058       -17.7978
  51   2.0000      -0.651580       -17.7304
  52   2.0000      -0.640195       -17.4206
  53   2.0000      -0.613568       -16.6960
  54   2.0000      -0.605954       -16.4888
  55   2.0000      -0.603066       -16.4102
  56   2.0000      -0.600984       -16.3536
  57   2.0000      -0.595816       -16.2130
  58   2.0000      -0.576310       -15.6822
  59   2.0000      -0.575868       -15.6702
  60   2.0000      -0.565474       -15.3873
  61   2.0000      -0.556966       -15.1558
  62   2.0000      -0.543884       -14.7998
  63   2.0000      -0.531778       -14.4704
  64   2.0000      -0.522000       -14.2043
  65   2.0000      -0.514082       -13.9889
  66   2.0000      -0.502035       -13.6611
  67   2.0000      -0.491584       -13.3767
  68   2.0000      -0.484386       -13.1808
  69   2.0000      -0.466369       -12.6905
  70   2.0000      -0.458475       -12.4758
  71   2.0000      -0.448009       -12.1909
  72   2.0000      -0.355888        -9.6842
  73   2.0000      -0.349826        -9.5192
  74   2.0000      -0.330081        -8.9820
  75   2.0000      -0.323847        -8.8123
  76   2.0000      -0.319241        -8.6870
  77   0.0000       0.082305         2.2396
  78   0.0000       0.105184         2.8622
  79   0.0000       0.117200         3.1892
  80   0.0000       0.126304         3.4369
  81   0.0000       0.130244         3.5441

MULLIKEN ATOMIC CHARGES
-----------------------
   0 C :   -0.342944
   1 C :    0.048095
   2 O :   -0.355688
   3 C :    0.426346
   4 O :   -0.381283
   5 C :   -0.233888
   6 C :    0.168088
   7 C :   -0.323115
   8 N :   -0.137120
   9 C :    0.203762
  10 S :   -0.439936
  11 N :   -0.228701
  12 C :    0.103157
  13 C :    0.018342
  14 C :   -0.221147
  15 C :   -0.135636
  16 C :   -0.275770
  17 C :    0.326255
  18 O :   -0.356403
  19 C :   -0.284696
  20 H :    0.126145
  21 H :    0.129253
  22 H :    0.093898
  23 H :    0.108650
  24 H :    0.114252
  25 H :    0.130207
  26 H :    0.148325
  27 H :    0.108175
  28 H :    0.196876
  29 H :    0.202313
  30 H :    0.166045
  31 H :    0.178682
  32 H :    0.164938
  33 H :    0.132014
  34 H :    0.241100
  35 H :    0.181409
Sum of atomic charges:   -0.0000000

LOEWDIN ATOMIC CHARGES
----------------------
   0 C :    0.105568
   1 C :   -0.011822
   2 O :    0.281619
   3 C :   -0.414349
   4 O :    0.126142
   5 C :   -0.085096
   6 C :   -0.089433
   7 C :    0.123610
   8 N :    0.404382
   9 C :   -0.456876
  10 S :   -0.036765
  11 N :    0.397920
  12 C :   -0.043461
  13 C :   -0.043174
  14 C :    0.020149
  15 C :    0.043402
  16 C :   -0.001380
  17 C :   -0.193526
  18 O :    0.395205
  19 C :    0.025435
  20 H :   -0.033034
  21 H :   -0.018674
  22 H :   -0.033034
  23 H :   -0.025028
  24 H :   -0.020576
  25 H :   -0.011960
  26 H :   -0.008196
  27 H :   -0.019436
  28 H :   -0.057182
  29 H :   -0.063740
  30 H :   -0.002803
  31 H :   -0.021909
  32 H :   -0.018564
  33 H :   -0.034944
  34 H :   -0.153291
  35 H :   -0.025180

  Mayer bond orders larger than 0.100000
B(  0-C ,  1-C ) :   0.9614 B(  0-C , 20-H ) :   0.9658 B(  0-C , 21-H ) :   0.9774
B(  0-C , 22-H ) :   0.9750 B(  1-C ,  2-O ) :   0.9029 B(  1-C , 23-H ) :   0.9789
B(  1-C , 24-H ) :   0.9809 B(  2-O ,  3-C ) :   1.1502 B(  3-C ,  4-O ) :   2.0786
B(  3-C ,  5-C ) :   0.9565 B(  5-C ,  6-C ) :   1.6685 B(  5-C , 12-C ) :   0.9439
B(  6-C ,  7-C ) :   0.9476 B(  6-C ,  8-N ) :   1.1215 B(  7-C , 25-H ) :   0.9757
B(  7-C , 26-H ) :   0.9644 B(  7-C , 27-H ) :   0.9713 B(  8-N ,  9-C ) :   1.1951
B(  8-N , 28-H ) :   0.9508 B(  9-C , 10-S ) :   1.6093 B(  9-C , 11-N ) :   1.2886
B( 11-N , 12-C ) :   0.9869 B( 11-N , 29-H ) :   0.9478 B( 12-C , 13-C ) :   0.9512
B( 12-C , 30-H ) :   0.9961 B( 13-C , 14-C ) :   1.3912 B( 13-C , 19-C ) :   1.3376
B( 14-C , 15-C ) :   1.4025 B( 14-C , 31-H ) :   0.9566 B( 15-C , 16-C ) :   1.3582
B( 15-C , 32-H ) :   0.9696 B( 16-C , 17-C ) :   1.3323 B( 16-C , 33-H ) :   0.9846
B( 17-C , 18-O ) :   1.1096 B( 17-C , 19-C ) :   1.3656 B( 18-O , 34-H ) :   0.9795
B( 19-C , 35-H ) :   0.9573

MP2 TOTAL ENERGY:    -1274.323446989 Eh
FINAL SINGLE POINT ENERGY     -1274.323446989214

DIPOLE MOMENT
-------------
                                X             Y             Z
Electronic contribution:      9.44451       5.61542       6.48818
Nuclear contribution   :    -10.97014      -6.79402      -6.97524
                        -----------------------------------------
Total Dipole Moment    :     -1.52563      -1.17860      -0.48706
                        -----------------------------------------
Magnitude (a.u.)       :      1.98844
Magnitude (Debye)      :      5.05420

Rotational constants in cm-1:     0.011722     0.009490     0.006768
Rotational constants in MHz :   351.415507   284.507209   202.888834

                             ****ORCA TERMINATED NORMALLY****
TOTAL RUN TIME: 0 days 1 hours 48 minutes 47 seconds 437 msec
