                         Program Version 5.0.0 -  RELEASE  -
|  1> ! ri-mp2 cc-pvtz cc-pvtz/c TightSCF NoKeepInts
|  2>
|  3> %scf
|  4>   MaxCore 4096
|  5> end
|  6> *xyz  0  1
|  7>     C       14.9310710   14.2438025   16.4426702
|  8>     C       15.6945722   14.9233281   15.2868934
|  9>     O       16.4110670   16.0631904   15.7983422
| 10>     C       17.4962537   15.8788881   16.6070041
| 11>     O       18.0767565   14.8079874   16.6851157
| 12>     C       17.7949736   17.0268063   17.5285335
| 13>     C       17.3291179   18.2947130   17.3781026
| 14>     C       16.4475004   18.8422910   16.2743631
| 15>     N       17.7202261   19.2891868   18.2809900
| 16>     C       18.6677414   19.1339528   19.2580031
| 17>     S       19.1597655   20.3983099   20.2040472
| 18>     N       19.1869754   17.8737035   19.4107025
| 19>     C       18.6944869   16.6690815   18.7169253
| 20>     C       17.9650358   15.7496109   19.6931878
| 21>     C       18.3544163   14.4045440   19.8319222
| 22>     C       17.6800629   13.5512841   20.7213234
| 23>     C       16.6056545   14.0461522   21.4798163
| 24>     C       16.2120597   15.3841191   21.3420517
| 25>     O       15.1704298   15.8631848   22.0678956
| 26>     C       16.8849758   16.2308510   20.4556961
| 27>     H       15.6232172   13.8221368   17.1828127
| 28>     H       14.3091631   13.4254237   16.0604954
| 29>     H       14.2768921   14.9624903   16.9515320
| 30>     H       16.3834454   14.2104335   14.8131413
| 31>     H       14.9752469   15.2575161   14.5283914
| 32>     H       15.4332496   18.4306099   16.3495407
| 33>     H       16.8482011   18.5772075   15.2880226
| 34>     H       16.3622404   19.9353179   16.3028140
| 35>     H       17.3503986   20.2214308   18.1858315
| 36>     H       19.8604674   17.7780496   20.1598071
| 37>     H       19.5696099   16.1308776   18.3248294
| 38>     H       19.1730475   14.0144603   19.2319685
| 39>     H       17.9874240   12.5112326   20.8142000
| 40>     H       16.0807490   13.3901068   22.1660941
| 41>     H       14.8652232   15.1463961   22.6439388
| 42>     H       16.5652822   17.2633229   20.3669948
| 43> *
| 44>
| 45>                          ****END OF INPUT****

CARTESIAN COORDINATES (ANGSTROEM)
---------------------------------
  C     14.931071   14.243802   16.442670
  C     15.694572   14.923328   15.286893
  O     16.411067   16.063190   15.798342
  C     17.496254   15.878888   16.607004
  O     18.076756   14.807987   16.685116
  C     17.794974   17.026806   17.528534
  C     17.329118   18.294713   17.378103
  C     16.447500   18.842291   16.274363
  N     17.720226   19.289187   18.280990
  C     18.667741   19.133953   19.258003
  S     19.159765   20.398310   20.204047
  N     19.186975   17.873704   19.410702
  C     18.694487   16.669082   18.716925
  C     17.965036   15.749611   19.693188
  C     18.354416   14.404544   19.831922
  C     17.680063   13.551284   20.721323
  C     16.605654   14.046152   21.479816
  C     16.212060   15.384119   21.342052
  O     15.170430   15.863185   22.067896
  C     16.884976   16.230851   20.455696
  H     15.623217   13.822137   17.182813
  H     14.309163   13.425424   16.060495
  H     14.276892   14.962490   16.951532
  H     16.383445   14.210434   14.813141
  H     14.975247   15.257516   14.528391
  H     15.433250   18.430610   16.349541
  H     16.848201   18.577208   15.288023
  H     16.362240   19.935318   16.302814
  H     17.350399   20.221431   18.185831
  H     19.860467   17.778050   20.159807
  H     19.569610   16.130878   18.324829
  H     19.173047   14.014460   19.231969
  H     17.987424   12.511233   20.814200
  H     16.080749   13.390107   22.166094
  H     14.865223   15.146396   22.643939
  H     16.565282   17.263323   20.366995

 Total Charge           Charge          ....    0
 Multiplicity           Mult            ....    1
 Number of Electrons    NEL             ....  154
 Basis Dimension        Dim             ....  828

ORBITAL ENERGIES
----------------

  NO   OCC          E(Eh)            E(eV)
   0   2.0000     -91.888228     -2500.4058
   1   2.0000     -20.601725      -560.6014
   2   2.0000     -20.592286      -560.3446
   3   2.0000     -20.545901      -559.0824
   4   2.0000     -15.628530      -425.2739
   5   2.0000     -15.607000      -424.6881
   6   2.0000     -11.396282      -310.1086
   7   2.0000     -11.383185      -309.7522
   8   2.0000     -11.336459      -308.4807
   9   2.0000     -11.308214      -307.7121
  10   2.0000     -11.305847      -307.6477
  11   2.0000     -11.300274      -307.4961
  12   2.0000     -11.260549      -306.4151
  13   2.0000     -11.258750      -306.3662
  14   2.0000     -11.254022      -306.2375
  15   2.0000     -11.248396      -306.0844
  16   2.0000     -11.238043      -305.8027
  17   2.0000     -11.234117      -305.6959
  18   2.0000     -11.231101      -305.6138
  19   2.0000     -11.226013      -305.4754
  20   2.0000      -8.893291      -241.9987
  21   2.0000      -6.574868      -178.9112
  22   2.0000      -6.572861      -178.8566
  23   2.0000      -6.572275      -178.8407
  24   2.0000      -1.453359       -39.5479
  25   2.0000      -1.412033       -38.4234
  26   2.0000      -1.356805       -36.9205
  27   2.0000      -1.339472       -36.4489
  28   2.0000      -1.237169       -33.6651
  29   2.0000      -1.152851       -31.3707
  30   2.0000      -1.119819       -30.4718
  31   2.0000      -1.042187       -28.3594
  32   2.0000      -1.033583       -28.1252
  33   2.0000      -1.010128       -27.4870
  34   2.0000      -0.997726       -27.1495
  35   2.0000      -0.983227       -26.7550
  36   2.0000      -0.921716       -25.0812
  37   2.0000      -0.894501       -24.3406
  38   2.0000      -0.847724       -23.0678
  39   2.0000      -0.835552       -22.7365
  40   2.0000      -0.828544       -22.5458
  41   2.0000      -0.815194       -22.1826
  42   2.0000      -0.752656       -20.4808
  43   2.0000      -0.735873       -20.0241
  44   2.0000      -0.725274       -19.7357
  45   2.0000      -0.691208       -18.8087
  46   2.0000      -0.685668       -18.6580
  47   2.0000      -0.678942       -18.4750
  48   2.0000      -0.671431       -18.2706
  49   2.0000      -0.655219       -17.8294
  50   2.0000      -0.652382       -17.7522
  51   2.0000      -0.644617       -17.5409
  52   2.0000      -0.631901       -17.1949
  53   2.0000      -0.612444       -16.6655
  54   2.0000      -0.600600       -16.3432
  55   2.0000      -0.600083       -16.3291
  56   2.0000      -0.595667       -16.2089
  57   2.0000      -0.580425       -15.7942
  58   2.0000      -0.574289       -15.6272
  59   2.0000      -0.563601       -15.3364
  60   2.0000      -0.557281       -15.1644
  61   2.0000      -0.547170       -14.8893
  62   2.0000      -0.535601       -14.5744
  63   2.0000      -0.530054       -14.4235
  64   2.0000      -0.517401       -14.0792
  65   2.0000      -0.509410       -13.8618
  66   2.0000      -0.497945       -13.5498
  67   2.0000      -0.494877       -13.4663
  68   2.0000      -0.481613       -13.1054
  69   2.0000      -0.463373       -12.6090
  70   2.0000      -0.459729       -12.5099
  71   2.0000      -0.451646       -12.2899
  72   2.0000      -0.354285        -9.6406
  73   2.0000      -0.344664        -9.3788
  74   2.0000      -0.327374        -8.9083
  75   2.0000      -0.315993        -8.5986
  76   2.0000      -0.314366        -8.5543
  77   0.0000       0.075613         2.0575
  78   0.0000       0.111962         3.0466
  79   0.0000       0.120651         3.2831
  80   0.0000       0.135408         3.6846
  81   0.0000       0.141997         3.8639

MULLIKEN ATOMIC CHARGES
-----------------------
   0 C :   -0.297627
   1 C :    0.030164
   2 O :   -0.353981
   3 C :    0.444604
   4 O :   -0.429660
   5 C :   -0.169467
   6 C :    0.142710
   7 C :   -0.283202
   8 N :   -0.122012
   9 C :    0.202289
  10 S :   -0.439167
  11 N :   -0.198979
  12 C :    0.041035
  13 C :    0.054942
  14 C :   -0.164402
  15 C :   -0.134583
  16 C :   -0.279550
  17 C :    0.312471
  18 O :   -0.358995
  19 C :   -0.273160
  20 H :    0.123278
  21 H :    0.095460
  22 H :    0.093683
  23 H :    0.109214
  24 H :    0.107687
  25 H :    0.126472
  26 H :    0.126924
  27 H :    0.101451
  28 H :    0.196889
  29 H :    0.193954
  30 H :    0.153711
  31 H :    0.154479
  32 H :    0.159768
  33 H :    0.128600
  34 H :    0.240151
  35 H :    0.164847
Sum of atomic charges:   -0.0000000

LOEWDIN ATOMIC CHARGES
----------------------
   0 C :    0.106202
   1 C :   -0.017638
   2 O :    0.303355
   3 C :   -0.414300
   4 O :    0.104236
   5 C :   -0.091070
   6 C :   -0.065811
   7 C :    0.125325
   8 N :    0.404858
   9 C :   -0.458612
  10 S :   -0.035874
  11 N :    0.397882
  12 C :   -0.046336
  13 C :   -0.039348
  14 C :    0.021791
  15 C :    0.040265
  16 C :   -0.002308
  17 C :   -0.192638
  18 O :    0.393129
  19 C :    0.028625
  20 H :   -0.022866
  21 H :   -0.026508
  22 H :   -0.029401
  23 H :   -0.027865
  24 H :   -0.025853
  25 H :   -0.009975
  26 H :   -0.008096
  27 H :   -0.021077
  28 H :   -0.059092
  29 H :   -0.063660
  30 H :   -0.005083
  31 H :   -0.025170
  32 H :   -0.021121
  33 H :   -0.036262
  34 H :   -0.154806
  35 H :   -0.024898

  Mayer bond orders larger than 0.100000
B(  0-C ,  1-C ) :   0.9618 B(  0-C , 20-H ) :   0.9724 B(  0-C , 21-H ) :   0.9760
B(  0-C , 22-H ) :   0.9769 B(  1-C ,  2-O ) :   0.8942 B(  1-C , 23-H ) :   0.9790
B(  1-C , 24-H ) :   0.9844 B(  2-O ,  3-C ) :   1.1463 B(  3-C ,  4-O ) :   1.9818
B(  3-C ,  5-C ) :   1.0524 B(  5-C ,  6-C ) :   1.6465 B(  5-C , 12-C ) :   0.9666
B(  6-C ,  7-C ) :   0.9555 B(  6-C ,  8-N ) :   1.1486 B(  7-C , 25-H ) :   0.9635
B(  7-C , 26-H ) :   0.9658 B(  7-C , 27-H ) :   0.9909 B(  8-N ,  9-C ) :   1.1791
B(  8-N , 28-H ) :   0.9488 B(  9-C , 10-S ) :   1.6108 B(  9-C , 11-N ) :   1.3040
B( 11-N , 12-C ) :   0.9921 B( 11-N , 29-H ) :   0.9518 B( 12-C , 13-C ) :   0.9452
B( 12-C , 30-H ) :   1.0000 B( 13-C , 14-C ) :   1.3753 B( 13-C , 19-C ) :   1.3700
B( 14-C , 15-C ) :   1.3944 B( 14-C , 31-H ) :   0.9645 B( 15-C , 16-C ) :   1.3623
B( 15-C , 32-H ) :   0.9712 B( 16-C , 17-C ) :   1.3315 B( 16-C , 33-H ) :   0.9858
B( 17-C , 18-O ) :   1.1082 B( 17-C , 19-C ) :   1.3779 B( 18-O , 34-H ) :   0.9805
B( 19-C , 35-H ) :   0.9584

MP2 TOTAL ENERGY:    -1274.347890988 Eh
FINAL SINGLE POINT ENERGY     -1274.347890988281

DIPOLE MOMENT
-------------
                                X             Y             Z
Electronic contribution:     10.46863       9.85050       8.66230
Nuclear contribution   :    -11.93793     -11.10108      -9.70900
                        -----------------------------------------
Total Dipole Moment    :     -1.46930      -1.25058      -1.04669
                        -----------------------------------------
Magnitude (a.u.)       :      2.19508
Magnitude (Debye)      :      5.57944

Rotational constants in cm-1:     0.011022     0.009233     0.006189
Rotational constants in MHz :   330.435292   276.789892   185.534813

                             ****ORCA TERMINATED NORMALLY****
TOTAL RUN TIME: 0 days 1 hours 46 minutes 57 seconds 763 msec
