                         Program Version 4.2.0 -  RELEASE  -
|  1> ! ri-mp2 cc-pvtz cc-pvtz/c TightSCF  NoKeepInts
|  2>
|  3> %scf
|  4>   MaxCore 4096
|  5> end
|  6> *xyz  0  1
|  7>     C       15.7268430   13.2140586   16.5943368
|  8>     C       15.6979347   14.7327415   16.8323719
|  9>     O       16.9209234   15.2759957   16.3033270
| 10>     C       16.9774949   16.6269735   16.1329750
| 11>     O       16.2511439   17.1573445   15.3118770
| 12>     C       17.5715647   17.3548827   17.3109362
| 13>     C       17.4258210   18.6938813   17.4898488
| 14>     C       16.6053188   19.6528151   16.6536410
| 15>     N       18.1260385   19.3425906   18.5122326
| 16>     C       19.1400716   18.7769020   19.2389705
| 17>     S       20.0539945   19.6553348   20.3012180
| 18>     N       19.3676109   17.4407844   19.0272778
| 19>     C       18.4709446   16.5509151   18.2676538
| 20>     C       17.6873669   15.6861952   19.2489610
| 21>     C       17.9609191   14.3094713   19.3556713
| 22>     C       17.2410583   13.5049737   20.2548458
| 23>     C       16.2444783   14.0824110   21.0598538
| 24>     C       15.9776493   15.4549947   20.9653784
| 25>     O       15.0166479   16.0159600   21.7412583
| 26>     C       16.6934016   16.2527977   20.0674180
| 27>     H       14.8027846   12.7502642   16.9598915
| 28>     H       16.5728493   12.7560198   17.1208996
| 29>     H       15.8230411   12.9931406   15.5239002
| 30>     H       14.8354833   15.1569700   16.2998392
| 31>     H       15.5820920   14.9537433   17.8992259
| 32>     H       15.5580718   19.3277447   16.6089008
| 33>     H       16.9817572   19.6848972   15.6231251
| 34>     H       16.6150610   20.6779231   17.0420861
| 35>     H       17.9804278   20.3274991   18.6673405
| 36>     H       20.1056218   17.0442337   19.5948046
| 37>     H       19.1001279   15.8906587   17.6539375
| 38>     H       18.7289221   13.8590584   18.7321695
| 39>     H       17.4576251   12.4403704   20.3271896
| 40>     H       15.6867991   13.4651774   21.7567679
| 41>     H       14.6828099   15.3281351   22.3369340
| 42>     H       16.4763002   17.3141407   20.0169349
| 43> *
| 44>
| 45>                          ****END OF INPUT****

CARTESIAN COORDINATES (ANGSTROEM)
---------------------------------
  C     15.726843   13.214059   16.594337
  C     15.697935   14.732741   16.832372
  O     16.920923   15.275996   16.303327
  C     16.977495   16.626973   16.132975
  O     16.251144   17.157344   15.311877
  C     17.571565   17.354883   17.310936
  C     17.425821   18.693881   17.489849
  C     16.605319   19.652815   16.653641
  N     18.126038   19.342591   18.512233
  C     19.140072   18.776902   19.238971
  S     20.053995   19.655335   20.301218
  N     19.367611   17.440784   19.027278
  C     18.470945   16.550915   18.267654
  C     17.687367   15.686195   19.248961
  C     17.960919   14.309471   19.355671
  C     17.241058   13.504974   20.254846
  C     16.244478   14.082411   21.059854
  C     15.977649   15.454995   20.965378
  O     15.016648   16.015960   21.741258
  C     16.693402   16.252798   20.067418
  H     14.802785   12.750264   16.959892
  H     16.572849   12.756020   17.120900
  H     15.823041   12.993141   15.523900
  H     14.835483   15.156970   16.299839
  H     15.582092   14.953743   17.899226
  H     15.558072   19.327745   16.608901
  H     16.981757   19.684897   15.623125
  H     16.615061   20.677923   17.042086
  H     17.980428   20.327499   18.667340
  H     20.105622   17.044234   19.594805
  H     19.100128   15.890659   17.653937
  H     18.728922   13.859058   18.732170
  H     17.457625   12.440370   20.327190
  H     15.686799   13.465177   21.756768
  H     14.682810   15.328135   22.336934
  H     16.476300   17.314141   20.016935

 Total Charge           Charge          ....    0
 Multiplicity           Mult            ....    1
 Number of Electrons    NEL             ....  154
 Basis Dimension        Dim             ....  828

ORBITAL ENERGIES
----------------

  NO   OCC          E(Eh)            E(eV)
   0   2.0000     -91.891234     -2500.4876
   1   2.0000     -20.601619      -560.5986
   2   2.0000     -20.582217      -560.0706
   3   2.0000     -20.548351      -559.1491
   4   2.0000     -15.631714      -425.3606
   5   2.0000     -15.610084      -424.7720
   6   2.0000     -11.392459      -310.0046
   7   2.0000     -11.385786      -309.8230
   8   2.0000     -11.338072      -308.5246
   9   2.0000     -11.319560      -308.0209
  10   2.0000     -11.312466      -307.8278
  11   2.0000     -11.292841      -307.2938
  12   2.0000     -11.264150      -306.5131
  13   2.0000     -11.260882      -306.4242
  14   2.0000     -11.260231      -306.4065
  15   2.0000     -11.253655      -306.2275
  16   2.0000     -11.248656      -306.0915
  17   2.0000     -11.243081      -305.9398
  18   2.0000     -11.242946      -305.9361
  19   2.0000     -11.225614      -305.4645
  20   2.0000      -8.896258      -242.0795
  21   2.0000      -6.577823      -178.9917
  22   2.0000      -6.575829      -178.9374
  23   2.0000      -6.575232      -178.9212
  24   2.0000      -1.449238       -39.4358
  25   2.0000      -1.421325       -38.6762
  26   2.0000      -1.352377       -36.8001
  27   2.0000      -1.342792       -36.5392
  28   2.0000      -1.241115       -33.7725
  29   2.0000      -1.162362       -31.6295
  30   2.0000      -1.121616       -30.5207
  31   2.0000      -1.046338       -28.4723
  32   2.0000      -1.033922       -28.1344
  33   2.0000      -1.020709       -27.7749
  34   2.0000      -0.998238       -27.1634
  35   2.0000      -0.986223       -26.8365
  36   2.0000      -0.925805       -25.1924
  37   2.0000      -0.878246       -23.8983
  38   2.0000      -0.849518       -23.1166
  39   2.0000      -0.842680       -22.9305
  40   2.0000      -0.838837       -22.8259
  41   2.0000      -0.828891       -22.5553
  42   2.0000      -0.761475       -20.7208
  43   2.0000      -0.736397       -20.0384
  44   2.0000      -0.724478       -19.7141
  45   2.0000      -0.700921       -19.0730
  46   2.0000      -0.691712       -18.8224
  47   2.0000      -0.679076       -18.4786
  48   2.0000      -0.672947       -18.3118
  49   2.0000      -0.656827       -17.8732
  50   2.0000      -0.648641       -17.6504
  51   2.0000      -0.644530       -17.5386
  52   2.0000      -0.627765       -17.0823
  53   2.0000      -0.625439       -17.0191
  54   2.0000      -0.612068       -16.6552
  55   2.0000      -0.603918       -16.4335
  56   2.0000      -0.601297       -16.3621
  57   2.0000      -0.581955       -15.8358
  58   2.0000      -0.572537       -15.5795
  59   2.0000      -0.565761       -15.3951
  60   2.0000      -0.554358       -15.0848
  61   2.0000      -0.541332       -14.7304
  62   2.0000      -0.532935       -14.5019
  63   2.0000      -0.529922       -14.4199
  64   2.0000      -0.517872       -14.0920
  65   2.0000      -0.516256       -14.0480
  66   2.0000      -0.506567       -13.7844
  67   2.0000      -0.500340       -13.6149
  68   2.0000      -0.485744       -13.2178
  69   2.0000      -0.464844       -12.6490
  70   2.0000      -0.457234       -12.4420
  71   2.0000      -0.444592       -12.0980
  72   2.0000      -0.358138        -9.7454
  73   2.0000      -0.354137        -9.6366
  74   2.0000      -0.331007        -9.0072
  75   2.0000      -0.327033        -8.8990
  76   2.0000      -0.318145        -8.6572
  77   0.0000       0.067614         1.8399
  78   0.0000       0.101450         2.7606
  79   0.0000       0.122138         3.3235
  80   0.0000       0.127217         3.4618
  81   0.0000       0.132570         3.6074

MULLIKEN ATOMIC CHARGES
-----------------------
   0 C :   -0.267539
   1 C :    0.012949
   2 O :   -0.382723
   3 C :    0.512542
   4 O :   -0.405791
   5 C :   -0.281328
   6 C :    0.155047
   7 C :   -0.269996
   8 N :   -0.124699
   9 C :    0.209526
  10 S :   -0.435213
  11 N :   -0.197085
  12 C :    0.042035
  13 C :    0.027745
  14 C :   -0.170648
  15 C :   -0.135816
  16 C :   -0.269489
  17 C :    0.303319
  18 O :   -0.356314
  19 C :   -0.246389
  20 H :    0.088604
  21 H :    0.089218
  22 H :    0.107088
  23 H :    0.117807
  24 H :    0.114275
  25 H :    0.129614
  26 H :    0.134764
  27 H :    0.094561
  28 H :    0.198647
  29 H :    0.192254
  30 H :    0.149292
  31 H :    0.154724
  32 H :    0.165715
  33 H :    0.133707
  34 H :    0.241683
  35 H :    0.167916
Sum of atomic charges:   -0.0000000

LOEWDIN ATOMIC CHARGES
----------------------
   0 C :    0.109733
   1 C :   -0.017369
   2 O :    0.287548
   3 C :   -0.419867
   4 O :    0.120742
   5 C :   -0.099243
   6 C :   -0.057777
   7 C :    0.130894
   8 N :    0.406976
   9 C :   -0.457291
  10 S :   -0.031885
  11 N :    0.396302
  12 C :   -0.053349
  13 C :   -0.039580
  14 C :    0.015548
  15 C :    0.043325
  16 C :   -0.001204
  17 C :   -0.191104
  18 O :    0.396700
  19 C :    0.030046
  20 H :   -0.025436
  21 H :   -0.031972
  22 H :   -0.024707
  23 H :   -0.029705
  24 H :   -0.035250
  25 H :   -0.005286
  26 H :   -0.003116
  27 H :   -0.023244
  28 H :   -0.057391
  29 H :   -0.065188
  30 H :   -0.006903
  31 H :   -0.029628
  32 H :   -0.019864
  33 H :   -0.034270
  34 H :   -0.152669
  35 H :   -0.024515

  Mayer bond orders larger than 0.100000
B(  0-C ,  1-C ) :   0.9807 B(  0-C , 20-H ) :   0.9758 B(  0-C , 21-H ) :   0.9779
B(  0-C , 22-H ) :   0.9785 B(  1-C ,  2-O ) :   0.8727 B(  1-C , 23-H ) :   0.9782
B(  1-C , 24-H ) :   0.9629 B(  2-O ,  3-C ) :   1.1088 B(  3-C ,  4-O ) :   2.0215
B(  3-C ,  5-C ) :   1.0569 B(  5-C ,  6-C ) :   1.6547 B(  5-C , 12-C ) :   0.9712
B(  6-C ,  7-C ) :   0.9704 B(  6-C ,  8-N ) :   1.1549 B(  7-C , 25-H ) :   0.9626
B(  7-C , 26-H ) :   0.9575 B(  7-C , 27-H ) :   0.9892 B(  8-N ,  9-C ) :   1.1784
B(  8-N , 28-H ) :   0.9480 B(  9-C , 10-S ) :   1.6147 B(  9-C , 11-N ) :   1.3022
B( 11-N , 12-C ) :   0.9761 B( 11-N , 29-H ) :   0.9540 B( 12-C , 13-C ) :   0.9462
B( 12-C , 30-H ) :   1.0021 B( 13-C , 14-C ) :   1.3573 B( 13-C , 19-C ) :   1.3720
B( 14-C , 15-C ) :   1.3827 B( 14-C , 31-H ) :   0.9715 B( 15-C , 16-C ) :   1.3658
B( 15-C , 32-H ) :   0.9687 B( 16-C , 17-C ) :   1.3273 B( 16-C , 33-H ) :   0.9837
B( 17-C , 18-O ) :   1.1151 B( 17-C , 19-C ) :   1.3798 B( 18-O , 34-H ) :   0.9790
B( 19-C , 35-H ) :   0.9568

MP2 TOTAL ENERGY:    -1274.330044382 Eh
FINAL SINGLE POINT ENERGY     -1274.330044381848

DIPOLE MOMENT
-------------
                                X             Y             Z
Electronic contribution:      9.55411      10.81850       5.58149
Nuclear contribution   :    -10.66891     -12.26805      -5.36799
                        -----------------------------------------
Total Dipole Moment    :     -1.11480      -1.44955       0.21350
                        -----------------------------------------
Magnitude (a.u.)       :      1.84107
Magnitude (Debye)      :      4.67964

Rotational constants in cm-1:     0.012341     0.008974     0.006405
Rotational constants in MHz :   369.984385   269.035130   192.031002

                             ****ORCA TERMINATED NORMALLY****
TOTAL RUN TIME: 0 days 1 hours 58 minutes 6 seconds 310 msec
