                         Program Version 4.2.0 -  RELEASE  -
|  1> ! ri-mp2 cc-pvtz cc-pvtz/c TightSCF  NoKeepInts
|  2>
|  3> %scf
|  4>   MaxCore 4096
|  5> end
|  6> *xyz  0  1
|  7>     C       15.4132776   14.2703999   14.4361069
|  8>     C       15.1157275   14.7238909   15.8760287
|  9>     O       16.0132665   15.8037491   16.1920687
| 10>     C       17.1258077   15.5632131   16.9466328
| 11>     O       17.5408938   14.4345600   17.1549211
| 12>     C       17.6656699   16.7647648   17.6700904
| 13>     C       17.3669829   18.0576083   17.3740709
| 14>     C       16.4612518   18.5824143   16.2785800
| 15>     N       17.9858715   19.0925920   18.0834367
| 16>     C       19.0104052   18.9276777   18.9775687
| 17>     S       19.7774005   20.2176862   19.6727284
| 18>     N       19.3668601   17.6350072   19.2655022
| 19>     C       18.6303059   16.4387714   18.8165487
| 20>     C       17.8938132   15.7946793   19.9884732
| 21>     C       18.0971896   14.4370942   20.2979407
| 22>     C       17.4209012   13.8380536   21.3739125
| 23>     C       16.5323541   14.6024691   22.1489805
| 24>     C       16.3238744   15.9539227   21.8421094
| 25>     O       15.4618977   16.6932678   22.5849210
| 26>     C       16.9980504   16.5472194   20.7701965
| 27>     H       15.3090962   15.1075265   13.7348801
| 28>     H       14.7198571   13.4771018   14.1317386
| 29>     H       16.4354311   13.8780794   14.3602800
| 30>     H       14.0813200   15.0872941   15.9256522
| 31>     H       15.2136472   13.8857947   16.5800609
| 32>     H       16.7242924   18.1392305   15.3099593
| 33>     H       16.5245645   19.6709709   16.1609982
| 34>     H       15.4136913   18.3348626   16.4908300
| 35>     H       17.7384515   20.0489493   17.8857770
| 36>     H       20.1036880   17.5389549   19.9523552
| 37>     H       19.3693639   15.7180894   18.4375228
| 38>     H       18.7708722   13.8391743   19.6888952
| 39>     H       17.5827467   12.7853670   21.5985213
| 40>     H       16.0066287   14.1433620   22.9794747
| 41>     H       15.1269944   16.1226718   23.2927310
| 42>     H       16.8245535   17.5955300   20.5535057
| 43> *
| 44>
| 45>                          ****END OF INPUT****

CARTESIAN COORDINATES (ANGSTROEM)
---------------------------------
  C     15.413278   14.270400   14.436107
  C     15.115728   14.723891   15.876029
  O     16.013267   15.803749   16.192069
  C     17.125808   15.563213   16.946633
  O     17.540894   14.434560   17.154921
  C     17.665670   16.764765   17.670090
  C     17.366983   18.057608   17.374071
  C     16.461252   18.582414   16.278580
  N     17.985871   19.092592   18.083437
  C     19.010405   18.927678   18.977569
  S     19.777400   20.217686   19.672728
  N     19.366860   17.635007   19.265502
  C     18.630306   16.438771   18.816549
  C     17.893813   15.794679   19.988473
  C     18.097190   14.437094   20.297941
  C     17.420901   13.838054   21.373912
  C     16.532354   14.602469   22.148981
  C     16.323874   15.953923   21.842109
  O     15.461898   16.693268   22.584921
  C     16.998050   16.547219   20.770197
  H     15.309096   15.107526   13.734880
  H     14.719857   13.477102   14.131739
  H     16.435431   13.878079   14.360280
  H     14.081320   15.087294   15.925652
  H     15.213647   13.885795   16.580061
  H     16.724292   18.139231   15.309959
  H     16.524565   19.670971   16.160998
  H     15.413691   18.334863   16.490830
  H     17.738452   20.048949   17.885777
  H     20.103688   17.538955   19.952355
  H     19.369364   15.718089   18.437523
  H     18.770872   13.839174   19.688895
  H     17.582747   12.785367   21.598521
  H     16.006629   14.143362   22.979475
  H     15.126994   16.122672   23.292731
  H     16.824554   17.595530   20.553506

 Total Charge           Charge          ....    0
 Multiplicity           Mult            ....    1
 Number of Electrons    NEL             ....  154
 Basis Dimension        Dim             ....  828

ORBITAL ENERGIES
----------------

  NO   OCC          E(Eh)            E(eV)
   0   2.0000     -91.888064     -2500.4013
   1   2.0000     -20.602827      -560.6314
   2   2.0000     -20.591303      -560.3178
   3   2.0000     -20.546270      -559.0924
   4   2.0000     -15.628484      -425.2727
   5   2.0000     -15.606651      -424.6786
   6   2.0000     -11.396740      -310.1211
   7   2.0000     -11.382917      -309.7449
   8   2.0000     -11.336582      -308.4841
   9   2.0000     -11.307127      -307.6826
  10   2.0000     -11.305445      -307.6368
  11   2.0000     -11.299692      -307.4803
  12   2.0000     -11.260731      -306.4201
  13   2.0000     -11.258965      -306.3720
  14   2.0000     -11.253111      -306.2127
  15   2.0000     -11.247284      -306.0541
  16   2.0000     -11.236926      -305.7723
  17   2.0000     -11.233063      -305.6672
  18   2.0000     -11.230042      -305.5850
  19   2.0000     -11.228204      -305.5350
  20   2.0000      -8.893127      -241.9943
  21   2.0000      -6.574704      -178.9068
  22   2.0000      -6.572697      -178.8522
  23   2.0000      -6.572111      -178.8362
  24   2.0000      -1.454325       -39.5742
  25   2.0000      -1.411036       -38.3962
  26   2.0000      -1.357581       -36.9417
  27   2.0000      -1.339395       -36.4468
  28   2.0000      -1.236951       -33.6591
  29   2.0000      -1.151826       -31.3428
  30   2.0000      -1.119466       -30.4622
  31   2.0000      -1.042823       -28.3767
  32   2.0000      -1.035422       -28.1753
  33   2.0000      -1.009156       -27.4605
  34   2.0000      -0.997299       -27.1379
  35   2.0000      -0.982767       -26.7425
  36   2.0000      -0.921071       -25.0636
  37   2.0000      -0.890979       -24.2448
  38   2.0000      -0.847542       -23.0628
  39   2.0000      -0.835120       -22.7248
  40   2.0000      -0.827510       -22.5177
  41   2.0000      -0.818110       -22.2619
  42   2.0000      -0.758052       -20.6276
  43   2.0000      -0.735551       -20.0153
  44   2.0000      -0.724728       -19.7208
  45   2.0000      -0.690327       -18.7847
  46   2.0000      -0.685129       -18.6433
  47   2.0000      -0.680053       -18.5052
  48   2.0000      -0.671821       -18.2812
  49   2.0000      -0.656573       -17.8663
  50   2.0000      -0.646998       -17.6057
  51   2.0000      -0.641751       -17.4629
  52   2.0000      -0.628773       -17.1098
  53   2.0000      -0.614581       -16.7236
  54   2.0000      -0.600129       -16.3303
  55   2.0000      -0.599370       -16.3097
  56   2.0000      -0.594567       -16.1790
  57   2.0000      -0.584311       -15.8999
  58   2.0000      -0.572813       -15.5870
  59   2.0000      -0.564777       -15.3684
  60   2.0000      -0.560942       -15.2640
  61   2.0000      -0.545709       -14.8495
  62   2.0000      -0.533662       -14.5217
  63   2.0000      -0.529985       -14.4216
  64   2.0000      -0.516853       -14.0643
  65   2.0000      -0.509764       -13.8714
  66   2.0000      -0.500433       -13.6175
  67   2.0000      -0.495230       -13.4759
  68   2.0000      -0.480286       -13.0692
  69   2.0000      -0.462873       -12.5954
  70   2.0000      -0.457181       -12.4405
  71   2.0000      -0.455370       -12.3913
  72   2.0000      -0.354254        -9.6397
  73   2.0000      -0.343699        -9.3525
  74   2.0000      -0.327171        -8.9028
  75   2.0000      -0.315546        -8.5864
  76   2.0000      -0.313475        -8.5301
  77   0.0000       0.075825         2.0633
  78   0.0000       0.113530         3.0893
  79   0.0000       0.121443         3.3046
  80   0.0000       0.136101         3.7035
  81   0.0000       0.140393         3.8203

MULLIKEN ATOMIC CHARGES
-----------------------
   0 C :   -0.279106
   1 C :    0.031485
   2 O :   -0.346854
   3 C :    0.446761
   4 O :   -0.433097
   5 C :   -0.172940
   6 C :    0.145086
   7 C :   -0.284412
   8 N :   -0.121622
   9 C :    0.201043
  10 S :   -0.439176
  11 N :   -0.196721
  12 C :    0.035099
  13 C :    0.057030
  14 C :   -0.161392
  15 C :   -0.134099
  16 C :   -0.278872
  17 C :    0.311597
  18 O :   -0.359115
  19 C :   -0.272031
  20 H :    0.090770
  21 H :    0.094179
  22 H :    0.107614
  23 H :    0.102885
  24 H :    0.110985
  25 H :    0.126628
  26 H :    0.101998
  27 H :    0.127891
  28 H :    0.196741
  29 H :    0.193571
  30 H :    0.153448
  31 H :    0.153406
  32 H :    0.158949
  33 H :    0.127898
  34 H :    0.239994
  35 H :    0.164374
Sum of atomic charges:   -0.0000000

LOEWDIN ATOMIC CHARGES
----------------------
   0 C :    0.104110
   1 C :   -0.014835
   2 O :    0.307031
   3 C :   -0.414300
   4 O :    0.102509
   5 C :   -0.090881
   6 C :   -0.065449
   7 C :    0.124976
   8 N :    0.404877
   9 C :   -0.458996
  10 S :   -0.035901
  11 N :    0.397891
  12 C :   -0.046430
  13 C :   -0.038868
  14 C :    0.022000
  15 C :    0.040727
  16 C :   -0.002312
  17 C :   -0.192538
  18 O :    0.392996
  19 C :    0.028536
  20 H :   -0.029840
  21 H :   -0.026702
  22 H :   -0.023976
  23 H :   -0.028205
  24 H :   -0.026158
  25 H :   -0.008748
  26 H :   -0.021047
  27 H :   -0.009435
  28 H :   -0.059157
  29 H :   -0.063639
  30 H :   -0.005073
  31 H :   -0.025355
  32 H :   -0.021302
  33 H :   -0.036442
  34 H :   -0.154941
  35 H :   -0.025123

  Mayer bond orders larger than 0.100000
B(  0-C ,  1-C ) :   0.9682 B(  0-C , 20-H ) :   0.9783 B(  0-C , 21-H ) :   0.9761
B(  0-C , 22-H ) :   0.9769 B(  1-C ,  2-O ) :   0.8908 B(  1-C , 23-H ) :   0.9840
B(  1-C , 24-H ) :   0.9734 B(  2-O ,  3-C ) :   1.1537 B(  3-C ,  4-O ) :   1.9653
B(  3-C ,  5-C ) :   1.0633 B(  5-C ,  6-C ) :   1.6477 B(  5-C , 12-C ) :   0.9653
B(  6-C ,  7-C ) :   0.9547 B(  6-C ,  8-N ) :   1.1481 B(  7-C , 25-H ) :   0.9659
B(  7-C , 26-H ) :   0.9913 B(  7-C , 27-H ) :   0.9636 B(  8-N ,  9-C ) :   1.1782
B(  8-N , 28-H ) :   0.9488 B(  9-C , 10-S ) :   1.6108 B(  9-C , 11-N ) :   1.3043
B( 11-N , 12-C ) :   0.9927 B( 11-N , 29-H ) :   0.9519 B( 12-C , 13-C ) :   0.9476
B( 12-C , 30-H ) :   1.0001 B( 13-C , 14-C ) :   1.3753 B( 13-C , 19-C ) :   1.3695
B( 14-C , 15-C ) :   1.3945 B( 14-C , 31-H ) :   0.9650 B( 15-C , 16-C ) :   1.3625
B( 15-C , 32-H ) :   0.9715 B( 16-C , 17-C ) :   1.3315 B( 16-C , 33-H ) :   0.9860
B( 17-C , 18-O ) :   1.1079 B( 17-C , 19-C ) :   1.3791 B( 18-O , 34-H ) :   0.9806
B( 19-C , 35-H ) :   0.9585

MP2 TOTAL ENERGY:    -1274.346582747 Eh
FINAL SINGLE POINT ENERGY     -1274.346582747470

DIPOLE MOMENT
-------------
                                X             Y             Z
Electronic contribution:     10.40016       9.32120      11.97802
Nuclear contribution   :    -12.09062     -10.45970     -12.81544
                        -----------------------------------------
Total Dipole Moment    :     -1.69046      -1.13849      -0.83742
                        -----------------------------------------
Magnitude (a.u.)       :      2.20342
Magnitude (Debye)      :      5.60066

Rotational constants in cm-1:     0.010541     0.008765     0.005734
Rotational constants in MHz :   316.011363   262.754812   171.914203

                             ****ORCA TERMINATED NORMALLY****
TOTAL RUN TIME: 0 days 1 hours 39 minutes 21 seconds 769 msec
