                         Program Version 5.0.0 -  RELEASE  -
|  1> ! ri-mp2 cc-pvtz cc-pvtz/c TightSCF NoKeepInts
|  2>
|  3> %scf
|  4>   MaxCore 4096
|  5> end
|  6> *xyz  0  1
|  7>     C       14.9669239   14.3292937   17.2051488
|  8>     C       15.4703487   15.6681264   16.6405670
|  9>     O       16.7101989   15.4016397   15.9517136
| 10>     C       17.9308444   15.6661671   16.5156105
| 11>     O       18.8020244   14.8159449   16.5208637
| 12>     C       18.0259362   16.8925423   17.3684552
| 13>     C       17.5487286   18.1030658   16.9917675
| 14>     C       16.8999341   18.4596743   15.6710941
| 15>     N       17.7024895   19.2042068   17.8375175
| 16>     C       18.4044965   19.1923457   19.0148282
| 17>     S       18.5911675   20.5583259   19.9275850
| 18>     N       18.9391740   17.9880410   19.4019745
| 19>     C       18.7307012   16.7006392   18.7103186
| 20>     C       17.9376289   15.7293349   19.5793035
| 21>     C       18.3731594   14.4012290   19.7385673
| 22>     C       17.6283971   13.4905081   20.5063032
| 23>     C       16.4341381   13.9090875   21.1171321
| 24>     C       15.9931236   15.2291888   20.9551735
| 25>     O       14.8320697   15.6328746   21.5290548
| 26>     C       16.7371470   16.1341399   20.1917114
| 27>     H       15.6832433   13.9236026   17.9313323
| 28>     H       14.8375118   13.5934398   16.4016241
| 29>     H       14.0035209   14.4609411   17.7122953
| 30>     H       14.7308069   16.0493550   15.9247577
| 31>     H       15.5694802   16.3972164   17.4532744
| 32>     H       17.1738514   17.7525307   14.8780113
| 33>     H       17.2169642   19.4516340   15.3249878
| 34>     H       15.8068332   18.4670711   15.7557577
| 35>     H       17.3269127   20.0998717   17.5675819
| 36>     H       19.4312501   18.0043552   20.2864502
| 37>     H       19.7193192   16.2609583   18.5114844
| 38>     H       19.2843205   14.0680098   19.2463040
| 39>     H       17.9740043   12.4639618   20.6165564
| 40>     H       15.8537218   13.2069255   21.7065286
| 41>     H       14.5004127   14.8948516   22.0629261
| 42>     H       16.3762150   17.1508999   20.0794374
| 43> *
| 44>
| 45>                          ****END OF INPUT****

CARTESIAN COORDINATES (ANGSTROEM)
---------------------------------
  C     14.966924   14.329294   17.205149
  C     15.470349   15.668126   16.640567
  O     16.710199   15.401640   15.951714
  C     17.930844   15.666167   16.515611
  O     18.802024   14.815945   16.520864
  C     18.025936   16.892542   17.368455
  C     17.548729   18.103066   16.991768
  C     16.899934   18.459674   15.671094
  N     17.702489   19.204207   17.837518
  C     18.404497   19.192346   19.014828
  S     18.591167   20.558326   19.927585
  N     18.939174   17.988041   19.401975
  C     18.730701   16.700639   18.710319
  C     17.937629   15.729335   19.579304
  C     18.373159   14.401229   19.738567
  C     17.628397   13.490508   20.506303
  C     16.434138   13.909088   21.117132
  C     15.993124   15.229189   20.955174
  O     14.832070   15.632875   21.529055
  C     16.737147   16.134140   20.191711
  H     15.683243   13.923603   17.931332
  H     14.837512   13.593440   16.401624
  H     14.003521   14.460941   17.712295
  H     14.730807   16.049355   15.924758
  H     15.569480   16.397216   17.453274
  H     17.173851   17.752531   14.878011
  H     17.216964   19.451634   15.324988
  H     15.806833   18.467071   15.755758
  H     17.326913   20.099872   17.567582
  H     19.431250   18.004355   20.286450
  H     19.719319   16.260958   18.511484
  H     19.284320   14.068010   19.246304
  H     17.974004   12.463962   20.616556
  H     15.853722   13.206925   21.706529
  H     14.500413   14.894852   22.062926
  H     16.376215   17.150900   20.079437

 Total Charge           Charge          ....    0
 Multiplicity           Mult            ....    1
 Number of Electrons    NEL             ....  154
 Basis Dimension        Dim             ....  828

ORBITAL ENERGIES
----------------

  NO   OCC          E(Eh)            E(eV)
   0   2.0000     -91.891218     -2500.4872
   1   2.0000     -20.600283      -560.5622
   2   2.0000     -20.596545      -560.4605
   3   2.0000     -20.550136      -559.1976
   4   2.0000     -15.629888      -425.3109
   5   2.0000     -15.611749      -424.8173
   6   2.0000     -11.396463      -310.1135
   7   2.0000     -11.387565      -309.8714
   8   2.0000     -11.334125      -308.4172
   9   2.0000     -11.316881      -307.9480
  10   2.0000     -11.312823      -307.8376
  11   2.0000     -11.303919      -307.5953
  12   2.0000     -11.266914      -306.5883
  13   2.0000     -11.263632      -306.4990
  14   2.0000     -11.262956      -306.4806
  15   2.0000     -11.256659      -306.3093
  16   2.0000     -11.246177      -306.0240
  17   2.0000     -11.242730      -305.9302
  18   2.0000     -11.239296      -305.8368
  19   2.0000     -11.225626      -305.4648
  20   2.0000      -8.896310      -242.0809
  21   2.0000      -6.577890      -178.9935
  22   2.0000      -6.575873      -178.9386
  23   2.0000      -6.575291      -178.9228
  24   2.0000      -1.447779       -39.3961
  25   2.0000      -1.420054       -38.6416
  26   2.0000      -1.359041       -36.9814
  27   2.0000      -1.342007       -36.5179
  28   2.0000      -1.240893       -33.7664
  29   2.0000      -1.161555       -31.6075
  30   2.0000      -1.125614       -30.6295
  31   2.0000      -1.048738       -28.5376
  32   2.0000      -1.035576       -28.1795
  33   2.0000      -1.018796       -27.7228
  34   2.0000      -1.005054       -27.3489
  35   2.0000      -0.989712       -26.9314
  36   2.0000      -0.927890       -25.2492
  37   2.0000      -0.883791       -24.0492
  38   2.0000      -0.855342       -23.2750
  39   2.0000      -0.842660       -22.9300
  40   2.0000      -0.837119       -22.7792
  41   2.0000      -0.835260       -22.7286
  42   2.0000      -0.751809       -20.4578
  43   2.0000      -0.739956       -20.1352
  44   2.0000      -0.731445       -19.9036
  45   2.0000      -0.698356       -19.0032
  46   2.0000      -0.688397       -18.7322
  47   2.0000      -0.679553       -18.4916
  48   2.0000      -0.677658       -18.4400
  49   2.0000      -0.661042       -17.9879
  50   2.0000      -0.656823       -17.8731
  51   2.0000      -0.649260       -17.6672
  52   2.0000      -0.640853       -17.4385
  53   2.0000      -0.611432       -16.6379
  54   2.0000      -0.609290       -16.5796
  55   2.0000      -0.605206       -16.4685
  56   2.0000      -0.599251       -16.3065
  57   2.0000      -0.582573       -15.8526
  58   2.0000      -0.578517       -15.7422
  59   2.0000      -0.570686       -15.5292
  60   2.0000      -0.561095       -15.2682
  61   2.0000      -0.558504       -15.1977
  62   2.0000      -0.545195       -14.8355
  63   2.0000      -0.527845       -14.3634
  64   2.0000      -0.518898       -14.1199
  65   2.0000      -0.514220       -13.9926
  66   2.0000      -0.502924       -13.6852
  67   2.0000      -0.499030       -13.5793
  68   2.0000      -0.488949       -13.3050
  69   2.0000      -0.471235       -12.8229
  70   2.0000      -0.456414       -12.4196
  71   2.0000      -0.448136       -12.1944
  72   2.0000      -0.357598        -9.7307
  73   2.0000      -0.352677        -9.5968
  74   2.0000      -0.330701        -8.9988
  75   2.0000      -0.324462        -8.8291
  76   2.0000      -0.319294        -8.6884
  77   0.0000       0.076650         2.0857
  78   0.0000       0.102767         2.7964
  79   0.0000       0.116299         3.1647
  80   0.0000       0.127490         3.4692
  81   0.0000       0.135841         3.6964

MULLIKEN ATOMIC CHARGES
-----------------------
   0 C :   -0.266997
   1 C :   -0.003493
   2 O :   -0.333992
   3 C :    0.425640
   4 O :   -0.385522
   5 C :   -0.218736
   6 C :    0.148291
   7 C :   -0.310631
   8 N :   -0.132112
   9 C :    0.201056
  10 S :   -0.438147
  11 N :   -0.207243
  12 C :    0.067232
  13 C :    0.032982
  14 C :   -0.182661
  15 C :   -0.131314
  16 C :   -0.278569
  17 C :    0.319026
  18 O :   -0.360763
  19 C :   -0.290931
  20 H :    0.107892
  21 H :    0.108761
  22 H :    0.091163
  23 H :    0.114700
  24 H :    0.105764
  25 H :    0.138021
  26 H :    0.125086
  27 H :    0.120277
  28 H :    0.197543
  29 H :    0.196557
  30 H :    0.160979
  31 H :    0.165024
  32 H :    0.163843
  33 H :    0.132086
  34 H :    0.242113
  35 H :    0.177075
Sum of atomic charges:   -0.0000000

LOEWDIN ATOMIC CHARGES
----------------------
   0 C :    0.108554
   1 C :   -0.023052
   2 O :    0.301910
   3 C :   -0.417893
   4 O :    0.124505
   5 C :   -0.089938
   6 C :   -0.089802
   7 C :    0.128067
   8 N :    0.402797
   9 C :   -0.456963
  10 S :   -0.035237
  11 N :    0.397144
  12 C :   -0.045682
  13 C :   -0.044201
  14 C :    0.022670
  15 C :    0.044240
  16 C :   -0.000154
  17 C :   -0.193587
  18 O :    0.394472
  19 C :    0.027227
  20 H :   -0.022631
  21 H :   -0.024523
  22 H :   -0.026855
  23 H :   -0.029857
  24 H :   -0.038964
  25 H :   -0.006056
  26 H :   -0.013081
  27 H :   -0.015568
  28 H :   -0.057570
  29 H :   -0.063503
  30 H :   -0.003094
  31 H :   -0.022092
  32 H :   -0.018750
  33 H :   -0.034694
  34 H :   -0.152764
  35 H :   -0.025077

  Mayer bond orders larger than 0.100000
B(  0-C ,  1-C ) :   0.9850 B(  0-C , 20-H ) :   0.9709 B(  0-C , 21-H ) :   0.9793
B(  0-C , 22-H ) :   0.9761 B(  1-C ,  2-O ) :   0.8918 B(  1-C , 23-H ) :   0.9791
B(  1-C , 24-H ) :   0.9591 B(  2-O ,  3-C ) :   1.1697 B(  3-C ,  4-O ) :   2.0845
B(  3-C ,  5-C ) :   0.9423 B(  5-C ,  6-C ) :   1.6742 B(  5-C , 12-C ) :   0.9608
B(  6-C ,  7-C ) :   0.9454 B(  6-C ,  8-N ) :   1.1302 B(  7-C , 25-H ) :   0.9743
B(  7-C , 26-H ) :   0.9794 B(  7-C , 27-H ) :   0.9630 B(  8-N ,  9-C ) :   1.1884
B(  8-N , 28-H ) :   0.9507 B(  9-C , 10-S ) :   1.6138 B(  9-C , 11-N ) :   1.2929
B( 11-N , 12-C ) :   0.9987 B( 11-N , 29-H ) :   0.9505 B( 12-C , 13-C ) :   0.9407
B( 12-C , 30-H ) :   0.9977 B( 13-C , 14-C ) :   1.3876 B( 13-C , 19-C ) :   1.3469
B( 14-C , 15-C ) :   1.3937 B( 14-C , 31-H ) :   0.9612 B( 15-C , 16-C ) :   1.3621
B( 15-C , 32-H ) :   0.9706 B( 16-C , 17-C ) :   1.3304 B( 16-C , 33-H ) :   0.9849
B( 17-C , 18-O ) :   1.1074 B( 17-C , 19-C ) :   1.3697 B( 18-O , 34-H ) :   0.9789
B( 19-C , 35-H ) :   0.9563

MP2 TOTAL ENERGY:    -1274.337142282 Eh
FINAL SINGLE POINT ENERGY     -1274.337142282383

DIPOLE MOMENT
-------------
                                X             Y             Z
Electronic contribution:     10.20837       8.44647       5.79321
Nuclear contribution   :    -11.70385      -9.34761      -6.12538
                        -----------------------------------------
Total Dipole Moment    :     -1.49548      -0.90114      -0.33218
                        -----------------------------------------
Magnitude (a.u.)       :      1.77732
Magnitude (Debye)      :      4.51760

Rotational constants in cm-1:     0.012454     0.009173     0.006874
Rotational constants in MHz :   373.359892   275.001037   206.077230

                             ****ORCA TERMINATED NORMALLY****
TOTAL RUN TIME: 0 days 2 hours 15 minutes 29 seconds 780 msec
