                         Program Version 5.0.0 -  RELEASE  -
|  1> ! ri-mp2 cc-pvtz cc-pvtz/c TightSCF NoKeepInts
|  2>
|  3> %scf
|  4>   MaxCore 4096
|  5> end
|  6> *xyz  0  1
|  7>     C       14.9173745   14.4232966   16.3761962
|  8>     C       16.3538979   14.0519775   16.8031217
|  9>     O       17.3538606   15.0444207   16.4541582
| 10>     C       17.0733840   16.3757545   16.3020659
| 11>     O       16.3450033   16.7828720   15.4142431
| 12>     C       17.6696429   17.2425374   17.3790089
| 13>     C       17.4623968   18.5840247   17.4275756
| 14>     C       16.6147380   19.4186143   16.4910934
| 15>     N       18.0937479   19.3567012   18.4068788
| 16>     C       19.0449574   18.8936842   19.2757633
| 17>     S       19.8368372   19.8975910   20.3250643
| 18>     N       19.3167512   17.5507604   19.2241588
| 19>     C       18.5593118   16.5631871   18.4348604
| 20>     C       17.7760946   15.6627100   19.3843664
| 21>     C       18.2895899   14.4019537   19.7430259
| 22>     C       17.5767925   13.5610434   20.6141978
| 23>     C       16.3428994   13.9858893   21.1355442
| 24>     C       15.8344029   15.2455059   20.7904844
| 25>     O       14.6450076   15.6600307   21.2942594
| 26>     C       16.5454665   16.0802657   19.9230207
| 27>     H       14.5698377   15.3279295   16.8908319
| 28>     H       14.2253150   13.6105758   16.6270739
| 29>     H       14.8617722   14.5897900   15.2928191
| 30>     H       16.3511798   13.9035658   17.8891822
| 31>     H       16.6313496   13.0927484   16.3477737
| 32>     H       15.5776460   19.0595977   16.4854753
| 33>     H       16.9910223   19.3455588   15.4625998
| 34>     H       16.5945291   20.4809141   16.7610864
| 35>     H       17.9123530   20.3467131   18.4523018
| 36>     H       20.0008332   17.2344831   19.8991857
| 37>     H       19.2896653   15.9419923   17.8970623
| 38>     H       19.2434156   14.0706788   19.3406232
| 39>     H       17.9817307   12.5871723   20.8848840
| 40>     H       15.7893073   13.3405441   21.8099252
| 41>     H       14.3373534   14.9817188   21.9144237
| 42>     H       16.1375327   17.0551969   19.6796642
| 43> *
| 44>
| 45>                          ****END OF INPUT****

CARTESIAN COORDINATES (ANGSTROEM)
---------------------------------
  C     14.917374   14.423297   16.376196
  C     16.353898   14.051977   16.803122
  O     17.353861   15.044421   16.454158
  C     17.073384   16.375754   16.302066
  O     16.345003   16.782872   15.414243
  C     17.669643   17.242537   17.379009
  C     17.462397   18.584025   17.427576
  C     16.614738   19.418614   16.491093
  N     18.093748   19.356701   18.406879
  C     19.044957   18.893684   19.275763
  S     19.836837   19.897591   20.325064
  N     19.316751   17.550760   19.224159
  C     18.559312   16.563187   18.434860
  C     17.776095   15.662710   19.384366
  C     18.289590   14.401954   19.743026
  C     17.576792   13.561043   20.614198
  C     16.342899   13.985889   21.135544
  C     15.834403   15.245506   20.790484
  O     14.645008   15.660031   21.294259
  C     16.545466   16.080266   19.923021
  H     14.569838   15.327929   16.890832
  H     14.225315   13.610576   16.627074
  H     14.861772   14.589790   15.292819
  H     16.351180   13.903566   17.889182
  H     16.631350   13.092748   16.347774
  H     15.577646   19.059598   16.485475
  H     16.991022   19.345559   15.462600
  H     16.594529   20.480914   16.761086
  H     17.912353   20.346713   18.452302
  H     20.000833   17.234483   19.899186
  H     19.289665   15.941992   17.897062
  H     19.243416   14.070679   19.340623
  H     17.981731   12.587172   20.884884
  H     15.789307   13.340544   21.809925
  H     14.337353   14.981719   21.914424
  H     16.137533   17.055197   19.679664

 Total Charge           Charge          ....    0
 Multiplicity           Mult            ....    1
 Number of Electrons    NEL             ....  154
 Basis Dimension        Dim             ....  828

ORBITAL ENERGIES
----------------

  NO   OCC          E(Eh)            E(eV)
   0   2.0000     -91.889771     -2500.4478
   1   2.0000     -20.602405      -560.6199
   2   2.0000     -20.584456      -560.1315
   3   2.0000     -20.543605      -559.0199
   4   2.0000     -15.630136      -425.3176
   5   2.0000     -15.609208      -424.7482
   6   2.0000     -11.393785      -310.0407
   7   2.0000     -11.384709      -309.7937
   8   2.0000     -11.336910      -308.4930
   9   2.0000     -11.320273      -308.0403
  10   2.0000     -11.310600      -307.7771
  11   2.0000     -11.297262      -307.4141
  12   2.0000     -11.264806      -306.5310
  13   2.0000     -11.261524      -306.4416
  14   2.0000     -11.258332      -306.3548
  15   2.0000     -11.252848      -306.2056
  16   2.0000     -11.248819      -306.0959
  17   2.0000     -11.243473      -305.9505
  18   2.0000     -11.243272      -305.9450
  19   2.0000     -11.221861      -305.3624
  20   2.0000      -8.894826      -242.0405
  21   2.0000      -6.576398      -178.9529
  22   2.0000      -6.574395      -178.8984
  23   2.0000      -6.573807      -178.8824
  24   2.0000      -1.440783       -39.2057
  25   2.0000      -1.422042       -38.6957
  26   2.0000      -1.350393       -36.7461
  27   2.0000      -1.341336       -36.4996
  28   2.0000      -1.240047       -33.7434
  29   2.0000      -1.162700       -31.6387
  30   2.0000      -1.121111       -30.5070
  31   2.0000      -1.046159       -28.4674
  32   2.0000      -1.031088       -28.0573
  33   2.0000      -1.021002       -27.7829
  34   2.0000      -0.997545       -27.1446
  35   2.0000      -0.985302       -26.8114
  36   2.0000      -0.925024       -25.1712
  37   2.0000      -0.892507       -24.2863
  38   2.0000      -0.849286       -23.1102
  39   2.0000      -0.842653       -22.9298
  40   2.0000      -0.838646       -22.8207
  41   2.0000      -0.821984       -22.3673
  42   2.0000      -0.745876       -20.2963
  43   2.0000      -0.734898       -19.9976
  44   2.0000      -0.716613       -19.5000
  45   2.0000      -0.700749       -19.0683
  46   2.0000      -0.690014       -18.7762
  47   2.0000      -0.674919       -18.3655
  48   2.0000      -0.667496       -18.1635
  49   2.0000      -0.663741       -18.0613
  50   2.0000      -0.652423       -17.7533
  51   2.0000      -0.646456       -17.5910
  52   2.0000      -0.638625       -17.3779
  53   2.0000      -0.614738       -16.7279
  54   2.0000      -0.612871       -16.6771
  55   2.0000      -0.604021       -16.4363
  56   2.0000      -0.601378       -16.3643
  57   2.0000      -0.581988       -15.8367
  58   2.0000      -0.571941       -15.5633
  59   2.0000      -0.567902       -15.4534
  60   2.0000      -0.552805       -15.0426
  61   2.0000      -0.539675       -14.6853
  62   2.0000      -0.534864       -14.5544
  63   2.0000      -0.530122       -14.4254
  64   2.0000      -0.523084       -14.2338
  65   2.0000      -0.515165       -14.0184
  66   2.0000      -0.504594       -13.7307
  67   2.0000      -0.493310       -13.4236
  68   2.0000      -0.486846       -13.2477
  69   2.0000      -0.462949       -12.5975
  70   2.0000      -0.451594       -12.2885
  71   2.0000      -0.441001       -12.0002
  72   2.0000      -0.356425        -9.6988
  73   2.0000      -0.354505        -9.6466
  74   2.0000      -0.330686        -8.9984
  75   2.0000      -0.326642        -8.8884
  76   2.0000      -0.317455        -8.6384
  77   0.0000       0.072595         1.9754
  78   0.0000       0.100759         2.7418
  79   0.0000       0.121836         3.3153
  80   0.0000       0.128894         3.5074
  81   0.0000       0.132033         3.5928

MULLIKEN ATOMIC CHARGES
-----------------------
   0 C :   -0.293273
   1 C :    0.034390
   2 O :   -0.388702
   3 C :    0.477354
   4 O :   -0.408261
   5 C :   -0.269879
   6 C :    0.166988
   7 C :   -0.268623
   8 N :   -0.125026
   9 C :    0.217433
  10 S :   -0.440889
  11 N :   -0.210369
  12 C :    0.075371
  13 C :    0.029244
  14 C :   -0.187835
  15 C :   -0.131106
  16 C :   -0.276091
  17 C :    0.305869
  18 O :   -0.356163
  19 C :   -0.239270
  20 H :    0.096561
  21 H :    0.100224
  22 H :    0.120021
  23 H :    0.101359
  24 H :    0.110062
  25 H :    0.128786
  26 H :    0.134678
  27 H :    0.095151
  28 H :    0.197623
  29 H :    0.194742
  30 H :    0.150355
  31 H :    0.151487
  32 H :    0.162685
  33 H :    0.133231
  34 H :    0.242217
  35 H :    0.169655
Sum of atomic charges:   -0.0000000

LOEWDIN ATOMIC CHARGES
----------------------
   0 C :    0.104307
   1 C :   -0.011967
   2 O :    0.283513
   3 C :   -0.416984
   4 O :    0.116327
   5 C :   -0.098456
   6 C :   -0.058033
   7 C :    0.131213
   8 N :    0.407286
   9 C :   -0.455074
  10 S :   -0.035278
  11 N :    0.396163
  12 C :   -0.052794
  13 C :   -0.036559
  14 C :    0.012136
  15 C :    0.041756
  16 C :   -0.002185
  17 C :   -0.189918
  18 O :    0.396684
  19 C :    0.029774
  20 H :   -0.029510
  21 H :   -0.026252
  22 H :   -0.023479
  23 H :   -0.032546
  24 H :   -0.025362
  25 H :   -0.005669
  26 H :   -0.002976
  27 H :   -0.023392
  28 H :   -0.057398
  29 H :   -0.065527
  30 H :   -0.008771
  31 H :   -0.029407
  32 H :   -0.019616
  33 H :   -0.034443
  34 H :   -0.152450
  35 H :   -0.025114

  Mayer bond orders larger than 0.100000
B(  0-C ,  1-C ) :   0.9772 B(  0-C , 20-H ) :   0.9740 B(  0-C , 21-H ) :   0.9738
B(  0-C , 22-H ) :   0.9728 B(  1-C ,  2-O ) :   0.8943 B(  1-C , 23-H ) :   0.9685
B(  1-C , 24-H ) :   0.9820 B(  2-O ,  3-C ) :   1.1024 B(  3-C ,  4-O ) :   2.0154
B(  3-C ,  5-C ) :   1.0593 B(  5-C ,  6-C ) :   1.6460 B(  5-C , 12-C ) :   0.9714
B(  6-C ,  7-C ) :   0.9666 B(  6-C ,  8-N ) :   1.1611 B(  7-C , 25-H ) :   0.9619
B(  7-C , 26-H ) :   0.9580 B(  7-C , 27-H ) :   0.9901 B(  8-N ,  9-C ) :   1.1840
B(  8-N , 28-H ) :   0.9476 B(  9-C , 10-S ) :   1.6028 B(  9-C , 11-N ) :   1.3083
B( 11-N , 12-C ) :   0.9658 B( 11-N , 29-H ) :   0.9521 B( 12-C , 13-C ) :   0.9441
B( 12-C , 30-H ) :   1.0010 B( 13-C , 14-C ) :   1.3498 B( 13-C , 19-C ) :   1.3741
B( 14-C , 15-C ) :   1.3971 B( 14-C , 31-H ) :   0.9733 B( 15-C , 16-C ) :   1.3609
B( 15-C , 32-H ) :   0.9704 B( 16-C , 17-C ) :   1.3303 B( 16-C , 33-H ) :   0.9843
B( 17-C , 18-O ) :   1.1141 B( 17-C , 19-C ) :   1.3714 B( 18-O , 34-H ) :   0.9788
B( 19-C , 35-H ) :   0.9570

MP2 TOTAL ENERGY:    -1274.334473645 Eh
FINAL SINGLE POINT ENERGY     -1274.334473644599

DIPOLE MOMENT
-------------
                                X             Y             Z
Electronic contribution:     10.19511       9.19400       6.33499
Nuclear contribution   :    -11.20457     -10.85092      -6.16101
                        -----------------------------------------
Total Dipole Moment    :     -1.00946      -1.65692       0.17398
                        -----------------------------------------
Magnitude (a.u.)       :      1.94799
Magnitude (Debye)      :      4.95139

Rotational constants in cm-1:     0.012361     0.008923     0.006459
Rotational constants in MHz :   370.559979   267.508151   193.624969

                             ****ORCA TERMINATED NORMALLY****
TOTAL RUN TIME: 0 days 2 hours 7 minutes 47 seconds 86 msec
