                         Program Version 5.0.0 -  RELEASE  -
|  1> ! ri-mp2 cc-pvtz cc-pvtz/c TightSCF NoKeepInts
|  2>
|  3> %scf
|  4>   MaxCore 4096
|  5> end
|  6> *xyz  0  1
|  7>     C       14.5217599   14.5597864   16.1371629
|  8>     C       15.6707656   15.1832655   16.9456373
|  9>     O       16.7937452   15.3274680   16.0579682
| 10>     C       18.0131539   15.5601859   16.6224686
| 11>     O       18.7794389   14.6352876   16.8223002
| 12>     C       18.0701615   16.8224962   17.4266615
| 13>     C       17.5241014   17.9916778   17.0128100
| 14>     C       16.8240105   18.2556645   15.6962141
| 15>     N       17.6495695   19.1358149   17.8054403
| 16>     C       18.4074729   19.2158902   18.9448612
| 17>     S       18.5824067   20.6356238   19.7742507
| 18>     N       19.0103904   18.0559901   19.3655631
| 19>     C       18.7951542   16.7230434   18.7692633
| 20>     C       18.0143418   15.8204751   19.7202971
| 21>     C       18.4780479   14.5252014   20.0138637
| 22>     C       17.7476483   13.6783272   20.8640790
| 23>     C       16.5403540   14.1284557   21.4247421
| 24>     C       16.0719096   15.4158346   21.1306938
| 25>     O       14.8993118   15.8491101   21.6576005
| 26>     C       16.8006470   16.2564191   20.2835277
| 27>     H       14.8221736   13.5859137   15.7301859
| 28>     H       14.2372007   15.2110242   15.3015536
| 29>     H       13.6408448   14.4090011   16.7729274
| 30>     H       15.3635055   16.1510710   17.3621825
| 31>     H       15.9305592   14.5126455   17.7771607
| 32>     H       17.2706191   17.6681392   14.8839289
| 33>     H       16.8921503   19.3089835   15.3970965
| 34>     H       15.7615303   17.9908293   15.7549395
| 35>     H       17.2201086   19.9987617   17.5108839
| 36>     H       19.5427755   18.1389830   20.2224259
| 37>     H       19.7812695   16.2701706   18.5892602
| 38>     H       19.4005127   14.1659960   19.5629754
| 39>     H       18.1152359   12.6760772   21.0779875
| 40>     H       15.9717574   13.4756696   22.0789052
| 41>     H       14.5829063   15.1632498   22.2652144
| 42>     H       16.4194596   17.2494667   20.0709673
| 43> *
| 44>
| 45>                          ****END OF INPUT****

CARTESIAN COORDINATES (ANGSTROEM)
---------------------------------
  C     14.521760   14.559786   16.137163
  C     15.670766   15.183265   16.945637
  O     16.793745   15.327468   16.057968
  C     18.013154   15.560186   16.622469
  O     18.779439   14.635288   16.822300
  C     18.070162   16.822496   17.426662
  C     17.524101   17.991678   17.012810
  C     16.824010   18.255665   15.696214
  N     17.649569   19.135815   17.805440
  C     18.407473   19.215890   18.944861
  S     18.582407   20.635624   19.774251
  N     19.010390   18.055990   19.365563
  C     18.795154   16.723043   18.769263
  C     18.014342   15.820475   19.720297
  C     18.478048   14.525201   20.013864
  C     17.747648   13.678327   20.864079
  C     16.540354   14.128456   21.424742
  C     16.071910   15.415835   21.130694
  O     14.899312   15.849110   21.657601
  C     16.800647   16.256419   20.283528
  H     14.822174   13.585914   15.730186
  H     14.237201   15.211024   15.301554
  H     13.640845   14.409001   16.772927
  H     15.363506   16.151071   17.362182
  H     15.930559   14.512645   17.777161
  H     17.270619   17.668139   14.883929
  H     16.892150   19.308984   15.397096
  H     15.761530   17.990829   15.754940
  H     17.220109   19.998762   17.510884
  H     19.542776   18.138983   20.222426
  H     19.781270   16.270171   18.589260
  H     19.400513   14.165996   19.562975
  H     18.115236   12.676077   21.077987
  H     15.971757   13.475670   22.078905
  H     14.582906   15.163250   22.265214
  H     16.419460   17.249467   20.070967

 Total Charge           Charge          ....    0
 Multiplicity           Mult            ....    1
 Number of Electrons    NEL             ....  154
 Basis Dimension        Dim             ....  828

ORBITAL ENERGIES
----------------

  NO   OCC          E(Eh)            E(eV)
   0   2.0000     -91.890831     -2500.4766
   1   2.0000     -20.598376      -560.5103
   2   2.0000     -20.585656      -560.1642
   3   2.0000     -20.556434      -559.3690
   4   2.0000     -15.630363      -425.3238
   5   2.0000     -15.610483      -424.7828
   6   2.0000     -11.393902      -310.0438
   7   2.0000     -11.386651      -309.8465
   8   2.0000     -11.334925      -308.4390
   9   2.0000     -11.314627      -307.8867
  10   2.0000     -11.310901      -307.7853
  11   2.0000     -11.301967      -307.5422
  12   2.0000     -11.264891      -306.5333
  13   2.0000     -11.261062      -306.4291
  14   2.0000     -11.260164      -306.4046
  15   2.0000     -11.254632      -306.2541
  16   2.0000     -11.244423      -305.9763
  17   2.0000     -11.240197      -305.8613
  18   2.0000     -11.237198      -305.7797
  19   2.0000     -11.232400      -305.6491
  20   2.0000      -8.895904      -242.0699
  21   2.0000      -6.577481      -178.9824
  22   2.0000      -6.575470      -178.9276
  23   2.0000      -6.574884      -178.9117
  24   2.0000      -1.451428       -39.4954
  25   2.0000      -1.418188       -38.5909
  26   2.0000      -1.359087       -36.9826
  27   2.0000      -1.341598       -36.5067
  28   2.0000      -1.239926       -33.7401
  29   2.0000      -1.159086       -31.5403
  30   2.0000      -1.123853       -30.5816
  31   2.0000      -1.046966       -28.4894
  32   2.0000      -1.036761       -28.2117
  33   2.0000      -1.016440       -27.6587
  34   2.0000      -1.002654       -27.2836
  35   2.0000      -0.988116       -26.8880
  36   2.0000      -0.926044       -25.1989
  37   2.0000      -0.877450       -23.8766
  38   2.0000      -0.853383       -23.2217
  39   2.0000      -0.842491       -22.9253
  40   2.0000      -0.835061       -22.7232
  41   2.0000      -0.833974       -22.6936
  42   2.0000      -0.757141       -20.6029
  43   2.0000      -0.737185       -20.0598
  44   2.0000      -0.730876       -19.8882
  45   2.0000      -0.696248       -18.9459
  46   2.0000      -0.688198       -18.7268
  47   2.0000      -0.682539       -18.5728
  48   2.0000      -0.675833       -18.3903
  49   2.0000      -0.660640       -17.9769
  50   2.0000      -0.650768       -17.7083
  51   2.0000      -0.644338       -17.5333
  52   2.0000      -0.640175       -17.4200
  53   2.0000      -0.615059       -16.7366
  54   2.0000      -0.606713       -16.5095
  55   2.0000      -0.605481       -16.4760
  56   2.0000      -0.602099       -16.3840
  57   2.0000      -0.582412       -15.8482
  58   2.0000      -0.577507       -15.7148
  59   2.0000      -0.565862       -15.3979
  60   2.0000      -0.558518       -15.1980
  61   2.0000      -0.554566       -15.0905
  62   2.0000      -0.539775       -14.6880
  63   2.0000      -0.524366       -14.2687
  64   2.0000      -0.520602       -14.1663
  65   2.0000      -0.515062       -14.0155
  66   2.0000      -0.502514       -13.6741
  67   2.0000      -0.497928       -13.5493
  68   2.0000      -0.486626       -13.2418
  69   2.0000      -0.467018       -12.7082
  70   2.0000      -0.460570       -12.5328
  71   2.0000      -0.453055       -12.3283
  72   2.0000      -0.357183        -9.7194
  73   2.0000      -0.350245        -9.5306
  74   2.0000      -0.330131        -8.9833
  75   2.0000      -0.322217        -8.7680
  76   2.0000      -0.318301        -8.6614
  77   0.0000       0.071220         1.9380
  78   0.0000       0.103728         2.8226
  79   0.0000       0.116283         3.1642
  80   0.0000       0.130195         3.5428
  81   0.0000       0.134037         3.6473

MULLIKEN ATOMIC CHARGES
-----------------------
   0 C :   -0.256965
   1 C :    0.012292
   2 O :   -0.355205
   3 C :    0.450983
   4 O :   -0.380295
   5 C :   -0.221922
   6 C :    0.141924
   7 C :   -0.290428
   8 N :   -0.126729
   9 C :    0.199182
  10 S :   -0.437125
  11 N :   -0.202547
  12 C :    0.048378
  13 C :    0.031601
  14 C :   -0.166102
  15 C :   -0.134805
  16 C :   -0.278898
  17 C :    0.309832
  18 O :   -0.358794
  19 C :   -0.274641
  20 H :    0.107493
  21 H :    0.092795
  22 H :    0.091088
  23 H :    0.093866
  24 H :    0.118092
  25 H :    0.132855
  26 H :    0.114284
  27 H :    0.119860
  28 H :    0.197252
  29 H :    0.194810
  30 H :    0.158521
  31 H :    0.162220
  32 H :    0.162313
  33 H :    0.132045
  34 H :    0.241622
  35 H :    0.171145
Sum of atomic charges:    0.0000000

LOEWDIN ATOMIC CHARGES
----------------------
   0 C :    0.112416
   1 C :   -0.024436
   2 O :    0.290633
   3 C :   -0.421148
   4 O :    0.135166
   5 C :   -0.093289
   6 C :   -0.081021
   7 C :    0.127873
   8 N :    0.403851
   9 C :   -0.457495
  10 S :   -0.034491
  11 N :    0.397074
  12 C :   -0.045700
  13 C :   -0.042929
  14 C :    0.021717
  15 C :    0.042885
  16 C :   -0.001673
  17 C :   -0.195419
  18 O :    0.393679
  19 C :    0.028594
  20 H :   -0.021855
  21 H :   -0.029153
  22 H :   -0.024313
  23 H :   -0.039599
  24 H :   -0.023810
  25 H :   -0.006215
  26 H :   -0.016624
  27 H :   -0.013218
  28 H :   -0.058292
  29 H :   -0.063782
  30 H :   -0.003561
  31 H :   -0.023191
  32 H :   -0.019352
  33 H :   -0.034991
  34 H :   -0.153258
  35 H :   -0.025073

  Mayer bond orders larger than 0.100000
B(  0-C ,  1-C ) :   0.9793 B(  0-C , 20-H ) :   0.9788 B(  0-C , 21-H ) :   0.9790
B(  0-C , 22-H ) :   0.9763 B(  1-C ,  2-O ) :   0.8913 B(  1-C , 23-H ) :   0.9683
B(  1-C , 24-H ) :   0.9724 B(  2-O ,  3-C ) :   1.1253 B(  3-C ,  4-O ) :   2.0822
B(  3-C ,  5-C ) :   0.9679 B(  5-C ,  6-C ) :   1.6658 B(  5-C , 12-C ) :   0.9673
B(  6-C ,  7-C ) :   0.9501 B(  6-C ,  8-N ) :   1.1337 B(  7-C , 25-H ) :   0.9708
B(  7-C , 26-H ) :   0.9847 B(  7-C , 27-H ) :   0.9636 B(  8-N ,  9-C ) :   1.1841
B(  8-N , 28-H ) :   0.9499 B(  9-C , 10-S ) :   1.6142 B(  9-C , 11-N ) :   1.2966
B( 11-N , 12-C ) :   0.9955 B( 11-N , 29-H ) :   0.9517 B( 12-C , 13-C ) :   0.9448
B( 12-C , 30-H ) :   0.9985 B( 13-C , 14-C ) :   1.3839 B( 13-C , 19-C ) :   1.3566
B( 14-C , 15-C ) :   1.3951 B( 14-C , 31-H ) :   0.9614 B( 15-C , 16-C ) :   1.3642
B( 15-C , 32-H ) :   0.9707 B( 16-C , 17-C ) :   1.3285 B( 16-C , 33-H ) :   0.9845
B( 17-C , 18-O ) :   1.1117 B( 17-C , 19-C ) :   1.3751 B( 18-O , 34-H ) :   0.9794
B( 19-C , 35-H ) :   0.9590

MP2 TOTAL ENERGY:    -1274.328054450 Eh
FINAL SINGLE POINT ENERGY     -1274.328054450121

DIPOLE MOMENT
-------------
                                X             Y             Z
Electronic contribution:     11.16120       8.75689       7.36202
Nuclear contribution   :    -12.52659      -9.82775      -7.71384
                        -----------------------------------------
Total Dipole Moment    :     -1.36539      -1.07085      -0.35182
                        -----------------------------------------
Magnitude (a.u.)       :      1.77053
Magnitude (Debye)      :      4.50034

Rotational constants in cm-1:     0.011497     0.009261     0.006758
Rotational constants in MHz :   344.668570   277.640570   202.598412

                             ****ORCA TERMINATED NORMALLY****
TOTAL RUN TIME: 0 days 2 hours 3 minutes 43 seconds 697 msec
