                         Program Version 4.2.0 -  RELEASE  -
|  1> ! ri-mp2 cc-pvtz cc-pvtz/c TightSCF  NoKeepInts
|  2>
|  3> %scf
|  4>   MaxCore 4096
|  5> end
|  6> *xyz  0  1
|  7>     C       15.8468829   13.8921716   14.7752336
|  8>     C       15.0619458   15.0614150   15.4105555
|  9>     O       15.8662312   15.9858209   16.1871526
| 10>     C       16.9898803   15.6835300   16.9114109
| 11>     O       17.4225986   14.5532867   17.0569261
| 12>     C       17.5581906   16.8470254   17.6774933
| 13>     C       17.2591046   18.1558834   17.4594602
| 14>     C       16.3217556   18.7462527   16.4253086
| 15>     N       17.9095501   19.1492406   18.1998031
| 16>     C       18.9661500   18.9338406   19.0442638
| 17>     S       19.7689448   20.1828613   19.7731362
| 18>     N       19.3232064   17.6263794   19.2522985
| 19>     C       18.5576280   16.4597939   18.7751288
| 20>     C       17.8547136   15.7700023   19.9418392
| 21>     C       18.0506356   14.3969864   20.1798597
| 22>     C       17.4060470   13.7558921   21.2510396
| 23>     C       16.5570559   14.4934003   22.0935539
| 24>     C       16.3559910   15.8602155   21.8580941
| 25>     O       15.5320682   16.5738786   22.6663848
| 26>     C       16.9986838   16.4954430   20.7908861
| 27>     H       16.7751707   14.2466505   14.3102201
| 28>     H       15.2419264   13.4091374   13.9985833
| 29>     H       16.0934461   13.1242345   15.5187978
| 30>     H       14.5523734   15.6242829   14.6180704
| 31>     H       14.2839445   14.6361965   16.0580160
| 32>     H       15.2809367   18.4837114   16.6523846
| 33>     H       16.5577848   18.3660093   15.4237202
| 34>     H       16.3802241   19.8402794   16.3750468
| 35>     H       17.6615126   20.1157303   18.0613584
| 36>     H       20.0845050   17.4907552   19.9048731
| 37>     H       19.2757633   15.7501263   18.3394223
| 38>     H       18.6928997   13.8204366   19.5185393
| 39>     H       17.5611142   12.6918128   21.4195648
| 40>     H       16.0555854   14.0018255   22.9204148
| 41>     H       15.2111121   15.9727913   23.3551102
| 42>     H       16.8314371   17.5547006   20.6300490
| 43> *
| 44>
| 45>                          ****END OF INPUT****

CARTESIAN COORDINATES (ANGSTROEM)
---------------------------------
  C     15.846883   13.892172   14.775234
  C     15.061946   15.061415   15.410555
  O     15.866231   15.985821   16.187153
  C     16.989880   15.683530   16.911411
  O     17.422599   14.553287   17.056926
  C     17.558191   16.847025   17.677493
  C     17.259105   18.155883   17.459460
  C     16.321756   18.746253   16.425309
  N     17.909550   19.149241   18.199803
  C     18.966150   18.933841   19.044264
  S     19.768945   20.182861   19.773136
  N     19.323206   17.626379   19.252298
  C     18.557628   16.459794   18.775129
  C     17.854714   15.770002   19.941839
  C     18.050636   14.396986   20.179860
  C     17.406047   13.755892   21.251040
  C     16.557056   14.493400   22.093554
  C     16.355991   15.860216   21.858094
  O     15.532068   16.573879   22.666385
  C     16.998684   16.495443   20.790886
  H     16.775171   14.246650   14.310220
  H     15.241926   13.409137   13.998583
  H     16.093446   13.124234   15.518798
  H     14.552373   15.624283   14.618070
  H     14.283945   14.636197   16.058016
  H     15.280937   18.483711   16.652385
  H     16.557785   18.366009   15.423720
  H     16.380224   19.840279   16.375047
  H     17.661513   20.115730   18.061358
  H     20.084505   17.490755   19.904873
  H     19.275763   15.750126   18.339422
  H     18.692900   13.820437   19.518539
  H     17.561114   12.691813   21.419565
  H     16.055585   14.001826   22.920415
  H     15.211112   15.972791   23.355110
  H     16.831437   17.554701   20.630049

 Total Charge           Charge          ....    0
 Multiplicity           Mult            ....    1
 Number of Electrons    NEL             ....  154
 Basis Dimension        Dim             ....  828

ORBITAL ENERGIES
----------------

  NO   OCC          E(Eh)            E(eV)
   0   2.0000     -91.887247     -2500.3791
   1   2.0000     -20.602172      -560.6136
   2   2.0000     -20.590235      -560.2888
   3   2.0000     -20.543654      -559.0212
   4   2.0000     -15.627378      -425.2426
   5   2.0000     -15.605719      -424.6532
   6   2.0000     -11.398442      -310.1674
   7   2.0000     -11.381938      -309.7183
   8   2.0000     -11.335408      -308.4521
   9   2.0000     -11.306508      -307.6657
  10   2.0000     -11.305973      -307.6512
  11   2.0000     -11.304185      -307.6025
  12   2.0000     -11.259781      -306.3942
  13   2.0000     -11.258143      -306.3496
  14   2.0000     -11.251939      -306.1808
  15   2.0000     -11.246164      -306.0237
  16   2.0000     -11.235780      -305.7411
  17   2.0000     -11.231859      -305.6344
  18   2.0000     -11.228858      -305.5528
  19   2.0000     -11.225599      -305.4641
  20   2.0000      -8.892316      -241.9722
  21   2.0000      -6.573896      -178.8848
  22   2.0000      -6.571888      -178.8302
  23   2.0000      -6.571304      -178.8143
  24   2.0000      -1.446956       -39.3737
  25   2.0000      -1.409964       -38.3671
  26   2.0000      -1.356911       -36.9234
  27   2.0000      -1.338466       -36.4215
  28   2.0000      -1.235995       -33.6331
  29   2.0000      -1.150526       -31.3074
  30   2.0000      -1.117851       -30.4183
  31   2.0000      -1.041363       -28.3369
  32   2.0000      -1.034444       -28.1486
  33   2.0000      -1.007981       -27.4286
  34   2.0000      -0.996118       -27.1057
  35   2.0000      -0.981616       -26.7111
  36   2.0000      -0.920494       -25.0479
  37   2.0000      -0.897311       -24.4171
  38   2.0000      -0.847262       -23.0552
  39   2.0000      -0.834645       -22.7119
  40   2.0000      -0.826398       -22.4874
  41   2.0000      -0.816654       -22.2223
  42   2.0000      -0.744281       -20.2529
  43   2.0000      -0.727851       -19.8058
  44   2.0000      -0.723448       -19.6860
  45   2.0000      -0.689641       -18.7661
  46   2.0000      -0.683824       -18.6078
  47   2.0000      -0.677458       -18.4346
  48   2.0000      -0.670568       -18.2471
  49   2.0000      -0.665621       -18.1125
  50   2.0000      -0.644824       -17.5466
  51   2.0000      -0.642319       -17.4784
  52   2.0000      -0.633499       -17.2384
  53   2.0000      -0.606955       -16.5161
  54   2.0000      -0.598854       -16.2956
  55   2.0000      -0.597809       -16.2672
  56   2.0000      -0.593326       -16.1452
  57   2.0000      -0.585495       -15.9321
  58   2.0000      -0.571289       -15.5456
  59   2.0000      -0.567342       -15.4382
  60   2.0000      -0.559048       -15.2125
  61   2.0000      -0.542926       -14.7738
  62   2.0000      -0.536751       -14.6057
  63   2.0000      -0.522979       -14.2310
  64   2.0000      -0.516152       -14.0452
  65   2.0000      -0.510622       -13.8947
  66   2.0000      -0.500119       -13.6089
  67   2.0000      -0.494302       -13.4507
  68   2.0000      -0.479791       -13.0558
  69   2.0000      -0.461689       -12.5632
  70   2.0000      -0.454530       -12.3684
  71   2.0000      -0.447365       -12.1734
  72   2.0000      -0.353223        -9.6117
  73   2.0000      -0.342544        -9.3211
  74   2.0000      -0.326380        -8.8812
  75   2.0000      -0.314614        -8.5611
  76   2.0000      -0.312333        -8.4990
  77   0.0000       0.077286         2.1031
  78   0.0000       0.115140         3.1331
  79   0.0000       0.120990         3.2923
  80   0.0000       0.136966         3.7270
  81   0.0000       0.140017         3.8100

MULLIKEN ATOMIC CHARGES
-----------------------
   0 C :   -0.296126
   1 C :    0.049888
   2 O :   -0.352867
   3 C :    0.445668
   4 O :   -0.433173
   5 C :   -0.157961
   6 C :    0.140262
   7 C :   -0.285655
   8 N :   -0.120491
   9 C :    0.200745
  10 S :   -0.440358
  11 N :   -0.196003
  12 C :    0.030293
  13 C :    0.059808
  14 C :   -0.161806
  15 C :   -0.133988
  16 C :   -0.278854
  17 C :    0.311644
  18 O :   -0.359231
  19 C :   -0.271116
  20 H :    0.097066
  21 H :    0.096334
  22 H :    0.125130
  23 H :    0.097335
  24 H :    0.092060
  25 H :    0.129221
  26 H :    0.123351
  27 H :    0.102631
  28 H :    0.196456
  29 H :    0.193157
  30 H :    0.153691
  31 H :    0.153060
  32 H :    0.158381
  33 H :    0.127464
  34 H :    0.239816
  35 H :    0.164170
Sum of atomic charges:   -0.0000000

LOEWDIN ATOMIC CHARGES
----------------------
   0 C :    0.102811
   1 C :   -0.008945
   2 O :    0.295902
   3 C :   -0.413991
   4 O :    0.110823
   5 C :   -0.089913
   6 C :   -0.065054
   7 C :    0.124298
   8 N :    0.404651
   9 C :   -0.459386
  10 S :   -0.036845
  11 N :    0.397967
  12 C :   -0.046631
  13 C :   -0.038409
  14 C :    0.021811
  15 C :    0.040637
  16 C :   -0.002433
  17 C :   -0.192377
  18 O :    0.392944
  19 C :    0.028792
  20 H :   -0.026938
  21 H :   -0.028322
  22 H :   -0.024276
  23 H :   -0.026253
  24 H :   -0.027935
  25 H :   -0.009372
  26 H :   -0.009466
  27 H :   -0.021387
  28 H :   -0.059479
  29 H :   -0.063686
  30 H :   -0.005539
  31 H :   -0.025577
  32 H :   -0.021503
  33 H :   -0.036598
  34 H :   -0.155111
  35 H :   -0.025211

  Mayer bond orders larger than 0.100000
B(  0-C ,  1-C ) :   0.9718 B(  0-C , 20-H ) :   0.9760 B(  0-C , 21-H ) :   0.9755
B(  0-C , 22-H ) :   0.9714 B(  1-C ,  2-O ) :   0.9007 B(  1-C , 23-H ) :   0.9825
B(  1-C , 24-H ) :   0.9797 B(  2-O ,  3-C ) :   1.1608 B(  3-C ,  4-O ) :   1.9652
B(  3-C ,  5-C ) :   1.0635 B(  5-C ,  6-C ) :   1.6448 B(  5-C , 12-C ) :   0.9661
B(  6-C ,  7-C ) :   0.9555 B(  6-C ,  8-N ) :   1.1503 B(  7-C , 25-H ) :   0.9634
B(  7-C , 26-H ) :   0.9660 B(  7-C , 27-H ) :   0.9923 B(  8-N ,  9-C ) :   1.1779
B(  8-N , 28-H ) :   0.9490 B(  9-C , 10-S ) :   1.6100 B(  9-C , 11-N ) :   1.3048
B( 11-N , 12-C ) :   0.9935 B( 11-N , 29-H ) :   0.9521 B( 12-C , 13-C ) :   0.9480
B( 12-C , 30-H ) :   1.0005 B( 13-C , 14-C ) :   1.3749 B( 13-C , 19-C ) :   1.3699
B( 14-C , 15-C ) :   1.3949 B( 14-C , 31-H ) :   0.9652 B( 15-C , 16-C ) :   1.3626
B( 15-C , 32-H ) :   0.9716 B( 16-C , 17-C ) :   1.3315 B( 16-C , 33-H ) :   0.9862
B( 17-C , 18-O ) :   1.1078 B( 17-C , 19-C ) :   1.3796 B( 18-O , 34-H ) :   0.9808
B( 19-C , 35-H ) :   0.9583

MP2 TOTAL ENERGY:    -1274.339579839 Eh
FINAL SINGLE POINT ENERGY     -1274.339579838834

DIPOLE MOMENT
-------------
                                X             Y             Z
Electronic contribution:      9.45575       9.71033      11.83219
Nuclear contribution   :    -11.13860     -10.82939     -12.89626
                        -----------------------------------------
Total Dipole Moment    :     -1.68284      -1.11906      -1.06407
                        -----------------------------------------
Magnitude (a.u.)       :      2.28397
Magnitude (Debye)      :      5.80538

Rotational constants in cm-1:     0.010565     0.008773     0.005758
Rotational constants in MHz :   316.726365   263.008458   172.608894

                             ****ORCA TERMINATED NORMALLY****
TOTAL RUN TIME: 0 days 2 hours 44 minutes 28 seconds 337 msec
