                         Program Version 4.2.0 -  RELEASE  -
|  1> ! ri-mp2 cc-pvtz cc-pvtz/c TightSCF  NoKeepInts
|  2>
|  3> %scf
|  4>   MaxCore 4096
|  5> end
|  6> *xyz  0  1
|  7>     C       14.1989757   15.1357127   16.3249164
|  8>     C       15.4308868   15.5370015   17.1521068
|  9>     O       16.5939119   15.1830582   16.3766529
| 10>     C       17.8273298   15.7780950   16.4800620
| 11>     O       18.8200159   15.1494707   16.1634855
| 12>     C       17.9329662   16.9289799   17.4243489
| 13>     C       17.3758023   18.1336306   17.1639709
| 14>     C       16.5886494   18.5226952   15.9306478
| 15>     N       17.5613069   19.1924295   18.0550362
| 16>     C       18.3628404   19.1430044   19.1664807
| 17>     S       18.5686029   20.4586705   20.1464889
| 18>     N       18.9817897   17.9448449   19.4300301
| 19>     C       18.7831666   16.6940696   18.6699674
| 20>     C       18.1574549   15.6043571   19.5343930
| 21>     C       18.6287929   14.2815641   19.4510641
| 22>     C       18.0387739   13.2615976   20.2157603
| 23>     C       16.9643876   13.5649117   21.0690834
| 24>     C       16.4863677   14.8795933   21.1489829
| 25>     O       15.4381712   15.1732690   21.9584509
| 26>     C       17.0748202   15.8932364   20.3860653
| 27>     H       13.2759939   15.3603267   16.8732270
| 28>     H       14.2155544   14.0601590   16.1075708
| 29>     H       14.1762316   15.6798626   15.3726224
| 30>     H       15.3636672   16.6084427   17.3596751
| 31>     H       15.4409909   14.9999795   18.1100971
| 32>     H       16.5307527   17.7101386   15.1959988
| 33>     H       17.0583736   19.3753122   15.4236319
| 34>     H       15.5616608   18.8077851   16.1902836
| 35>     H       17.1302049   20.0849631   17.8709190
| 36>     H       19.5507598   17.9335568   20.2672690
| 37>     H       19.7715204   16.3429494   18.3377379
| 38>     H       19.4464110   14.0400057   18.7748495
| 39>     H       18.4103738   12.2411120   20.1380632
| 40>     H       16.5037631   12.7786633   21.6581848
| 41>     H       15.2110573   14.3657461   22.4443494
| 42>     H       16.6846713   16.9028054   20.4615263
| 43> *
| 44>
| 45>                          ****END OF INPUT****

CARTESIAN COORDINATES (ANGSTROEM)
---------------------------------
  C     14.198976   15.135713   16.324916
  C     15.430887   15.537002   17.152107
  O     16.593912   15.183058   16.376653
  C     17.827330   15.778095   16.480062
  O     18.820016   15.149471   16.163486
  C     17.932966   16.928980   17.424349
  C     17.375802   18.133631   17.163971
  C     16.588649   18.522695   15.930648
  N     17.561307   19.192429   18.055036
  C     18.362840   19.143004   19.166481
  S     18.568603   20.458671   20.146489
  N     18.981790   17.944845   19.430030
  C     18.783167   16.694070   18.669967
  C     18.157455   15.604357   19.534393
  C     18.628793   14.281564   19.451064
  C     18.038774   13.261598   20.215760
  C     16.964388   13.564912   21.069083
  C     16.486368   14.879593   21.148983
  O     15.438171   15.173269   21.958451
  C     17.074820   15.893236   20.386065
  H     13.275994   15.360327   16.873227
  H     14.215554   14.060159   16.107571
  H     14.176232   15.679863   15.372622
  H     15.363667   16.608443   17.359675
  H     15.440991   14.999979   18.110097
  H     16.530753   17.710139   15.195999
  H     17.058374   19.375312   15.423632
  H     15.561661   18.807785   16.190284
  H     17.130205   20.084963   17.870919
  H     19.550760   17.933557   20.267269
  H     19.771520   16.342949   18.337738
  H     19.446411   14.040006   18.774849
  H     18.410374   12.241112   20.138063
  H     16.503763   12.778663   21.658185
  H     15.211057   14.365746   22.444349
  H     16.684671   16.902805   20.461526

 Total Charge           Charge          ....    0
 Multiplicity           Mult            ....    1
 Number of Electrons    NEL             ....  154
 Basis Dimension        Dim             ....  828

ORBITAL ENERGIES
----------------

  NO   OCC          E(Eh)            E(eV)
   0   2.0000     -91.890115     -2500.4571
   1   2.0000     -20.600639      -560.5719
   2   2.0000     -20.600402      -560.5654
   3   2.0000     -20.550592      -559.2101
   4   2.0000     -15.626996      -425.2322
   5   2.0000     -15.611920      -424.8219
   6   2.0000     -11.397869      -310.1518
   7   2.0000     -11.387066      -309.8578
   8   2.0000     -11.328695      -308.2695
   9   2.0000     -11.317141      -307.9551
  10   2.0000     -11.315358      -307.9066
  11   2.0000     -11.302539      -307.5577
  12   2.0000     -11.270235      -306.6787
  13   2.0000     -11.264612      -306.5257
  14   2.0000     -11.263885      -306.5059
  15   2.0000     -11.257343      -306.3279
  16   2.0000     -11.246721      -306.0388
  17   2.0000     -11.242541      -305.9251
  18   2.0000     -11.239926      -305.8539
  19   2.0000     -11.233991      -305.6924
  20   2.0000      -8.895231      -242.0515
  21   2.0000      -6.576819      -178.9643
  22   2.0000      -6.574793      -178.9092
  23   2.0000      -6.574218      -178.8936
  24   2.0000      -1.448053       -39.4035
  25   2.0000      -1.420234       -38.6465
  26   2.0000      -1.359410       -36.9914
  27   2.0000      -1.340279       -36.4708
  28   2.0000      -1.240123       -33.7455
  29   2.0000      -1.162002       -31.6197
  30   2.0000      -1.126238       -30.6465
  31   2.0000      -1.049689       -28.5635
  32   2.0000      -1.040986       -28.3267
  33   2.0000      -1.019402       -27.7393
  34   2.0000      -1.005619       -27.3643
  35   2.0000      -0.989785       -26.9334
  36   2.0000      -0.928324       -25.2610
  37   2.0000      -0.882347       -24.0099
  38   2.0000      -0.855308       -23.2741
  39   2.0000      -0.842339       -22.9212
  40   2.0000      -0.837702       -22.7950
  41   2.0000      -0.836877       -22.7726
  42   2.0000      -0.757672       -20.6173
  43   2.0000      -0.739772       -20.1302
  44   2.0000      -0.732547       -19.9336
  45   2.0000      -0.697860       -18.9897
  46   2.0000      -0.688577       -18.7371
  47   2.0000      -0.681048       -18.5323
  48   2.0000      -0.677135       -18.4258
  49   2.0000      -0.666264       -18.1300
  50   2.0000      -0.653074       -17.7710
  51   2.0000      -0.648671       -17.6512
  52   2.0000      -0.640105       -17.4181
  53   2.0000      -0.612474       -16.6663
  54   2.0000      -0.608467       -16.5572
  55   2.0000      -0.604336       -16.4448
  56   2.0000      -0.599584       -16.3155
  57   2.0000      -0.588020       -16.0008
  58   2.0000      -0.578680       -15.7467
  59   2.0000      -0.569538       -15.4979
  60   2.0000      -0.562348       -15.3023
  61   2.0000      -0.560792       -15.2599
  62   2.0000      -0.546335       -14.8665
  63   2.0000      -0.529524       -14.4091
  64   2.0000      -0.524071       -14.2607
  65   2.0000      -0.515813       -14.0360
  66   2.0000      -0.503725       -13.7071
  67   2.0000      -0.502814       -13.6823
  68   2.0000      -0.489185       -13.3114
  69   2.0000      -0.470238       -12.7958
  70   2.0000      -0.454333       -12.3630
  71   2.0000      -0.449435       -12.2298
  72   2.0000      -0.357273        -9.7219
  73   2.0000      -0.352287        -9.5862
  74   2.0000      -0.329815        -8.9747
  75   2.0000      -0.325162        -8.8481
  76   2.0000      -0.318456        -8.6656
  77   0.0000       0.085707         2.3322
  78   0.0000       0.104673         2.8483
  79   0.0000       0.111743         3.0407
  80   0.0000       0.127714         3.4753
  81   0.0000       0.130080         3.5397

MULLIKEN ATOMIC CHARGES
-----------------------
   0 C :   -0.256650
   1 C :    0.011577
   2 O :   -0.312413
   3 C :    0.393658
   4 O :   -0.381321
   5 C :   -0.183959
   6 C :    0.129823
   7 C :   -0.321675
   8 N :   -0.134426
   9 C :    0.205110
  10 S :   -0.440989
  11 N :   -0.214483
  12 C :    0.066110
  13 C :    0.024888
  14 C :   -0.191725
  15 C :   -0.131839
  16 C :   -0.274653
  17 C :    0.318039
  18 O :   -0.359346
  19 C :   -0.280716
  20 H :    0.089807
  21 H :    0.108161
  22 H :    0.092255
  23 H :    0.091522
  24 H :    0.127185
  25 H :    0.124893
  26 H :    0.141979
  27 H :    0.119454
  28 H :    0.195872
  29 H :    0.198356
  30 H :    0.164444
  31 H :    0.167711
  32 H :    0.163901
  33 H :    0.133046
  34 H :    0.241842
  35 H :    0.174562
Sum of atomic charges:    0.0000000

LOEWDIN ATOMIC CHARGES
----------------------
   0 C :    0.109027
   1 C :   -0.020252
   2 O :    0.307838
   3 C :   -0.416866
   4 O :    0.125191
   5 C :   -0.082266
   6 C :   -0.106297
   7 C :    0.124597
   8 N :    0.401091
   9 C :   -0.455469
  10 S :   -0.037751
  11 N :    0.397256
  12 C :   -0.044258
  13 C :   -0.043859
  14 C :    0.022834
  15 C :    0.045837
  16 C :   -0.000484
  17 C :   -0.195063
  18 O :    0.394650
  19 C :    0.027830
  20 H :   -0.025089
  21 H :   -0.023314
  22 H :   -0.029101
  23 H :   -0.039574
  24 H :   -0.026517
  25 H :   -0.008501
  26 H :   -0.009185
  27 H :   -0.016896
  28 H :   -0.057753
  29 H :   -0.063706
  30 H :   -0.002392
  31 H :   -0.021748
  32 H :   -0.018246
  33 H :   -0.034457
  34 H :   -0.152793
  35 H :   -0.024313

  Mayer bond orders larger than 0.100000
B(  0-C ,  1-C ) :   0.9806 B(  0-C , 20-H ) :   0.9767 B(  0-C , 21-H ) :   0.9793
B(  0-C , 22-H ) :   0.9779 B(  1-C ,  2-O ) :   0.9054 B(  1-C , 23-H ) :   0.9654
B(  1-C , 24-H ) :   0.9701 B(  2-O ,  3-C ) :   1.1853 B(  3-C ,  4-O ) :   2.0988
B(  3-C ,  5-C ) :   0.9216 B(  5-C ,  6-C ) :   1.6938 B(  5-C , 12-C ) :   0.9606
B(  6-C ,  7-C ) :   0.9444 B(  6-C ,  8-N ) :   1.1135 B(  7-C , 25-H ) :   0.9802
B(  7-C , 26-H ) :   0.9689 B(  7-C , 27-H ) :   0.9666 B(  8-N ,  9-C ) :   1.1950
B(  8-N , 28-H ) :   0.9521 B(  9-C , 10-S ) :   1.6111 B(  9-C , 11-N ) :   1.2877
B( 11-N , 12-C ) :   0.9983 B( 11-N , 29-H ) :   0.9488 B( 12-C , 13-C ) :   0.9452
B( 12-C , 30-H ) :   0.9974 B( 13-C , 14-C ) :   1.3860 B( 13-C , 19-C ) :   1.3474
B( 14-C , 15-C ) :   1.3960 B( 14-C , 31-H ) :   0.9613 B( 15-C , 16-C ) :   1.3642
B( 15-C , 32-H ) :   0.9700 B( 16-C , 17-C ) :   1.3277 B( 16-C , 33-H ) :   0.9842
B( 17-C , 18-O ) :   1.1088 B( 17-C , 19-C ) :   1.3674 B( 18-O , 34-H ) :   0.9789
B( 19-C , 35-H ) :   0.9588

MP2 TOTAL ENERGY:    -1274.331953278 Eh
FINAL SINGLE POINT ENERGY     -1274.331953278268

DIPOLE MOMENT
-------------
                                X             Y             Z
Electronic contribution:     11.92983       6.59027       7.51572
Nuclear contribution   :    -13.50634      -7.59743      -7.78946
                        -----------------------------------------
Total Dipole Moment    :     -1.57651      -1.00717      -0.27374
                        -----------------------------------------
Magnitude (a.u.)       :      1.89069
Magnitude (Debye)      :      4.80575

Rotational constants in cm-1:     0.011522     0.009154     0.006775
Rotational constants in MHz :   345.407568   274.425043   203.114434

                             ****ORCA TERMINATED NORMALLY****
TOTAL RUN TIME: 0 days 1 hours 50 minutes 37 seconds 355 msec
