                         Program Version 4.2.0 -  RELEASE  -
|  1> ! ri-mp2 cc-pvtz cc-pvtz/c TightSCF  NoKeepInts
|  2>
|  3> %scf
|  4>   MaxCore 4096
|  5> end
|  6> *xyz  0  1
|  7>     C       15.2567869   14.8952674   17.2648886
|  8>     C       15.6307159   15.0037867   15.7703123
|  9>     O       16.7782699   15.8530929   15.5492479
| 10>     C       17.8516015   15.8173286   16.3907522
| 11>     O       18.4546617   14.7739793   16.5748344
| 12>     C       17.9030048   16.9488783   17.3789934
| 13>     C       17.3396551   18.1691075   17.1808808
| 14>     C       16.5688139   18.6525726   15.9696960
| 15>     N       17.5164593   19.1782436   18.1332293
| 16>     C       18.3748947   19.1058360   19.1985729
| 17>     S       18.6378322   20.3987914   20.1956526
| 18>     N       19.0046281   17.9027875   19.3942516
| 19>     C       18.6879638   16.6604249   18.6646394
| 20>     C       17.9318680   15.6895273   19.5681015
| 21>     C       18.3785497   14.3637350   19.7191860
| 22>     C       17.6797119   13.4603786   20.5372579
| 23>     C       16.5226496   13.8850284   21.2119613
| 24>     C       16.0732175   15.2039783   21.0637478
| 25>     O       14.9505148   15.6146913   21.7054085
| 26>     C       16.7712545   16.1010636   20.2494286
| 27>     H       16.0230571   14.3479379   17.8279151
| 28>     H       14.3135892   14.3479211   17.3800666
| 29>     H       15.1274561   15.8874710   17.7139874
| 30>     H       15.8514962   13.9962670   15.3930216
| 31>     H       14.7767392   15.3932430   15.2015531
| 32>     H       15.5718324   18.1966187   15.9366474
| 33>     H       17.0922396   18.3884148   15.0421473
| 34>     H       16.4359625   19.7412956   15.9611518
| 35>     H       17.0656285   20.0700417   18.0043933
| 36>     H       19.6114194   17.8657374   20.2032685
| 37>     H       19.6403954   16.1912176   18.3781295
| 38>     H       19.2618979   14.0267672   19.1817593
| 39>     H       18.0325653   12.4356144   20.6389800
| 40>     H       15.9781458   13.1895442   21.8419108
| 41>     H       14.6462178   14.8783060   22.2569361
| 42>     H       16.4053038   17.1171030   20.1510890
| 43> *
| 44>
| 45>                          ****END OF INPUT****

CARTESIAN COORDINATES (ANGSTROEM)
---------------------------------
  C     15.256787   14.895267   17.264889
  C     15.630716   15.003787   15.770312
  O     16.778270   15.853093   15.549248
  C     17.851602   15.817329   16.390752
  O     18.454662   14.773979   16.574834
  C     17.903005   16.948878   17.378993
  C     17.339655   18.169107   17.180881
  C     16.568814   18.652573   15.969696
  N     17.516459   19.178244   18.133229
  C     18.374895   19.105836   19.198573
  S     18.637832   20.398791   20.195653
  N     19.004628   17.902787   19.394252
  C     18.687964   16.660425   18.664639
  C     17.931868   15.689527   19.568101
  C     18.378550   14.363735   19.719186
  C     17.679712   13.460379   20.537258
  C     16.522650   13.885028   21.211961
  C     16.073217   15.203978   21.063748
  O     14.950515   15.614691   21.705409
  C     16.771255   16.101064   20.249429
  H     16.023057   14.347938   17.827915
  H     14.313589   14.347921   17.380067
  H     15.127456   15.887471   17.713987
  H     15.851496   13.996267   15.393022
  H     14.776739   15.393243   15.201553
  H     15.571832   18.196619   15.936647
  H     17.092240   18.388415   15.042147
  H     16.435962   19.741296   15.961152
  H     17.065628   20.070042   18.004393
  H     19.611419   17.865737   20.203268
  H     19.640395   16.191218   18.378130
  H     19.261898   14.026767   19.181759
  H     18.032565   12.435614   20.638980
  H     15.978146   13.189544   21.841911
  H     14.646218   14.878306   22.256936
  H     16.405304   17.117103   20.151089

 Total Charge           Charge          ....    0
 Multiplicity           Mult            ....    1
 Number of Electrons    NEL             ....  154
 Basis Dimension        Dim             ....  828

ORBITAL ENERGIES
----------------

  NO   OCC          E(Eh)            E(eV)
   0   2.0000     -91.890145     -2500.4580
   1   2.0000     -20.595131      -560.4220
   2   2.0000     -20.583266      -560.0991
   3   2.0000     -20.551677      -559.2396
   4   2.0000     -15.630807      -425.3359
   5   2.0000     -15.608616      -424.7320
   6   2.0000     -11.395156      -310.0780
   7   2.0000     -11.385045      -309.8028
   8   2.0000     -11.337857      -308.5188
   9   2.0000     -11.311042      -307.7891
  10   2.0000     -11.308027      -307.7071
  11   2.0000     -11.303612      -307.5869
  12   2.0000     -11.261761      -306.4481
  13   2.0000     -11.261279      -306.4350
  14   2.0000     -11.256551      -306.3063
  15   2.0000     -11.251352      -306.1649
  16   2.0000     -11.241092      -305.8857
  17   2.0000     -11.236471      -305.7599
  18   2.0000     -11.233640      -305.6829
  19   2.0000     -11.226477      -305.4880
  20   2.0000      -8.895195      -242.0506
  21   2.0000      -6.576767      -178.9629
  22   2.0000      -6.574764      -178.9084
  23   2.0000      -6.574173      -178.8923
  24   2.0000      -1.448402       -39.4130
  25   2.0000      -1.414923       -38.5020
  26   2.0000      -1.353885       -36.8411
  27   2.0000      -1.341596       -36.5067
  28   2.0000      -1.239062       -33.7166
  29   2.0000      -1.155407       -31.4402
  30   2.0000      -1.121167       -30.5085
  31   2.0000      -1.043683       -28.4001
  32   2.0000      -1.031528       -28.0693
  33   2.0000      -1.013056       -27.5667
  34   2.0000      -1.000740       -27.2315
  35   2.0000      -0.986541       -26.8451
  36   2.0000      -0.924279       -25.1509
  37   2.0000      -0.895520       -24.3683
  38   2.0000      -0.849838       -23.1253
  39   2.0000      -0.838709       -22.8224
  40   2.0000      -0.831468       -22.6254
  41   2.0000      -0.817323       -22.2405
  42   2.0000      -0.746758       -20.3203
  43   2.0000      -0.732700       -19.9378
  44   2.0000      -0.727595       -19.7989
  45   2.0000      -0.693471       -18.8703
  46   2.0000      -0.687189       -18.6994
  47   2.0000      -0.676700       -18.4139
  48   2.0000      -0.672119       -18.2893
  49   2.0000      -0.660564       -17.9749
  50   2.0000      -0.653453       -17.7814
  51   2.0000      -0.646446       -17.5907
  52   2.0000      -0.636565       -17.3218
  53   2.0000      -0.619458       -16.8563
  54   2.0000      -0.603195       -16.4138
  55   2.0000      -0.602787       -16.4027
  56   2.0000      -0.599081       -16.3018
  57   2.0000      -0.580593       -15.7987
  58   2.0000      -0.575602       -15.6629
  59   2.0000      -0.563205       -15.3256
  60   2.0000      -0.552763       -15.0415
  61   2.0000      -0.546773       -14.8784
  62   2.0000      -0.537459       -14.6250
  63   2.0000      -0.533001       -14.5037
  64   2.0000      -0.520651       -14.1676
  65   2.0000      -0.511925       -13.9302
  66   2.0000      -0.499553       -13.5935
  67   2.0000      -0.492950       -13.4139
  68   2.0000      -0.480766       -13.0823
  69   2.0000      -0.464677       -12.6445
  70   2.0000      -0.454911       -12.3787
  71   2.0000      -0.449685       -12.2365
  72   2.0000      -0.356053        -9.6887
  73   2.0000      -0.346730        -9.4350
  74   2.0000      -0.329212        -8.9583
  75   2.0000      -0.319109        -8.6834
  76   2.0000      -0.316880        -8.6227
  77   0.0000       0.068874         1.8741
  78   0.0000       0.107557         2.9268
  79   0.0000       0.118371         3.2210
  80   0.0000       0.132610         3.6085
  81   0.0000       0.138132         3.7588

MULLIKEN ATOMIC CHARGES
-----------------------
   0 C :   -0.346808
   1 C :    0.043621
   2 O :   -0.387902
   3 C :    0.480027
   4 O :   -0.406917
   5 C :   -0.211649
   6 C :    0.151257
   7 C :   -0.285885
   8 N :   -0.123011
   9 C :    0.194939
  10 S :   -0.435992
  11 N :   -0.197454
  12 C :    0.042395
  13 C :    0.044122
  14 C :   -0.165754
  15 C :   -0.134543
  16 C :   -0.279237
  17 C :    0.317322
  18 O :   -0.360775
  19 C :   -0.279709
  20 H :    0.132727
  21 H :    0.116984
  22 H :    0.103534
  23 H :    0.112006
  24 H :    0.109579
  25 H :    0.118611
  26 H :    0.133144
  27 H :    0.106595
  28 H :    0.197461
  29 H :    0.193380
  30 H :    0.155359
  31 H :    0.158841
  32 H :    0.161228
  33 H :    0.130529
  34 H :    0.240786
  35 H :    0.171190
Sum of atomic charges:   -0.0000000

LOEWDIN ATOMIC CHARGES
----------------------
   0 C :    0.104818
   1 C :   -0.016188
   2 O :    0.283822
   3 C :   -0.419501
   4 O :    0.121931
   5 C :   -0.094019
   6 C :   -0.068012
   7 C :    0.126084
   8 N :    0.405551
   9 C :   -0.459585
  10 S :   -0.033841
  11 N :    0.397758
  12 C :   -0.045784
  13 C :   -0.040935
  14 C :    0.020696
  15 C :    0.040658
  16 C :   -0.002305
  17 C :   -0.193399
  18 O :    0.393946
  19 C :    0.030974
  20 H :   -0.020692
  21 H :   -0.023595
  22 H :   -0.032015
  23 H :   -0.026489
  24 H :   -0.025658
  25 H :   -0.011611
  26 H :   -0.006021
  27 H :   -0.019978
  28 H :   -0.058760
  29 H :   -0.063715
  30 H :   -0.003701
  31 H :   -0.024402
  32 H :   -0.020350
  33 H :   -0.035702
  34 H :   -0.154182
  35 H :   -0.025799

  Mayer bond orders larger than 0.100000
B(  0-C ,  1-C ) :   0.9585 B(  0-C , 20-H ) :   0.9654 B(  0-C , 21-H ) :   0.9759
B(  0-C , 22-H ) :   0.9707 B(  1-C ,  2-O ) :   0.8928 B(  1-C , 23-H ) :   0.9862
B(  1-C , 24-H ) :   0.9822 B(  2-O ,  3-C ) :   1.0879 B(  3-C ,  4-O ) :   2.0215
B(  3-C ,  5-C ) :   1.0338 B(  5-C ,  6-C ) :   1.6538 B(  5-C , 12-C ) :   0.9663
B(  6-C ,  7-C ) :   0.9558 B(  6-C ,  8-N ) :   1.1417 B(  7-C , 25-H ) :   0.9654
B(  7-C , 26-H ) :   0.9652 B(  7-C , 27-H ) :   0.9901 B(  8-N ,  9-C ) :   1.1784
B(  8-N , 28-H ) :   0.9488 B(  9-C , 10-S ) :   1.6152 B(  9-C , 11-N ) :   1.3020
B( 11-N , 12-C ) :   0.9888 B( 11-N , 29-H ) :   0.9524 B( 12-C , 13-C ) :   0.9459
B( 12-C , 30-H ) :   0.9995 B( 13-C , 14-C ) :   1.3825 B( 13-C , 19-C ) :   1.3546
B( 14-C , 15-C ) :   1.3943 B( 14-C , 31-H ) :   0.9626 B( 15-C , 16-C ) :   1.3622
B( 15-C , 32-H ) :   0.9711 B( 16-C , 17-C ) :   1.3315 B( 16-C , 33-H ) :   0.9850
B( 17-C , 18-O ) :   1.1093 B( 17-C , 19-C ) :   1.3722 B( 18-O , 34-H ) :   0.9802
B( 19-C , 35-H ) :   0.9584

MP2 TOTAL ENERGY:    -1274.329742167 Eh
FINAL SINGLE POINT ENERGY     -1274.329742166921

DIPOLE MOMENT
-------------
                                X             Y             Z
Electronic contribution:      9.77938       8.34439       6.22722
Nuclear contribution   :    -11.19121      -9.50105      -6.92575
                        -----------------------------------------
Total Dipole Moment    :     -1.41183      -1.15665      -0.69854
                        -----------------------------------------
Magnitude (a.u.)       :      1.95424
Magnitude (Debye)      :      4.96729

Rotational constants in cm-1:     0.011569     0.009769     0.006755
Rotational constants in MHz :   346.817603   292.862226   202.509920

                             ****ORCA TERMINATED NORMALLY****
TOTAL RUN TIME: 0 days 1 hours 48 minutes 30 seconds 346 msec
