                         Program Version 4.2.0 -  RELEASE  -
|  1> ! ri-mp2 cc-pvtz cc-pvtz/c TightSCF  NoKeepInts
|  2>
|  3> %scf
|  4>   MaxCore 4096
|  5> end
|  6> *xyz  0  1
|  7>     C       14.6924301   15.9226038   17.2227468
|  8>     C       15.7433040   14.8804752   16.7970939
|  9>     O       16.6908750   15.4538480   15.8718066
| 10>     C       17.9396853   15.7830198   16.3212904
| 11>     O       18.7935091   14.9155762   16.3666038
| 12>     C       17.9380027   16.8976167   17.3188740
| 13>     C       17.3378790   18.0868916   17.0741757
| 14>     C       16.6191556   18.5075790   15.8092373
| 15>     N       17.4247689   19.1162788   18.0145965
| 16>     C       18.2080416   19.0803409   19.1388388
| 17>     S       18.3348841   20.3809801   20.1520192
| 18>     N       18.8816533   17.9086242   19.3824206
| 19>     C       18.7155351   16.6579599   18.6156495
| 20>     C       18.0346500   15.5864258   19.4621305
| 21>     C       18.5550098   14.2800119   19.5061718
| 22>     C       17.9164333   13.2791080   20.2570855
| 23>     C       16.7447613   13.5851574   20.9698131
| 24>     C       16.2210607   14.8840931   20.9266519
| 25>     O       15.0821102   15.1802420   21.6014843
| 26>     C       16.8592306   15.8783946   20.1788852
| 27>     H       15.1297155   16.6983452   17.8596933
| 28>     H       13.8952731   15.4370512   17.7989673
| 29>     H       14.2353232   16.3947098   16.3448099
| 30>     H       16.2484909   14.4569565   17.6754865
| 31>     H       15.2240995   14.0556351   16.2922434
| 32>     H       16.8957476   17.8840002   14.9505277
| 33>     H       16.8644076   19.5414395   15.5356713
| 34>     H       15.5322019   18.4416899   15.9330841
| 35>     H       16.9455960   19.9872522   17.8481755
| 36>     H       19.4341787   17.9033326   20.2304261
| 37>     H       19.7182093   16.2961715   18.3444213
| 38>     H       19.4497886   14.0351653   18.9378364
| 39>     H       18.3273801   12.2710757   20.2779797
| 40>     H       16.2467660   12.8138319   21.5481298
| 41>     H       14.8321475   14.3936531   22.1097259
| 42>     H       16.4346949   16.8764634   20.1592463
| 43> *
| 44>
| 45>                          ****END OF INPUT****

CARTESIAN COORDINATES (ANGSTROEM)
---------------------------------
  C     14.692430   15.922604   17.222747
  C     15.743304   14.880475   16.797094
  O     16.690875   15.453848   15.871807
  C     17.939685   15.783020   16.321290
  O     18.793509   14.915576   16.366604
  C     17.938003   16.897617   17.318874
  C     17.337879   18.086892   17.074176
  C     16.619156   18.507579   15.809237
  N     17.424769   19.116279   18.014596
  C     18.208042   19.080341   19.138839
  S     18.334884   20.380980   20.152019
  N     18.881653   17.908624   19.382421
  C     18.715535   16.657960   18.615649
  C     18.034650   15.586426   19.462130
  C     18.555010   14.280012   19.506172
  C     17.916433   13.279108   20.257085
  C     16.744761   13.585157   20.969813
  C     16.221061   14.884093   20.926652
  O     15.082110   15.180242   21.601484
  C     16.859231   15.878395   20.178885
  H     15.129715   16.698345   17.859693
  H     13.895273   15.437051   17.798967
  H     14.235323   16.394710   16.344810
  H     16.248491   14.456957   17.675486
  H     15.224099   14.055635   16.292243
  H     16.895748   17.884000   14.950528
  H     16.864408   19.541439   15.535671
  H     15.532202   18.441690   15.933084
  H     16.945596   19.987252   17.848175
  H     19.434179   17.903333   20.230426
  H     19.718209   16.296171   18.344421
  H     19.449789   14.035165   18.937836
  H     18.327380   12.271076   20.277980
  H     16.246766   12.813832   21.548130
  H     14.832147   14.393653   22.109726
  H     16.434695   16.876463   20.159246

 Total Charge           Charge          ....    0
 Multiplicity           Mult            ....    1
 Number of Electrons    NEL             ....  154
 Basis Dimension        Dim             ....  828

ORBITAL ENERGIES
----------------

  NO   OCC          E(Eh)            E(eV)
   0   2.0000     -91.890810     -2500.4761
   1   2.0000     -20.600029      -560.5553
   2   2.0000     -20.578130      -559.9594
   3   2.0000     -20.557853      -559.4076
   4   2.0000     -15.629362      -425.2966
   5   2.0000     -15.611049      -424.7982
   6   2.0000     -11.394367      -310.0565
   7   2.0000     -11.386891      -309.8530
   8   2.0000     -11.332717      -308.3789
   9   2.0000     -11.316783      -307.9453
  10   2.0000     -11.312887      -307.8393
  11   2.0000     -11.299938      -307.4869
  12   2.0000     -11.262731      -306.4745
  13   2.0000     -11.262416      -306.4659
  14   2.0000     -11.261946      -306.4531
  15   2.0000     -11.256857      -306.3146
  16   2.0000     -11.246629      -306.0363
  17   2.0000     -11.242089      -305.9128
  18   2.0000     -11.239085      -305.8310
  19   2.0000     -11.229895      -305.5810
  20   2.0000      -8.895888      -242.0694
  21   2.0000      -6.577467      -178.9820
  22   2.0000      -6.575453      -178.9272
  23   2.0000      -6.574869      -178.9113
  24   2.0000      -1.448526       -39.4164
  25   2.0000      -1.419813       -38.6351
  26   2.0000      -1.354419       -36.8556
  27   2.0000      -1.341484       -36.5036
  28   2.0000      -1.240278       -33.7497
  29   2.0000      -1.160918       -31.5902
  30   2.0000      -1.124158       -30.5899
  31   2.0000      -1.047874       -28.5141
  32   2.0000      -1.033407       -28.1204
  33   2.0000      -1.018389       -27.7118
  34   2.0000      -1.002919       -27.2908
  35   2.0000      -0.989209       -26.9177
  36   2.0000      -0.927041       -25.2261
  37   2.0000      -0.885660       -24.1000
  38   2.0000      -0.850976       -23.1562
  39   2.0000      -0.841913       -22.9096
  40   2.0000      -0.837013       -22.7763
  41   2.0000      -0.829255       -22.5652
  42   2.0000      -0.754802       -20.5392
  43   2.0000      -0.735649       -20.0180
  44   2.0000      -0.730765       -19.8851
  45   2.0000      -0.698332       -19.0026
  46   2.0000      -0.688304       -18.7297
  47   2.0000      -0.679331       -18.4855
  48   2.0000      -0.675149       -18.3717
  49   2.0000      -0.660188       -17.9646
  50   2.0000      -0.655361       -17.8333
  51   2.0000      -0.644729       -17.5440
  52   2.0000      -0.637999       -17.3608
  53   2.0000      -0.610303       -16.6072
  54   2.0000      -0.607998       -16.5445
  55   2.0000      -0.604245       -16.4424
  56   2.0000      -0.599291       -16.3075
  57   2.0000      -0.583995       -15.8913
  58   2.0000      -0.579345       -15.7648
  59   2.0000      -0.575313       -15.6551
  60   2.0000      -0.564539       -15.3619
  61   2.0000      -0.553518       -15.0620
  62   2.0000      -0.542149       -14.7526
  63   2.0000      -0.525875       -14.3098
  64   2.0000      -0.518730       -14.1154
  65   2.0000      -0.512212       -13.9380
  66   2.0000      -0.503198       -13.6927
  67   2.0000      -0.497102       -13.5268
  68   2.0000      -0.484489       -13.1836
  69   2.0000      -0.467281       -12.7154
  70   2.0000      -0.454486       -12.3672
  71   2.0000      -0.450804       -12.2670
  72   2.0000      -0.356676        -9.7057
  73   2.0000      -0.352165        -9.5829
  74   2.0000      -0.330224        -8.9858
  75   2.0000      -0.324614        -8.8332
  76   2.0000      -0.318789        -8.6747
  77   0.0000       0.072387         1.9697
  78   0.0000       0.100829         2.7437
  79   0.0000       0.118567         3.2264
  80   0.0000       0.127711         3.4752
  81   0.0000       0.131538         3.5793

MULLIKEN ATOMIC CHARGES
-----------------------
   0 C :   -0.327308
   1 C :    0.034562
   2 O :   -0.375260
   3 C :    0.443739
   4 O :   -0.377357
   5 C :   -0.185100
   6 C :    0.108442
   7 C :   -0.297695
   8 N :   -0.125097
   9 C :    0.194130
  10 S :   -0.437547
  11 N :   -0.205355
  12 C :    0.061408
  13 C :    0.016907
  14 C :   -0.172587
  15 C :   -0.134635
  16 C :   -0.277590
  17 C :    0.316862
  18 O :   -0.359057
  19 C :   -0.280876
  20 H :    0.100410
  21 H :    0.123655
  22 H :    0.108792
  23 H :    0.105799
  24 H :    0.124069
  25 H :    0.128844
  26 H :    0.123808
  27 H :    0.123412
  28 H :    0.198333
  29 H :    0.195508
  30 H :    0.161858
  31 H :    0.165277
  32 H :    0.163428
  33 H :    0.133214
  34 H :    0.241639
  35 H :    0.181367
Sum of atomic charges:   -0.0000000

LOEWDIN ATOMIC CHARGES
----------------------
   0 C :    0.103391
   1 C :   -0.009682
   2 O :    0.275072
   3 C :   -0.419983
   4 O :    0.138842
   5 C :   -0.090670
   6 C :   -0.084056
   7 C :    0.128231
   8 N :    0.404114
   9 C :   -0.457713
  10 S :   -0.035113
  11 N :    0.397068
  12 C :   -0.044484
  13 C :   -0.044759
  14 C :    0.020246
  15 C :    0.042703
  16 C :   -0.001201
  17 C :   -0.194561
  18 O :    0.395111
  19 C :    0.029675
  20 H :   -0.036092
  21 H :   -0.021415
  22 H :   -0.030391
  23 H :   -0.026740
  24 H :   -0.022501
  25 H :   -0.008169
  26 H :   -0.014716
  27 H :   -0.014204
  28 H :   -0.057002
  29 H :   -0.063812
  30 H :   -0.003341
  31 H :   -0.022752
  32 H :   -0.018919
  33 H :   -0.034502
  34 H :   -0.153019
  35 H :   -0.024655

  Mayer bond orders larger than 0.100000
B(  0-C ,  1-C ) :   0.9643 B(  0-C , 20-H ) :   0.9737 B(  0-C , 21-H ) :   0.9771
B(  0-C , 22-H ) :   0.9752 B(  1-C ,  2-O ) :   0.8867 B(  1-C , 23-H ) :   0.9685
B(  1-C , 24-H ) :   0.9851 B(  2-O ,  3-C ) :   1.1040 B(  3-C ,  4-O ) :   2.0712
B(  3-C ,  5-C ) :   0.9682 B(  5-C ,  6-C ) :   1.6788 B(  5-C , 12-C ) :   0.9560
B(  6-C ,  7-C ) :   0.9580 B(  6-C ,  8-N ) :   1.1199 B(  7-C , 25-H ) :   0.9726
B(  7-C , 26-H ) :   0.9792 B(  7-C , 27-H ) :   0.9615 B(  8-N ,  9-C ) :   1.1878
B(  8-N , 28-H ) :   0.9512 B(  9-C , 10-S ) :   1.6160 B(  9-C , 11-N ) :   1.2912
B( 11-N , 12-C ) :   0.9931 B( 11-N , 29-H ) :   0.9512 B( 12-C , 13-C ) :   0.9446
B( 12-C , 30-H ) :   0.9977 B( 13-C , 14-C ) :   1.3875 B( 13-C , 19-C ) :   1.3471
B( 14-C , 15-C ) :   1.3962 B( 14-C , 31-H ) :   0.9609 B( 15-C , 16-C ) :   1.3626
B( 15-C , 32-H ) :   0.9705 B( 16-C , 17-C ) :   1.3304 B( 16-C , 33-H ) :   0.9840
B( 17-C , 18-O ) :   1.1097 B( 17-C , 19-C ) :   1.3713 B( 18-O , 34-H ) :   0.9795
B( 19-C , 35-H ) :   0.9528

MP2 TOTAL ENERGY:    -1274.319674139 Eh
FINAL SINGLE POINT ENERGY     -1274.319674138988

DIPOLE MOMENT
-------------
                                X             Y             Z
Electronic contribution:     10.31455       6.04138       5.41522
Nuclear contribution   :    -11.55370      -7.21925      -5.76558
                        -----------------------------------------
Total Dipole Moment    :     -1.23915      -1.17787      -0.35036
                        -----------------------------------------
Magnitude (a.u.)       :      1.74517
Magnitude (Debye)      :      4.43587

Rotational constants in cm-1:     0.012226     0.009485     0.007155
Rotational constants in MHz :   366.539243   284.364969   214.513267

                             ****ORCA TERMINATED NORMALLY****
TOTAL RUN TIME: 0 days 1 hours 50 minutes 22 seconds 42 msec
