                         Program Version 5.0.0 -  RELEASE  -
|  1> ! ri-mp2 cc-pvtz cc-pvtz/c TightSCF NoKeepInts
|  2>
|  3> %scf
|  4>   MaxCore 4096
|  5> end
|  6> *xyz  0  1
|  7>     C       15.1316160   14.2109901   16.7347062
|  8>     C       15.5904434   14.9472514   15.4548685
|  9>     O       16.4471627   16.0624779   15.7785536
| 10>     C       17.5496102   15.8977782   16.5674566
| 11>     O       18.1455169   14.8354470   16.6414851
| 12>     C       17.8313724   17.0467343   17.4913527
| 13>     C       17.3718583   18.3142898   17.3243500
| 14>     C       16.5274727   18.8582100   16.1903215
| 15>     N       17.7335578   19.3094883   18.2383418
| 16>     C       18.6391616   19.1512762   19.2539525
| 17>     S       19.0921832   20.4135588   20.2219792
| 18>     N       19.1501158   17.8901130   19.4270182
| 19>     C       18.6940192   16.6873773   18.7055401
| 20>     C       17.9376723   15.7523329   19.6457028
| 21>     C       18.3376707   14.4112175   19.7917934
| 22>     C       17.6345279   13.5424585   20.6430449
| 23>     C       16.5201922   14.0176375   21.3551077
| 24>     C       16.1161241   15.3516434   21.2096011
| 25>     O       15.0355786   15.8114253   21.8894980
| 26>     C       16.8178946   16.2139106   20.3614800
| 27>     H       15.9568221   13.6669175   17.2105858
| 28>     H       14.3523171   13.4788545   16.4915822
| 29>     H       14.7177599   14.9185859   17.4639942
| 30>     H       16.1254476   14.2424663   14.8041418
| 31>     H       14.7122408   15.3133962   14.9079407
| 32>     H       15.5014235   18.4749478   16.2538574
| 33>     H       16.9404475   18.5594462   15.2187204
| 34>     H       16.4722412   19.9535513   16.1916079
| 35>     H       17.3694395   20.2424387   18.1289004
| 36>     H       19.7915909   17.7929999   20.2035462
| 37>     H       19.5868251   16.1607118   18.3383881
| 38>     H       19.1870634   14.0360792   19.2260394
| 39>     H       17.9506398   12.5055703   20.7419429
| 40>     H       15.9728573   13.3494208   22.0114894
| 41>     H       14.7169484   15.0880892   22.4499496
| 42>     H       16.4891856   17.2429062   20.2651597
| 43> *
| 44>
| 45>                          ****END OF INPUT****

CARTESIAN COORDINATES (ANGSTROEM)
---------------------------------
  C     15.131616   14.210990   16.734706
  C     15.590443   14.947251   15.454868
  O     16.447163   16.062478   15.778554
  C     17.549610   15.897778   16.567457
  O     18.145517   14.835447   16.641485
  C     17.831372   17.046734   17.491353
  C     17.371858   18.314290   17.324350
  C     16.527473   18.858210   16.190321
  N     17.733558   19.309488   18.238342
  C     18.639162   19.151276   19.253952
  S     19.092183   20.413559   20.221979
  N     19.150116   17.890113   19.427018
  C     18.694019   16.687377   18.705540
  C     17.937672   15.752333   19.645703
  C     18.337671   14.411217   19.791793
  C     17.634528   13.542458   20.643045
  C     16.520192   14.017637   21.355108
  C     16.116124   15.351643   21.209601
  O     15.035579   15.811425   21.889498
  C     16.817895   16.213911   20.361480
  H     15.956822   13.666918   17.210586
  H     14.352317   13.478854   16.491582
  H     14.717760   14.918586   17.463994
  H     16.125448   14.242466   14.804142
  H     14.712241   15.313396   14.907941
  H     15.501423   18.474948   16.253857
  H     16.940448   18.559446   15.218720
  H     16.472241   19.953551   16.191608
  H     17.369439   20.242439   18.128900
  H     19.791591   17.793000   20.203546
  H     19.586825   16.160712   18.338388
  H     19.187063   14.036079   19.226039
  H     17.950640   12.505570   20.741943
  H     15.972857   13.349421   22.011489
  H     14.716948   15.088089   22.449950
  H     16.489186   17.242906   20.265160

 Total Charge           Charge          ....    0
 Multiplicity           Mult            ....    1
 Number of Electrons    NEL             ....  154
 Basis Dimension        Dim             ....  828

ORBITAL ENERGIES
----------------

  NO   OCC          E(Eh)            E(eV)
   0   2.0000     -91.888263     -2500.4068
   1   2.0000     -20.597691      -560.4917
   2   2.0000     -20.593331      -560.3730
   3   2.0000     -20.546672      -559.1034
   4   2.0000     -15.628356      -425.2692
   5   2.0000     -15.607245      -424.6947
   6   2.0000     -11.395954      -310.0997
   7   2.0000     -11.383345      -309.7566
   8   2.0000     -11.335763      -308.4618
   9   2.0000     -11.309277      -307.7411
  10   2.0000     -11.306272      -307.6593
  11   2.0000     -11.302076      -307.5451
  12   2.0000     -11.260117      -306.4034
  13   2.0000     -11.258666      -306.3639
  14   2.0000     -11.254882      -306.2609
  15   2.0000     -11.249437      -306.1127
  16   2.0000     -11.239087      -305.8311
  17   2.0000     -11.235079      -305.7220
  18   2.0000     -11.232115      -305.6414
  19   2.0000     -11.224766      -305.4414
  20   2.0000      -8.893328      -241.9998
  21   2.0000      -6.574906      -178.9123
  22   2.0000      -6.572899      -178.8577
  23   2.0000      -6.572314      -178.8417
  24   2.0000      -1.451077       -39.4858
  25   2.0000      -1.413092       -38.4522
  26   2.0000      -1.356053       -36.9001
  27   2.0000      -1.339361       -36.4459
  28   2.0000      -1.237246       -33.6672
  29   2.0000      -1.153776       -31.3958
  30   2.0000      -1.120034       -30.4777
  31   2.0000      -1.042390       -28.3649
  32   2.0000      -1.032472       -28.0950
  33   2.0000      -1.011062       -27.5124
  34   2.0000      -0.998040       -27.1581
  35   2.0000      -0.983544       -26.7636
  36   2.0000      -0.922210       -25.0946
  37   2.0000      -0.895591       -24.3703
  38   2.0000      -0.847901       -23.0725
  39   2.0000      -0.836210       -22.7544
  40   2.0000      -0.829558       -22.5734
  41   2.0000      -0.815847       -22.2003
  42   2.0000      -0.748208       -20.3598
  43   2.0000      -0.734694       -19.9920
  44   2.0000      -0.725923       -19.7534
  45   2.0000      -0.691695       -18.8220
  46   2.0000      -0.685518       -18.6539
  47   2.0000      -0.677874       -18.4459
  48   2.0000      -0.671723       -18.2785
  49   2.0000      -0.656332       -17.8597
  50   2.0000      -0.653638       -17.7864
  51   2.0000      -0.644790       -17.5456
  52   2.0000      -0.632535       -17.2122
  53   2.0000      -0.616089       -16.7646
  54   2.0000      -0.601499       -16.3676
  55   2.0000      -0.600835       -16.3496
  56   2.0000      -0.596776       -16.2391
  57   2.0000      -0.578770       -15.7491
  58   2.0000      -0.574756       -15.6399
  59   2.0000      -0.563851       -15.3432
  60   2.0000      -0.555644       -15.1198
  61   2.0000      -0.545554       -14.8453
  62   2.0000      -0.536147       -14.5893
  63   2.0000      -0.527940       -14.3660
  64   2.0000      -0.518073       -14.0975
  65   2.0000      -0.509617       -13.8674
  66   2.0000      -0.499079       -13.5806
  67   2.0000      -0.495322       -13.4784
  68   2.0000      -0.480668       -13.0796
  69   2.0000      -0.463766       -12.6197
  70   2.0000      -0.458715       -12.4823
  71   2.0000      -0.450405       -12.2561
  72   2.0000      -0.353988        -9.6325
  73   2.0000      -0.345533        -9.4024
  74   2.0000      -0.327462        -8.9107
  75   2.0000      -0.316588        -8.6148
  76   2.0000      -0.314910        -8.5691
  77   0.0000       0.075162         2.0453
  78   0.0000       0.110235         2.9996
  79   0.0000       0.120830         3.2880
  80   0.0000       0.134310         3.6548
  81   0.0000       0.142333         3.8731

MULLIKEN ATOMIC CHARGES
-----------------------
   0 C :   -0.315229
   1 C :    0.042867
   2 O :   -0.362112
   3 C :    0.448526
   4 O :   -0.426988
   5 C :   -0.175839
   6 C :    0.144825
   7 C :   -0.282391
   8 N :   -0.122711
   9 C :    0.203625
  10 S :   -0.439632
  11 N :   -0.200454
  12 C :    0.047463
  13 C :    0.052797
  14 C :   -0.166222
  15 C :   -0.133969
  16 C :   -0.279805
  17 C :    0.313765
  18 O :   -0.359357
  19 C :   -0.276139
  20 H :    0.129416
  21 H :    0.099591
  22 H :    0.097805
  23 H :    0.103394
  24 H :    0.106499
  25 H :    0.125261
  26 H :    0.127290
  27 H :    0.101812
  28 H :    0.196886
  29 H :    0.194278
  30 H :    0.153633
  31 H :    0.155275
  32 H :    0.160455
  33 H :    0.129098
  34 H :    0.240357
  35 H :    0.165929
Sum of atomic charges:    0.0000000

LOEWDIN ATOMIC CHARGES
----------------------
   0 C :    0.106021
   1 C :   -0.014862
   2 O :    0.297674
   3 C :   -0.414637
   4 O :    0.108509
   5 C :   -0.091655
   6 C :   -0.067273
   7 C :    0.125443
   8 N :    0.404693
   9 C :   -0.458182
  10 S :   -0.036182
  11 N :    0.397761
  12 C :   -0.046118
  13 C :   -0.039601
  14 C :    0.022030
  15 C :    0.040545
  16 C :   -0.002230
  17 C :   -0.192930
  18 O :    0.393242
  19 C :    0.028769
  20 H :   -0.023844
  21 H :   -0.026506
  22 H :   -0.028642
  23 H :   -0.028491
  24 H :   -0.025193
  25 H :   -0.010067
  26 H :   -0.007784
  27 H :   -0.020939
  28 H :   -0.059028
  29 H :   -0.063741
  30 H :   -0.005145
  31 H :   -0.025115
  32 H :   -0.021000
  33 H :   -0.036125
  34 H :   -0.154620
  35 H :   -0.024779

  Mayer bond orders larger than 0.100000
B(  0-C ,  1-C ) :   0.9592 B(  0-C , 20-H ) :   0.9703 B(  0-C , 21-H ) :   0.9766
B(  0-C , 22-H ) :   0.9741 B(  1-C ,  2-O ) :   0.8978 B(  1-C , 23-H ) :   0.9826
B(  1-C , 24-H ) :   0.9839 B(  2-O ,  3-C ) :   1.1312 B(  3-C ,  4-O ) :   1.9914
B(  3-C ,  5-C ) :   1.0468 B(  5-C ,  6-C ) :   1.6507 B(  5-C , 12-C ) :   0.9649
B(  6-C ,  7-C ) :   0.9544 B(  6-C ,  8-N ) :   1.1479 B(  7-C , 25-H ) :   0.9636
B(  7-C , 26-H ) :   0.9664 B(  7-C , 27-H ) :   0.9906 B(  8-N ,  9-C ) :   1.1805
B(  8-N , 28-H ) :   0.9489 B(  9-C , 10-S ) :   1.6102 B(  9-C , 11-N ) :   1.3035
B( 11-N , 12-C ) :   0.9922 B( 11-N , 29-H ) :   0.9516 B( 12-C , 13-C ) :   0.9444
B( 12-C , 30-H ) :   0.9997 B( 13-C , 14-C ) :   1.3755 B( 13-C , 19-C ) :   1.3691
B( 14-C , 15-C ) :   1.3934 B( 14-C , 31-H ) :   0.9643 B( 15-C , 16-C ) :   1.3623
B( 15-C , 32-H ) :   0.9709 B( 16-C , 17-C ) :   1.3319 B( 16-C , 33-H ) :   0.9855
B( 17-C , 18-O ) :   1.1083 B( 17-C , 19-C ) :   1.3756 B( 18-O , 34-H ) :   0.9803
B( 19-C , 35-H ) :   0.9583

MP2 TOTAL ENERGY:    -1274.343892293 Eh
FINAL SINGLE POINT ENERGY     -1274.343892292686

DIPOLE MOMENT
-------------
                                X             Y             Z
Electronic contribution:     10.09836       9.92453       7.91453
Nuclear contribution   :    -11.58846     -11.19221      -8.87106
                        -----------------------------------------
Total Dipole Moment    :     -1.49010      -1.26768      -0.95653
                        -----------------------------------------
Magnitude (a.u.)       :      2.17770
Magnitude (Debye)      :      5.53526

Rotational constants in cm-1:     0.011412     0.009242     0.006323
Rotational constants in MHz :   342.129155   277.078287   189.571837

                             ****ORCA TERMINATED NORMALLY****
TOTAL RUN TIME: 0 days 1 hours 35 minutes 51 seconds 626 msec
