                         Program Version 4.2.0 -  RELEASE  -
|  1> ! ri-mp2 cc-pvtz cc-pvtz/c TightSCF  NoKeepInts
|  2>
|  3> %scf
|  4>   MaxCore 4096
|  5> end
|  6> *xyz  0  1
|  7>     C       15.2556996   15.1856619   17.3087032
|  8>     C       15.6277855   15.1283334   15.8118047
|  9>     O       16.9304516   15.6761026   15.4931232
| 10>     C       17.9617423   15.7387372   16.3880301
| 11>     O       18.6560690   14.7560499   16.5772537
| 12>     C       17.9125338   16.8756424   17.3716345
| 13>     C       17.3176699   18.0714563   17.1244667
| 14>     C       16.6015800   18.5098686   15.8634482
| 15>     N       17.4139108   19.1025243   18.0644165
| 16>     C       18.2403572   19.0873283   19.1570090
| 17>     S       18.4148855   20.4086131   20.1359517
| 18>     N       18.9149078   17.9166450   19.3956429
| 19>     C       18.6683736   16.6459726   18.6872401
| 20>     C       17.9324364   15.6610759   19.5927021
| 21>     C       18.3826160   14.3330026   19.7098156
| 22>     C       17.7049935   13.4150484   20.5293622
| 23>     C       16.5655536   13.8270050   21.2407467
| 24>     C       16.1124189   15.1480338   21.1272533
| 25>     O       15.0062723   15.5466458   21.8042444
| 26>     C       16.7890908   16.0596837   20.3109497
| 27>     H       15.9538581   14.5903478   17.9096330
| 28>     H       14.2553911   14.7629930   17.4618931
| 29>     H       15.2387160   16.2143832   17.6854570
| 30>     H       15.6153140   14.0740403   15.5049804
| 31>     H       14.8621694   15.6465218   15.2204116
| 32>     H       15.5949941   18.0789424   15.8141423
| 33>     H       17.1514426   18.1928548   14.9682952
| 34>     H       16.4988620   19.6001086   15.7986769
| 35>     H       16.9318605   19.9723811   17.9022982
| 36>     H       19.4998116   17.9218844   20.2215447
| 37>     H       19.6477679   16.2114387   18.4389886
| 38>     H       19.2535927   14.0060101   19.1461772
| 39>     H       18.0611638   12.3890878   20.6045348
| 40>     H       16.0376176   13.1202510   21.8723020
| 41>     H       14.7167248   14.8009926   22.3512924
| 42>     H       16.4183658   17.0763318   20.2395744
| 43> *
| 44>
| 45>                          ****END OF INPUT****

CARTESIAN COORDINATES (ANGSTROEM)
---------------------------------
  C     15.255700   15.185662   17.308703
  C     15.627785   15.128333   15.811805
  O     16.930452   15.676103   15.493123
  C     17.961742   15.738737   16.388030
  O     18.656069   14.756050   16.577254
  C     17.912534   16.875642   17.371634
  C     17.317670   18.071456   17.124467
  C     16.601580   18.509869   15.863448
  N     17.413911   19.102524   18.064417
  C     18.240357   19.087328   19.157009
  S     18.414886   20.408613   20.135952
  N     18.914908   17.916645   19.395643
  C     18.668374   16.645973   18.687240
  C     17.932436   15.661076   19.592702
  C     18.382616   14.333003   19.709816
  C     17.704994   13.415048   20.529362
  C     16.565554   13.827005   21.240747
  C     16.112419   15.148034   21.127253
  O     15.006272   15.546646   21.804244
  C     16.789091   16.059684   20.310950
  H     15.953858   14.590348   17.909633
  H     14.255391   14.762993   17.461893
  H     15.238716   16.214383   17.685457
  H     15.615314   14.074040   15.504980
  H     14.862169   15.646522   15.220412
  H     15.594994   18.078942   15.814142
  H     17.151443   18.192855   14.968295
  H     16.498862   19.600109   15.798677
  H     16.931860   19.972381   17.902298
  H     19.499812   17.921884   20.221545
  H     19.647768   16.211439   18.438989
  H     19.253593   14.006010   19.146177
  H     18.061164   12.389088   20.604535
  H     16.037618   13.120251   21.872302
  H     14.716725   14.800993   22.351292
  H     16.418366   17.076332   20.239574

 Total Charge           Charge          ....    0
 Multiplicity           Mult            ....    1
 Number of Electrons    NEL             ....  154
 Basis Dimension        Dim             ....  828

ORBITAL ENERGIES
----------------

  NO   OCC          E(Eh)            E(eV)
   0   2.0000     -91.891041     -2500.4823
   1   2.0000     -20.595695      -560.4374
   2   2.0000     -20.581296      -560.0455
   3   2.0000     -20.552272      -559.2558
   4   2.0000     -15.631689      -425.3599
   5   2.0000     -15.609351      -424.7520
   6   2.0000     -11.395698      -310.0927
   7   2.0000     -11.385961      -309.8278
   8   2.0000     -11.338392      -308.5333
   9   2.0000     -11.311759      -307.8086
  10   2.0000     -11.308885      -307.7304
  11   2.0000     -11.307698      -307.6981
  12   2.0000     -11.263659      -306.4998
  13   2.0000     -11.262676      -306.4730
  14   2.0000     -11.257513      -306.3325
  15   2.0000     -11.252041      -306.1836
  16   2.0000     -11.241795      -305.9048
  17   2.0000     -11.237142      -305.7782
  18   2.0000     -11.233975      -305.6920
  19   2.0000     -11.230878      -305.6077
  20   2.0000      -8.896089      -242.0749
  21   2.0000      -6.577662      -178.9873
  22   2.0000      -6.575657      -178.9327
  23   2.0000      -6.575066      -178.9166
  24   2.0000      -1.445228       -39.3267
  25   2.0000      -1.415511       -38.5180
  26   2.0000      -1.353373       -36.8271
  27   2.0000      -1.342592       -36.5338
  28   2.0000      -1.239940       -33.7405
  29   2.0000      -1.156100       -31.4591
  30   2.0000      -1.121999       -30.5312
  31   2.0000      -1.044457       -28.4211
  32   2.0000      -1.034744       -28.1568
  33   2.0000      -1.013972       -27.5916
  34   2.0000      -1.002501       -27.2794
  35   2.0000      -0.988221       -26.8909
  36   2.0000      -0.925516       -25.1846
  37   2.0000      -0.897249       -24.4154
  38   2.0000      -0.851556       -23.1720
  39   2.0000      -0.839889       -22.8545
  40   2.0000      -0.832166       -22.6444
  41   2.0000      -0.820234       -22.3197
  42   2.0000      -0.745872       -20.2962
  43   2.0000      -0.731553       -19.9066
  44   2.0000      -0.728027       -19.8106
  45   2.0000      -0.693798       -18.8792
  46   2.0000      -0.687760       -18.7149
  47   2.0000      -0.676397       -18.4057
  48   2.0000      -0.673447       -18.3254
  49   2.0000      -0.662229       -18.0202
  50   2.0000      -0.652465       -17.7545
  51   2.0000      -0.648825       -17.6554
  52   2.0000      -0.640396       -17.4261
  53   2.0000      -0.621622       -16.9152
  54   2.0000      -0.604122       -16.4390
  55   2.0000      -0.603611       -16.4251
  56   2.0000      -0.599865       -16.3232
  57   2.0000      -0.582643       -15.8545
  58   2.0000      -0.575682       -15.6651
  59   2.0000      -0.563569       -15.3355
  60   2.0000      -0.556318       -15.1382
  61   2.0000      -0.547363       -14.8945
  62   2.0000      -0.543673       -14.7941
  63   2.0000      -0.533121       -14.5070
  64   2.0000      -0.521076       -14.1792
  65   2.0000      -0.512852       -13.9554
  66   2.0000      -0.499888       -13.6026
  67   2.0000      -0.491458       -13.3733
  68   2.0000      -0.481825       -13.1111
  69   2.0000      -0.467771       -12.7287
  70   2.0000      -0.454354       -12.3636
  71   2.0000      -0.448891       -12.2150
  72   2.0000      -0.356892        -9.7115
  73   2.0000      -0.346970        -9.4415
  74   2.0000      -0.330109        -8.9827
  75   2.0000      -0.320325        -8.7165
  76   2.0000      -0.317837        -8.6488
  77   0.0000       0.068600         1.8667
  78   0.0000       0.107598         2.9279
  79   0.0000       0.117844         3.2067
  80   0.0000       0.132273         3.5993
  81   0.0000       0.135634         3.6908

MULLIKEN ATOMIC CHARGES
-----------------------
   0 C :   -0.349992
   1 C :    0.039424
   2 O :   -0.386017
   3 C :    0.481169
   4 O :   -0.393702
   5 C :   -0.216312
   6 C :    0.143533
   7 C :   -0.299473
   8 N :   -0.124112
   9 C :    0.189393
  10 S :   -0.434658
  11 N :   -0.199445
  12 C :    0.046857
  13 C :    0.034854
  14 C :   -0.174161
  15 C :   -0.135386
  16 C :   -0.279234
  17 C :    0.313698
  18 O :   -0.359875
  19 C :   -0.268922
  20 H :    0.132037
  21 H :    0.123425
  22 H :    0.105473
  23 H :    0.118037
  24 H :    0.106353
  25 H :    0.115651
  26 H :    0.140111
  27 H :    0.112202
  28 H :    0.197604
  29 H :    0.194141
  30 H :    0.158443
  31 H :    0.163560
  32 H :    0.161842
  33 H :    0.130970
  34 H :    0.240806
  35 H :    0.171710
Sum of atomic charges:   -0.0000000

LOEWDIN ATOMIC CHARGES
----------------------
   0 C :    0.104615
   1 C :   -0.015643
   2 O :    0.278185
   3 C :   -0.420426
   4 O :    0.126444
   5 C :   -0.093019
   6 C :   -0.070882
   7 C :    0.127540
   8 N :    0.405634
   9 C :   -0.460270
  10 S :   -0.033175
  11 N :    0.397770
  12 C :   -0.045409
  13 C :   -0.041851
  14 C :    0.020291
  15 C :    0.041076
  16 C :   -0.002286
  17 C :   -0.194011
  18 O :    0.394185
  19 C :    0.030390
  20 H :   -0.019688
  21 H :   -0.021299
  22 H :   -0.034251
  23 H :   -0.024364
  24 H :   -0.028300
  25 H :   -0.013697
  26 H :   -0.005234
  27 H :   -0.018209
  28 H :   -0.058638
  29 H :   -0.063515
  30 H :   -0.002975
  31 H :   -0.023621
  32 H :   -0.019910
  33 H :   -0.035525
  34 H :   -0.154088
  35 H :   -0.025848

  Mayer bond orders larger than 0.100000
B(  0-C ,  1-C ) :   0.9621 B(  0-C , 20-H ) :   0.9651 B(  0-C , 21-H ) :   0.9754
B(  0-C , 22-H ) :   0.9697 B(  1-C ,  2-O ) :   0.8899 B(  1-C , 23-H ) :   0.9852
B(  1-C , 24-H ) :   0.9806 B(  2-O ,  3-C ) :   1.1002 B(  3-C ,  4-O ) :   2.0435
B(  3-C ,  5-C ) :   1.0057 B(  5-C ,  6-C ) :   1.6598 B(  5-C , 12-C ) :   0.9631
B(  6-C ,  7-C ) :   0.9545 B(  6-C ,  8-N ) :   1.1347 B(  7-C , 25-H ) :   0.9655
B(  7-C , 26-H ) :   0.9646 B(  7-C , 27-H ) :   0.9894 B(  8-N ,  9-C ) :   1.1780
B(  8-N , 28-H ) :   0.9488 B(  9-C , 10-S ) :   1.6169 B(  9-C , 11-N ) :   1.3000
B( 11-N , 12-C ) :   0.9866 B( 11-N , 29-H ) :   0.9523 B( 12-C , 13-C ) :   0.9471
B( 12-C , 30-H ) :   0.9989 B( 13-C , 14-C ) :   1.3867 B( 13-C , 19-C ) :   1.3516
B( 14-C , 15-C ) :   1.3955 B( 14-C , 31-H ) :   0.9606 B( 15-C , 16-C ) :   1.3621
B( 15-C , 32-H ) :   0.9709 B( 16-C , 17-C ) :   1.3301 B( 16-C , 33-H ) :   0.9850
B( 17-C , 18-O ) :   1.1103 B( 17-C , 19-C ) :   1.3761 B( 18-O , 34-H ) :   0.9801
B( 19-C , 35-H ) :   0.9583

MP2 TOTAL ENERGY:    -1274.325665839 Eh
FINAL SINGLE POINT ENERGY     -1274.325665839468

DIPOLE MOMENT
-------------
                                X             Y             Z
Electronic contribution:      9.69662       7.49718       6.20889
Nuclear contribution   :    -11.15891      -8.57538      -6.82352
                        -----------------------------------------
Total Dipole Moment    :     -1.46229      -1.07820      -0.61463
                        -----------------------------------------
Magnitude (a.u.)       :      1.91796
Magnitude (Debye)      :      4.87508

Rotational constants in cm-1:     0.011362     0.009949     0.006816
Rotational constants in MHz :   340.630455   298.278391   204.339927

                             ****ORCA TERMINATED NORMALLY****
TOTAL RUN TIME: 0 days 1 hours 50 minutes 4 seconds 922 msec
