                         Program Version 5.0.0 -  RELEASE  -
|  1> ! ri-mp2 cc-pvtz cc-pvtz/c TightSCF NoKeepInts
|  2>
|  3> %scf
|  4>   MaxCore 4096
|  5> end
|  6> *xyz  0  1
|  7>     C       15.4692106   13.9985990   14.7934926
|  8>     C       15.0647132   14.8516658   16.0126589
|  9>     O       16.0202772   15.9147094   16.1888909
| 10>     C       17.2035159   15.6764280   16.8306124
| 11>     O       17.6285261   14.5478730   17.0171503
| 12>     C       17.7113083   16.8520911   17.6152383
| 13>     C       17.4065302   18.1497012   17.3513599
| 14>     C       16.5370246   18.6945106   16.2366589
| 15>     N       17.9874476   19.1683729   18.1139732
| 16>     C       18.9836489   18.9857253   19.0364264
| 17>     S       19.7085167   20.2608261   19.8008510
| 18>     N       19.3492724   17.6885118   19.2918798
| 19>     C       18.6470410   16.4979982   18.7768808
| 20>     C       17.8859026   15.7997082   19.9010320
| 21>     C       18.1036260   14.4354475   20.1684772
| 22>     C       17.4040246   13.7866093   21.1997335
| 23>     C       16.4773896   14.5074494   21.9719552
| 24>     C       16.2545147   15.8653887   21.7066097
| 25>     O       15.3557394   16.5627027   22.4464454
| 26>     C       16.9519544   16.5082777   20.6791123
| 27>     H       15.5738017   14.6254272   13.8994624
| 28>     H       14.7066748   13.2370566   14.5905575
| 29>     H       16.4213265   13.4823324   14.9674781
| 30>     H       14.0737042   15.2852888   15.8274275
| 31>     H       15.0009860   14.2289703   16.9158520
| 32>     H       16.7974328   18.2319671   15.2764428
| 33>     H       16.6436337   19.7785616   16.1088022
| 34>     H       15.4782507   18.4866357   16.4354544
| 35>     H       17.7325436   20.1275309   17.9407281
| 36>     H       20.0641199   17.5788190   19.9995968
| 37>     H       19.4085753   15.8032899   18.3939533
| 38>     H       18.8069977   13.8713877   19.5607191
| 39>     H       17.5775916   12.7293882   21.3919683
| 40>     H       15.9336718   14.0098682   22.7679924
| 41>     H       15.0109594   15.9622927   23.1242183
| 42>     H       16.7665458   17.5605876   20.4939080
| 43> *
| 44>
| 45>                          ****END OF INPUT****

CARTESIAN COORDINATES (ANGSTROEM)
---------------------------------
  C     15.469211   13.998599   14.793493
  C     15.064713   14.851666   16.012659
  O     16.020277   15.914709   16.188891
  C     17.203516   15.676428   16.830612
  O     17.628526   14.547873   17.017150
  C     17.711308   16.852091   17.615238
  C     17.406530   18.149701   17.351360
  C     16.537025   18.694511   16.236659
  N     17.987448   19.168373   18.113973
  C     18.983649   18.985725   19.036426
  S     19.708517   20.260826   19.800851
  N     19.349272   17.688512   19.291880
  C     18.647041   16.497998   18.776881
  C     17.885903   15.799708   19.901032
  C     18.103626   14.435448   20.168477
  C     17.404025   13.786609   21.199734
  C     16.477390   14.507449   21.971955
  C     16.254515   15.865389   21.706610
  O     15.355739   16.562703   22.446445
  C     16.951954   16.508278   20.679112
  H     15.573802   14.625427   13.899462
  H     14.706675   13.237057   14.590557
  H     16.421326   13.482332   14.967478
  H     14.073704   15.285289   15.827427
  H     15.000986   14.228970   16.915852
  H     16.797433   18.231967   15.276443
  H     16.643634   19.778562   16.108802
  H     15.478251   18.486636   16.435454
  H     17.732544   20.127531   17.940728
  H     20.064120   17.578819   19.999597
  H     19.408575   15.803290   18.393953
  H     18.806998   13.871388   19.560719
  H     17.577592   12.729388   21.391968
  H     15.933672   14.009868   22.767992
  H     15.010959   15.962293   23.124218
  H     16.766546   17.560588   20.493908

 Total Charge           Charge          ....    0
 Multiplicity           Mult            ....    1
 Number of Electrons    NEL             ....  154
 Basis Dimension        Dim             ....  828

ORBITAL ENERGIES
----------------

  NO   OCC          E(Eh)            E(eV)
   0   2.0000     -91.887856     -2500.3957
   1   2.0000     -20.600362      -560.5643
   2   2.0000     -20.591867      -560.3332
   3   2.0000     -20.548488      -559.1528
   4   2.0000     -15.627896      -425.2567
   5   2.0000     -15.606694      -424.6797
   6   2.0000     -11.397114      -310.1313
   7   2.0000     -11.382845      -309.7430
   8   2.0000     -11.334984      -308.4406
   9   2.0000     -11.307768      -307.7000
  10   2.0000     -11.306024      -307.6525
  11   2.0000     -11.301268      -307.5231
  12   2.0000     -11.260279      -306.4078
  13   2.0000     -11.258720      -306.3654
  14   2.0000     -11.253734      -306.2297
  15   2.0000     -11.248008      -306.0739
  16   2.0000     -11.237606      -305.7908
  17   2.0000     -11.233628      -305.6825
  18   2.0000     -11.230784      -305.6052
  19   2.0000     -11.223648      -305.4110
  20   2.0000      -8.892922      -241.9887
  21   2.0000      -6.574501      -178.9013
  22   2.0000      -6.572493      -178.8466
  23   2.0000      -6.571908      -178.8307
  24   2.0000      -1.453544       -39.5530
  25   2.0000      -1.411603       -38.4117
  26   2.0000      -1.358003       -36.9532
  27   2.0000      -1.338967       -36.4351
  28   2.0000      -1.236739       -33.6534
  29   2.0000      -1.152331       -31.3565
  30   2.0000      -1.119526       -30.4638
  31   2.0000      -1.042093       -28.3568
  32   2.0000      -1.033717       -28.1289
  33   2.0000      -1.009684       -27.4749
  34   2.0000      -0.996969       -27.1289
  35   2.0000      -0.982428       -26.7332
  36   2.0000      -0.921281       -25.0693
  37   2.0000      -0.891261       -24.2525
  38   2.0000      -0.847495       -23.0615
  39   2.0000      -0.835676       -22.7399
  40   2.0000      -0.828169       -22.5356
  41   2.0000      -0.818895       -22.2833
  42   2.0000      -0.753013       -20.4905
  43   2.0000      -0.733983       -19.9727
  44   2.0000      -0.725139       -19.7320
  45   2.0000      -0.690960       -18.8020
  46   2.0000      -0.685160       -18.6441
  47   2.0000      -0.680155       -18.5079
  48   2.0000      -0.671306       -18.2672
  49   2.0000      -0.660537       -17.9741
  50   2.0000      -0.645900       -17.5758
  51   2.0000      -0.641190       -17.4477
  52   2.0000      -0.630980       -17.1698
  53   2.0000      -0.609355       -16.5814
  54   2.0000      -0.600052       -16.3282
  55   2.0000      -0.599566       -16.3150
  56   2.0000      -0.595020       -16.1913
  57   2.0000      -0.585687       -15.9373
  58   2.0000      -0.573207       -15.5978
  59   2.0000      -0.566952       -15.4275
  60   2.0000      -0.560388       -15.2489
  61   2.0000      -0.546009       -14.8577
  62   2.0000      -0.535324       -14.5669
  63   2.0000      -0.521506       -14.1909
  64   2.0000      -0.517207       -14.0739
  65   2.0000      -0.510658       -13.8957
  66   2.0000      -0.501347       -13.6424
  67   2.0000      -0.495552       -13.4847
  68   2.0000      -0.480046       -13.0627
  69   2.0000      -0.461620       -12.5613
  70   2.0000      -0.456847       -12.4314
  71   2.0000      -0.454509       -12.3678
  72   2.0000      -0.353741        -9.6258
  73   2.0000      -0.344161        -9.3651
  74   2.0000      -0.327017        -8.8986
  75   2.0000      -0.315555        -8.5867
  76   2.0000      -0.314005        -8.5445
  77   0.0000       0.075858         2.0642
  78   0.0000       0.112359         3.0574
  79   0.0000       0.121646         3.3102
  80   0.0000       0.135819         3.6958
  81   0.0000       0.140824         3.8320

MULLIKEN ATOMIC CHARGES
-----------------------
   0 C :   -0.293227
   1 C :    0.042221
   2 O :   -0.350387
   3 C :    0.431025
   4 O :   -0.428010
   5 C :   -0.149520
   6 C :    0.141336
   7 C :   -0.284857
   8 N :   -0.122293
   9 C :    0.201779
  10 S :   -0.439912
  11 N :   -0.197261
  12 C :    0.036565
  13 C :    0.055064
  14 C :   -0.162369
  15 C :   -0.134272
  16 C :   -0.279280
  17 C :    0.311345
  18 O :   -0.358878
  19 C :   -0.270899
  20 H :    0.090053
  21 H :    0.093530
  22 H :    0.120578
  23 H :    0.102974
  24 H :    0.100116
  25 H :    0.124681
  26 H :    0.101804
  27 H :    0.128056
  28 H :    0.196819
  29 H :    0.193516
  30 H :    0.153755
  31 H :    0.153651
  32 H :    0.159248
  33 H :    0.128214
  34 H :    0.240021
  35 H :    0.164813
Sum of atomic charges:    0.0000000

LOEWDIN ATOMIC CHARGES
----------------------
   0 C :    0.104384
   1 C :   -0.015077
   2 O :    0.301316
   3 C :   -0.412044
   4 O :    0.109785
   5 C :   -0.090596
   6 C :   -0.067798
   7 C :    0.125115
   8 N :    0.404552
   9 C :   -0.458652
  10 S :   -0.036472
  11 N :    0.397641
  12 C :   -0.046038
  13 C :   -0.038966
  14 C :    0.021456
  15 C :    0.040540
  16 C :   -0.002399
  17 C :   -0.192566
  18 O :    0.393111
  19 C :    0.028819
  20 H :   -0.030658
  21 H :   -0.028233
  22 H :   -0.024945
  23 H :   -0.025898
  24 H :   -0.026562
  25 H :   -0.008907
  26 H :   -0.020728
  27 H :   -0.009456
  28 H :   -0.059088
  29 H :   -0.063788
  30 H :   -0.005055
  31 H :   -0.025402
  32 H :   -0.021246
  33 H :   -0.036380
  34 H :   -0.154897
  35 H :   -0.024866

  Mayer bond orders larger than 0.100000
B(  0-C ,  1-C ) :   0.9680 B(  0-C , 20-H ) :   0.9764 B(  0-C , 21-H ) :   0.9769
B(  0-C , 22-H ) :   0.9732 B(  1-C ,  2-O ) :   0.9022 B(  1-C , 23-H ) :   0.9846
B(  1-C , 24-H ) :   0.9760 B(  2-O ,  3-C ) :   1.1335 B(  3-C ,  4-O ) :   1.9646
B(  3-C ,  5-C ) :   1.0545 B(  5-C ,  6-C ) :   1.6519 B(  5-C , 12-C ) :   0.9645
B(  6-C ,  7-C ) :   0.9547 B(  6-C ,  8-N ) :   1.1436 B(  7-C , 25-H ) :   0.9674
B(  7-C , 26-H ) :   0.9908 B(  7-C , 27-H ) :   0.9629 B(  8-N ,  9-C ) :   1.1803
B(  8-N , 28-H ) :   0.9491 B(  9-C , 10-S ) :   1.6102 B(  9-C , 11-N ) :   1.3029
B( 11-N , 12-C ) :   0.9931 B( 11-N , 29-H ) :   0.9519 B( 12-C , 13-C ) :   0.9466
B( 12-C , 30-H ) :   0.9994 B( 13-C , 14-C ) :   1.3755 B( 13-C , 19-C ) :   1.3703
B( 14-C , 15-C ) :   1.3945 B( 14-C , 31-H ) :   0.9650 B( 15-C , 16-C ) :   1.3628
B( 15-C , 32-H ) :   0.9714 B( 16-C , 17-C ) :   1.3313 B( 16-C , 33-H ) :   0.9859
B( 17-C , 18-O ) :   1.1082 B( 17-C , 19-C ) :   1.3787 B( 18-O , 34-H ) :   0.9806
B( 19-C , 35-H ) :   0.9584

MP2 TOTAL ENERGY:    -1274.342105002 Eh
FINAL SINGLE POINT ENERGY     -1274.342105001728

DIPOLE MOMENT
-------------
                                X             Y             Z
Electronic contribution:     10.28095       9.94203      11.15924
Nuclear contribution   :    -11.93620     -11.09770     -11.98403
                        -----------------------------------------
Total Dipole Moment    :     -1.65525      -1.15567      -0.82479
                        -----------------------------------------
Magnitude (a.u.)       :      2.18076
Magnitude (Debye)      :      5.54306

Rotational constants in cm-1:     0.010657     0.008923     0.005859
Rotational constants in MHz :   319.502424   267.516288   175.640308

                             ****ORCA TERMINATED NORMALLY****
TOTAL RUN TIME: 0 days 1 hours 32 minutes 7 seconds 61 msec
