                         Program Version 4.2.0 -  RELEASE  -
|  1> ! ri-mp2 cc-pvtz cc-pvtz/c TightSCF  NoKeepInts
|  2>
|  3> %scf
|  4>   MaxCore 4096
|  5> end
|  6> *xyz  0  1
|  7>     C       14.2226916   15.2057369   16.2898410
|  8>     C       15.4237840   15.5299132   17.1928538
|  9>     O       16.6105584   15.1292745   16.4784669
| 10>     C       17.8125358   15.7937114   16.4767502
| 11>     O       18.8112671   15.2035809   16.1095589
| 12>     C       17.9311713   16.9345886   17.4300642
| 13>     C       17.3831250   18.1444327   17.1775070
| 14>     C       16.5882759   18.5406482   15.9517565
| 15>     N       17.5770573   19.1962379   18.0749224
| 16>     C       18.3747295   19.1316186   19.1885002
| 17>     S       18.5879084   20.4380505   20.1792466
| 18>     N       18.9824668   17.9261478   19.4455854
| 19>     C       18.7792419   16.6832743   18.6736291
| 20>     C       18.1509108   15.5866203   19.5271599
| 21>     C       18.6153503   14.2626403   19.4258996
| 22>     C       18.0229291   13.2363479   20.1802032
| 23>     C       16.9530602   13.5345467   21.0409792
| 24>     C       16.4818379   14.8504960   21.1385266
| 25>     O       15.4377350   15.1393393   21.9550045
| 26>     C       17.0727415   15.8705262   20.3861072
| 27>     H       13.2820287   15.4638818   16.7913494
| 28>     H       14.2003844   14.1351947   16.0494233
| 29>     H       14.2792111   15.7691765   15.3503001
| 30>     H       15.3973870   16.5981560   17.4241789
| 31>     H       15.3525277   14.9738577   18.1372313
| 32>     H       16.5099381   17.7264240   15.2209001
| 33>     H       17.0646947   19.3848838   15.4369851
| 34>     H       15.5684532   18.8411080   16.2222208
| 35>     H       17.1538146   20.0936044   17.8961764
| 36>     H       19.5483821   17.9039230   20.2846629
| 37>     H       19.7662709   16.3323268   18.3373528
| 38>     H       19.4290402   14.0253266   18.7435292
| 39>     H       18.3889169   12.2150144   20.0884987
| 40>     H       16.4904525   12.7434090   21.6219022
| 41>     H       15.2083503   14.3270070   22.4317305
| 42>     H       16.6877701   16.8809742   20.4749958
| 43> *
| 44>
| 45>                          ****END OF INPUT****

CARTESIAN COORDINATES (ANGSTROEM)
---------------------------------
  C     14.222692   15.205737   16.289841
  C     15.423784   15.529913   17.192854
  O     16.610558   15.129274   16.478467
  C     17.812536   15.793711   16.476750
  O     18.811267   15.203581   16.109559
  C     17.931171   16.934589   17.430064
  C     17.383125   18.144433   17.177507
  C     16.588276   18.540648   15.951756
  N     17.577057   19.196238   18.074922
  C     18.374730   19.131619   19.188500
  S     18.587908   20.438050   20.179247
  N     18.982467   17.926148   19.445585
  C     18.779242   16.683274   18.673629
  C     18.150911   15.586620   19.527160
  C     18.615350   14.262640   19.425900
  C     18.022929   13.236348   20.180203
  C     16.953060   13.534547   21.040979
  C     16.481838   14.850496   21.138527
  O     15.437735   15.139339   21.955005
  C     17.072741   15.870526   20.386107
  H     13.282029   15.463882   16.791349
  H     14.200384   14.135195   16.049423
  H     14.279211   15.769177   15.350300
  H     15.397387   16.598156   17.424179
  H     15.352528   14.973858   18.137231
  H     16.509938   17.726424   15.220900
  H     17.064695   19.384884   15.436985
  H     15.568453   18.841108   16.222221
  H     17.153815   20.093604   17.896176
  H     19.548382   17.903923   20.284663
  H     19.766271   16.332327   18.337353
  H     19.429040   14.025327   18.743529
  H     18.388917   12.215014   20.088499
  H     16.490452   12.743409   21.621902
  H     15.208350   14.327007   22.431731
  H     16.687770   16.880974   20.474996

 Total Charge           Charge          ....    0
 Multiplicity           Mult            ....    1
 Number of Electrons    NEL             ....  154
 Basis Dimension        Dim             ....  828

ORBITAL ENERGIES
----------------

  NO   OCC          E(Eh)            E(eV)
   0   2.0000     -91.889732     -2500.4467
   1   2.0000     -20.601512      -560.5957
   2   2.0000     -20.600426      -560.5661
   3   2.0000     -20.550821      -559.2163
   4   2.0000     -15.626191      -425.2103
   5   2.0000     -15.611904      -424.8215
   6   2.0000     -11.398042      -310.1565
   7   2.0000     -11.386802      -309.8506
   8   2.0000     -11.327063      -308.2250
   9   2.0000     -11.317093      -307.9537
  10   2.0000     -11.315956      -307.9228
  11   2.0000     -11.302530      -307.5575
  12   2.0000     -11.270716      -306.6918
  13   2.0000     -11.264738      -306.5291
  14   2.0000     -11.263966      -306.5081
  15   2.0000     -11.257313      -306.3271
  16   2.0000     -11.246675      -306.0376
  17   2.0000     -11.242527      -305.9247
  18   2.0000     -11.239986      -305.8556
  19   2.0000     -11.234018      -305.6932
  20   2.0000      -8.894854      -242.0413
  21   2.0000      -6.576444      -178.9541
  22   2.0000      -6.574416      -178.8989
  23   2.0000      -6.573843      -178.8834
  24   2.0000      -1.448564       -39.4174
  25   2.0000      -1.420257       -38.6472
  26   2.0000      -1.359470       -36.9931
  27   2.0000      -1.339743       -36.4563
  28   2.0000      -1.239834       -33.7376
  29   2.0000      -1.161972       -31.6189
  30   2.0000      -1.126236       -30.6464
  31   2.0000      -1.049776       -28.5659
  32   2.0000      -1.041150       -28.3311
  33   2.0000      -1.019385       -27.7389
  34   2.0000      -1.005598       -27.3637
  35   2.0000      -0.989647       -26.9297
  36   2.0000      -0.928332       -25.2612
  37   2.0000      -0.883910       -24.0524
  38   2.0000      -0.854939       -23.2641
  39   2.0000      -0.842020       -22.9125
  40   2.0000      -0.837614       -22.7926
  41   2.0000      -0.836919       -22.7737
  42   2.0000      -0.757499       -20.6126
  43   2.0000      -0.739131       -20.1128
  44   2.0000      -0.732569       -19.9342
  45   2.0000      -0.697859       -18.9897
  46   2.0000      -0.688690       -18.7402
  47   2.0000      -0.680328       -18.5127
  48   2.0000      -0.677267       -18.4294
  49   2.0000      -0.667345       -18.1594
  50   2.0000      -0.652928       -17.7671
  51   2.0000      -0.647947       -17.6315
  52   2.0000      -0.639870       -17.4117
  53   2.0000      -0.612690       -16.6721
  54   2.0000      -0.608526       -16.5588
  55   2.0000      -0.604348       -16.4451
  56   2.0000      -0.599161       -16.3040
  57   2.0000      -0.588775       -16.0214
  58   2.0000      -0.578718       -15.7477
  59   2.0000      -0.569825       -15.5057
  60   2.0000      -0.562775       -15.3139
  61   2.0000      -0.562185       -15.2978
  62   2.0000      -0.546317       -14.8660
  63   2.0000      -0.530129       -14.4255
  64   2.0000      -0.523467       -14.2443
  65   2.0000      -0.515607       -14.0304
  66   2.0000      -0.504703       -13.7337
  67   2.0000      -0.502749       -13.6805
  68   2.0000      -0.488679       -13.2976
  69   2.0000      -0.470495       -12.8028
  70   2.0000      -0.453177       -12.3316
  71   2.0000      -0.449233       -12.2242
  72   2.0000      -0.356863        -9.7107
  73   2.0000      -0.352262        -9.5855
  74   2.0000      -0.329493        -8.9660
  75   2.0000      -0.325040        -8.8448
  76   2.0000      -0.318068        -8.6551
  77   0.0000       0.087997         2.3945
  78   0.0000       0.104783         2.8513
  79   0.0000       0.110927         3.0185
  80   0.0000       0.127331         3.4649
  81   0.0000       0.129633         3.5275

MULLIKEN ATOMIC CHARGES
-----------------------
   0 C :   -0.255220
   1 C :    0.007934
   2 O :   -0.310424
   3 C :    0.387102
   4 O :   -0.380047
   5 C :   -0.173274
   6 C :    0.124463
   7 C :   -0.321230
   8 N :   -0.135021
   9 C :    0.206371
  10 S :   -0.441845
  11 N :   -0.215333
  12 C :    0.064153
  13 C :    0.026525
  14 C :   -0.189698
  15 C :   -0.131439
  16 C :   -0.274475
  17 C :    0.315522
  18 O :   -0.359502
  19 C :   -0.277901
  20 H :    0.089772
  21 H :    0.108594
  22 H :    0.090114
  23 H :    0.093440
  24 H :    0.129123
  25 H :    0.121732
  26 H :    0.142568
  27 H :    0.119761
  28 H :    0.195571
  29 H :    0.198624
  30 H :    0.164858
  31 H :    0.166139
  32 H :    0.163679
  33 H :    0.133078
  34 H :    0.241870
  35 H :    0.174413
Sum of atomic charges:   -0.0000000

LOEWDIN ATOMIC CHARGES
----------------------
   0 C :    0.107454
   1 C :   -0.019714
   2 O :    0.311953
   3 C :   -0.418443
   4 O :    0.125826
   5 C :   -0.081150
   6 C :   -0.109784
   7 C :    0.124443
   8 N :    0.400562
   9 C :   -0.455122
  10 S :   -0.038480
  11 N :    0.397296
  12 C :   -0.043857
  13 C :   -0.043181
  14 C :    0.023593
  15 C :    0.046143
  16 C :   -0.000496
  17 C :   -0.195008
  18 O :    0.394603
  19 C :    0.028131
  20 H :   -0.025533
  21 H :   -0.023289
  22 H :   -0.030117
  23 H :   -0.039667
  24 H :   -0.025500
  25 H :   -0.009209
  26 H :   -0.008970
  27 H :   -0.016558
  28 H :   -0.058105
  29 H :   -0.063731
  30 H :   -0.002320
  31 H :   -0.021878
  32 H :   -0.018257
  33 H :   -0.034486
  34 H :   -0.152792
  35 H :   -0.024354

  Mayer bond orders larger than 0.100000
B(  0-C ,  1-C ) :   0.9798 B(  0-C , 20-H ) :   0.9766 B(  0-C , 21-H ) :   0.9793
B(  0-C , 22-H ) :   0.9775 B(  1-C ,  2-O ) :   0.9052 B(  1-C , 23-H ) :   0.9650
B(  1-C , 24-H ) :   0.9701 B(  2-O ,  3-C ) :   1.1787 B(  3-C ,  4-O ) :   2.0982
B(  3-C ,  5-C ) :   0.9220 B(  5-C ,  6-C ) :   1.6976 B(  5-C , 12-C ) :   0.9605
B(  6-C ,  7-C ) :   0.9453 B(  6-C ,  8-N ) :   1.1109 B(  7-C , 25-H ) :   0.9809
B(  7-C , 26-H ) :   0.9687 B(  7-C , 27-H ) :   0.9667 B(  8-N ,  9-C ) :   1.1968
B(  8-N , 28-H ) :   0.9525 B(  9-C , 10-S ) :   1.6103 B(  9-C , 11-N ) :   1.2865
B( 11-N , 12-C ) :   0.9982 B( 11-N , 29-H ) :   0.9484 B( 12-C , 13-C ) :   0.9474
B( 12-C , 30-H ) :   0.9974 B( 13-C , 14-C ) :   1.3853 B( 13-C , 19-C ) :   1.3457
B( 14-C , 15-C ) :   1.3964 B( 14-C , 31-H ) :   0.9621 B( 15-C , 16-C ) :   1.3640
B( 15-C , 32-H ) :   0.9700 B( 16-C , 17-C ) :   1.3278 B( 16-C , 33-H ) :   0.9842
B( 17-C , 18-O ) :   1.1083 B( 17-C , 19-C ) :   1.3683 B( 18-O , 34-H ) :   0.9789
B( 19-C , 35-H ) :   0.9592

MP2 TOTAL ENERGY:    -1274.329771770 Eh
FINAL SINGLE POINT ENERGY     -1274.329771769710

DIPOLE MOMENT
-------------
                                X             Y             Z
Electronic contribution:     11.92954       6.36407       7.65274
Nuclear contribution   :    -13.53639      -7.38354      -7.94825
                        -----------------------------------------
Total Dipole Moment    :     -1.60685      -1.01947      -0.29551
                        -----------------------------------------
Magnitude (a.u.)       :      1.92577
Magnitude (Debye)      :      4.89492

Rotational constants in cm-1:     0.011592     0.009153     0.006783
Rotational constants in MHz :   347.534148   274.388240   203.356393

                             ****ORCA TERMINATED NORMALLY****
TOTAL RUN TIME: 0 days 1 hours 54 minutes 16 seconds 596 msec
