                         Program Version 4.2.0 -  RELEASE  -
|  1> ! ri-mp2 cc-pvtz cc-pvtz/c TightSCF  NoKeepInts
|  2>
|  3> %scf
|  4>   MaxCore 4096
|  5> end
|  6> *xyz  0  1
|  7>     C       14.1707482   15.3598562   16.1605474
|  8>     C       15.4694791   15.3420720   16.9839489
|  9>     O       16.5697471   15.4030668   16.0554276
| 10>     C       17.8276635   15.6932935   16.5062838
| 11>     O       18.7129987   14.8615782   16.4264379
| 12>     C       17.9348286   16.8764077   17.4180121
| 13>     C       17.3170628   18.0594549   17.1838018
| 14>     C       16.4702102   18.4303586   15.9851310
| 15>     N       17.4968096   19.1245397   18.0699829
| 16>     C       18.3626235   19.1183858   19.1325600
| 17>     S       18.5756738   20.4516013   20.0870816
| 18>     N       19.0399508   17.9473088   19.3680037
| 19>     C       18.8189601   16.6773678   18.6487978
| 20>     C       18.2036740   15.6266595   19.5681591
| 21>     C       18.7463344   14.3302609   19.6291404
| 22>     C       18.1663128   13.3489488   20.4502017
| 23>     C       17.0306890   13.6644565   21.2153286
| 24>     C       16.4829063   14.9525966   21.1523489
| 25>     O       15.3776340   15.2572667   21.8775646
| 26>     C       17.0620515   15.9274148   20.3339630
| 27>     H       13.2958730   15.3155807   16.8206389
| 28>     H       14.1335476   14.4959112   15.4849414
| 29>     H       14.1011011   16.2720471   15.5560800
| 30>     H       15.4619222   16.1947425   17.6735783
| 31>     H       15.5317818   14.4213058   17.5798999
| 32>     H       16.7100177   17.8137684   15.1098656
| 33>     H       16.6333118   19.4729994   15.6845831
| 34>     H       15.4032307   18.3067517   16.2039533
| 35>     H       17.0157645   19.9957462   17.9097843
| 36>     H       19.6539088   17.9641651   20.1726248
| 37>     H       19.7974263   16.3095864   18.3060152
| 38>     H       19.6118330   14.0769735   19.0206433
| 39>     H       18.5933415   12.3479825   20.4838137
| 40>     H       16.5778919   12.9078322   21.8476714
| 41>     H       15.1678702   14.4853749   22.4252223
| 42>     H       16.6218201   16.9183370   20.3019617
| 43> *
| 44>
| 45>                          ****END OF INPUT****

CARTESIAN COORDINATES (ANGSTROEM)
---------------------------------
  C     14.170748   15.359856   16.160547
  C     15.469479   15.342072   16.983949
  O     16.569747   15.403067   16.055428
  C     17.827663   15.693293   16.506284
  O     18.712999   14.861578   16.426438
  C     17.934829   16.876408   17.418012
  C     17.317063   18.059455   17.183802
  C     16.470210   18.430359   15.985131
  N     17.496810   19.124540   18.069983
  C     18.362624   19.118386   19.132560
  S     18.575674   20.451601   20.087082
  N     19.039951   17.947309   19.368004
  C     18.818960   16.677368   18.648798
  C     18.203674   15.626660   19.568159
  C     18.746334   14.330261   19.629140
  C     18.166313   13.348949   20.450202
  C     17.030689   13.664456   21.215329
  C     16.482906   14.952597   21.152349
  O     15.377634   15.257267   21.877565
  C     17.062051   15.927415   20.333963
  H     13.295873   15.315581   16.820639
  H     14.133548   14.495911   15.484941
  H     14.101101   16.272047   15.556080
  H     15.461922   16.194743   17.673578
  H     15.531782   14.421306   17.579900
  H     16.710018   17.813768   15.109866
  H     16.633312   19.472999   15.684583
  H     15.403231   18.306752   16.203953
  H     17.015764   19.995746   17.909784
  H     19.653909   17.964165   20.172625
  H     19.797426   16.309586   18.306015
  H     19.611833   14.076973   19.020643
  H     18.593342   12.347983   20.483814
  H     16.577892   12.907832   21.847671
  H     15.167870   14.485375   22.425222
  H     16.621820   16.918337   20.301962

 Total Charge           Charge          ....    0
 Multiplicity           Mult            ....    1
 Number of Electrons    NEL             ....  154
 Basis Dimension        Dim             ....  828

ORBITAL ENERGIES
----------------

  NO   OCC          E(Eh)            E(eV)
   0   2.0000     -91.890899     -2500.4785
   1   2.0000     -20.598819      -560.5224
   2   2.0000     -20.592239      -560.3433
   3   2.0000     -20.553417      -559.2869
   4   2.0000     -15.629950      -425.3126
   5   2.0000     -15.610968      -424.7960
   6   2.0000     -11.395176      -310.0785
   7   2.0000     -11.387026      -309.8567
   8   2.0000     -11.334549      -308.4288
   9   2.0000     -11.315147      -307.9008
  10   2.0000     -11.311635      -307.8052
  11   2.0000     -11.303681      -307.5888
  12   2.0000     -11.266298      -306.5716
  13   2.0000     -11.263035      -306.4828
  14   2.0000     -11.260977      -306.4268
  15   2.0000     -11.254948      -306.2627
  16   2.0000     -11.244693      -305.9836
  17   2.0000     -11.240922      -305.8810
  18   2.0000     -11.237590      -305.7904
  19   2.0000     -11.235775      -305.7410
  20   2.0000      -8.895987      -242.0721
  21   2.0000      -6.577566      -178.9847
  22   2.0000      -6.575551      -178.9298
  23   2.0000      -6.574967      -178.9140
  24   2.0000      -1.449498       -39.4429
  25   2.0000      -1.418612       -38.6024
  26   2.0000      -1.359547       -36.9951
  27   2.0000      -1.341839       -36.5133
  28   2.0000      -1.240386       -33.7526
  29   2.0000      -1.159759       -31.5587
  30   2.0000      -1.124649       -30.6032
  31   2.0000      -1.047439       -28.5023
  32   2.0000      -1.040239       -28.3063
  33   2.0000      -1.017067       -27.6758
  34   2.0000      -1.003982       -27.3198
  35   2.0000      -0.989046       -26.9133
  36   2.0000      -0.926764       -25.2185
  37   2.0000      -0.880898       -23.9705
  38   2.0000      -0.854209       -23.2442
  39   2.0000      -0.842883       -22.9360
  40   2.0000      -0.835697       -22.7405
  41   2.0000      -0.834856       -22.7176
  42   2.0000      -0.758165       -20.6307
  43   2.0000      -0.738976       -20.1085
  44   2.0000      -0.731252       -19.8984
  45   2.0000      -0.696685       -18.9578
  46   2.0000      -0.687867       -18.7178
  47   2.0000      -0.683579       -18.6011
  48   2.0000      -0.676267       -18.4022
  49   2.0000      -0.660985       -17.9863
  50   2.0000      -0.652115       -17.7450
  51   2.0000      -0.642600       -17.4860
  52   2.0000      -0.640460       -17.4278
  53   2.0000      -0.618889       -16.8408
  54   2.0000      -0.607307       -16.5257
  55   2.0000      -0.606866       -16.5137
  56   2.0000      -0.602431       -16.3930
  57   2.0000      -0.583948       -15.8900
  58   2.0000      -0.577361       -15.7108
  59   2.0000      -0.567440       -15.4408
  60   2.0000      -0.560878       -15.2623
  61   2.0000      -0.554594       -15.0913
  62   2.0000      -0.540649       -14.7118
  63   2.0000      -0.530643       -14.4395
  64   2.0000      -0.524285       -14.2665
  65   2.0000      -0.515716       -14.0333
  66   2.0000      -0.502247       -13.6668
  67   2.0000      -0.497618       -13.5409
  68   2.0000      -0.488058       -13.2807
  69   2.0000      -0.468322       -12.7437
  70   2.0000      -0.462164       -12.5761
  71   2.0000      -0.450822       -12.2675
  72   2.0000      -0.357440        -9.7264
  73   2.0000      -0.350791        -9.5455
  74   2.0000      -0.330294        -8.9878
  75   2.0000      -0.322682        -8.7806
  76   2.0000      -0.318759        -8.6739
  77   0.0000       0.074792         2.0352
  78   0.0000       0.104330         2.8390
  79   0.0000       0.116873         3.1803
  80   0.0000       0.130074         3.5395
  81   0.0000       0.134770         3.6673

MULLIKEN ATOMIC CHARGES
-----------------------
   0 C :   -0.265793
   1 C :    0.006597
   2 O :   -0.343316
   3 C :    0.444134
   4 O :   -0.380839
   5 C :   -0.228986
   6 C :    0.147876
   7 C :   -0.316589
   8 N :   -0.130077
   9 C :    0.200138
  10 S :   -0.438000
  11 N :   -0.204554
  12 C :    0.058152
  13 C :    0.042284
  14 C :   -0.178306
  15 C :   -0.131034
  16 C :   -0.279480
  17 C :    0.314458
  18 O :   -0.358496
  19 C :   -0.291089
  20 H :    0.094991
  21 H :    0.109737
  22 H :    0.091804
  23 H :    0.098942
  24 H :    0.124786
  25 H :    0.139029
  26 H :    0.127576
  27 H :    0.119235
  28 H :    0.197605
  29 H :    0.195803
  30 H :    0.160587
  31 H :    0.163478
  32 H :    0.162660
  33 H :    0.131795
  34 H :    0.241749
  35 H :    0.173146
Sum of atomic charges:   -0.0000000

LOEWDIN ATOMIC CHARGES
----------------------
   0 C :    0.109711
   1 C :   -0.020700
   2 O :    0.295822
   3 C :   -0.417761
   4 O :    0.130954
   5 C :   -0.091025
   6 C :   -0.086930
   7 C :    0.127597
   8 N :    0.403283
   9 C :   -0.457423
  10 S :   -0.035109
  11 N :    0.397199
  12 C :   -0.045806
  13 C :   -0.043247
  14 C :    0.022567
  15 C :    0.044016
  16 C :   -0.001046
  17 C :   -0.194854
  18 O :    0.393580
  19 C :    0.027713
  20 H :   -0.023592
  21 H :   -0.022987
  22 H :   -0.031342
  23 H :   -0.039693
  24 H :   -0.025145
  25 H :   -0.006720
  26 H :   -0.013710
  27 H :   -0.015853
  28 H :   -0.057636
  29 H :   -0.063535
  30 H :   -0.003240
  31 H :   -0.022658
  32 H :   -0.019125
  33 H :   -0.034925
  34 H :   -0.153129
  35 H :   -0.025253

  Mayer bond orders larger than 0.100000
B(  0-C ,  1-C ) :   0.9768 B(  0-C , 20-H ) :   0.9759 B(  0-C , 21-H ) :   0.9791
B(  0-C , 22-H ) :   0.9781 B(  1-C ,  2-O ) :   0.8948 B(  1-C , 23-H ) :   0.9640
B(  1-C , 24-H ) :   0.9773 B(  2-O ,  3-C ) :   1.1462 B(  3-C ,  4-O ) :   2.0931
B(  3-C ,  5-C ) :   0.9536 B(  5-C ,  6-C ) :   1.6675 B(  5-C , 12-C ) :   0.9621
B(  6-C ,  7-C ) :   0.9464 B(  6-C ,  8-N ) :   1.1295 B(  7-C , 25-H ) :   0.9724
B(  7-C , 26-H ) :   0.9818 B(  7-C , 27-H ) :   0.9628 B(  8-N ,  9-C ) :   1.1863
B(  8-N , 28-H ) :   0.9507 B(  9-C , 10-S ) :   1.6139 B(  9-C , 11-N ) :   1.2947
B( 11-N , 12-C ) :   0.9985 B( 11-N , 29-H ) :   0.9510 B( 12-C , 13-C ) :   0.9425
B( 12-C , 30-H ) :   0.9981 B( 13-C , 14-C ) :   1.3847 B( 13-C , 19-C ) :   1.3511
B( 14-C , 15-C ) :   1.3953 B( 14-C , 31-H ) :   0.9613 B( 15-C , 16-C ) :   1.3644
B( 15-C , 32-H ) :   0.9704 B( 16-C , 17-C ) :   1.3286 B( 16-C , 33-H ) :   0.9846
B( 17-C , 18-O ) :   1.1112 B( 17-C , 19-C ) :   1.3735 B( 18-O , 34-H ) :   0.9793
B( 19-C , 35-H ) :   0.9579

MP2 TOTAL ENERGY:    -1274.333010998 Eh
FINAL SINGLE POINT ENERGY     -1274.333010998489

DIPOLE MOMENT
-------------
                                X             Y             Z
Electronic contribution:     12.04643       6.56227       7.42582
Nuclear contribution   :    -13.50884      -7.57567      -7.70253
                        -----------------------------------------
Total Dipole Moment    :     -1.46240      -1.01341      -0.27671
                        -----------------------------------------
Magnitude (a.u.)       :      1.80061
Magnitude (Debye)      :      4.57678

Rotational constants in cm-1:     0.011119     0.009356     0.006808
Rotational constants in MHz :   333.333897   280.494128   204.086521

                             ****ORCA TERMINATED NORMALLY****
TOTAL RUN TIME: 0 days 2 hours 25 minutes 15 seconds 178 msec
