                         Program Version 4.2.0 -  RELEASE  -
|  1> ! ri-mp2 cc-pvtz cc-pvtz/c TightSCF  NoKeepInts
|  2>
|  3> %scf
|  4>   MaxCore 4096
|  5> end
|  6> *xyz  0  1
|  7>     C       14.6936089   14.1773525   16.0835135
|  8>     C       15.6034229   15.0712524   15.2190110
|  9>     O       16.5681641   15.2205107   16.2790149
| 10>     C       17.7393248   15.8473366   16.4628027
| 11>     O       18.5506931   14.9529564   16.7110619
| 12>     C       17.7643492   16.8927291   17.5452702
| 13>     C       17.2776284   18.2127295   17.3675683
| 14>     C       16.4320707   18.7655464   16.2651435
| 15>     N       17.7466357   19.2228681   18.1966018
| 16>     C       18.7235997   19.1307711   19.1482158
| 17>     S       19.3640506   20.4282161   19.9408697
| 18>     N       19.1683660   17.8539133   19.4046059
| 19>     C       18.6446991   16.6480598   18.7705985
| 20>     C       17.9568885   15.7632498   19.8089823
| 21>     C       18.4404970   14.4763567   20.0556889
| 22>     C       17.8048916   13.6384106   20.9917965
| 23>     C       16.6778246   14.1143506   21.6847296
| 24>     C       16.2018264   15.4071600   21.4499700
| 25>     O       15.1089040   15.8665697   22.1109197
| 26>     C       16.8382617   16.2398690   20.5173740
| 27>     H       15.3046469   13.6032567   16.8101951
| 28>     H       14.2391553   13.3896536   15.4849802
| 29>     H       13.9512746   14.7170056   16.6790523
| 30>     H       15.8506010   14.5689517   14.2550923
| 31>     H       15.0960338   16.0332137   14.9923463
| 32>     H       15.9994892   18.0117361   15.6076486
| 33>     H       16.9984806   19.4804319   15.6439273
| 34>     H       15.5888886   19.3379880   16.6940643
| 35>     H       17.4932895   20.1923871   17.9807815
| 36>     H       19.8539751   17.7806936   20.1409123
| 37>     H       19.5360285   16.1073999   18.4207851
| 38>     H       19.3005740   14.1040239   19.5022938
| 39>     H       18.1778464   12.6323383   21.1563076
| 40>     H       16.1749668   13.4655730   22.3966508
| 41>     H       14.8197367   15.1604166   22.7080308
| 42>     H       16.4563062   17.2367220   20.3471928
| 43> *
| 44>
| 45>                          ****END OF INPUT****

CARTESIAN COORDINATES (ANGSTROEM)
---------------------------------
  C     14.693609   14.177352   16.083513
  C     15.603423   15.071252   15.219011
  O     16.568164   15.220511   16.279015
  C     17.739325   15.847337   16.462803
  O     18.550693   14.952956   16.711062
  C     17.764349   16.892729   17.545270
  C     17.277628   18.212729   17.367568
  C     16.432071   18.765546   16.265144
  N     17.746636   19.222868   18.196602
  C     18.723600   19.130771   19.148216
  S     19.364051   20.428216   19.940870
  N     19.168366   17.853913   19.404606
  C     18.644699   16.648060   18.770598
  C     17.956889   15.763250   19.808982
  C     18.440497   14.476357   20.055689
  C     17.804892   13.638411   20.991796
  C     16.677825   14.114351   21.684730
  C     16.201826   15.407160   21.449970
  O     15.108904   15.866570   22.110920
  C     16.838262   16.239869   20.517374
  H     15.304647   13.603257   16.810195
  H     14.239155   13.389654   15.484980
  H     13.951275   14.717006   16.679052
  H     15.850601   14.568952   14.255092
  H     15.096034   16.033214   14.992346
  H     15.999489   18.011736   15.607649
  H     16.998481   19.480432   15.643927
  H     15.588889   19.337988   16.694064
  H     17.493289   20.192387   17.980781
  H     19.853975   17.780694   20.140912
  H     19.536029   16.107400   18.420785
  H     19.300574   14.104024   19.502294
  H     18.177846   12.632338   21.156308
  H     16.174967   13.465573   22.396651
  H     14.819737   15.160417   22.708031
  H     16.456306   17.236722   20.347193

 Total Charge           Charge          ....    0
 Multiplicity           Mult            ....    1
 Number of Electrons    NEL             ....  154
 Basis Dimension        Dim             ....  828

ORBITAL ENERGIES
----------------

  NO   OCC          E(Eh)            E(eV)
   0   2.0000     -91.888490     -2500.4129
   1   2.0000     -20.590757      -560.3030
   2   2.0000     -20.583864      -560.1154
   3   2.0000     -20.543155      -559.0077
   4   2.0000     -15.629925      -425.3119
   5   2.0000     -15.601861      -424.5482
   6   2.0000     -11.387231      -309.8623
   7   2.0000     -11.381903      -309.7173
   8   2.0000     -11.339891      -308.5741
   9   2.0000     -11.313444      -307.8545
  10   2.0000     -11.306089      -307.6543
  11   2.0000     -11.297268      -307.4143
  12   2.0000     -11.271507      -306.7133
  13   2.0000     -11.271410      -306.7107
  14   2.0000     -11.249616      -306.1176
  15   2.0000     -11.246783      -306.0405
  16   2.0000     -11.235880      -305.7438
  17   2.0000     -11.231252      -305.6179
  18   2.0000     -11.228068      -305.5313
  19   2.0000     -11.221696      -305.3579
  20   2.0000      -8.893654      -242.0086
  21   2.0000      -6.575254      -178.9218
  22   2.0000      -6.573214      -178.8662
  23   2.0000      -6.572636      -178.8505
  24   2.0000      -1.460824       -39.7510
  25   2.0000      -1.410352       -38.3776
  26   2.0000      -1.341411       -36.5016
  27   2.0000      -1.336927       -36.3796
  28   2.0000      -1.237447       -33.6726
  29   2.0000      -1.149872       -31.2896
  30   2.0000      -1.112815       -30.2812
  31   2.0000      -1.042328       -28.3632
  32   2.0000      -1.040521       -28.3140
  33   2.0000      -1.008279       -27.4367
  34   2.0000      -0.999423       -27.1957
  35   2.0000      -0.982214       -26.7274
  36   2.0000      -0.916318       -24.9343
  37   2.0000      -0.877996       -23.8915
  38   2.0000      -0.854767       -23.2594
  39   2.0000      -0.833397       -22.6779
  40   2.0000      -0.828360       -22.5408
  41   2.0000      -0.822703       -22.3869
  42   2.0000      -0.764501       -20.8031
  43   2.0000      -0.728496       -19.8234
  44   2.0000      -0.721884       -19.6435
  45   2.0000      -0.687946       -18.7200
  46   2.0000      -0.683774       -18.6064
  47   2.0000      -0.674863       -18.3640
  48   2.0000      -0.669628       -18.2215
  49   2.0000      -0.662502       -18.0276
  50   2.0000      -0.646329       -17.5875
  51   2.0000      -0.639711       -17.4074
  52   2.0000      -0.627558       -17.0767
  53   2.0000      -0.622730       -16.9453
  54   2.0000      -0.604257       -16.4427
  55   2.0000      -0.599790       -16.3211
  56   2.0000      -0.593368       -16.1464
  57   2.0000      -0.590296       -16.0628
  58   2.0000      -0.572337       -15.5741
  59   2.0000      -0.561257       -15.2726
  60   2.0000      -0.540413       -14.7054
  61   2.0000      -0.538656       -14.6576
  62   2.0000      -0.523159       -14.2359
  63   2.0000      -0.518601       -14.1118
  64   2.0000      -0.511901       -13.9295
  65   2.0000      -0.510511       -13.8917
  66   2.0000      -0.493660       -13.4332
  67   2.0000      -0.482919       -13.1409
  68   2.0000      -0.476078       -12.9547
  69   2.0000      -0.467131       -12.7113
  70   2.0000      -0.447632       -12.1807
  71   2.0000      -0.434289       -11.8176
  72   2.0000      -0.343387        -9.3440
  73   2.0000      -0.341271        -9.2864
  74   2.0000      -0.327521        -8.9123
  75   2.0000      -0.313975        -8.5437
  76   2.0000      -0.311290        -8.4706
  77   0.0000       0.058596         1.5945
  78   0.0000       0.099522         2.7081
  79   0.0000       0.114320         3.1108
  80   0.0000       0.126552         3.4437
  81   0.0000       0.136912         3.7256

MULLIKEN ATOMIC CHARGES
-----------------------
   0 C :   -0.266145
   1 C :    0.023604
   2 O :   -0.270523
   3 C :    0.317603
   4 O :   -0.364016
   5 C :   -0.091289
   6 C :    0.102589
   7 C :   -0.306201
   8 N :   -0.116917
   9 C :    0.205054
  10 S :   -0.440313
  11 N :   -0.192523
  12 C :   -0.008286
  13 C :    0.083662
  14 C :   -0.179575
  15 C :   -0.132722
  16 C :   -0.277570
  17 C :    0.315079
  18 O :   -0.360476
  19 C :   -0.268340
  20 H :    0.118875
  21 H :    0.073336
  22 H :    0.097598
  23 H :    0.104836
  24 H :    0.072958
  25 H :    0.116479
  26 H :    0.123531
  27 H :    0.118329
  28 H :    0.193719
  29 H :    0.196636
  30 H :    0.166825
  31 H :    0.155609
  32 H :    0.161381
  33 H :    0.126048
  34 H :    0.239397
  35 H :    0.161749
Sum of atomic charges:   -0.0000000

LOEWDIN ATOMIC CHARGES
----------------------
   0 C :    0.091207
   1 C :   -0.015716
   2 O :    0.347535
   3 C :   -0.446082
   4 O :    0.133608
   5 C :   -0.080158
   6 C :   -0.082013
   7 C :    0.114180
   8 N :    0.393701
   9 C :   -0.461462
  10 S :   -0.031478
  11 N :    0.401307
  12 C :   -0.064987
  13 C :   -0.037254
  14 C :    0.018130
  15 C :    0.045816
  16 C :   -0.003950
  17 C :   -0.191601
  18 O :    0.392243
  19 C :    0.033713
  20 H :   -0.010148
  21 H :   -0.040948
  22 H :   -0.031396
  23 H :   -0.024145
  24 H :   -0.039337
  25 H :   -0.018039
  26 H :   -0.007469
  27 H :   -0.005195
  28 H :   -0.039983
  29 H :   -0.064917
  30 H :   -0.009926
  31 H :   -0.023419
  32 H :   -0.022794
  33 H :   -0.035507
  34 H :   -0.155504
  35 H :   -0.028012

  Mayer bond orders larger than 0.100000
B(  0-C ,  1-C ) :   0.9579 B(  0-C , 20-H ) :   0.9752 B(  0-C , 21-H ) :   0.9817
B(  0-C , 22-H ) :   0.9849 B(  1-C ,  2-O ) :   0.9275 B(  1-C , 23-H ) :   0.9806
B(  1-C , 24-H ) :   0.9743 B(  2-O ,  3-C ) :   1.0946 B(  3-C ,  4-O ) :   1.9879
B(  3-C ,  5-C ) :   1.0057 B(  5-C ,  6-C ) :   1.6565 B(  5-C , 12-C ) :   0.9710
B(  6-C ,  7-C ) :   0.9569 B(  6-C ,  8-N ) :   1.1343 B(  7-C , 25-H ) :   0.9854
B(  7-C , 26-H ) :   0.9633 B(  7-C , 27-H ) :   0.9683 B(  8-N ,  9-C ) :   1.1850
B(  8-N , 28-H ) :   0.9510 B(  9-C , 10-S ) :   1.6125 B(  9-C , 11-N ) :   1.3031
B( 11-N , 12-C ) :   0.9793 B( 11-N , 29-H ) :   0.9513 B( 12-C , 13-C ) :   0.9523
B( 12-C , 30-H ) :   0.9979 B( 13-C , 14-C ) :   1.3776 B( 13-C , 19-C ) :   1.3666
B( 14-C , 15-C ) :   1.3853 B( 14-C , 31-H ) :   0.9660 B( 15-C , 16-C ) :   1.3688
B( 15-C , 32-H ) :   0.9708 B( 16-C , 17-C ) :   1.3272 B( 16-C , 33-H ) :   0.9865
B( 17-C , 18-O ) :   1.1050 B( 17-C , 19-C ) :   1.3811 B( 18-O , 34-H ) :   0.9813
B( 19-C , 35-H ) :   0.9593

MP2 TOTAL ENERGY:    -1274.229276735 Eh
FINAL SINGLE POINT ENERGY     -1274.229276734731

DIPOLE MOMENT
-------------
                                X             Y             Z
Electronic contribution:     11.77217       9.01825       9.04654
Nuclear contribution   :    -13.50090      -9.87203     -10.35330
                        -----------------------------------------
Total Dipole Moment    :     -1.72873      -0.85378      -1.30676
                        -----------------------------------------
Magnitude (a.u.)       :      2.32918
Magnitude (Debye)      :      5.92031

Rotational constants in cm-1:     0.010505     0.008990     0.006072
Rotational constants in MHz :   314.921573   269.513590   182.040738

                             ****ORCA TERMINATED NORMALLY****
TOTAL RUN TIME: 0 days 1 hours 42 minutes 54 seconds 704 msec
