                         Program Version 4.2.0 -  RELEASE  -
|  1> ! ri-mp2 cc-pvtz cc-pvtz/c TightSCF  NoKeepInts
|  2>
|  3> %scf
|  4>   MaxCore 4096
|  5> end
|  6> *xyz  0  1
|  7>     C       15.4802932   14.0202824   16.8647154
|  8>     C       15.3544165   15.2137377   15.8906822
|  9>     O       16.5696585   15.9847910   15.7121801
| 10>     C       17.6709793   15.8605868   16.5110081
| 11>     O       18.2850825   14.8126482   16.6193536
| 12>     C       17.8925700   17.0208980   17.4366473
| 13>     C       17.4357327   18.2822461   17.2243527
| 14>     C       16.6621051   18.8032600   16.0306700
| 15>     N       17.7359465   19.2930164   18.1432619
| 16>     C       18.5836264   19.1564607   19.2107517
| 17>     S       18.9684574   20.4353243   20.1863164
| 18>     N       19.0953168   17.9025813   19.4294637
| 19>     C       18.6915624   16.6858030   18.7001421
| 20>     C       17.8942829   15.7547467   19.6096142
| 21>     C       18.2891487   14.4151570   19.7808905
| 22>     C       17.5472316   13.5487484   20.6009899
| 23>     C       16.3990590   14.0248081   21.2564346
| 24>     C       16.0003244   15.3574039   21.0859957
| 25>     O       14.8866957   15.8177245   21.7096338
| 26>     C       16.7402821   16.2172022   20.2683367
| 27>     H       16.2034703   13.2829918   16.4937497
| 28>     H       14.5137781   13.5130499   16.9688661
| 29>     H       15.7929642   14.3490263   17.8638883
| 30>     H       15.0180977   14.8459054   14.9126888
| 31>     H       14.5718773   15.8820367   16.2723649
| 32>     H       15.6215454   18.4582739   16.0612184
| 33>     H       17.1081592   18.4508703   15.0920067
| 34>     H       16.6477055   19.8990072   15.9838190
| 35>     H       17.3724348   20.2216116   17.9994695
| 36>     H       19.6944642   17.8221781   20.2410073
| 37>     H       19.6082055   16.1639825   18.3887625
| 38>     H       19.1650512   14.0389100   19.2576375
| 39>     H       17.8600372   12.5128049   20.7192095
| 40>     H       15.8219186   13.3581568   21.8885182
| 41>     H       14.5497704   15.1006175   22.2676008
| 42>     H       16.4147488   17.2451505   20.1517524
| 43> *
| 44>
| 45>                          ****END OF INPUT****

CARTESIAN COORDINATES (ANGSTROEM)
---------------------------------
  C     15.480293   14.020282   16.864715
  C     15.354416   15.213738   15.890682
  O     16.569658   15.984791   15.712180
  C     17.670979   15.860587   16.511008
  O     18.285083   14.812648   16.619354
  C     17.892570   17.020898   17.436647
  C     17.435733   18.282246   17.224353
  C     16.662105   18.803260   16.030670
  N     17.735947   19.293016   18.143262
  C     18.583626   19.156461   19.210752
  S     18.968457   20.435324   20.186316
  N     19.095317   17.902581   19.429464
  C     18.691562   16.685803   18.700142
  C     17.894283   15.754747   19.609614
  C     18.289149   14.415157   19.780890
  C     17.547232   13.548748   20.600990
  C     16.399059   14.024808   21.256435
  C     16.000324   15.357404   21.085996
  O     14.886696   15.817725   21.709634
  C     16.740282   16.217202   20.268337
  H     16.203470   13.282992   16.493750
  H     14.513778   13.513050   16.968866
  H     15.792964   14.349026   17.863888
  H     15.018098   14.845905   14.912689
  H     14.571877   15.882037   16.272365
  H     15.621545   18.458274   16.061218
  H     17.108159   18.450870   15.092007
  H     16.647706   19.899007   15.983819
  H     17.372435   20.221612   17.999470
  H     19.694464   17.822178   20.241007
  H     19.608206   16.163982   18.388762
  H     19.165051   14.038910   19.257638
  H     17.860037   12.512805   20.719210
  H     15.821919   13.358157   21.888518
  H     14.549770   15.100618   22.267601
  H     16.414749   17.245151   20.151752

 Total Charge           Charge          ....    0
 Multiplicity           Mult            ....    1
 Number of Electrons    NEL             ....  154
 Basis Dimension        Dim             ....  828

ORBITAL ENERGIES
----------------

  NO   OCC          E(Eh)            E(eV)
   0   2.0000     -91.889053     -2500.4283
   1   2.0000     -20.595616      -560.4352
   2   2.0000     -20.586279      -560.1811
   3   2.0000     -20.550340      -559.2032
   4   2.0000     -15.629169      -425.2913
   5   2.0000     -15.608056      -424.7168
   6   2.0000     -11.395763      -310.0945
   7   2.0000     -11.384207      -309.7800
   8   2.0000     -11.336174      -308.4730
   9   2.0000     -11.311905      -307.8126
  10   2.0000     -11.307127      -307.6826
  11   2.0000     -11.306566      -307.6673
  12   2.0000     -11.259923      -306.3981
  13   2.0000     -11.259807      -306.3949
  14   2.0000     -11.257125      -306.3220
  15   2.0000     -11.251805      -306.1772
  16   2.0000     -11.241593      -305.8993
  17   2.0000     -11.237576      -305.7900
  18   2.0000     -11.234263      -305.6998
  19   2.0000     -11.224805      -305.4425
  20   2.0000      -8.894122      -242.0214
  21   2.0000      -6.575699      -178.9339
  22   2.0000      -6.573691      -178.8792
  23   2.0000      -6.573106      -178.8633
  24   2.0000      -1.445021       -39.3210
  25   2.0000      -1.415412       -38.5153
  26   2.0000      -1.354928       -36.8695
  27   2.0000      -1.340180       -36.4681
  28   2.0000      -1.238123       -33.6910
  29   2.0000      -1.155989       -31.4561
  30   2.0000      -1.120664       -30.4948
  31   2.0000      -1.043710       -28.4008
  32   2.0000      -1.032342       -28.0915
  33   2.0000      -1.013460       -27.5776
  34   2.0000      -0.999589       -27.2002
  35   2.0000      -0.984806       -26.7979
  36   2.0000      -0.923660       -25.1341
  37   2.0000      -0.895042       -24.3553
  38   2.0000      -0.849553       -23.1175
  39   2.0000      -0.838505       -22.8169
  40   2.0000      -0.831905       -22.6373
  41   2.0000      -0.820795       -22.3350
  42   2.0000      -0.743318       -20.2267
  43   2.0000      -0.728151       -19.8140
  44   2.0000      -0.725682       -19.7468
  45   2.0000      -0.693306       -18.8658
  46   2.0000      -0.685470       -18.6526
  47   2.0000      -0.676766       -18.4157
  48   2.0000      -0.675381       -18.3780
  49   2.0000      -0.664779       -18.0896
  50   2.0000      -0.649661       -17.6782
  51   2.0000      -0.645892       -17.5756
  52   2.0000      -0.635706       -17.2984
  53   2.0000      -0.620538       -16.8857
  54   2.0000      -0.604192       -16.4409
  55   2.0000      -0.602306       -16.3896
  56   2.0000      -0.599325       -16.3085
  57   2.0000      -0.577223       -15.7070
  58   2.0000      -0.575004       -15.6467
  59   2.0000      -0.565316       -15.3830
  60   2.0000      -0.551509       -15.0073
  61   2.0000      -0.546764       -14.8782
  62   2.0000      -0.536994       -14.6123
  63   2.0000      -0.526958       -14.3393
  64   2.0000      -0.519082       -14.1249
  65   2.0000      -0.511234       -13.9114
  66   2.0000      -0.499990       -13.6054
  67   2.0000      -0.494830       -13.4650
  68   2.0000      -0.480966       -13.0878
  69   2.0000      -0.464625       -12.6431
  70   2.0000      -0.455209       -12.3869
  71   2.0000      -0.448877       -12.2146
  72   2.0000      -0.354783        -9.6541
  73   2.0000      -0.347878        -9.4662
  74   2.0000      -0.328318        -8.9340
  75   2.0000      -0.319040        -8.6815
  76   2.0000      -0.316142        -8.6027
  77   0.0000       0.072433         1.9710
  78   0.0000       0.107024         2.9123
  79   0.0000       0.120692         3.2842
  80   0.0000       0.132622         3.6088
  81   0.0000       0.138958         3.7813

MULLIKEN ATOMIC CHARGES
-----------------------
   0 C :   -0.310461
   1 C :    0.058023
   2 O :   -0.381536
   3 C :    0.451800
   4 O :   -0.400528
   5 C :   -0.193038
   6 C :    0.142052
   7 C :   -0.284184
   8 N :   -0.123167
   9 C :    0.201855
  10 S :   -0.438923
  11 N :   -0.201394
  12 C :    0.053996
  13 C :    0.017405
  14 C :   -0.152508
  15 C :   -0.138563
  16 C :   -0.273411
  17 C :    0.303835
  18 O :   -0.359824
  19 C :   -0.254712
  20 H :    0.120147
  21 H :    0.103211
  22 H :    0.113941
  23 H :    0.103445
  24 H :    0.081917
  25 H :    0.121649
  26 H :    0.131088
  27 H :    0.104667
  28 H :    0.197147
  29 H :    0.194449
  30 H :    0.154730
  31 H :    0.157401
  32 H :    0.160541
  33 H :    0.130695
  34 H :    0.240729
  35 H :    0.167524
Sum of atomic charges:   -0.0000000

LOEWDIN ATOMIC CHARGES
----------------------
   0 C :    0.107054
   1 C :   -0.011105
   2 O :    0.284272
   3 C :   -0.418169
   4 O :    0.124218
   5 C :   -0.094654
   6 C :   -0.068828
   7 C :    0.125843
   8 N :    0.404678
   9 C :   -0.458417
  10 S :   -0.035680
  11 N :    0.397576
  12 C :   -0.046228
  13 C :   -0.041987
  14 C :    0.022087
  15 C :    0.041497
  16 C :   -0.002215
  17 C :   -0.194080
  18 O :    0.393748
  19 C :    0.026869
  20 H :   -0.023022
  21 H :   -0.025502
  22 H :   -0.024313
  23 H :   -0.025174
  24 H :   -0.034139
  25 H :   -0.011131
  26 H :   -0.006431
  27 H :   -0.020205
  28 H :   -0.058824
  29 H :   -0.063827
  30 H :   -0.004808
  31 H :   -0.024419
  32 H :   -0.020354
  33 H :   -0.035658
  34 H :   -0.154134
  35 H :   -0.024539

  Mayer bond orders larger than 0.100000
B(  0-C ,  1-C ) :   0.9752 B(  0-C , 20-H ) :   0.9710 B(  0-C , 21-H ) :   0.9739
B(  0-C , 22-H ) :   0.9656 B(  1-C ,  2-O ) :   0.9012 B(  1-C , 23-H ) :   0.9806
B(  1-C , 24-H ) :   0.9757 B(  2-O ,  3-C ) :   1.0939 B(  3-C ,  4-O ) :   2.0310
B(  3-C ,  5-C ) :   1.0263 B(  5-C ,  6-C ) :   1.6610 B(  5-C , 12-C ) :   0.9617
B(  6-C ,  7-C ) :   0.9524 B(  6-C ,  8-N ) :   1.1459 B(  7-C , 25-H ) :   0.9664
B(  7-C , 26-H ) :   0.9661 B(  7-C , 27-H ) :   0.9896 B(  8-N ,  9-C ) :   1.1814
B(  8-N , 28-H ) :   0.9490 B(  9-C , 10-S ) :   1.6111 B(  9-C , 11-N ) :   1.3027
B( 11-N , 12-C ) :   0.9910 B( 11-N , 29-H ) :   0.9518 B( 12-C , 13-C ) :   0.9442
B( 12-C , 30-H ) :   0.9995 B( 13-C , 14-C ) :   1.3834 B( 13-C , 19-C ) :   1.3707
B( 14-C , 15-C ) :   1.3941 B( 14-C , 31-H ) :   0.9630 B( 15-C , 16-C ) :   1.3616
B( 15-C , 32-H ) :   0.9714 B( 16-C , 17-C ) :   1.3318 B( 16-C , 33-H ) :   0.9850
B( 17-C , 18-O ) :   1.1104 B( 17-C , 19-C ) :   1.3745 B( 18-O , 34-H ) :   0.9799
B( 19-C , 35-H ) :   0.9576

MP2 TOTAL ENERGY:    -1274.331237112 Eh
FINAL SINGLE POINT ENERGY     -1274.331237111788

DIPOLE MOMENT
-------------
                                X             Y             Z
Electronic contribution:      9.76671       9.82212       7.08823
Nuclear contribution   :    -11.29177     -11.01920      -7.78840
                        -----------------------------------------
Total Dipole Moment    :     -1.52507      -1.19708      -0.70018
                        -----------------------------------------
Magnitude (a.u.)       :      2.06133
Magnitude (Debye)      :      5.23948

Rotational constants in cm-1:     0.011816     0.009285     0.006506
Rotational constants in MHz :   354.248588   278.355061   195.056601

                             ****ORCA TERMINATED NORMALLY****
TOTAL RUN TIME: 0 days 2 hours 23 minutes 56 seconds 459 msec
