                         Program Version 4.2.0 -  RELEASE  -
|  1> ! ri-mp2 cc-pvtz cc-pvtz/c TightSCF  NoKeepInts
|  2>
|  3> %scf
|  4>   MaxCore 4096
|  5> end
|  6> *xyz  0  1
|  7>     C       15.9794741   13.1337807   16.6277542
|  8>     C       15.7192426   14.6461014   16.7304956
|  9>     O       16.9108897   15.3244491   16.2976246
| 10>     C       16.8521106   16.6835069   16.2036222
| 11>     O       16.0131118   17.2088661   15.4935584
| 12>     C       17.5467106   17.3929253   17.3360011
| 13>     C       17.4592908   18.7369646   17.5135051
| 14>     C       16.6549547   19.7238701   16.6942159
| 15>     N       18.2086491   19.3607982   18.5160292
| 16>     C       19.1950273   18.7512112   19.2447445
| 17>     S       20.1538121   19.5917140   20.2982736
| 18>     N       19.3570406   17.4043220   19.0430067
| 19>     C       18.4312596   16.5532318   18.2743430
| 20>     C       17.6221942   15.6994679   19.2452183
| 21>     C       17.9399608   14.3404140   19.4254470
| 22>     C       17.2010206   13.5449671   20.3172140
| 23>     C       16.1402502   14.1147509   21.0414878
| 24>     C       15.8299569   15.4713024   20.8757164
| 25>     O       14.8087262   16.0257401   21.5756970
| 26>     C       16.5655962   16.2599310   19.9858034
| 27>     H       16.8263622   12.8391377   17.2581693
| 28>     H       16.2047755   12.8518066   15.5917007
| 29>     H       15.0969800   12.5699029   16.9531242
| 30>     H       14.8725565   14.9138804   16.0835022
| 31>     H       15.4647337   14.9180158   17.7625542
| 32>     H       15.5850816   19.4839790   16.7434436
| 33>     H       16.9509769   19.6813296   15.6382383
| 34>     H       16.7771052   20.7605956   17.0290955
| 35>     H       18.1088992   20.3518917   18.6676944
| 36>     H       20.0742688   16.9767457   19.6144654
| 37>     H       19.0379601   15.8835197   17.6483308
| 38>     H       18.7595938   13.8968290   18.8662217
| 39>     H       17.4526353   12.4935978   20.4467298
| 40>     H       15.5675262   13.5047818   21.7325384
| 41>     H       14.4638537   15.3479036   22.1764731
| 42>     H       16.3144129   17.3097682   19.8819606
| 43> *
| 44>
| 45>                          ****END OF INPUT****

CARTESIAN COORDINATES (ANGSTROEM)
---------------------------------
  C     15.979474   13.133781   16.627754
  C     15.719243   14.646101   16.730496
  O     16.910890   15.324449   16.297625
  C     16.852111   16.683507   16.203622
  O     16.013112   17.208866   15.493558
  C     17.546711   17.392925   17.336001
  C     17.459291   18.736965   17.513505
  C     16.654955   19.723870   16.694216
  N     18.208649   19.360798   18.516029
  C     19.195027   18.751211   19.244744
  S     20.153812   19.591714   20.298274
  N     19.357041   17.404322   19.043007
  C     18.431260   16.553232   18.274343
  C     17.622194   15.699468   19.245218
  C     17.939961   14.340414   19.425447
  C     17.201021   13.544967   20.317214
  C     16.140250   14.114751   21.041488
  C     15.829957   15.471302   20.875716
  O     14.808726   16.025740   21.575697
  C     16.565596   16.259931   19.985803
  H     16.826362   12.839138   17.258169
  H     16.204776   12.851807   15.591701
  H     15.096980   12.569903   16.953124
  H     14.872556   14.913880   16.083502
  H     15.464734   14.918016   17.762554
  H     15.585082   19.483979   16.743444
  H     16.950977   19.681330   15.638238
  H     16.777105   20.760596   17.029096
  H     18.108899   20.351892   18.667694
  H     20.074269   16.976746   19.614465
  H     19.037960   15.883520   17.648331
  H     18.759594   13.896829   18.866222
  H     17.452635   12.493598   20.446730
  H     15.567526   13.504782   21.732538
  H     14.463854   15.347904   22.176473
  H     16.314413   17.309768   19.881961

 Total Charge           Charge          ....    0
 Multiplicity           Mult            ....    1
 Number of Electrons    NEL             ....  154
 Basis Dimension        Dim             ....  828

ORBITAL ENERGIES
----------------

  NO   OCC          E(Eh)            E(eV)
   0   2.0000     -91.890666     -2500.4722
   1   2.0000     -20.601481      -560.5948
   2   2.0000     -20.584826      -560.1416
   3   2.0000     -20.546237      -559.0915
   4   2.0000     -15.631281      -425.3488
   5   2.0000     -15.609781      -424.7637
   6   2.0000     -11.392439      -310.0040
   7   2.0000     -11.385416      -309.8129
   8   2.0000     -11.337723      -308.5151
   9   2.0000     -11.319292      -308.0136
  10   2.0000     -11.311740      -307.8081
  11   2.0000     -11.292846      -307.2940
  12   2.0000     -11.264220      -306.5150
  13   2.0000     -11.260876      -306.4240
  14   2.0000     -11.259871      -306.3967
  15   2.0000     -11.253349      -306.2192
  16   2.0000     -11.248389      -306.0842
  17   2.0000     -11.243061      -305.9392
  18   2.0000     -11.242774      -305.9314
  19   2.0000     -11.225643      -305.4653
  20   2.0000      -8.895703      -242.0644
  21   2.0000      -6.577270      -178.9766
  22   2.0000      -6.575273      -178.9223
  23   2.0000      -6.574680      -178.9061
  24   2.0000      -1.449412       -39.4405
  25   2.0000      -1.421172       -38.6720
  26   2.0000      -1.352304       -36.7981
  27   2.0000      -1.342305       -36.5260
  28   2.0000      -1.240749       -33.7625
  29   2.0000      -1.162345       -31.6290
  30   2.0000      -1.121622       -30.5209
  31   2.0000      -1.046123       -28.4665
  32   2.0000      -1.034454       -28.1489
  33   2.0000      -1.020612       -27.7723
  34   2.0000      -0.997784       -27.1511
  35   2.0000      -0.985974       -26.8297
  36   2.0000      -0.925464       -25.1832
  37   2.0000      -0.879977       -23.9454
  38   2.0000      -0.849270       -23.1098
  39   2.0000      -0.841999       -22.9120
  40   2.0000      -0.838368       -22.8132
  41   2.0000      -0.826494       -22.4900
  42   2.0000      -0.761976       -20.7344
  43   2.0000      -0.736333       -20.0366
  44   2.0000      -0.724096       -19.7037
  45   2.0000      -0.700847       -19.0710
  46   2.0000      -0.691078       -18.8052
  47   2.0000      -0.678204       -18.4549
  48   2.0000      -0.673373       -18.3234
  49   2.0000      -0.657431       -17.8896
  50   2.0000      -0.648359       -17.6427
  51   2.0000      -0.644543       -17.5389
  52   2.0000      -0.632813       -17.2197
  53   2.0000      -0.618600       -16.8330
  54   2.0000      -0.612438       -16.6653
  55   2.0000      -0.603872       -16.4322
  56   2.0000      -0.601155       -16.3583
  57   2.0000      -0.581877       -15.8337
  58   2.0000      -0.572325       -15.5738
  59   2.0000      -0.566186       -15.4067
  60   2.0000      -0.553841       -15.0708
  61   2.0000      -0.540329       -14.7031
  62   2.0000      -0.533446       -14.5158
  63   2.0000      -0.529273       -14.4023
  64   2.0000      -0.519008       -14.1229
  65   2.0000      -0.516039       -14.0421
  66   2.0000      -0.507218       -13.8021
  67   2.0000      -0.501417       -13.6443
  68   2.0000      -0.486341       -13.2340
  69   2.0000      -0.464395       -12.6368
  70   2.0000      -0.457095       -12.4382
  71   2.0000      -0.444349       -12.0913
  72   2.0000      -0.357283        -9.7222
  73   2.0000      -0.354300        -9.6410
  74   2.0000      -0.330600        -8.9961
  75   2.0000      -0.326537        -8.8855
  76   2.0000      -0.317768        -8.6469
  77   0.0000       0.069269         1.8849
  78   0.0000       0.101385         2.7588
  79   0.0000       0.122390         3.3304
  80   0.0000       0.128058         3.4846
  81   0.0000       0.132767         3.6128

MULLIKEN ATOMIC CHARGES
-----------------------
   0 C :   -0.269635
   1 C :    0.011882
   2 O :   -0.380925
   3 C :    0.512330
   4 O :   -0.413501
   5 C :   -0.282493
   6 C :    0.156247
   7 C :   -0.269621
   8 N :   -0.123652
   9 C :    0.214097
  10 S :   -0.437810
  11 N :   -0.203517
  12 C :    0.053755
  13 C :    0.034954
  14 C :   -0.187636
  15 C :   -0.133073
  16 C :   -0.269706
  17 C :    0.307758
  18 O :   -0.356435
  19 C :   -0.246523
  20 H :    0.089834
  21 H :    0.105655
  22 H :    0.089819
  23 H :    0.124860
  24 H :    0.105953
  25 H :    0.131244
  26 H :    0.132679
  27 H :    0.095116
  28 H :    0.198354
  29 H :    0.193382
  30 H :    0.150222
  31 H :    0.157106
  32 H :    0.165714
  33 H :    0.133556
  34 H :    0.241712
  35 H :    0.168300
Sum of atomic charges:   -0.0000000

LOEWDIN ATOMIC CHARGES
----------------------
   0 C :    0.109550
   1 C :   -0.018663
   2 O :    0.290324
   3 C :   -0.417852
   4 O :    0.115390
   5 C :   -0.098482
   6 C :   -0.057486
   7 C :    0.131283
   8 N :    0.407304
   9 C :   -0.456057
  10 S :   -0.033293
  11 N :    0.396143
  12 C :   -0.053288
  13 C :   -0.037969
  14 C :    0.014903
  15 C :    0.043900
  16 C :   -0.001255
  17 C :   -0.190730
  18 O :    0.396648
  19 C :    0.030199
  20 H :   -0.032673
  21 H :   -0.026039
  22 H :   -0.025070
  23 H :   -0.028884
  24 H :   -0.034007
  25 H :   -0.004922
  26 H :   -0.003306
  27 H :   -0.023225
  28 H :   -0.057276
  29 H :   -0.065404
  30 H :   -0.007752
  31 H :   -0.030269
  32 H :   -0.019910
  33 H :   -0.034347
  34 H :   -0.152700
  35 H :   -0.024782

  Mayer bond orders larger than 0.100000
B(  0-C ,  1-C ) :   0.9782 B(  0-C , 20-H ) :   0.9759 B(  0-C , 21-H ) :   0.9785
B(  0-C , 22-H ) :   0.9764 B(  1-C ,  2-O ) :   0.8751 B(  1-C , 23-H ) :   0.9801
B(  1-C , 24-H ) :   0.9647 B(  2-O ,  3-C ) :   1.1124 B(  3-C ,  4-O ) :   2.0078
B(  3-C ,  5-C ) :   1.0663 B(  5-C ,  6-C ) :   1.6505 B(  5-C , 12-C ) :   0.9713
B(  6-C ,  7-C ) :   0.9684 B(  6-C ,  8-N ) :   1.1596 B(  7-C , 25-H ) :   0.9605
B(  7-C , 26-H ) :   0.9591 B(  7-C , 27-H ) :   0.9900 B(  8-N ,  9-C ) :   1.1805
B(  8-N , 28-H ) :   0.9478 B(  9-C , 10-S ) :   1.6091 B(  9-C , 11-N ) :   1.3054
B( 11-N , 12-C ) :   0.9697 B( 11-N , 29-H ) :   0.9533 B( 12-C , 13-C ) :   0.9474
B( 12-C , 30-H ) :   1.0005 B( 13-C , 14-C ) :   1.3502 B( 13-C , 19-C ) :   1.3709
B( 14-C , 15-C ) :   1.3834 B( 14-C , 31-H ) :   0.9716 B( 15-C , 16-C ) :   1.3667
B( 15-C , 32-H ) :   0.9684 B( 16-C , 17-C ) :   1.3274 B( 16-C , 33-H ) :   0.9837
B( 17-C , 18-O ) :   1.1148 B( 17-C , 19-C ) :   1.3769 B( 18-O , 34-H ) :   0.9790
B( 19-C , 35-H ) :   0.9577

MP2 TOTAL ENERGY:    -1274.334401666 Eh
FINAL SINGLE POINT ENERGY     -1274.334401666378

DIPOLE MOMENT
-------------
                                X             Y             Z
Electronic contribution:      8.78828      11.02576       5.60435
Nuclear contribution   :     -9.84068     -12.49992      -5.47360
                        -----------------------------------------
Total Dipole Moment    :     -1.05240      -1.47416       0.13075
                        -----------------------------------------
Magnitude (a.u.)       :      1.81598
Magnitude (Debye)      :      4.61586

Rotational constants in cm-1:     0.012493     0.008773     0.006469
Rotational constants in MHz :   374.523683   262.995253   193.946979

                             ****ORCA TERMINATED NORMALLY****
TOTAL RUN TIME: 0 days 1 hours 54 minutes 52 seconds 982 msec
