                         Program Version 4.2.0 -  RELEASE  -
|  1> ! ri-mp2 cc-pvtz cc-pvtz/c TightSCF  NoKeepInts
|  2>
|  3> %scf
|  4>   MaxCore 4096
|  5> end
|  6> *xyz  0  1
|  7>     C       15.3637547   14.1890486   14.9398280
|  8>     C       16.0435568   13.8855955   16.2931954
|  9>     O       16.7549286   15.0014740   16.8864727
| 10>     C       16.4419695   16.3340837   16.7760858
| 11>     O       15.4963521   16.7641851   16.1405032
| 12>     C       17.3580105   17.1971689   17.6024353
| 13>     C       17.2824290   18.5530955   17.6000762
| 14>     C       16.3179409   19.4192057   16.8178695
| 15>     N       18.1873021   19.3077670   18.3529368
| 16>     C       19.2565672   18.7955956   19.0376955
| 17>     S       20.3421665   19.7678018   19.8202148
| 18>     N       19.3847351   17.4303600   19.0385068
| 19>     C       18.3993221   16.4849945   18.4828559
| 20>     C       17.7455603   15.6995963   19.6164333
| 21>     C       17.9870581   14.3203393   19.7606923
| 22>     C       17.3870993   13.5945827   20.8035983
| 23>     C       16.5409073   14.2534213   21.7118181
| 24>     C       16.3018139   15.6276286   21.5738327
| 25>     O       15.4867111   16.2668724   22.4502408
| 26>     C       16.9003307   16.3471809   20.5350536
| 27>     H       14.4457622   14.7740781   15.0756062
| 28>     H       15.0824930   13.2542919   14.4402834
| 29>     H       16.0399164   14.7392684   14.2736957
| 30>     H       15.2696364   13.5464795   16.9941667
| 31>     H       16.7480202   13.0543117   16.1625505
| 32>     H       15.2827544   19.2039009   17.1124653
| 33>     H       16.4007760   19.2158838   15.7426765
| 34>     H       16.4874522   20.4922143   16.9649870
| 35>     H       18.1090296   20.3121321   18.3625982
| 36>     H       20.1609085   17.0800888   19.5849494
| 37>     H       18.9505776   15.7804971   17.8444840
| 38>     H       18.6376497   13.8078930   19.0572975
| 39>     H       17.5783784   12.5278623   20.9057926
| 40>     H       16.0754452   13.6975271   22.5190001
| 41>     H       15.1913226   15.6142423   23.1025440
| 42>     H       16.7083616   17.4113311   20.4505579
| 43> *
| 44>
| 45>                          ****END OF INPUT****

CARTESIAN COORDINATES (ANGSTROEM)
---------------------------------
  C     15.363755   14.189049   14.939828
  C     16.043557   13.885596   16.293195
  O     16.754929   15.001474   16.886473
  C     16.441969   16.334084   16.776086
  O     15.496352   16.764185   16.140503
  C     17.358010   17.197169   17.602435
  C     17.282429   18.553096   17.600076
  C     16.317941   19.419206   16.817870
  N     18.187302   19.307767   18.352937
  C     19.256567   18.795596   19.037695
  S     20.342167   19.767802   19.820215
  N     19.384735   17.430360   19.038507
  C     18.399322   16.484994   18.482856
  C     17.745560   15.699596   19.616433
  C     17.987058   14.320339   19.760692
  C     17.387099   13.594583   20.803598
  C     16.540907   14.253421   21.711818
  C     16.301814   15.627629   21.573833
  O     15.486711   16.266872   22.450241
  C     16.900331   16.347181   20.535054
  H     14.445762   14.774078   15.075606
  H     15.082493   13.254292   14.440283
  H     16.039916   14.739268   14.273696
  H     15.269636   13.546479   16.994167
  H     16.748020   13.054312   16.162550
  H     15.282754   19.203901   17.112465
  H     16.400776   19.215884   15.742676
  H     16.487452   20.492214   16.964987
  H     18.109030   20.312132   18.362598
  H     20.160908   17.080089   19.584949
  H     18.950578   15.780497   17.844484
  H     18.637650   13.807893   19.057298
  H     17.578378   12.527862   20.905793
  H     16.075445   13.697527   22.519000
  H     15.191323   15.614242   23.102544
  H     16.708362   17.411331   20.450558

 Total Charge           Charge          ....    0
 Multiplicity           Mult            ....    1
 Number of Electrons    NEL             ....  154
 Basis Dimension        Dim             ....  828

ORBITAL ENERGIES
----------------

  NO   OCC          E(Eh)            E(eV)
   0   2.0000     -91.887670     -2500.3906
   1   2.0000     -20.599705      -560.5465
   2   2.0000     -20.594749      -560.4116
   3   2.0000     -20.540268      -558.9291
   4   2.0000     -15.627746      -425.2526
   5   2.0000     -15.606794      -424.6824
   6   2.0000     -11.397743      -310.1483
   7   2.0000     -11.382623      -309.7369
   8   2.0000     -11.334546      -308.4287
   9   2.0000     -11.311671      -307.8062
  10   2.0000     -11.307135      -307.6828
  11   2.0000     -11.303511      -307.5842
  12   2.0000     -11.258024      -306.3464
  13   2.0000     -11.257603      -306.3349
  14   2.0000     -11.253214      -306.2155
  15   2.0000     -11.251002      -306.1553
  16   2.0000     -11.240982      -305.8827
  17   2.0000     -11.236353      -305.7567
  18   2.0000     -11.236272      -305.7545
  19   2.0000     -11.223176      -305.3981
  20   2.0000      -8.892742      -241.9838
  21   2.0000      -6.574320      -178.8964
  22   2.0000      -6.572314      -178.8418
  23   2.0000      -6.571730      -178.8259
  24   2.0000      -1.444027       -39.2940
  25   2.0000      -1.414386       -38.4874
  26   2.0000      -1.354651       -36.8619
  27   2.0000      -1.338806       -36.4308
  28   2.0000      -1.237159       -33.6648
  29   2.0000      -1.155523       -31.4434
  30   2.0000      -1.118504       -30.4360
  31   2.0000      -1.041118       -28.3303
  32   2.0000      -1.036510       -28.2049
  33   2.0000      -1.013007       -27.5653
  34   2.0000      -0.994175       -27.0529
  35   2.0000      -0.982502       -26.7352
  36   2.0000      -0.920933       -25.0599
  37   2.0000      -0.898150       -24.4399
  38   2.0000      -0.846078       -23.0230
  39   2.0000      -0.836350       -22.7582
  40   2.0000      -0.832074       -22.6419
  41   2.0000      -0.817831       -22.2543
  42   2.0000      -0.746204       -20.3053
  43   2.0000      -0.728983       -19.8366
  44   2.0000      -0.718766       -19.5586
  45   2.0000      -0.694035       -18.8856
  46   2.0000      -0.687070       -18.6961
  47   2.0000      -0.677786       -18.4435
  48   2.0000      -0.667828       -18.1725
  49   2.0000      -0.657693       -17.8967
  50   2.0000      -0.650720       -17.7070
  51   2.0000      -0.643591       -17.5130
  52   2.0000      -0.633828       -17.2473
  53   2.0000      -0.605804       -16.4848
  54   2.0000      -0.604072       -16.4376
  55   2.0000      -0.597606       -16.2617
  56   2.0000      -0.597027       -16.2459
  57   2.0000      -0.580367       -15.7926
  58   2.0000      -0.573319       -15.6008
  59   2.0000      -0.569747       -15.5036
  60   2.0000      -0.560923       -15.2635
  61   2.0000      -0.538290       -14.6476
  62   2.0000      -0.536010       -14.5856
  63   2.0000      -0.523597       -14.2478
  64   2.0000      -0.522059       -14.2059
  65   2.0000      -0.511735       -13.9250
  66   2.0000      -0.503308       -13.6957
  67   2.0000      -0.498253       -13.5582
  68   2.0000      -0.482629       -13.1330
  69   2.0000      -0.462662       -12.5897
  70   2.0000      -0.453249       -12.3335
  71   2.0000      -0.439852       -11.9690
  72   2.0000      -0.352937        -9.6039
  73   2.0000      -0.347484        -9.4555
  74   2.0000      -0.327034        -8.8991
  75   2.0000      -0.319343        -8.6898
  76   2.0000      -0.314649        -8.5620
  77   0.0000       0.077890         2.1195
  78   0.0000       0.109445         2.9781
  79   0.0000       0.124533         3.3887
  80   0.0000       0.133787         3.6405
  81   0.0000       0.137151         3.7321

MULLIKEN ATOMIC CHARGES
-----------------------
   0 C :   -0.290305
   1 C :    0.049504
   2 O :   -0.359242
   3 C :    0.468348
   4 O :   -0.434303
   5 C :   -0.207328
   6 C :    0.145456
   7 C :   -0.273952
   8 N :   -0.119814
   9 C :    0.211817
  10 S :   -0.441792
  11 N :   -0.203112
  12 C :    0.046533
  13 C :    0.075422
  14 C :   -0.183730
  15 C :   -0.132259
  16 C :   -0.278724
  17 C :    0.315762
  18 O :   -0.357014
  19 C :   -0.269290
  20 H :    0.122315
  21 H :    0.095129
  22 H :    0.097735
  23 H :    0.089780
  24 H :    0.097350
  25 H :    0.132312
  26 H :    0.129332
  27 H :    0.094903
  28 H :    0.197070
  29 H :    0.193987
  30 H :    0.148417
  31 H :    0.147344
  32 H :    0.158849
  33 H :    0.128884
  34 H :    0.240406
  35 H :    0.164209
Sum of atomic charges:   -0.0000000

LOEWDIN ATOMIC CHARGES
----------------------
   0 C :    0.102653
   1 C :   -0.008476
   2 O :    0.297107
   3 C :   -0.412224
   4 O :    0.105388
   5 C :   -0.092933
   6 C :   -0.059518
   7 C :    0.130542
   8 N :    0.406301
   9 C :   -0.456881
  10 S :   -0.036891
  11 N :    0.396465
  12 C :   -0.053092
  13 C :   -0.037805
  14 C :    0.013760
  15 C :    0.039062
  16 C :   -0.001978
  17 C :   -0.189435
  18 O :    0.394938
  19 C :    0.031527
  20 H :   -0.024941
  21 H :   -0.028635
  22 H :   -0.026609
  23 H :   -0.028075
  24 H :   -0.025890
  25 H :   -0.004761
  26 H :   -0.004658
  27 H :   -0.023691
  28 H :   -0.057819
  29 H :   -0.064792
  30 H :   -0.011805
  31 H :   -0.030915
  32 H :   -0.021761
  33 H :   -0.035932
  34 H :   -0.154221
  35 H :   -0.024003

  Mayer bond orders larger than 0.100000
B(  0-C ,  1-C ) :   0.9767 B(  0-C , 20-H ) :   0.9717 B(  0-C , 21-H ) :   0.9760
B(  0-C , 22-H ) :   0.9759 B(  1-C ,  2-O ) :   0.8999 B(  1-C , 23-H ) :   0.9756
B(  1-C , 24-H ) :   0.9823 B(  2-O ,  3-C ) :   1.1593 B(  3-C ,  4-O ) :   1.9661
B(  3-C ,  5-C ) :   1.0605 B(  5-C ,  6-C ) :   1.6567 B(  5-C , 12-C ) :   0.9752
B(  6-C ,  7-C ) :   0.9677 B(  6-C ,  8-N ) :   1.1630 B(  7-C , 25-H ) :   0.9605
B(  7-C , 26-H ) :   0.9604 B(  7-C , 27-H ) :   0.9910 B(  8-N ,  9-C ) :   1.1830
B(  8-N , 28-H ) :   0.9481 B(  9-C , 10-S ) :   1.6056 B(  9-C , 11-N ) :   1.3058
B( 11-N , 12-C ) :   0.9863 B( 11-N , 29-H ) :   0.9519 B( 12-C , 13-C ) :   0.9379
B( 12-C , 30-H ) :   1.0028 B( 13-C , 14-C ) :   1.3535 B( 13-C , 19-C ) :   1.3831
B( 14-C , 15-C ) :   1.3936 B( 14-C , 31-H ) :   0.9724 B( 15-C , 16-C ) :   1.3639
B( 15-C , 32-H ) :   0.9711 B( 16-C , 17-C ) :   1.3317 B( 16-C , 33-H ) :   0.9855
B( 17-C , 18-O ) :   1.1096 B( 17-C , 19-C ) :   1.3735 B( 18-O , 34-H ) :   0.9802
B( 19-C , 35-H ) :   0.9584

MP2 TOTAL ENERGY:    -1274.340735585 Eh
FINAL SINGLE POINT ENERGY     -1274.340735585369

DIPOLE MOMENT
-------------
                                X             Y             Z
Electronic contribution:      9.59793       9.70804      10.19343
Nuclear contribution   :    -10.62745     -11.48829     -10.61746
                        -----------------------------------------
Total Dipole Moment    :     -1.02952      -1.78025      -0.42403
                        -----------------------------------------
Magnitude (a.u.)       :      2.09976
Magnitude (Debye)      :      5.33717

Rotational constants in cm-1:     0.010837     0.008850     0.005990
Rotational constants in MHz :   324.889122   265.311844   179.563974

                             ****ORCA TERMINATED NORMALLY****
TOTAL RUN TIME: 0 days 1 hours 36 minutes 38 seconds 676 msec
