                         Program Version 4.2.0 -  RELEASE  -
|  1> ! ri-mp2 cc-pvtz cc-pvtz/c TightSCF  NoKeepInts
|  2>
|  3> %scf
|  4>   MaxCore 4096
|  5> end
|  6> *xyz  0  1
|  7>     C       14.7454155   15.6102008   17.1868021
|  8>     C       15.8147019   14.7813545   16.4516455
|  9>     O       16.7268183   15.6738742   15.7829348
| 10>     C       17.9526501   15.8611453   16.3516895
| 11>     O       18.7205286   14.9203201   16.4565430
| 12>     C       17.9513593   16.9707187   17.3572081
| 13>     C       17.3305268   18.1572599   17.1486285
| 14>     C       16.5867220   18.5922243   15.9034755
| 15>     N       17.4170589   19.1656477   18.1126234
| 16>     C       18.2196505   19.1161169   19.2226367
| 17>     S       18.3545554   20.3993579   20.2569453
| 18>     N       18.9044929   17.9448722   19.4338079
| 19>     C       18.7214763   16.7049707   18.6539995
| 20>     C       18.0204214   15.6353504   19.4889524
| 21>     C       18.5288914   14.3241971   19.5370491
| 22>     C       17.8761272   13.3280773   20.2821246
| 23>     C       16.7023173   13.6437775   20.9868480
| 24>     C       16.1913504   14.9476733   20.9417272
| 25>     O       15.0517253   15.2539480   21.6110927
| 26>     C       16.8442333   15.9371149   20.2002354
| 27>     H       15.1984976   16.2724558   17.9324780
| 28>     H       14.0436990   14.9478450   17.7082945
| 29>     H       14.1735374   16.2207967   16.4778462
| 30>     H       16.3430460   14.1286424   17.1615747
| 31>     H       15.3226178   14.1413793   15.7080204
| 32>     H       15.5553656   18.2209925   15.9153141
| 33>     H       17.0702224   18.2050172   14.9978522
| 34>     H       16.5502449   19.6837940   15.8017415
| 35>     H       16.9249573   20.0339366   17.9733491
| 36>     H       19.4689557   17.9268925   20.2736387
| 37>     H       19.7193486   16.3307183   18.3824766
| 38>     H       19.4262435   14.0719275   18.9764368
| 39>     H       18.2781023   12.3165897   20.3050726
| 40>     H       16.1932240   12.8766032   21.5608471
| 41>     H       14.7882512   14.4669385   22.1115346
| 42>     H       16.4296638   16.9392692   20.1805535
| 43> *
| 44>
| 45>                          ****END OF INPUT****

CARTESIAN COORDINATES (ANGSTROEM)
---------------------------------
  C     14.745416   15.610201   17.186802
  C     15.814702   14.781355   16.451646
  O     16.726818   15.673874   15.782935
  C     17.952650   15.861145   16.351689
  O     18.720529   14.920320   16.456543
  C     17.951359   16.970719   17.357208
  C     17.330527   18.157260   17.148629
  C     16.586722   18.592224   15.903475
  N     17.417059   19.165648   18.112623
  C     18.219650   19.116117   19.222637
  S     18.354555   20.399358   20.256945
  N     18.904493   17.944872   19.433808
  C     18.721476   16.704971   18.654000
  C     18.020421   15.635350   19.488952
  C     18.528891   14.324197   19.537049
  C     17.876127   13.328077   20.282125
  C     16.702317   13.643777   20.986848
  C     16.191350   14.947673   20.941727
  O     15.051725   15.253948   21.611093
  C     16.844233   15.937115   20.200235
  H     15.198498   16.272456   17.932478
  H     14.043699   14.947845   17.708294
  H     14.173537   16.220797   16.477846
  H     16.343046   14.128642   17.161575
  H     15.322618   14.141379   15.708020
  H     15.555366   18.220993   15.915314
  H     17.070222   18.205017   14.997852
  H     16.550245   19.683794   15.801742
  H     16.924957   20.033937   17.973349
  H     19.468956   17.926892   20.273639
  H     19.719349   16.330718   18.382477
  H     19.426243   14.071927   18.976437
  H     18.278102   12.316590   20.305073
  H     16.193224   12.876603   21.560847
  H     14.788251   14.466938   22.111535
  H     16.429664   16.939269   20.180553

 Total Charge           Charge          ....    0
 Multiplicity           Mult            ....    1
 Number of Electrons    NEL             ....  154
 Basis Dimension        Dim             ....  828

ORBITAL ENERGIES
----------------

  NO   OCC          E(Eh)            E(eV)
   0   2.0000     -91.890388     -2500.4646
   1   2.0000     -20.597687      -560.4916
   2   2.0000     -20.581013      -560.0378
   3   2.0000     -20.556549      -559.3721
   4   2.0000     -15.629784      -425.3081
   5   2.0000     -15.609960      -424.7686
   6   2.0000     -11.394533      -310.0610
   7   2.0000     -11.385976      -309.8282
   8   2.0000     -11.333744      -308.4068
   9   2.0000     -11.313983      -307.8691
  10   2.0000     -11.310931      -307.7861
  11   2.0000     -11.299815      -307.4836
  12   2.0000     -11.261176      -306.4322
  13   2.0000     -11.260610      -306.4168
  14   2.0000     -11.260088      -306.4026
  15   2.0000     -11.254064      -306.2387
  16   2.0000     -11.243837      -305.9604
  17   2.0000     -11.239826      -305.8512
  18   2.0000     -11.236429      -305.7588
  19   2.0000     -11.228137      -305.5331
  20   2.0000      -8.895454      -242.0576
  21   2.0000      -6.577030      -178.9701
  22   2.0000      -6.575021      -178.9154
  23   2.0000      -6.574434      -178.8995
  24   2.0000      -1.451540       -39.4984
  25   2.0000      -1.417469       -38.5713
  26   2.0000      -1.355701       -36.8905
  27   2.0000      -1.341005       -36.4906
  28   2.0000      -1.239329       -33.7239
  29   2.0000      -1.158209       -31.5165
  30   2.0000      -1.122822       -30.5535
  31   2.0000      -1.045894       -28.4602
  32   2.0000      -1.033201       -28.1148
  33   2.0000      -1.015881       -27.6435
  34   2.0000      -1.001016       -27.2390
  35   2.0000      -0.987786       -26.8790
  36   2.0000      -0.925287       -25.1783
  37   2.0000      -0.886587       -24.1253
  38   2.0000      -0.849414       -23.1137
  39   2.0000      -0.840193       -22.8628
  40   2.0000      -0.834453       -22.7066
  41   2.0000      -0.824123       -22.4255
  42   2.0000      -0.756031       -20.5727
  43   2.0000      -0.736048       -20.0289
  44   2.0000      -0.729526       -19.8514
  45   2.0000      -0.696314       -18.9477
  46   2.0000      -0.686946       -18.6927
  47   2.0000      -0.678929       -18.4746
  48   2.0000      -0.675747       -18.3880
  49   2.0000      -0.659795       -17.9539
  50   2.0000      -0.654828       -17.8188
  51   2.0000      -0.645871       -17.5750
  52   2.0000      -0.637915       -17.3585
  53   2.0000      -0.607927       -16.5425
  54   2.0000      -0.604872       -16.4594
  55   2.0000      -0.601565       -16.3694
  56   2.0000      -0.592545       -16.1240
  57   2.0000      -0.583947       -15.8900
  58   2.0000      -0.576857       -15.6971
  59   2.0000      -0.572978       -15.5915
  60   2.0000      -0.563282       -15.3277
  61   2.0000      -0.551628       -15.0105
  62   2.0000      -0.544885       -14.8271
  63   2.0000      -0.523057       -14.2331
  64   2.0000      -0.516479       -14.0541
  65   2.0000      -0.511191       -13.9102
  66   2.0000      -0.502493       -13.6735
  67   2.0000      -0.498661       -13.5692
  68   2.0000      -0.483734       -13.1631
  69   2.0000      -0.465549       -12.6682
  70   2.0000      -0.456364       -12.4183
  71   2.0000      -0.452276       -12.3070
  72   2.0000      -0.355180        -9.6649
  73   2.0000      -0.349661        -9.5148
  74   2.0000      -0.329631        -8.9697
  75   2.0000      -0.321505        -8.7486
  76   2.0000      -0.317575        -8.6417
  77   0.0000       0.069117         1.8808
  78   0.0000       0.103404         2.8138
  79   0.0000       0.119612         3.2548
  80   0.0000       0.129810         3.5323
  81   0.0000       0.134349         3.6558

MULLIKEN ATOMIC CHARGES
-----------------------
   0 C :   -0.320928
   1 C :    0.043411
   2 O :   -0.380980
   3 C :    0.465151
   4 O :   -0.394193
   5 C :   -0.207551
   6 C :    0.140368
   7 C :   -0.282078
   8 N :   -0.124093
   9 C :    0.192629
  10 S :   -0.436774
  11 N :   -0.204896
  12 C :    0.057520
  13 C :    0.048939
  14 C :   -0.182852
  15 C :   -0.134264
  16 C :   -0.280166
  17 C :    0.325132
  18 O :   -0.359717
  19 C :   -0.304516
  20 H :    0.105705
  21 H :    0.118699
  22 H :    0.102165
  23 H :    0.105482
  24 H :    0.115037
  25 H :    0.126254
  26 H :    0.125154
  27 H :    0.108892
  28 H :    0.197976
  29 H :    0.195021
  30 H :    0.159272
  31 H :    0.164137
  32 H :    0.163016
  33 H :    0.131950
  34 H :    0.241089
  35 H :    0.180010
Sum of atomic charges:   -0.0000000

LOEWDIN ATOMIC CHARGES
----------------------
   0 C :    0.103419
   1 C :   -0.010517
   2 O :    0.282720
   3 C :   -0.418824
   4 O :    0.132816
   5 C :   -0.094008
   6 C :   -0.076271
   7 C :    0.127842
   8 N :    0.404831
   9 C :   -0.458165
  10 S :   -0.034736
  11 N :    0.397020
  12 C :   -0.044942
  13 C :   -0.042456
  14 C :    0.020852
  15 C :    0.040855
  16 C :   -0.002319
  17 C :   -0.193758
  18 O :    0.394467
  19 C :    0.029779
  20 H :   -0.033449
  21 H :   -0.022455
  22 H :   -0.032613
  23 H :   -0.025027
  24 H :   -0.024531
  25 H :   -0.011738
  26 H :   -0.007361
  27 H :   -0.018302
  28 H :   -0.058239
  29 H :   -0.063962
  30 H :   -0.003680
  31 H :   -0.023582
  32 H :   -0.019790
  33 H :   -0.035250
  34 H :   -0.153607
  35 H :   -0.025016

  Mayer bond orders larger than 0.100000
B(  0-C ,  1-C ) :   0.9640 B(  0-C , 20-H ) :   0.9720 B(  0-C , 21-H ) :   0.9780
B(  0-C , 22-H ) :   0.9781 B(  1-C ,  2-O ) :   0.8843 B(  1-C , 23-H ) :   0.9691
B(  1-C , 24-H ) :   0.9854 B(  2-O ,  3-C ) :   1.0944 B(  3-C ,  4-O ) :   2.0426
B(  3-C ,  5-C ) :   1.0031 B(  5-C ,  6-C ) :   1.6721 B(  5-C , 12-C ) :   0.9578
B(  6-C ,  7-C ) :   0.9548 B(  6-C ,  8-N ) :   1.1329 B(  7-C , 25-H ) :   0.9619
B(  7-C , 26-H ) :   0.9704 B(  7-C , 27-H ) :   0.9867 B(  8-N ,  9-C ) :   1.1841
B(  8-N , 28-H ) :   0.9497 B(  9-C , 10-S ) :   1.6160 B(  9-C , 11-N ) :   1.2948
B( 11-N , 12-C ) :   0.9895 B( 11-N , 29-H ) :   0.9514 B( 12-C , 13-C ) :   0.9474
B( 12-C , 30-H ) :   0.9980 B( 13-C , 14-C ) :   1.3819 B( 13-C , 19-C ) :   1.3432
B( 14-C , 15-C ) :   1.3969 B( 14-C , 31-H ) :   0.9609 B( 15-C , 16-C ) :   1.3621
B( 15-C , 32-H ) :   0.9705 B( 16-C , 17-C ) :   1.3312 B( 16-C , 33-H ) :   0.9844
B( 17-C , 18-O ) :   1.1092 B( 17-C , 19-C ) :   1.3679 B( 18-O , 34-H ) :   0.9799
B( 19-C , 35-H ) :   0.9543

MP2 TOTAL ENERGY:    -1274.322720362 Eh
FINAL SINGLE POINT ENERGY     -1274.322720362005

DIPOLE MOMENT
-------------
                                X             Y             Z
Electronic contribution:     10.23829       7.10500       5.90596
Nuclear contribution   :    -11.45496      -8.36122      -6.46402
                        -----------------------------------------
Total Dipole Moment    :     -1.21667      -1.25622      -0.55806
                        -----------------------------------------
Magnitude (a.u.)       :      1.83570
Magnitude (Debye)      :      4.66599

Rotational constants in cm-1:     0.012035     0.009536     0.007035
Rotational constants in MHz :   360.796009   285.884041   210.904463

                             ****ORCA TERMINATED NORMALLY****
TOTAL RUN TIME: 0 days 1 hours 48 minutes 29 seconds 175 msec
