                         Program Version 4.2.0 -  RELEASE  -
|  1> ! ri-mp2 cc-pvtz cc-pvtz/c TightSCF  NoKeepInts
|  2>
|  3> %scf
|  4>   MaxCore 4096
|  5> end
|  6> *xyz  0  1
|  7>     C       14.9471433   14.7535617   17.4310122
|  8>     C       15.5748787   15.5001579   16.2427955
|  9>     O       16.9330954   15.0401366   16.0954055
| 10>     C       18.0867529   15.7038032   16.4414019
| 11>     O       19.1398678   15.0964624   16.3841323
| 12>     C       17.9560472   16.8681017   17.3699966
| 13>     C       17.4852514   18.0687348   16.9566718
| 14>     C       17.0196362   18.4382262   15.5629417
| 15>     N       17.5157308   19.1658511   17.8200459
| 16>     C       18.1533618   19.1835260   19.0327627
| 17>     S       18.2295481   20.5543010   19.9542547
| 18>     N       18.7332314   18.0075209   19.4399573
| 19>     C       18.5993322   16.7076389   18.7511334
| 20>     C       17.8541866   15.6881178   19.6093647
| 21>     C       18.2078367   14.3276674   19.5411110
| 22>     C       17.5329511   13.3701179   20.3160398
| 23>     C       16.4944027   13.7743457   21.1714331
| 24>     C       16.1368326   15.1271717   21.2435039
| 25>     O       15.1266497   15.5189618   22.0598785
| 26>     C       16.8078975   16.0787705   20.4683328
| 27>     H       15.4340042   15.0322371   18.3692745
| 28>     H       15.0467036   13.6683361   17.3027649
| 29>     H       13.8804869   14.9927663   17.5181072
| 30>     H       15.0132679   15.2461495   15.3344331
| 31>     H       15.4878838   16.5765668   16.4009407
| 32>     H       17.1303274   17.6130199   14.8490316
| 33>     H       17.6113797   19.2743670   15.1681120
| 34>     H       15.9663202   18.7448188   15.5635462
| 35>     H       17.1201559   20.0456131   17.5274679
| 36>     H       19.1900112   18.0465208   20.3424677
| 37>     H       19.6163737   16.3182260   18.5941376
| 38>     H       19.0058675   14.0090632   18.8732653
| 39>     H       17.8153838   12.3208299   20.2484667
| 40>     H       15.9699796   13.0374373   21.7707226
| 41>     H       14.8210265   14.7351730   22.5410054
| 42>     H       16.5031940   17.1177002   20.5380815
| 43> *
| 44>
| 45>                          ****END OF INPUT****

CARTESIAN COORDINATES (ANGSTROEM)
---------------------------------
  C     14.947143   14.753562   17.431012
  C     15.574879   15.500158   16.242795
  O     16.933095   15.040137   16.095405
  C     18.086753   15.703803   16.441402
  O     19.139868   15.096462   16.384132
  C     17.956047   16.868102   17.369997
  C     17.485251   18.068735   16.956672
  C     17.019636   18.438226   15.562942
  N     17.515731   19.165851   17.820046
  C     18.153362   19.183526   19.032763
  S     18.229548   20.554301   19.954255
  N     18.733231   18.007521   19.439957
  C     18.599332   16.707639   18.751133
  C     17.854187   15.688118   19.609365
  C     18.207837   14.327667   19.541111
  C     17.532951   13.370118   20.316040
  C     16.494403   13.774346   21.171433
  C     16.136833   15.127172   21.243504
  O     15.126650   15.518962   22.059878
  C     16.807897   16.078771   20.468333
  H     15.434004   15.032237   18.369274
  H     15.046704   13.668336   17.302765
  H     13.880487   14.992766   17.518107
  H     15.013268   15.246149   15.334433
  H     15.487884   16.576567   16.400941
  H     17.130327   17.613020   14.849032
  H     17.611380   19.274367   15.168112
  H     15.966320   18.744819   15.563546
  H     17.120156   20.045613   17.527468
  H     19.190011   18.046521   20.342468
  H     19.616374   16.318226   18.594138
  H     19.005868   14.009063   18.873265
  H     17.815384   12.320830   20.248467
  H     15.969980   13.037437   21.770723
  H     14.821026   14.735173   22.541005
  H     16.503194   17.117700   20.538082

 Total Charge           Charge          ....    0
 Multiplicity           Mult            ....    1
 Number of Electrons    NEL             ....  154
 Basis Dimension        Dim             ....  828

ORBITAL ENERGIES
----------------

  NO   OCC          E(Eh)            E(eV)
   0   2.0000     -91.890398     -2500.4649
   1   2.0000     -20.602349      -560.6184
   2   2.0000     -20.598263      -560.5072
   3   2.0000     -20.550196      -559.1993
   4   2.0000     -15.627409      -425.2434
   5   2.0000     -15.611647      -424.8145
   6   2.0000     -11.400460      -310.2223
   7   2.0000     -11.386947      -309.8546
   8   2.0000     -11.331195      -308.3375
   9   2.0000     -11.315515      -307.9108
  10   2.0000     -11.315425      -307.9084
  11   2.0000     -11.305331      -307.6337
  12   2.0000     -11.272281      -306.7343
  13   2.0000     -11.268279      -306.6255
  14   2.0000     -11.263348      -306.4913
  15   2.0000     -11.255795      -306.2858
  16   2.0000     -11.244490      -305.9781
  17   2.0000     -11.240522      -305.8701
  18   2.0000     -11.237127      -305.7778
  19   2.0000     -11.225252      -305.4546
  20   2.0000      -8.895505      -242.0590
  21   2.0000      -6.577094      -178.9718
  22   2.0000      -6.575066      -178.9166
  23   2.0000      -6.574491      -178.9010
  24   2.0000      -1.448653       -39.4199
  25   2.0000      -1.418079       -38.5879
  26   2.0000      -1.359493       -36.9937
  27   2.0000      -1.341176       -36.4953
  28   2.0000      -1.240544       -33.7569
  29   2.0000      -1.159952       -31.5639
  30   2.0000      -1.126026       -30.6407
  31   2.0000      -1.048716       -28.5370
  32   2.0000      -1.038458       -28.2579
  33   2.0000      -1.018271       -27.7086
  34   2.0000      -1.005706       -27.3667
  35   2.0000      -0.990038       -26.9403
  36   2.0000      -0.928164       -25.2566
  37   2.0000      -0.888218       -24.1696
  38   2.0000      -0.855517       -23.2798
  39   2.0000      -0.841716       -22.9042
  40   2.0000      -0.835233       -22.7278
  41   2.0000      -0.833559       -22.6823
  42   2.0000      -0.754997       -20.5445
  43   2.0000      -0.740528       -20.1508
  44   2.0000      -0.730757       -19.8849
  45   2.0000      -0.696206       -18.9447
  46   2.0000      -0.688969       -18.7478
  47   2.0000      -0.682150       -18.5623
  48   2.0000      -0.675837       -18.3905
  49   2.0000      -0.663392       -18.0518
  50   2.0000      -0.653721       -17.7887
  51   2.0000      -0.640716       -17.4348
  52   2.0000      -0.637103       -17.3365
  53   2.0000      -0.620509       -16.8849
  54   2.0000      -0.611503       -16.6398
  55   2.0000      -0.606612       -16.5068
  56   2.0000      -0.602068       -16.3831
  57   2.0000      -0.588940       -16.0259
  58   2.0000      -0.577716       -15.7204
  59   2.0000      -0.568402       -15.4670
  60   2.0000      -0.564831       -15.3698
  61   2.0000      -0.555831       -15.1249
  62   2.0000      -0.539872       -14.6907
  63   2.0000      -0.534649       -14.5485
  64   2.0000      -0.518083       -14.0978
  65   2.0000      -0.512832       -13.9549
  66   2.0000      -0.504791       -13.7360
  67   2.0000      -0.501920       -13.6579
  68   2.0000      -0.483785       -13.1645
  69   2.0000      -0.469527       -12.7765
  70   2.0000      -0.453553       -12.3418
  71   2.0000      -0.448778       -12.2119
  72   2.0000      -0.358870        -9.7653
  73   2.0000      -0.350311        -9.5325
  74   2.0000      -0.330059        -8.9814
  75   2.0000      -0.323724        -8.8090
  76   2.0000      -0.319155        -8.6847
  77   0.0000       0.086969         2.3665
  78   0.0000       0.106308         2.8928
  79   0.0000       0.110651         3.0110
  80   0.0000       0.128512         3.4970
  81   0.0000       0.130710         3.5568

MULLIKEN ATOMIC CHARGES
-----------------------
   0 C :   -0.271855
   1 C :    0.016811
   2 O :   -0.313587
   3 C :    0.403183
   4 O :   -0.382807
   5 C :   -0.178480
   6 C :    0.124221
   7 C :   -0.321502
   8 N :   -0.136808
   9 C :    0.204407
  10 S :   -0.440696
  11 N :   -0.228119
  12 C :    0.074145
  13 C :    0.005858
  14 C :   -0.198847
  15 C :   -0.142482
  16 C :   -0.264560
  17 C :    0.304726
  18 O :   -0.358747
  19 C :   -0.246840
  20 H :    0.106695
  21 H :    0.105805
  22 H :    0.094020
  23 H :    0.116507
  24 H :    0.087820
  25 H :    0.122665
  26 H :    0.142382
  27 H :    0.120279
  28 H :    0.195483
  29 H :    0.202969
  30 H :    0.169077
  31 H :    0.174481
  32 H :    0.164247
  33 H :    0.132457
  34 H :    0.240804
  35 H :    0.176289
Sum of atomic charges:    0.0000000

LOEWDIN ATOMIC CHARGES
----------------------
   0 C :    0.109906
   1 C :   -0.022978
   2 O :    0.311788
   3 C :   -0.416754
   4 O :    0.123240
   5 C :   -0.078697
   6 C :   -0.105628
   7 C :    0.122031
   8 N :    0.401643
   9 C :   -0.457355
  10 S :   -0.037663
  11 N :    0.398113
  12 C :   -0.042182
  13 C :   -0.043462
  14 C :    0.021121
  15 C :    0.045849
  16 C :   -0.000992
  17 C :   -0.193138
  18 O :    0.396046
  19 C :    0.024436
  20 H :   -0.028246
  21 H :   -0.023508
  22 H :   -0.027178
  23 H :   -0.025810
  24 H :   -0.039969
  25 H :   -0.009001
  26 H :   -0.008270
  27 H :   -0.017421
  28 H :   -0.057802
  29 H :   -0.063473
  30 H :   -0.001476
  31 H :   -0.021719
  32 H :   -0.018353
  33 H :   -0.034923
  34 H :   -0.153262
  35 H :   -0.024911

  Mayer bond orders larger than 0.100000
B(  0-C ,  1-C ) :   0.9762 B(  0-C , 20-H ) :   0.9699 B(  0-C , 21-H ) :   0.9783
B(  0-C , 22-H ) :   0.9767 B(  1-C ,  2-O ) :   0.9098 B(  1-C , 23-H ) :   0.9831
B(  1-C , 24-H ) :   0.9641 B(  2-O ,  3-C ) :   1.1666 B(  3-C ,  4-O ) :   2.0800
B(  3-C ,  5-C ) :   0.9193 B(  5-C ,  6-C ) :   1.7012 B(  5-C , 12-C ) :   0.9544
B(  6-C ,  7-C ) :   0.9432 B(  6-C ,  8-N ) :   1.1067 B(  7-C , 25-H ) :   0.9814
B(  7-C , 26-H ) :   0.9684 B(  7-C , 27-H ) :   0.9673 B(  8-N ,  9-C ) :   1.1976
B(  8-N , 28-H ) :   0.9525 B(  9-C , 10-S ) :   1.6086 B(  9-C , 11-N ) :   1.2882
B( 11-N , 12-C ) :   0.9827 B( 11-N , 29-H ) :   0.9472 B( 12-C , 13-C ) :   0.9520
B( 12-C , 30-H ) :   0.9944 B( 13-C , 14-C ) :   1.3914 B( 13-C , 19-C ) :   1.3468
B( 14-C , 15-C ) :   1.3997 B( 14-C , 31-H ) :   0.9582 B( 15-C , 16-C ) :   1.3576
B( 15-C , 32-H ) :   0.9698 B( 16-C , 17-C ) :   1.3336 B( 16-C , 33-H ) :   0.9846
B( 17-C , 18-O ) :   1.1098 B( 17-C , 19-C ) :   1.3666 B( 18-O , 34-H ) :   0.9796
B( 19-C , 35-H ) :   0.9584

MP2 TOTAL ENERGY:    -1274.329801107 Eh
FINAL SINGLE POINT ENERGY     -1274.329801107218

DIPOLE MOMENT
-------------
                                X             Y             Z
Electronic contribution:      9.69427       7.53252       6.37099
Nuclear contribution   :    -11.25861      -8.50242      -7.03637
                        -----------------------------------------
Total Dipole Moment    :     -1.56434      -0.96990      -0.66538
                        -----------------------------------------
Magnitude (a.u.)       :      1.95719
Magnitude (Debye)      :      4.97478

Rotational constants in cm-1:     0.011852     0.009452     0.006677
Rotational constants in MHz :   355.300014   283.368382   200.168790

                             ****ORCA TERMINATED NORMALLY****
TOTAL RUN TIME: 0 days 1 hours 49 minutes 4 seconds 429 msec
