                         Program Version 4.2.0 -  RELEASE  -
|  1> ! ri-mp2 cc-pvtz cc-pvtz/c TightSCF  NoKeepInts
|  2>
|  3> %scf
|  4>   MaxCore 4096
|  5> end
|  6> *xyz  0  1
|  7>     C       15.2273760   13.8408816   15.2722872
|  8>     C       15.1577458   14.8922981   16.3960412
|  9>     O       16.1568866   15.8982855   16.1494293
| 10>     C       17.3989389   15.7466114   16.6968085
| 11>     O       17.8894251   14.6438772   16.8757452
| 12>     C       17.8114142   16.9277529   17.5243575
| 13>     C       17.4454810   18.2084717   17.2618222
| 14>     C       16.6048685   18.7116214   16.1065247
| 15>     N       17.9247055   19.2469830   18.0665060
| 16>     C       18.8735396   19.1049797   19.0447147
| 17>     S       19.4748714   20.4056751   19.8706102
| 18>     N       19.2996538   17.8265204   19.3033118
| 19>     C       18.7076852   16.6054068   18.7245889
| 20>     C       17.9336113   15.8304824   19.7879453
| 21>     C       18.2261365   14.4770045   20.0379124
| 22>     C       17.5112170   13.7568396   21.0095693
| 23>     C       16.4934670   14.3946833   21.7389160
| 24>     C       16.1960058   15.7414434   21.4903740
| 25>     O       15.2087449   16.3582290   22.1876091
| 26>     C       16.9087342   16.4553334   20.5219666
| 27>     H       16.1925313   13.3190217   15.2833459
| 28>     H       15.1010638   14.3135135   14.2905243
| 29>     H       14.4361356   13.0921057   15.3980030
| 30>     H       14.1641727   15.3581876   16.3829531
| 31>     H       15.3020626   14.4222929   17.3792061
| 32>     H       16.8984561   18.2261086   15.1673926
| 33>     H       16.7059114   19.7928210   15.9523123
| 34>     H       15.5429015   18.4963199   16.2783946
| 35>     H       17.6245595   20.1927290   17.8915538
| 36>     H       19.9771220   17.7464246   20.0507000
| 37>     H       19.5323380   15.9717791   18.3672538
| 38>     H       19.0006274   13.9764160   19.4617826
| 39>     H       17.7439293   12.7086964   21.1888770
| 40>     H       15.9378339   13.8417341   22.4889199
| 41>     H       14.8726146   15.7229091   22.8374420
| 42>     H       16.6642321   17.4975605   20.3482990
| 43> *
| 44>
| 45>                          ****END OF INPUT****

CARTESIAN COORDINATES (ANGSTROEM)
---------------------------------
  C     15.227376   13.840882   15.272287
  C     15.157746   14.892298   16.396041
  O     16.156887   15.898286   16.149429
  C     17.398939   15.746611   16.696808
  O     17.889425   14.643877   16.875745
  C     17.811414   16.927753   17.524357
  C     17.445481   18.208472   17.261822
  C     16.604868   18.711621   16.106525
  N     17.924706   19.246983   18.066506
  C     18.873540   19.104980   19.044715
  S     19.474871   20.405675   19.870610
  N     19.299654   17.826520   19.303312
  C     18.707685   16.605407   18.724589
  C     17.933611   15.830482   19.787945
  C     18.226136   14.477004   20.037912
  C     17.511217   13.756840   21.009569
  C     16.493467   14.394683   21.738916
  C     16.196006   15.741443   21.490374
  O     15.208745   16.358229   22.187609
  C     16.908734   16.455333   20.521967
  H     16.192531   13.319022   15.283346
  H     15.101064   14.313513   14.290524
  H     14.436136   13.092106   15.398003
  H     14.164173   15.358188   16.382953
  H     15.302063   14.422293   17.379206
  H     16.898456   18.226109   15.167393
  H     16.705911   19.792821   15.952312
  H     15.542901   18.496320   16.278395
  H     17.624559   20.192729   17.891554
  H     19.977122   17.746425   20.050700
  H     19.532338   15.971779   18.367254
  H     19.000627   13.976416   19.461783
  H     17.743929   12.708696   21.188877
  H     15.937834   13.841734   22.488920
  H     14.872615   15.722909   22.837442
  H     16.664232   17.497560   20.348299

 Total Charge           Charge          ....    0
 Multiplicity           Mult            ....    1
 Number of Electrons    NEL             ....  154
 Basis Dimension        Dim             ....  828

ORBITAL ENERGIES
----------------

  NO   OCC          E(Eh)            E(eV)
   0   2.0000     -91.888191     -2500.4048
   1   2.0000     -20.593736      -560.3840
   2   2.0000     -20.593099      -560.3667
   3   2.0000     -20.552369      -559.2584
   4   2.0000     -15.627932      -425.2576
   5   2.0000     -15.607407      -424.6991
   6   2.0000     -11.396612      -310.1176
   7   2.0000     -11.383430      -309.7589
   8   2.0000     -11.333743      -308.4068
   9   2.0000     -11.309833      -307.7562
  10   2.0000     -11.307346      -307.6885
  11   2.0000     -11.300452      -307.5009
  12   2.0000     -11.259936      -306.3984
  13   2.0000     -11.259212      -306.3787
  14   2.0000     -11.255642      -306.2816
  15   2.0000     -11.250064      -306.1298
  16   2.0000     -11.239673      -305.8470
  17   2.0000     -11.235607      -305.7364
  18   2.0000     -11.232831      -305.6609
  19   2.0000     -11.221778      -305.3601
  20   2.0000      -8.893263      -241.9980
  21   2.0000      -6.574842      -178.9105
  22   2.0000      -6.572832      -178.8559
  23   2.0000      -6.572248      -178.8400
  24   2.0000      -1.453535       -39.5527
  25   2.0000      -1.413487       -38.4629
  26   2.0000      -1.357883       -36.9499
  27   2.0000      -1.339073       -36.4380
  28   2.0000      -1.237142       -33.6643
  29   2.0000      -1.154164       -31.4064
  30   2.0000      -1.120353       -30.4864
  31   2.0000      -1.043027       -28.3822
  32   2.0000      -1.032717       -28.1017
  33   2.0000      -1.011567       -27.5261
  34   2.0000      -0.997692       -27.1486
  35   2.0000      -0.983021       -26.7494
  36   2.0000      -0.922167       -25.0934
  37   2.0000      -0.887155       -24.1407
  38   2.0000      -0.847940       -23.0736
  39   2.0000      -0.837127       -22.7794
  40   2.0000      -0.830145       -22.5894
  41   2.0000      -0.822053       -22.3692
  42   2.0000      -0.753006       -20.4903
  43   2.0000      -0.733889       -19.9701
  44   2.0000      -0.726657       -19.7734
  45   2.0000      -0.692420       -18.8417
  46   2.0000      -0.685779       -18.6610
  47   2.0000      -0.680793       -18.5253
  48   2.0000      -0.672159       -18.2904
  49   2.0000      -0.661629       -18.0038
  50   2.0000      -0.646296       -17.5866
  51   2.0000      -0.641307       -17.4509
  52   2.0000      -0.632305       -17.2059
  53   2.0000      -0.606452       -16.5024
  54   2.0000      -0.601694       -16.3729
  55   2.0000      -0.599754       -16.3201
  56   2.0000      -0.596656       -16.2358
  57   2.0000      -0.585324       -15.9275
  58   2.0000      -0.574753       -15.6398
  59   2.0000      -0.567776       -15.4500
  60   2.0000      -0.561313       -15.2741
  61   2.0000      -0.547330       -14.8936
  62   2.0000      -0.534815       -14.5531
  63   2.0000      -0.519358       -14.1325
  64   2.0000      -0.516473       -14.0539
  65   2.0000      -0.511154       -13.9092
  66   2.0000      -0.502678       -13.6786
  67   2.0000      -0.496660       -13.5148
  68   2.0000      -0.481001       -13.0887
  69   2.0000      -0.462923       -12.5968
  70   2.0000      -0.455328       -12.3901
  71   2.0000      -0.453882       -12.3508
  72   2.0000      -0.353644        -9.6231
  73   2.0000      -0.345953        -9.4139
  74   2.0000      -0.327435        -8.9099
  75   2.0000      -0.317053        -8.6275
  76   2.0000      -0.314985        -8.5712
  77   0.0000       0.073829         2.0090
  78   0.0000       0.109079         2.9682
  79   0.0000       0.120897         3.2898
  80   0.0000       0.134292         3.6543
  81   0.0000       0.138921         3.7802

MULLIKEN ATOMIC CHARGES
-----------------------
   0 C :   -0.280349
   1 C :    0.045048
   2 O :   -0.361630
   3 C :    0.425308
   4 O :   -0.414435
   5 C :   -0.151888
   6 C :    0.138189
   7 C :   -0.282551
   8 N :   -0.123475
   9 C :    0.202563
  10 S :   -0.440066
  11 N :   -0.199453
  12 C :    0.044907
  13 C :    0.050353
  14 C :   -0.164896
  15 C :   -0.134028
  16 C :   -0.280451
  17 C :    0.311497
  18 O :   -0.358446
  19 C :   -0.272650
  20 H :    0.117275
  21 H :    0.090109
  22 H :    0.089524
  23 H :    0.098947
  24 H :    0.100966
  25 H :    0.123851
  26 H :    0.102326
  27 H :    0.126920
  28 H :    0.197000
  29 H :    0.193901
  30 H :    0.154467
  31 H :    0.155101
  32 H :    0.160218
  33 H :    0.129368
  34 H :    0.240318
  35 H :    0.166163
Sum of atomic charges:   -0.0000000

LOEWDIN ATOMIC CHARGES
----------------------
   0 C :    0.104484
   1 C :   -0.014996
   2 O :    0.296419
   3 C :   -0.413231
   4 O :    0.118775
   5 C :   -0.091811
   6 C :   -0.070969
   7 C :    0.125679
   8 N :    0.404272
   9 C :   -0.458055
  10 S :   -0.036609
  11 N :    0.397320
  12 C :   -0.045668
  13 C :   -0.039766
  14 C :    0.020967
  15 C :    0.040497
  16 C :   -0.002459
  17 C :   -0.193063
  18 O :    0.393313
  19 C :    0.028482
  20 H :   -0.024433
  21 H :   -0.029970
  22 H :   -0.029329
  23 H :   -0.026869
  24 H :   -0.025919
  25 H :   -0.008498
  26 H :   -0.020130
  27 H :   -0.009539
  28 H :   -0.058884
  29 H :   -0.063951
  30 H :   -0.004941
  31 H :   -0.025117
  32 H :   -0.020880
  33 H :   -0.036064
  34 H :   -0.154576
  35 H :   -0.024479

  Mayer bond orders larger than 0.100000
B(  0-C ,  1-C ) :   0.9726 B(  0-C , 20-H ) :   0.9739 B(  0-C , 21-H ) :   0.9767
B(  0-C , 22-H ) :   0.9765 B(  1-C ,  2-O ) :   0.8969 B(  1-C , 23-H ) :   0.9835
B(  1-C , 24-H ) :   0.9730 B(  2-O ,  3-C ) :   1.0993 B(  3-C ,  4-O ) :   1.9855
B(  3-C ,  5-C ) :   1.0444 B(  5-C ,  6-C ) :   1.6596 B(  5-C , 12-C ) :   0.9640
B(  6-C ,  7-C ) :   0.9534 B(  6-C ,  8-N ) :   1.1393 B(  7-C , 25-H ) :   0.9691
B(  7-C , 26-H ) :   0.9895 B(  7-C , 27-H ) :   0.9629 B(  8-N ,  9-C ) :   1.1828
B(  8-N , 28-H ) :   0.9495 B(  9-C , 10-S ) :   1.6102 B(  9-C , 11-N ) :   1.3011
B( 11-N , 12-C ) :   0.9925 B( 11-N , 29-H ) :   0.9516 B( 12-C , 13-C ) :   0.9452
B( 12-C , 30-H ) :   0.9987 B( 13-C , 14-C ) :   1.3763 B( 13-C , 19-C ) :   1.3696
B( 14-C , 15-C ) :   1.3945 B( 14-C , 31-H ) :   0.9644 B( 15-C , 16-C ) :   1.3630
B( 15-C , 32-H ) :   0.9711 B( 16-C , 17-C ) :   1.3308 B( 16-C , 33-H ) :   0.9855
B( 17-C , 18-O ) :   1.1089 B( 17-C , 19-C ) :   1.3775 B( 18-O , 34-H ) :   0.9803
B( 19-C , 35-H ) :   0.9581

MP2 TOTAL ENERGY:    -1274.333259104 Eh
FINAL SINGLE POINT ENERGY     -1274.333259104137

DIPOLE MOMENT
-------------
                                X             Y             Z
Electronic contribution:     10.62351      10.53454       9.69390
Nuclear contribution   :    -12.17699     -11.73104     -10.35778
                        -----------------------------------------
Total Dipole Moment    :     -1.55348      -1.19650      -0.66388
                        -----------------------------------------
Magnitude (a.u.)       :      2.07018
Magnitude (Debye)      :      5.26199

Rotational constants in cm-1:     0.011064     0.009002     0.006061
Rotational constants in MHz :   331.684767   269.870302   181.700538

                             ****ORCA TERMINATED NORMALLY****
TOTAL RUN TIME: 0 days 1 hours 39 minutes 43 seconds 317 msec
