                         Program Version 4.2.0 -  RELEASE  -
|  1> ! ri-mp2 cc-pvtz cc-pvtz/c TightSCF  NoKeepInts
|  2>
|  3> %scf
|  4>   MaxCore 4096
|  5> end
|  6> *xyz  0  1
|  7>     C       15.3866841   13.9593229   15.1256962
|  8>     C       15.6822715   14.1890877   16.6215518
|  9>     O       16.7599220   15.1335992   16.7588884
| 10>     C       16.5153469   16.4774473   16.6773956
| 11>     O       15.5262894   16.9301553   16.1267361
| 12>     C       17.4293734   17.2811880   17.5616521
| 13>     C       17.3682385   18.6355022   17.6310075
| 14>     C       16.4260248   19.5507282   16.8784588
| 15>     N       18.2694480   19.3379243   18.4367470
| 16>     C       19.3229725   18.7766024   19.1075624
| 17>     S       20.4059840   19.6920438   19.9590113
| 18>     N       19.4380429   17.4119572   19.0338189
| 19>     C       18.4523159   16.5090549   18.4119708
| 20>     C       17.7774113   15.6650644   19.4899275
| 21>     C       18.0178161   14.2801260   19.5655435
| 22>     C       17.3945208   13.4989845   20.5532075
| 23>     C       16.5260552   14.1076930   21.4752586
| 24>     C       16.2883594   15.4873319   21.4061102
| 25>     O       15.4514959   16.0781296   22.2958157
| 26>     C       16.9095234   16.2619136   20.4216170
| 27>     H       15.0005161   14.8696122   14.6510326
| 28>     H       14.6340228   13.1714591   15.0020971
| 29>     H       16.2955033   13.6512121   14.5944177
| 30>     H       14.7831480   14.5449837   17.1430980
| 31>     H       15.9820760   13.2353375   17.0743222
| 32>     H       15.3862797   19.3564834   17.1716576
| 33>     H       16.4985246   19.3766107   15.7973998
| 34>     H       16.6278281   20.6137001   17.0550074
| 35>     H       18.2009349   20.3410135   18.5013996
| 36>     H       20.2033771   17.0238290   19.5699493
| 37>     H       19.0039941   15.8370746   17.7395643
| 38>     H       18.6855026   13.8064921   18.8507899
| 39>     H       17.5859730   12.4284724   20.6028031
| 40>     H       16.0430874   13.5090701   22.2405856
| 41>     H       15.1506205   15.3938217   22.9122433
| 42>     H       16.7175154   17.3289712   20.3896559
| 43> *
| 44>
| 45>                          ****END OF INPUT****

CARTESIAN COORDINATES (ANGSTROEM)
---------------------------------
  C     15.386684   13.959323   15.125696
  C     15.682271   14.189088   16.621552
  O     16.759922   15.133599   16.758888
  C     16.515347   16.477447   16.677396
  O     15.526289   16.930155   16.126736
  C     17.429373   17.281188   17.561652
  C     17.368239   18.635502   17.631007
  C     16.426025   19.550728   16.878459
  N     18.269448   19.337924   18.436747
  C     19.322972   18.776602   19.107562
  S     20.405984   19.692044   19.959011
  N     19.438043   17.411957   19.033819
  C     18.452316   16.509055   18.411971
  C     17.777411   15.665064   19.489927
  C     18.017816   14.280126   19.565544
  C     17.394521   13.498985   20.553207
  C     16.526055   14.107693   21.475259
  C     16.288359   15.487332   21.406110
  O     15.451496   16.078130   22.295816
  C     16.909523   16.261914   20.421617
  H     15.000516   14.869612   14.651033
  H     14.634023   13.171459   15.002097
  H     16.295503   13.651212   14.594418
  H     14.783148   14.544984   17.143098
  H     15.982076   13.235337   17.074322
  H     15.386280   19.356483   17.171658
  H     16.498525   19.376611   15.797400
  H     16.627828   20.613700   17.055007
  H     18.200935   20.341013   18.501400
  H     20.203377   17.023829   19.569949
  H     19.003994   15.837075   17.739564
  H     18.685503   13.806492   18.850790
  H     17.585973   12.428472   20.602803
  H     16.043087   13.509070   22.240586
  H     15.150621   15.393822   22.912243
  H     16.717515   17.328971   20.389656

 Total Charge           Charge          ....    0
 Multiplicity           Mult            ....    1
 Number of Electrons    NEL             ....  154
 Basis Dimension        Dim             ....  828

ORBITAL ENERGIES
----------------

  NO   OCC          E(Eh)            E(eV)
   0   2.0000     -91.888873     -2500.4234
   1   2.0000     -20.597901      -560.4974
   2   2.0000     -20.596587      -560.4616
   3   2.0000     -20.543733      -559.0234
   4   2.0000     -15.629105      -425.2896
   5   2.0000     -15.608180      -424.7202
   6   2.0000     -11.395964      -310.0999
   7   2.0000     -11.383957      -309.7732
   8   2.0000     -11.335791      -308.4625
   9   2.0000     -11.313780      -307.8636
  10   2.0000     -11.309075      -307.7356
  11   2.0000     -11.297908      -307.4317
  12   2.0000     -11.259683      -306.3916
  13   2.0000     -11.259004      -306.3731
  14   2.0000     -11.255298      -306.2722
  15   2.0000     -11.252324      -306.1913
  16   2.0000     -11.242927      -305.9356
  17   2.0000     -11.238303      -305.8098
  18   2.0000     -11.238082      -305.8037
  19   2.0000     -11.220371      -305.3218
  20   2.0000      -8.893934      -242.0162
  21   2.0000      -6.575508      -178.9287
  22   2.0000      -6.573504      -178.8741
  23   2.0000      -6.572917      -178.8582
  24   2.0000      -1.450496       -39.4700
  25   2.0000      -1.416230       -38.5376
  26   2.0000      -1.355289       -36.8793
  27   2.0000      -1.340067       -36.4651
  28   2.0000      -1.238503       -33.7014
  29   2.0000      -1.157495       -31.4970
  30   2.0000      -1.120212       -30.4825
  31   2.0000      -1.042600       -28.3706
  32   2.0000      -1.034949       -28.1624
  33   2.0000      -1.015044       -27.6208
  34   2.0000      -0.995043       -27.0765
  35   2.0000      -0.983691       -26.7676
  36   2.0000      -0.922525       -25.1032
  37   2.0000      -0.891191       -24.2506
  38   2.0000      -0.847217       -23.0539
  39   2.0000      -0.837930       -22.8012
  40   2.0000      -0.833994       -22.6941
  41   2.0000      -0.819780       -22.3074
  42   2.0000      -0.756197       -20.5772
  43   2.0000      -0.731853       -19.9147
  44   2.0000      -0.722575       -19.6623
  45   2.0000      -0.695679       -18.9304
  46   2.0000      -0.688516       -18.7355
  47   2.0000      -0.680579       -18.5195
  48   2.0000      -0.670492       -18.2450
  49   2.0000      -0.653153       -17.7732
  50   2.0000      -0.647594       -17.6219
  51   2.0000      -0.645653       -17.5691
  52   2.0000      -0.631357       -17.1801
  53   2.0000      -0.608411       -16.5557
  54   2.0000      -0.606493       -16.5035
  55   2.0000      -0.599273       -16.3070
  56   2.0000      -0.598775       -16.2935
  57   2.0000      -0.580378       -15.7929
  58   2.0000      -0.573120       -15.5954
  59   2.0000      -0.570683       -15.5291
  60   2.0000      -0.563420       -15.3314
  61   2.0000      -0.538900       -14.6642
  62   2.0000      -0.536028       -14.5861
  63   2.0000      -0.524967       -14.2851
  64   2.0000      -0.520162       -14.1543
  65   2.0000      -0.513372       -13.9696
  66   2.0000      -0.500954       -13.6316
  67   2.0000      -0.498392       -13.5619
  68   2.0000      -0.486124       -13.2281
  69   2.0000      -0.464022       -12.6267
  70   2.0000      -0.455418       -12.3926
  71   2.0000      -0.445201       -12.1145
  72   2.0000      -0.354160        -9.6372
  73   2.0000      -0.349333        -9.5058
  74   2.0000      -0.328241        -8.9319
  75   2.0000      -0.321372        -8.7450
  76   2.0000      -0.316014        -8.5992
  77   0.0000       0.075068         2.0427
  78   0.0000       0.106373         2.8946
  79   0.0000       0.125227         3.4076
  80   0.0000       0.132485         3.6051
  81   0.0000       0.137897         3.7524

MULLIKEN ATOMIC CHARGES
-----------------------
   0 C :   -0.286595
   1 C :    0.045070
   2 O :   -0.361106
   3 C :    0.454611
   4 O :   -0.431450
   5 C :   -0.207134
   6 C :    0.151290
   7 C :   -0.273825
   8 N :   -0.121046
   9 C :    0.211686
  10 S :   -0.439947
  11 N :   -0.204567
  12 C :    0.056762
  13 C :    0.065477
  14 C :   -0.188472
  15 C :   -0.129802
  16 C :   -0.279776
  17 C :    0.315894
  18 O :   -0.356496
  19 C :   -0.269259
  20 H :    0.120375
  21 H :    0.092223
  22 H :    0.090198
  23 H :    0.094207
  24 H :    0.105428
  25 H :    0.132824
  26 H :    0.129369
  27 H :    0.095520
  28 H :    0.197334
  29 H :    0.194570
  30 H :    0.150008
  31 H :    0.149873
  32 H :    0.160988
  33 H :    0.130081
  34 H :    0.240738
  35 H :    0.164950
Sum of atomic charges:   -0.0000000

LOEWDIN ATOMIC CHARGES
----------------------
   0 C :    0.104825
   1 C :   -0.014989
   2 O :    0.303438
   3 C :   -0.413035
   4 O :    0.102421
   5 C :   -0.094501
   6 C :   -0.059163
   7 C :    0.131258
   8 N :    0.406544
   9 C :   -0.456469
  10 S :   -0.035426
  11 N :    0.396362
  12 C :   -0.052338
  13 C :   -0.038011
  14 C :    0.014336
  15 C :    0.038535
  16 C :   -0.002193
  17 C :   -0.189495
  18 O :    0.395265
  19 C :    0.031157
  20 H :   -0.025556
  21 H :   -0.028944
  22 H :   -0.030070
  23 H :   -0.028021
  24 H :   -0.025962
  25 H :   -0.004609
  26 H :   -0.004315
  27 H :   -0.023297
  28 H :   -0.057584
  29 H :   -0.064653
  30 H :   -0.010474
  31 H :   -0.030202
  32 H :   -0.021462
  33 H :   -0.035668
  34 H :   -0.153901
  35 H :   -0.023801

  Mayer bond orders larger than 0.100000
B(  0-C ,  1-C ) :   0.9752 B(  0-C , 20-H ) :   0.9736 B(  0-C , 21-H ) :   0.9779
B(  0-C , 22-H ) :   0.9761 B(  1-C ,  2-O ) :   0.8900 B(  1-C , 23-H ) :   0.9734
B(  1-C , 24-H ) :   0.9816 B(  2-O ,  3-C ) :   1.1445 B(  3-C ,  4-O ) :   1.9607
B(  3-C ,  5-C ) :   1.0633 B(  5-C ,  6-C ) :   1.6547 B(  5-C , 12-C ) :   0.9732
B(  6-C ,  7-C ) :   0.9673 B(  6-C ,  8-N ) :   1.1622 B(  7-C , 25-H ) :   0.9596
B(  7-C , 26-H ) :   0.9611 B(  7-C , 27-H ) :   0.9909 B(  8-N ,  9-C ) :   1.1827
B(  8-N , 28-H ) :   0.9479 B(  9-C , 10-S ) :   1.6073 B(  9-C , 11-N ) :   1.3054
B( 11-N , 12-C ) :   0.9847 B( 11-N , 29-H ) :   0.9517 B( 12-C , 13-C ) :   0.9355
B( 12-C , 30-H ) :   1.0025 B( 13-C , 14-C ) :   1.3550 B( 13-C , 19-C ) :   1.3830
B( 14-C , 15-C ) :   1.3901 B( 14-C , 31-H ) :   0.9720 B( 15-C , 16-C ) :   1.3640
B( 15-C , 32-H ) :   0.9705 B( 16-C , 17-C ) :   1.3314 B( 16-C , 33-H ) :   0.9849
B( 17-C , 18-O ) :   1.1103 B( 17-C , 19-C ) :   1.3723 B( 18-O , 34-H ) :   0.9798
B( 19-C , 35-H ) :   0.9583

MP2 TOTAL ENERGY:    -1274.345171409 Eh
FINAL SINGLE POINT ENERGY     -1274.345171408567

DIPOLE MOMENT
-------------
                                X             Y             Z
Electronic contribution:     10.17613       9.83687       9.39706
Nuclear contribution   :    -11.26411     -11.46582      -9.65955
                        -----------------------------------------
Total Dipole Moment    :     -1.08797      -1.62895      -0.26249
                        -----------------------------------------
Magnitude (a.u.)       :      1.97638
Magnitude (Debye)      :      5.02355

Rotational constants in cm-1:     0.011396     0.008728     0.006070
Rotational constants in MHz :   341.651816   261.670557   181.982725

                             ****ORCA TERMINATED NORMALLY****
TOTAL RUN TIME: 0 days 1 hours 39 minutes 2 seconds 507 msec
