                         Program Version 5.0.0 -  RELEASE  -
|  1> ! ri-mp2 cc-pvtz cc-pvtz/c TightSCF NoKeepInts
|  2>
|  3> %scf
|  4>   MaxCore 4096
|  5> end
|  6> *xyz  0  1
|  7>     C       15.5633352   13.3280573   16.6539746
|  8>     C       15.7037167   14.8455072   16.8569982
|  9>     O       16.9553611   15.2449959   16.2693456
| 10>     C       17.1508722   16.5779380   16.0656518
| 11>     O       16.5875523   17.1187452   15.1317611
| 12>     C       17.6157911   17.3176546   17.2929330
| 13>     C       17.4069994   18.6488586   17.4656015
| 14>     C       16.5888951   19.5754037   16.5917143
| 15>     N       18.0321368   19.3220140   18.5203392
| 16>     C       19.0509515   18.8015873   19.2743661
| 17>     S       19.8899026   19.7166796   20.3669302
| 18>     N       19.3473986   17.4783211   19.0644628
| 19>     C       18.5054118   16.5496546   18.2881644
| 20>     C       17.7271381   15.6659689   19.2564205
| 21>     C       17.9863774   14.2837319   19.3198814
| 22>     C       17.2715074   13.4620565   20.2074193
| 23>     C       16.2939762   14.0271232   21.0438962
| 24>     C       16.0408181   15.4044999   20.9919751
| 25>     O       15.0970706   15.9533355   21.7970961
| 26>     C       16.7517142   16.2196908   20.1058132
| 27>     H       14.6075380   12.9729377   17.0576411
| 28>     H       16.3725085   12.7933119   17.1660304
| 29>     H       15.6016135   13.0762947   15.5866824
| 30>     H       14.8735330   15.3474564   16.3411197
| 31>     H       15.6429593   15.0982805   17.9198476
| 32>     H       15.5847271   19.1653767   16.4253068
| 33>     H       17.0609945   19.6923493   15.6076706
| 34>     H       16.4666903   20.5752694   17.0243351
| 35>     H       17.8380780   20.2992424   18.6712561
| 36>     H       20.0881061   17.1144540   19.6502367
| 37>     H       19.1756994   15.9056015   17.7013430
| 38>     H       18.7386151   13.8421207   18.6712609
| 39>     H       17.4768698   12.3934579   20.2459465
| 40>     H       15.7399311   13.3963153   21.7315095
| 41>     H       14.7675525   15.2536060   22.3812470
| 42>     H       16.5446574   17.2841018   20.0878218
| 43> *
| 44>
| 45>                          ****END OF INPUT****

CARTESIAN COORDINATES (ANGSTROEM)
---------------------------------
  C     15.563335   13.328057   16.653975
  C     15.703717   14.845507   16.856998
  O     16.955361   15.244996   16.269346
  C     17.150872   16.577938   16.065652
  O     16.587552   17.118745   15.131761
  C     17.615791   17.317655   17.292933
  C     17.406999   18.648859   17.465601
  C     16.588895   19.575404   16.591714
  N     18.032137   19.322014   18.520339
  C     19.050952   18.801587   19.274366
  S     19.889903   19.716680   20.366930
  N     19.347399   17.478321   19.064463
  C     18.505412   16.549655   18.288164
  C     17.727138   15.665969   19.256421
  C     17.986377   14.283732   19.319881
  C     17.271507   13.462056   20.207419
  C     16.293976   14.027123   21.043896
  C     16.040818   15.404500   20.991975
  O     15.097071   15.953335   21.797096
  C     16.751714   16.219691   20.105813
  H     14.607538   12.972938   17.057641
  H     16.372508   12.793312   17.166030
  H     15.601613   13.076295   15.586682
  H     14.873533   15.347456   16.341120
  H     15.642959   15.098280   17.919848
  H     15.584727   19.165377   16.425307
  H     17.060994   19.692349   15.607671
  H     16.466690   20.575269   17.024335
  H     17.838078   20.299242   18.671256
  H     20.088106   17.114454   19.650237
  H     19.175699   15.905601   17.701343
  H     18.738615   13.842121   18.671261
  H     17.476870   12.393458   20.245946
  H     15.739931   13.396315   21.731510
  H     14.767553   15.253606   22.381247
  H     16.544657   17.284102   20.087822

 Total Charge           Charge          ....    0
 Multiplicity           Mult            ....    1
 Number of Electrons    NEL             ....  154
 Basis Dimension        Dim             ....  828

ORBITAL ENERGIES
----------------

  NO   OCC          E(Eh)            E(eV)
   0   2.0000     -91.891713     -2500.5006
   1   2.0000     -20.601872      -560.6054
   2   2.0000     -20.580613      -560.0270
   3   2.0000     -20.550661      -559.2119
   4   2.0000     -15.631861      -425.3646
   5   2.0000     -15.610502      -424.7834
   6   2.0000     -11.392298      -310.0002
   7   2.0000     -11.386182      -309.8338
   8   2.0000     -11.337953      -308.5214
   9   2.0000     -11.319867      -308.0292
  10   2.0000     -11.313632      -307.8596
  11   2.0000     -11.293537      -307.3128
  12   2.0000     -11.264584      -306.5249
  13   2.0000     -11.261105      -306.4302
  14   2.0000     -11.260399      -306.4110
  15   2.0000     -11.254105      -306.2398
  16   2.0000     -11.249025      -306.1015
  17   2.0000     -11.243409      -305.9487
  18   2.0000     -11.243256      -305.9446
  19   2.0000     -11.225662      -305.4658
  20   2.0000      -8.896726      -242.0922
  21   2.0000      -6.578288      -179.0043
  22   2.0000      -6.576297      -178.9501
  23   2.0000      -6.575698      -178.9338
  24   2.0000      -1.449179       -39.4342
  25   2.0000      -1.421597       -38.6836
  26   2.0000      -1.352835       -36.8125
  27   2.0000      -1.343096       -36.5475
  28   2.0000      -1.241461       -33.7819
  29   2.0000      -1.162614       -31.6363
  30   2.0000      -1.121803       -30.5258
  31   2.0000      -1.046786       -28.4845
  32   2.0000      -1.033466       -28.1220
  33   2.0000      -1.021076       -27.7849
  34   2.0000      -0.999042       -27.1853
  35   2.0000      -0.986652       -26.8482
  36   2.0000      -0.926323       -25.2065
  37   2.0000      -0.876860       -23.8606
  38   2.0000      -0.849984       -23.1292
  39   2.0000      -0.843645       -22.9567
  40   2.0000      -0.839351       -22.8399
  41   2.0000      -0.831204       -22.6182
  42   2.0000      -0.761116       -20.7110
  43   2.0000      -0.736543       -20.0424
  44   2.0000      -0.725003       -19.7283
  45   2.0000      -0.701206       -19.0808
  46   2.0000      -0.692142       -18.8342
  47   2.0000      -0.680106       -18.5066
  48   2.0000      -0.673093       -18.3158
  49   2.0000      -0.657315       -17.8865
  50   2.0000      -0.649181       -17.6651
  51   2.0000      -0.644473       -17.5370
  52   2.0000      -0.632959       -17.2237
  53   2.0000      -0.621630       -16.9154
  54   2.0000      -0.611938       -16.6517
  55   2.0000      -0.604058       -16.4373
  56   2.0000      -0.601447       -16.3662
  57   2.0000      -0.582178       -15.8419
  58   2.0000      -0.573179       -15.5970
  59   2.0000      -0.565524       -15.3887
  60   2.0000      -0.553987       -15.0748
  61   2.0000      -0.542552       -14.7636
  62   2.0000      -0.534354       -14.5405
  63   2.0000      -0.530151       -14.4261
  64   2.0000      -0.518124       -14.0989
  65   2.0000      -0.515578       -14.0296
  66   2.0000      -0.506814       -13.7911
  67   2.0000      -0.500409       -13.6168
  68   2.0000      -0.483917       -13.1681
  69   2.0000      -0.466353       -12.6901
  70   2.0000      -0.457837       -12.4584
  71   2.0000      -0.444846       -12.1049
  72   2.0000      -0.358968        -9.7680
  73   2.0000      -0.353951        -9.6315
  74   2.0000      -0.331352        -9.0166
  75   2.0000      -0.327493        -8.9115
  76   2.0000      -0.318627        -8.6703
  77   0.0000       0.067177         1.8280
  78   0.0000       0.101231         2.7546
  79   0.0000       0.121057         3.2941
  80   0.0000       0.126469         3.4414
  81   0.0000       0.131635         3.5820

MULLIKEN ATOMIC CHARGES
-----------------------
   0 C :   -0.267292
   1 C :    0.018483
   2 O :   -0.376338
   3 C :    0.491272
   4 O :   -0.393226
   5 C :   -0.272220
   6 C :    0.153329
   7 C :   -0.270457
   8 N :   -0.125779
   9 C :    0.205278
  10 S :   -0.433314
  11 N :   -0.192087
  12 C :    0.035995
  13 C :    0.030376
  14 C :   -0.166646
  15 C :   -0.139473
  16 C :   -0.267580
  17 C :    0.301796
  18 O :   -0.356100
  19 C :   -0.251327
  20 H :    0.088431
  21 H :    0.090471
  22 H :    0.108148
  23 H :    0.111217
  24 H :    0.115563
  25 H :    0.127537
  26 H :    0.136991
  27 H :    0.094105
  28 H :    0.198659
  29 H :    0.191238
  30 H :    0.148190
  31 H :    0.154022
  32 H :    0.166421
  33 H :    0.133988
  34 H :    0.241647
  35 H :    0.168684
Sum of atomic charges:    0.0000000

LOEWDIN ATOMIC CHARGES
----------------------
   0 C :    0.110520
   1 C :   -0.017285
   2 O :    0.285695
   3 C :   -0.422464
   4 O :    0.127237
   5 C :   -0.099506
   6 C :   -0.059542
   7 C :    0.130404
   8 N :    0.406665
   9 C :   -0.457933
  10 S :   -0.030858
  11 N :    0.396328
  12 C :   -0.053143
  13 C :   -0.040616
  14 C :    0.016018
  15 C :    0.043784
  16 C :   -0.000800
  17 C :   -0.191449
  18 O :    0.396766
  19 C :    0.030226
  20 H :   -0.025514
  21 H :   -0.031368
  22 H :   -0.024353
  23 H :   -0.030714
  24 H :   -0.036971
  25 H :   -0.005905
  26 H :   -0.003010
  27 H :   -0.023096
  28 H :   -0.057457
  29 H :   -0.065145
  30 H :   -0.006330
  31 H :   -0.029204
  32 H :   -0.019780
  33 H :   -0.034161
  34 H :   -0.152620
  35 H :   -0.024420

  Mayer bond orders larger than 0.100000
B(  0-C ,  1-C ) :   0.9820 B(  0-C , 20-H ) :   0.9756 B(  0-C , 21-H ) :   0.9779
B(  0-C , 22-H ) :   0.9785 B(  1-C ,  2-O ) :   0.8735 B(  1-C , 23-H ) :   0.9784
B(  1-C , 24-H ) :   0.9609 B(  2-O ,  3-C ) :   1.1164 B(  3-C ,  4-O ) :   2.0441
B(  3-C ,  5-C ) :   1.0342 B(  5-C ,  6-C ) :   1.6628 B(  5-C , 12-C ) :   0.9702
B(  6-C ,  7-C ) :   0.9706 B(  6-C ,  8-N ) :   1.1486 B(  7-C , 25-H ) :   0.9653
B(  7-C , 26-H ) :   0.9562 B(  7-C , 27-H ) :   0.9880 B(  8-N ,  9-C ) :   1.1777
B(  8-N , 28-H ) :   0.9485 B(  9-C , 10-S ) :   1.6188 B(  9-C , 11-N ) :   1.2987
B( 11-N , 12-C ) :   0.9818 B( 11-N , 29-H ) :   0.9543 B( 12-C , 13-C ) :   0.9461
B( 12-C , 30-H ) :   1.0040 B( 13-C , 14-C ) :   1.3606 B( 13-C , 19-C ) :   1.3692
B( 14-C , 15-C ) :   1.3814 B( 14-C , 31-H ) :   0.9709 B( 15-C , 16-C ) :   1.3674
B( 15-C , 32-H ) :   0.9685 B( 16-C , 17-C ) :   1.3266 B( 16-C , 33-H ) :   0.9834
B( 17-C , 18-O ) :   1.1152 B( 17-C , 19-C ) :   1.3812 B( 18-O , 34-H ) :   0.9790
B( 19-C , 35-H ) :   0.9565

MP2 TOTAL ENERGY:    -1274.326379382 Eh
FINAL SINGLE POINT ENERGY     -1274.326379381571

DIPOLE MOMENT
-------------
                                X             Y             Z
Electronic contribution:     10.00902      10.50605       5.53028
Nuclear contribution   :    -11.18599     -11.94828      -5.25354
                        -----------------------------------------
Total Dipole Moment    :     -1.17697      -1.44223       0.27674
                        -----------------------------------------
Magnitude (a.u.)       :      1.88198
Magnitude (Debye)      :      4.78362

Rotational constants in cm-1:     0.012204     0.009186     0.006379
Rotational constants in MHz :   365.875242   275.386019   191.250712

                             ****ORCA TERMINATED NORMALLY****
TOTAL RUN TIME: 0 days 2 hours 7 minutes 48 seconds 788 msec
