                         Program Version 5.0.0 -  RELEASE  -
|  1> ! ri-mp2 cc-pvtz cc-pvtz/c TightSCF NoKeepInts
|  2>
|  3> %scf
|  4>   MaxCore 4096
|  5> end
|  6> *xyz  0  1
|  7>     C       14.9494839   15.0663185   17.5760629
|  8>     C       15.6074607   15.4183605   16.2321775
|  9>     O       16.9670488   14.9426756   16.2334002
| 10>     C       18.1003016   15.6897818   16.4426559
| 11>     O       19.1777589   15.1290940   16.3668648
| 12>     C       17.9501789   16.8609310   17.3575716
| 13>     C       17.4844745   18.0572614   16.9285852
| 14>     C       17.0558777   18.4216147   15.5223702
| 15>     N       17.4863056   19.1561726   17.7901414
| 16>     C       18.0810011   19.1767927   19.0244238
| 17>     S       18.1157533   20.5472976   19.9488612
| 18>     N       18.6551118   18.0049088   19.4510808
| 19>     C       18.5637850   16.7055311   18.7542958
| 20>     C       17.8375576   15.6566148   19.5963219
| 21>     C       18.1933371   14.2998484   19.4781669
| 22>     C       17.5380653   13.3150975   20.2354785
| 23>     C       16.5173922   13.6874057   21.1257536
| 24>     C       16.1606296   15.0362605   21.2518462
| 25>     O       15.1691424   15.3983676   22.1041022
| 26>     C       16.8142344   16.0153039   20.4963562
| 27>     H       15.2557952   15.7750130   18.3509806
| 28>     H       15.2260768   14.0537528   17.8972639
| 29>     H       13.8570125   15.1147541   17.4940583
| 30>     H       15.0644431   14.8823200   15.4428825
| 31>     H       15.5141163   16.4852352   16.0231098
| 32>     H       17.2076080   17.6010044   14.8106204
| 33>     H       17.6431406   19.2705664   15.1486861
| 34>     H       15.9973920   18.7082294   15.4907266
| 35>     H       17.0947450   20.0334155   17.4850034
| 36>     H       19.0817402   18.0471460   20.3680762
| 37>     H       19.5935046   16.3440861   18.6139474
| 38>     H       18.9782508   14.0046942   18.7847307
| 39>     H       17.8217514   12.2696238   20.1269855
| 40>     H       16.0073224   12.9295502   21.7110796
| 41>     H       14.8709802   14.5969509   22.5601546
| 42>     H       16.5082206   17.0500193   20.6091772
| 43> *
| 44>
| 45>                          ****END OF INPUT****

CARTESIAN COORDINATES (ANGSTROEM)
---------------------------------
  C     14.949484   15.066318   17.576063
  C     15.607461   15.418360   16.232177
  O     16.967049   14.942676   16.233400
  C     18.100302   15.689782   16.442656
  O     19.177759   15.129094   16.366865
  C     17.950179   16.860931   17.357572
  C     17.484475   18.057261   16.928585
  C     17.055878   18.421615   15.522370
  N     17.486306   19.156173   17.790141
  C     18.081001   19.176793   19.024424
  S     18.115753   20.547298   19.948861
  N     18.655112   18.004909   19.451081
  C     18.563785   16.705531   18.754296
  C     17.837558   15.656615   19.596322
  C     18.193337   14.299848   19.478167
  C     17.538065   13.315098   20.235478
  C     16.517392   13.687406   21.125754
  C     16.160630   15.036260   21.251846
  O     15.169142   15.398368   22.104102
  C     16.814234   16.015304   20.496356
  H     15.255795   15.775013   18.350981
  H     15.226077   14.053753   17.897264
  H     13.857012   15.114754   17.494058
  H     15.064443   14.882320   15.442882
  H     15.514116   16.485235   16.023110
  H     17.207608   17.601004   14.810620
  H     17.643141   19.270566   15.148686
  H     15.997392   18.708229   15.490727
  H     17.094745   20.033416   17.485003
  H     19.081740   18.047146   20.368076
  H     19.593505   16.344086   18.613947
  H     18.978251   14.004694   18.784731
  H     17.821751   12.269624   20.126985
  H     16.007322   12.929550   21.711080
  H     14.870980   14.596951   22.560155
  H     16.508221   17.050019   20.609177

 Total Charge           Charge          ....    0
 Multiplicity           Mult            ....    1
 Number of Electrons    NEL             ....  154
 Basis Dimension        Dim             ....  828

ORBITAL ENERGIES
----------------

  NO   OCC          E(Eh)            E(eV)
   0   2.0000     -91.889714     -2500.4462
   1   2.0000     -20.602363      -560.6188
   2   2.0000     -20.597347      -560.4823
   3   2.0000     -20.553106      -559.2784
   4   2.0000     -15.626046      -425.2063
   5   2.0000     -15.611421      -424.8084
   6   2.0000     -11.400252      -310.2166
   7   2.0000     -11.386420      -309.8402
   8   2.0000     -11.329076      -308.2798
   9   2.0000     -11.316275      -307.9315
  10   2.0000     -11.314066      -307.8714
  11   2.0000     -11.305287      -307.6325
  12   2.0000     -11.272808      -306.7487
  13   2.0000     -11.268464      -306.6305
  14   2.0000     -11.262729      -306.4744
  15   2.0000     -11.254506      -306.2507
  16   2.0000     -11.243333      -305.9467
  17   2.0000     -11.239249      -305.8355
  18   2.0000     -11.235922      -305.7450
  19   2.0000     -11.225422      -305.4593
  20   2.0000      -8.894832      -242.0407
  21   2.0000      -6.576426      -178.9536
  22   2.0000      -6.574393      -178.8983
  23   2.0000      -6.573822      -178.8828
  24   2.0000      -1.450883       -39.4805
  25   2.0000      -1.417157       -38.5628
  26   2.0000      -1.361037       -37.0357
  27   2.0000      -1.340239       -36.4697
  28   2.0000      -1.239963       -33.7411
  29   2.0000      -1.158720       -31.5304
  30   2.0000      -1.125357       -30.6225
  31   2.0000      -1.048051       -28.5189
  32   2.0000      -1.038713       -28.2648
  33   2.0000      -1.017402       -27.6849
  34   2.0000      -1.005276       -27.3549
  35   2.0000      -0.989602       -26.9284
  36   2.0000      -0.927711       -25.2443
  37   2.0000      -0.890038       -24.2192
  38   2.0000      -0.854905       -23.2632
  39   2.0000      -0.840772       -22.8786
  40   2.0000      -0.834017       -22.6948
  41   2.0000      -0.832736       -22.6599
  42   2.0000      -0.755386       -20.5551
  43   2.0000      -0.739858       -20.1326
  44   2.0000      -0.730286       -19.8721
  45   2.0000      -0.695341       -18.9212
  46   2.0000      -0.688569       -18.7369
  47   2.0000      -0.682006       -18.5583
  48   2.0000      -0.675704       -18.3868
  49   2.0000      -0.664003       -18.0684
  50   2.0000      -0.652903       -17.7664
  51   2.0000      -0.639729       -17.4079
  52   2.0000      -0.634458       -17.2645
  53   2.0000      -0.622998       -16.9526
  54   2.0000      -0.612106       -16.6563
  55   2.0000      -0.605911       -16.4877
  56   2.0000      -0.601312       -16.3625
  57   2.0000      -0.590357       -16.0644
  58   2.0000      -0.577698       -15.7200
  59   2.0000      -0.570395       -15.5212
  60   2.0000      -0.565301       -15.3826
  61   2.0000      -0.557019       -15.1572
  62   2.0000      -0.536632       -14.6025
  63   2.0000      -0.534377       -14.5411
  64   2.0000      -0.516874       -14.0649
  65   2.0000      -0.512298       -13.9403
  66   2.0000      -0.504736       -13.7346
  67   2.0000      -0.501406       -13.6439
  68   2.0000      -0.484638       -13.1877
  69   2.0000      -0.467744       -12.7280
  70   2.0000      -0.454590       -12.3700
  71   2.0000      -0.449523       -12.2321
  72   2.0000      -0.358139        -9.7455
  73   2.0000      -0.348284        -9.4773
  74   2.0000      -0.329468        -8.9653
  75   2.0000      -0.322422        -8.7736
  76   2.0000      -0.318489        -8.6665
  77   0.0000       0.089820         2.4441
  78   0.0000       0.105095         2.8598
  79   0.0000       0.109630         2.9832
  80   0.0000       0.128294         3.4911
  81   0.0000       0.131197         3.5700

MULLIKEN ATOMIC CHARGES
-----------------------
   0 C :   -0.296520
   1 C :    0.009965
   2 O :   -0.310599
   3 C :    0.397419
   4 O :   -0.378173
   5 C :   -0.179669
   6 C :    0.127819
   7 C :   -0.324874
   8 N :   -0.139007
   9 C :    0.208918
  10 S :   -0.442754
  11 N :   -0.235124
  12 C :    0.092625
  13 C :    0.024576
  14 C :   -0.205902
  15 C :   -0.142720
  16 C :   -0.273462
  17 C :    0.326185
  18 O :   -0.357679
  19 C :   -0.281471
  20 H :    0.104189
  21 H :    0.117206
  22 H :    0.105859
  23 H :    0.122499
  24 H :    0.086330
  25 H :    0.119714
  26 H :    0.143017
  27 H :    0.120676
  28 H :    0.194737
  29 H :    0.204621
  30 H :    0.168896
  31 H :    0.172536
  32 H :    0.164991
  33 H :    0.131953
  34 H :    0.240931
  35 H :    0.182294
Sum of atomic charges:   -0.0000000

LOEWDIN ATOMIC CHARGES
----------------------
   0 C :    0.107650
   1 C :   -0.024659
   2 O :    0.314523
   3 C :   -0.418733
   4 O :    0.127811
   5 C :   -0.075977
   6 C :   -0.109147
   7 C :    0.120174
   8 N :    0.400943
   9 C :   -0.456808
  10 S :   -0.039058
  11 N :    0.398334
  12 C :   -0.040857
  13 C :   -0.040583
  14 C :    0.022390
  15 C :    0.044600
  16 C :   -0.001541
  17 C :   -0.192286
  18 O :    0.395702
  19 C :    0.026145
  20 H :   -0.032783
  21 H :   -0.020190
  22 H :   -0.027036
  23 H :   -0.024111
  24 H :   -0.039041
  25 H :   -0.010441
  26 H :   -0.008161
  27 H :   -0.017792
  28 H :   -0.058351
  29 H :   -0.063607
  30 H :   -0.001569
  31 H :   -0.022087
  32 H :   -0.018680
  33 H :   -0.035221
  34 H :   -0.153488
  35 H :   -0.026065

  Mayer bond orders larger than 0.100000
B(  0-C ,  1-C ) :   0.9648 B(  0-C , 20-H ) :   0.9722 B(  0-C , 21-H ) :   0.9714
B(  0-C , 22-H ) :   0.9781 B(  1-C ,  2-O ) :   0.9143 B(  1-C , 23-H ) :   0.9866
B(  1-C , 24-H ) :   0.9707 B(  2-O ,  3-C ) :   1.1449 B(  3-C ,  4-O ) :   2.0823
B(  3-C ,  5-C ) :   0.9196 B(  5-C ,  6-C ) :   1.7070 B(  5-C , 12-C ) :   0.9500
B(  6-C ,  7-C ) :   0.9401 B(  6-C ,  8-N ) :   1.1061 B(  7-C , 25-H ) :   0.9830
B(  7-C , 26-H ) :   0.9677 B(  7-C , 27-H ) :   0.9682 B(  8-N ,  9-C ) :   1.2016
B(  8-N , 28-H ) :   0.9535 B(  9-C , 10-S ) :   1.6049 B(  9-C , 11-N ) :   1.2874
B( 11-N , 12-C ) :   0.9797 B( 11-N , 29-H ) :   0.9460 B( 12-C , 13-C ) :   0.9546
B( 12-C , 30-H ) :   0.9937 B( 13-C , 14-C ) :   1.3855 B( 13-C , 19-C ) :   1.3377
B( 14-C , 15-C ) :   1.4052 B( 14-C , 31-H ) :   0.9598 B( 15-C , 16-C ) :   1.3544
B( 15-C , 32-H ) :   0.9694 B( 16-C , 17-C ) :   1.3329 B( 16-C , 33-H ) :   0.9849
B( 17-C , 18-O ) :   1.1082 B( 17-C , 19-C ) :   1.3615 B( 18-O , 34-H ) :   0.9797
B( 19-C , 35-H ) :   0.9576

MP2 TOTAL ENERGY:    -1274.324581313 Eh
FINAL SINGLE POINT ENERGY     -1274.324581312833

DIPOLE MOMENT
-------------
                                X             Y             Z
Electronic contribution:      9.45267       6.85073       6.29312
Nuclear contribution   :    -10.98423      -7.87561      -7.09684
                        -----------------------------------------
Total Dipole Moment    :     -1.53156      -1.02487      -0.80371
                        -----------------------------------------
Magnitude (a.u.)       :      2.01047
Magnitude (Debye)      :      5.11021

Rotational constants in cm-1:     0.012048     0.009453     0.006706
Rotational constants in MHz :   361.175598   283.406340   201.055520

                             ****ORCA TERMINATED NORMALLY****
TOTAL RUN TIME: 0 days 2 hours 4 minutes 50 seconds 722 msec
