                         Program Version 4.2.0 -  RELEASE  -
|  1> ! ri-mp2 cc-pvtz cc-pvtz/c TightSCF  NoKeepInts
|  2>
|  3> %scf
|  4>   MaxCore 4096
|  5> end
|  6> *xyz  0  1
|  7>     C       14.8834940   16.0321471   17.1606857
|  8>     C       15.7338579   14.7460216   17.1052166
|  9>     O       16.9185733   14.8716900   16.2836847
| 10>     C       17.9114211   15.8225782   16.3146828
| 11>     O       18.7400358   15.8685153   15.4256017
| 12>     C       17.8514396   16.9025386   17.3398949
| 13>     C       17.4474270   18.1471176   16.9972006
| 14>     C       16.8939486   18.5824343   15.6577199
| 15>     N       17.5510729   19.1950092   17.9134369
| 16>     C       18.1533748   19.0988897   19.1401756
| 17>     S       18.2676038   20.3955787   20.1598249
| 18>     N       18.6567298   17.8687853   19.4856801
| 19>     C       18.5331768   16.6331167   18.6860960
| 20>     C       17.8715072   15.5255667   19.4961187
| 21>     C       18.3849854   14.2159358   19.4474260
| 22>     C       17.7825720   13.1839170   20.1862183
| 23>     C       16.6590739   13.4628626   20.9829603
| 24>     C       16.1468985   14.7661014   21.0376826
| 25>     O       15.0571403   15.0370854   21.7982855
| 26>     C       16.7468424   15.7916961   20.3000584
| 27>     H       15.2749310   16.7514846   17.8871846
| 28>     H       13.8627849   15.7861753   17.4782684
| 29>     H       14.8198364   16.5053028   16.1736377
| 30>     H       15.9899756   14.4210497   18.1176067
| 31>     H       15.1162699   13.9481660   16.6729405
| 32>     H       16.6760329   17.7322668   14.9996848
| 33>     H       17.6198488   19.2142903   15.1304774
| 34>     H       15.9637369   19.1514374   15.7742594
| 35>     H       17.2123442   20.1112119   17.6648166
| 36>     H       19.0795927   17.8273416   20.4045955
| 37>     H       19.5558026   16.2998131   18.4561849
| 38>     H       19.2508103   13.9942397   18.8275918
| 39>     H       18.1866950   12.1736997   20.1391665
| 40>     H       16.1909206   12.6679179   21.5546440
| 41>     H       14.8253979   14.2273449   22.2782809
| 42>     H       16.3308453   16.7926711   20.3560101
| 43> *
| 44>
| 45>                          ****END OF INPUT****

CARTESIAN COORDINATES (ANGSTROEM)
---------------------------------
  C     14.883494   16.032147   17.160686
  C     15.733858   14.746022   17.105217
  O     16.918573   14.871690   16.283685
  C     17.911421   15.822578   16.314683
  O     18.740036   15.868515   15.425602
  C     17.851440   16.902539   17.339895
  C     17.447427   18.147118   16.997201
  C     16.893949   18.582434   15.657720
  N     17.551073   19.195009   17.913437
  C     18.153375   19.098890   19.140176
  S     18.267604   20.395579   20.159825
  N     18.656730   17.868785   19.485680
  C     18.533177   16.633117   18.686096
  C     17.871507   15.525567   19.496119
  C     18.384985   14.215936   19.447426
  C     17.782572   13.183917   20.186218
  C     16.659074   13.462863   20.982960
  C     16.146898   14.766101   21.037683
  O     15.057140   15.037085   21.798285
  C     16.746842   15.791696   20.300058
  H     15.274931   16.751485   17.887185
  H     13.862785   15.786175   17.478268
  H     14.819836   16.505303   16.173638
  H     15.989976   14.421050   18.117607
  H     15.116270   13.948166   16.672940
  H     16.676033   17.732267   14.999685
  H     17.619849   19.214290   15.130477
  H     15.963737   19.151437   15.774259
  H     17.212344   20.111212   17.664817
  H     19.079593   17.827342   20.404595
  H     19.555803   16.299813   18.456185
  H     19.250810   13.994240   18.827592
  H     18.186695   12.173700   20.139167
  H     16.190921   12.667918   21.554644
  H     14.825398   14.227345   22.278281
  H     16.330845   16.792671   20.356010

 Total Charge           Charge          ....    0
 Multiplicity           Mult            ....    1
 Number of Electrons    NEL             ....  154
 Basis Dimension        Dim             ....  828

ORBITAL ENERGIES
----------------

  NO   OCC          E(Eh)            E(eV)
   0   2.0000     -91.889258     -2500.4338
   1   2.0000     -20.606825      -560.7402
   2   2.0000     -20.597187      -560.4779
   3   2.0000     -20.549471      -559.1795
   4   2.0000     -15.624325      -425.1595
   5   2.0000     -15.612286      -424.8319
   6   2.0000     -11.397737      -310.1482
   7   2.0000     -11.385950      -309.8275
   8   2.0000     -11.325493      -308.1823
   9   2.0000     -11.323582      -308.1303
  10   2.0000     -11.320067      -308.0347
  11   2.0000     -11.302197      -307.5484
  12   2.0000     -11.272127      -306.7302
  13   2.0000     -11.266778      -306.5846
  14   2.0000     -11.260633      -306.4174
  15   2.0000     -11.259003      -306.3730
  16   2.0000     -11.255070      -306.2660
  17   2.0000     -11.249927      -306.1261
  18   2.0000     -11.249585      -306.1168
  19   2.0000     -11.233183      -305.6704
  20   2.0000      -8.894381      -242.0284
  21   2.0000      -6.575973      -178.9413
  22   2.0000      -6.573943      -178.8861
  23   2.0000      -6.573373      -178.8706
  24   2.0000      -1.442523       -39.2531
  25   2.0000      -1.426613       -38.8201
  26   2.0000      -1.356513       -36.9126
  27   2.0000      -1.338848       -36.4319
  28   2.0000      -1.240218       -33.7480
  29   2.0000      -1.168819       -31.8052
  30   2.0000      -1.125211       -30.6186
  31   2.0000      -1.052601       -28.6427
  32   2.0000      -1.036983       -28.2177
  33   2.0000      -1.026901       -27.9434
  34   2.0000      -1.004853       -27.3434
  35   2.0000      -0.989682       -26.9306
  36   2.0000      -0.929683       -25.2980
  37   2.0000      -0.898096       -24.4384
  38   2.0000      -0.852426       -23.1957
  39   2.0000      -0.846083       -23.0231
  40   2.0000      -0.843907       -22.9639
  41   2.0000      -0.831924       -22.6378
  42   2.0000      -0.751497       -20.4493
  43   2.0000      -0.739935       -20.1347
  44   2.0000      -0.724844       -19.7240
  45   2.0000      -0.705620       -19.2009
  46   2.0000      -0.693256       -18.8645
  47   2.0000      -0.679494       -18.4900
  48   2.0000      -0.676265       -18.4021
  49   2.0000      -0.663105       -18.0440
  50   2.0000      -0.655541       -17.8382
  51   2.0000      -0.647433       -17.6176
  52   2.0000      -0.639147       -17.3921
  53   2.0000      -0.618886       -16.8407
  54   2.0000      -0.614745       -16.7281
  55   2.0000      -0.610163       -16.6034
  56   2.0000      -0.607594       -16.5335
  57   2.0000      -0.585719       -15.9382
  58   2.0000      -0.578864       -15.7517
  59   2.0000      -0.572303       -15.5732
  60   2.0000      -0.567961       -15.4550
  61   2.0000      -0.554200       -15.0806
  62   2.0000      -0.538725       -14.6595
  63   2.0000      -0.536291       -14.5932
  64   2.0000      -0.528636       -14.3849
  65   2.0000      -0.517428       -14.0799
  66   2.0000      -0.505882       -13.7657
  67   2.0000      -0.503554       -13.7024
  68   2.0000      -0.490861       -13.3570
  69   2.0000      -0.464920       -12.6511
  70   2.0000      -0.451796       -12.2940
  71   2.0000      -0.447872       -12.1872
  72   2.0000      -0.359803        -9.7907
  73   2.0000      -0.352858        -9.6018
  74   2.0000      -0.334711        -9.1080
  75   2.0000      -0.328789        -8.9468
  76   2.0000      -0.317463        -8.6386
  77   0.0000       0.089147         2.4258
  78   0.0000       0.098142         2.6706
  79   0.0000       0.118875         3.2348
  80   0.0000       0.125824         3.4239
  81   0.0000       0.129588         3.5263

MULLIKEN ATOMIC CHARGES
-----------------------
   0 C :   -0.337060
   1 C :    0.035569
   2 O :   -0.317237
   3 C :    0.381987
   4 O :   -0.375142
   5 C :   -0.183780
   6 C :    0.141394
   7 C :   -0.315728
   8 N :   -0.134595
   9 C :    0.209801
  10 S :   -0.443615
  11 N :   -0.222198
  12 C :    0.070941
  13 C :   -0.003164
  14 C :   -0.191246
  15 C :   -0.133689
  16 C :   -0.271395
  17 C :    0.313856
  18 O :   -0.354624
  19 C :   -0.267154
  20 H :    0.110186
  21 H :    0.121914
  22 H :    0.109023
  23 H :    0.099863
  24 H :    0.126575
  25 H :    0.121224
  26 H :    0.146042
  27 H :    0.112072
  28 H :    0.197293
  29 H :    0.200321
  30 H :    0.165340
  31 H :    0.158564
  32 H :    0.165305
  33 H :    0.135646
  34 H :    0.242494
  35 H :    0.185216
Sum of atomic charges:    0.0000000

LOEWDIN ATOMIC CHARGES
----------------------
   0 C :    0.102473
   1 C :   -0.014386
   2 O :    0.298739
   3 C :   -0.418898
   4 O :    0.127049
   5 C :   -0.080510
   6 C :   -0.096183
   7 C :    0.127412
   8 N :    0.403206
   9 C :   -0.455632
  10 S :   -0.039339
  11 N :    0.396805
  12 C :   -0.051761
  13 C :   -0.045959
  14 C :    0.016089
  15 C :    0.045909
  16 C :    0.001224
  17 C :   -0.192678
  18 O :    0.398272
  19 C :    0.031102
  20 H :   -0.035857
  21 H :   -0.022127
  22 H :   -0.028723
  23 H :   -0.034504
  24 H :   -0.020047
  25 H :   -0.008643
  26 H :   -0.007284
  27 H :   -0.018411
  28 H :   -0.056722
  29 H :   -0.064796
  30 H :   -0.006082
  31 H :   -0.025386
  32 H :   -0.017317
  33 H :   -0.032870
  34 H :   -0.151627
  35 H :   -0.022538

  Mayer bond orders larger than 0.100000
B(  0-C ,  1-C ) :   0.9539 B(  0-C , 20-H ) :   0.9723 B(  0-C , 21-H ) :   0.9778
B(  0-C , 22-H ) :   0.9750 B(  1-C ,  2-O ) :   0.9061 B(  1-C , 23-H ) :   0.9672
B(  1-C , 24-H ) :   0.9847 B(  2-O ,  3-C ) :   1.2021 B(  3-C ,  4-O ) :   2.1185
B(  3-C ,  5-C ) :   0.8866 B(  5-C ,  6-C ) :   1.7321 B(  5-C , 12-C ) :   0.9508
B(  6-C ,  7-C ) :   0.9541 B(  6-C ,  8-N ) :   1.1123 B(  7-C , 25-H ) :   0.9777
B(  7-C , 26-H ) :   0.9644 B(  7-C , 27-H ) :   0.9713 B(  8-N ,  9-C ) :   1.2063
B(  8-N , 28-H ) :   0.9516 B(  9-C , 10-S ) :   1.6079 B(  9-C , 11-N ) :   1.2796
B( 11-N , 12-C ) :   0.9955 B( 11-N , 29-H ) :   0.9472 B( 12-C , 13-C ) :   0.9350
B( 12-C , 30-H ) :   1.0017 B( 13-C , 14-C ) :   1.3793 B( 13-C , 19-C ) :   1.3481
B( 14-C , 15-C ) :   1.3990 B( 14-C , 31-H ) :   0.9691 B( 15-C , 16-C ) :   1.3633
B( 15-C , 32-H ) :   0.9696 B( 16-C , 17-C ) :   1.3269 B( 16-C , 33-H ) :   0.9835
B( 17-C , 18-O ) :   1.1152 B( 17-C , 19-C ) :   1.3639 B( 18-O , 34-H ) :   0.9781
B( 19-C , 35-H ) :   0.9523

MP2 TOTAL ENERGY:    -1274.327711445 Eh
FINAL SINGLE POINT ENERGY     -1274.327711444817

DIPOLE MOMENT
-------------
                                X             Y             Z
Electronic contribution:      9.28949       5.44120       5.88193
Nuclear contribution   :    -10.68626      -7.10489      -5.60713
                        -----------------------------------------
Total Dipole Moment    :     -1.39677      -1.66369       0.27480
                        -----------------------------------------
Magnitude (a.u.)       :      2.18960
Magnitude (Debye)      :      5.56551

Rotational constants in cm-1:     0.012370     0.009313     0.006715
Rotational constants in MHz :   370.845909   279.205926   201.321730

                             ****ORCA TERMINATED NORMALLY****
TOTAL RUN TIME: 0 days 1 hours 54 minutes 9 seconds 392 msec
