                         Program Version 4.2.0 -  RELEASE  -
|  1> ! ri-mp2 cc-pvtz cc-pvtz/c TightSCF  NoKeepInts
|  2>
|  3> %scf
|  4>   MaxCore 4096
|  5> end
|  6> *xyz  0  1
|  7>     C       14.9467318   14.6089131   16.0479862
|  8>     C       16.1682603   14.3757808   16.9596896
|  9>     O       17.3503987   14.9634959   16.3709735
| 10>     C       17.4012346   16.3087663   16.1412212
| 11>     O       16.9877890   16.7655074   15.0908675
| 12>     C       17.7018129   17.1401174   17.3598662
| 13>     C       17.3547828   18.4501776   17.4422960
| 14>     C       16.5119554   19.2405249   16.4647029
| 15>     N       17.8336370   19.2344066   18.4965757
| 16>     C       18.8392764   18.8551573   19.3465635
| 17>     S       19.5049454   19.9016789   20.4404811
| 18>     N       19.2750855   17.5587602   19.2326222
| 19>     C       18.5854343   16.5132449   18.4542770
| 20>     C       17.8295583   15.6050007   19.4170981
| 21>     C       18.2197624   14.2620361   19.5793935
| 22>     C       17.5253497   13.4175111   20.4617166
| 23>     C       16.4362671   13.9206787   21.1934868
| 24>     C       16.0518664   15.2599995   21.0434684
| 25>     O       15.0005067   15.7489371   21.7474724
| 26>     C       16.7426145   16.0976146   20.1623389
| 27>     H       14.6673125   15.6694188   16.0202610
| 28>     H       14.0820350   14.0426737   16.4143906
| 29>     H       15.1614655   14.2812681   15.0228174
| 30>     H       15.9504250   14.8028118   17.9430748
| 31>     H       16.3270672   13.2971895   17.0862914
| 32>     H       15.5929979   18.6955616   16.2144706
| 33>     H       17.0608101   19.4017420   15.5277795
| 34>     H       16.2149177   20.2217663   16.8529558
| 35>     H       17.5384052   20.1945488   18.5765427
| 36>     H       20.0034650   17.3004129   19.8859755
| 37>     H       19.3557944   15.9123837   17.9502487
| 38>     H       19.0604789   13.8685561   19.0135200
| 39>     H       17.8335212   12.3796522   20.5786531
| 40>     H       15.8980604   13.2723248   21.8774464
| 41>     H       14.7004129   15.0508123   22.3491718
| 42>     H       16.4325619   17.1325684   20.0673034
| 43> *
| 44>
| 45>                          ****END OF INPUT****

CARTESIAN COORDINATES (ANGSTROEM)
---------------------------------
  C     14.946732   14.608913   16.047986
  C     16.168260   14.375781   16.959690
  O     17.350399   14.963496   16.370974
  C     17.401235   16.308766   16.141221
  O     16.987789   16.765507   15.090867
  C     17.701813   17.140117   17.359866
  C     17.354783   18.450178   17.442296
  C     16.511955   19.240525   16.464703
  N     17.833637   19.234407   18.496576
  C     18.839276   18.855157   19.346563
  S     19.504945   19.901679   20.440481
  N     19.275085   17.558760   19.232622
  C     18.585434   16.513245   18.454277
  C     17.829558   15.605001   19.417098
  C     18.219762   14.262036   19.579393
  C     17.525350   13.417511   20.461717
  C     16.436267   13.920679   21.193487
  C     16.051866   15.259999   21.043468
  O     15.000507   15.748937   21.747472
  C     16.742614   16.097615   20.162339
  H     14.667312   15.669419   16.020261
  H     14.082035   14.042674   16.414391
  H     15.161466   14.281268   15.022817
  H     15.950425   14.802812   17.943075
  H     16.327067   13.297189   17.086291
  H     15.592998   18.695562   16.214471
  H     17.060810   19.401742   15.527779
  H     16.214918   20.221766   16.852956
  H     17.538405   20.194549   18.576543
  H     20.003465   17.300413   19.885976
  H     19.355794   15.912384   17.950249
  H     19.060479   13.868556   19.013520
  H     17.833521   12.379652   20.578653
  H     15.898060   13.272325   21.877446
  H     14.700413   15.050812   22.349172
  H     16.432562   17.132568   20.067303

 Total Charge           Charge          ....    0
 Multiplicity           Mult            ....    1
 Number of Electrons    NEL             ....  154
 Basis Dimension        Dim             ....  828

ORBITAL ENERGIES
----------------

  NO   OCC          E(Eh)            E(eV)
   0   2.0000     -91.891709     -2500.5005
   1   2.0000     -20.602324      -560.6177
   2   2.0000     -20.581336      -560.0466
   3   2.0000     -20.549683      -559.1853
   4   2.0000     -15.631807      -425.3631
   5   2.0000     -15.610577      -424.7854
   6   2.0000     -11.393320      -310.0280
   7   2.0000     -11.386258      -309.8358
   8   2.0000     -11.337681      -308.5140
   9   2.0000     -11.320388      -308.0434
  10   2.0000     -11.313916      -307.8673
  11   2.0000     -11.296681      -307.3983
  12   2.0000     -11.264805      -306.5309
  13   2.0000     -11.261465      -306.4400
  14   2.0000     -11.259803      -306.3948
  15   2.0000     -11.254772      -306.2579
  16   2.0000     -11.249449      -306.1131
  17   2.0000     -11.243840      -305.9604
  18   2.0000     -11.243502      -305.9512
  19   2.0000     -11.221241      -305.3455
  20   2.0000      -8.896721      -242.0921
  21   2.0000      -6.578283      -179.0042
  22   2.0000      -6.576292      -178.9500
  23   2.0000      -6.575693      -178.9337
  24   2.0000      -1.444901       -39.3178
  25   2.0000      -1.422033       -38.6955
  26   2.0000      -1.352857       -36.8131
  27   2.0000      -1.343074       -36.5469
  28   2.0000      -1.241490       -33.7827
  29   2.0000      -1.162898       -31.6441
  30   2.0000      -1.122090       -30.5336
  31   2.0000      -1.047230       -28.4966
  32   2.0000      -1.030159       -28.0321
  33   2.0000      -1.021292       -27.7908
  34   2.0000      -0.999593       -27.2003
  35   2.0000      -0.987031       -26.8585
  36   2.0000      -0.926538       -25.2124
  37   2.0000      -0.886913       -24.1341
  38   2.0000      -0.850431       -23.1414
  39   2.0000      -0.844845       -22.9894
  40   2.0000      -0.839755       -22.8509
  41   2.0000      -0.828455       -22.5434
  42   2.0000      -0.751470       -20.4485
  43   2.0000      -0.735860       -20.0238
  44   2.0000      -0.716898       -19.5078
  45   2.0000      -0.701279       -19.0828
  46   2.0000      -0.691995       -18.8301
  47   2.0000      -0.680065       -18.5055
  48   2.0000      -0.667631       -18.1672
  49   2.0000      -0.667069       -18.1519
  50   2.0000      -0.652143       -17.7457
  51   2.0000      -0.649287       -17.6680
  52   2.0000      -0.638748       -17.3812
  53   2.0000      -0.612464       -16.6660
  54   2.0000      -0.610539       -16.6136
  55   2.0000      -0.602584       -16.3971
  56   2.0000      -0.601975       -16.3806
  57   2.0000      -0.582223       -15.8431
  58   2.0000      -0.574197       -15.6247
  59   2.0000      -0.568275       -15.4636
  60   2.0000      -0.556400       -15.1404
  61   2.0000      -0.544118       -14.8062
  62   2.0000      -0.537267       -14.6198
  63   2.0000      -0.529862       -14.4183
  64   2.0000      -0.523586       -14.2475
  65   2.0000      -0.517842       -14.0912
  66   2.0000      -0.505921       -13.7668
  67   2.0000      -0.497156       -13.5283
  68   2.0000      -0.477880       -13.0038
  69   2.0000      -0.466179       -12.6854
  70   2.0000      -0.454808       -12.3760
  71   2.0000      -0.443776       -12.0758
  72   2.0000      -0.359082        -9.7711
  73   2.0000      -0.354352        -9.6424
  74   2.0000      -0.331552        -9.0220
  75   2.0000      -0.327794        -8.9197
  76   2.0000      -0.318628        -8.6703
  77   0.0000       0.068828         1.8729
  78   0.0000       0.100363         2.7310
  79   0.0000       0.121117         3.2958
  80   0.0000       0.127445         3.4680
  81   0.0000       0.131886         3.5888

MULLIKEN ATOMIC CHARGES
-----------------------
   0 C :   -0.273365
   1 C :    0.028039
   2 O :   -0.378595
   3 C :    0.467933
   4 O :   -0.389625
   5 C :   -0.251901
   6 C :    0.151201
   7 C :   -0.271266
   8 N :   -0.126147
   9 C :    0.205942
  10 S :   -0.433280
  11 N :   -0.192276
  12 C :    0.038797
  13 C :    0.030873
  14 C :   -0.161999
  15 C :   -0.134874
  16 C :   -0.273538
  17 C :    0.305005
  18 O :   -0.355801
  19 C :   -0.256223
  20 H :    0.090982
  21 H :    0.096661
  22 H :    0.110266
  23 H :    0.105218
  24 H :    0.110083
  25 H :    0.124903
  26 H :    0.138721
  27 H :    0.094763
  28 H :    0.198598
  29 H :    0.191429
  30 H :    0.149986
  31 H :    0.150524
  32 H :    0.164122
  33 H :    0.134063
  34 H :    0.241749
  35 H :    0.169031
Sum of atomic charges:   -0.0000000

LOEWDIN ATOMIC CHARGES
----------------------
   0 C :    0.105783
   1 C :   -0.018612
   2 O :    0.280771
   3 C :   -0.421131
   4 O :    0.127688
   5 C :   -0.099234
   6 C :   -0.060695
   7 C :    0.130484
   8 N :    0.406566
   9 C :   -0.457525
  10 S :   -0.030814
  11 N :    0.396516
  12 C :   -0.052361
  13 C :   -0.041083
  14 C :    0.016166
  15 C :    0.042634
  16 C :   -0.000645
  17 C :   -0.191268
  18 O :    0.396793
  19 C :    0.029721
  20 H :   -0.031008
  21 H :   -0.028034
  22 H :   -0.022348
  23 H :   -0.036019
  24 H :   -0.022219
  25 H :   -0.007122
  26 H :   -0.002584
  27 H :   -0.022810
  28 H :   -0.057384
  29 H :   -0.065087
  30 H :   -0.005965
  31 H :   -0.028577
  32 H :   -0.019556
  33 H :   -0.034141
  34 H :   -0.152506
  35 H :   -0.024395

  Mayer bond orders larger than 0.100000
B(  0-C ,  1-C ) :   0.9816 B(  0-C , 20-H ) :   0.9732 B(  0-C , 21-H ) :   0.9758
B(  0-C , 22-H ) :   0.9771 B(  1-C ,  2-O ) :   0.8836 B(  1-C , 23-H ) :   0.9633
B(  1-C , 24-H ) :   0.9802 B(  2-O ,  3-C ) :   1.1088 B(  3-C ,  4-O ) :   2.0495
B(  3-C ,  5-C ) :   1.0238 B(  5-C ,  6-C ) :   1.6644 B(  5-C , 12-C ) :   0.9663
B(  6-C ,  7-C ) :   0.9695 B(  6-C ,  8-N ) :   1.1483 B(  7-C , 25-H ) :   0.9674
B(  7-C , 26-H ) :   0.9553 B(  7-C , 27-H ) :   0.9871 B(  8-N ,  9-C ) :   1.1777
B(  8-N , 28-H ) :   0.9487 B(  9-C , 10-S ) :   1.6188 B(  9-C , 11-N ) :   1.2981
B( 11-N , 12-C ) :   0.9820 B( 11-N , 29-H ) :   0.9542 B( 12-C , 13-C ) :   0.9483
B( 12-C , 30-H ) :   1.0032 B( 13-C , 14-C ) :   1.3621 B( 13-C , 19-C ) :   1.3684
B( 14-C , 15-C ) :   1.3847 B( 14-C , 31-H ) :   0.9730 B( 15-C , 16-C ) :   1.3684
B( 15-C , 32-H ) :   0.9697 B( 16-C , 17-C ) :   1.3268 B( 16-C , 33-H ) :   0.9834
B( 17-C , 18-O ) :   1.1154 B( 17-C , 19-C ) :   1.3777 B( 18-O , 34-H ) :   0.9789
B( 19-C , 35-H ) :   0.9569

MP2 TOTAL ENERGY:    -1274.328676634 Eh
FINAL SINGLE POINT ENERGY     -1274.328676634232

DIPOLE MOMENT
-------------
                                X             Y             Z
Electronic contribution:     10.77995       8.44515       7.01992
Nuclear contribution   :    -11.93794     -10.00832      -6.68385
                        -----------------------------------------
Total Dipole Moment    :     -1.15799      -1.56317       0.33607
                        -----------------------------------------
Magnitude (a.u.)       :      1.97418
Magnitude (Debye)      :      5.01796

Rotational constants in cm-1:     0.011477     0.009636     0.006459
Rotational constants in MHz :   344.057955   288.882833   193.644656

                             ****ORCA TERMINATED NORMALLY****
TOTAL RUN TIME: 0 days 1 hours 53 minutes 56 seconds 731 msec
