                         Program Version 5.0.0 -  RELEASE  -
|  1> ! ri-mp2 cc-pvtz cc-pvtz/c TightSCF NoKeepInts
|  2>
|  3> %scf
|  4>   MaxCore 4096
|  5> end
|  6> *xyz  0  1
|  7>     C       15.1413682   13.9402916   16.7073386
|  8>     C       16.5232348   13.9968788   16.0210198
|  9>     O       17.3112609   15.0613284   16.5876943
| 10>     C       16.9095490   16.3656976   16.4880367
| 11>     O       16.0876956   16.7357817   15.6665422
| 12>     C       17.6307728   17.2677322   17.4504042
| 13>     C       17.4963522   18.6178654   17.4250537
| 14>     C       16.6544289   19.4368035   16.4701920
| 15>     N       18.2042508   19.4102830   18.3335683
| 16>     C       19.1176186   18.9408105   19.2392502
| 17>     S       19.9667944   19.9560610   20.2312820
| 18>     N       19.2938423   17.5814091   19.2833944
| 19>     C       18.5116464   16.5951966   18.5157741
| 20>     C       17.6861691   15.7335395   19.4673530
| 21>     C       17.9767041   14.3653901   19.6255937
| 22>     C       17.2098144   13.5669488   20.4907420
| 23>     C       16.1451460   14.1413566   21.2058704
| 24>     C       15.8561787   15.5044918   21.0544014
| 25>     O       14.8290283   16.0620097   21.7436150
| 26>     C       16.6210338   16.2964814   20.1925716
| 27>     H       15.2534900   13.8934125   17.7981347
| 28>     H       14.5912912   13.0492205   16.3821275
| 29>     H       14.5313115   14.8172512   16.4588605
| 30>     H       17.0427643   13.0423782   16.1737450
| 31>     H       16.3974261   14.1487515   14.9404089
| 32>     H       16.9427163   19.2349739   15.4307070
| 33>     H       16.7464699   20.5167316   16.6346512
| 34>     H       15.5933879   19.1749288   16.5716718
| 35>     H       18.0875631   20.4108468   18.3165920
| 36>     H       19.9442746   17.2628612   19.9900086
| 37>     H       19.2293080   15.9472058   17.9932505
| 38>     H       18.7946428   13.9173680   19.0678219
| 39>     H       17.4407487   12.5092136   20.6042489
| 40>     H       15.5499252   13.5289886   21.8752005
| 41>     H       14.4443914   15.3710880   22.3035028
| 42>     H       16.3843998   17.3504224   20.0933708
| 43> *
| 44>
| 45>                          ****END OF INPUT****

CARTESIAN COORDINATES (ANGSTROEM)
---------------------------------
  C     15.141368   13.940292   16.707339
  C     16.523235   13.996879   16.021020
  O     17.311261   15.061328   16.587694
  C     16.909549   16.365698   16.488037
  O     16.087696   16.735782   15.666542
  C     17.630773   17.267732   17.450404
  C     17.496352   18.617865   17.425054
  C     16.654429   19.436803   16.470192
  N     18.204251   19.410283   18.333568
  C     19.117619   18.940811   19.239250
  S     19.966794   19.956061   20.231282
  N     19.293842   17.581409   19.283394
  C     18.511646   16.595197   18.515774
  C     17.686169   15.733539   19.467353
  C     17.976704   14.365390   19.625594
  C     17.209814   13.566949   20.490742
  C     16.145146   14.141357   21.205870
  C     15.856179   15.504492   21.054401
  O     14.829028   16.062010   21.743615
  C     16.621034   16.296481   20.192572
  H     15.253490   13.893412   17.798135
  H     14.591291   13.049221   16.382127
  H     14.531311   14.817251   16.458861
  H     17.042764   13.042378   16.173745
  H     16.397426   14.148751   14.940409
  H     16.942716   19.234974   15.430707
  H     16.746470   20.516732   16.634651
  H     15.593388   19.174929   16.571672
  H     18.087563   20.410847   18.316592
  H     19.944275   17.262861   19.990009
  H     19.229308   15.947206   17.993250
  H     18.794643   13.917368   19.067822
  H     17.440749   12.509214   20.604249
  H     15.549925   13.528989   21.875200
  H     14.444391   15.371088   22.303503
  H     16.384400   17.350422   20.093371

 Total Charge           Charge          ....    0
 Multiplicity           Mult            ....    1
 Number of Electrons    NEL             ....  154
 Basis Dimension        Dim             ....  828

ORBITAL ENERGIES
----------------

  NO   OCC          E(Eh)            E(eV)
   0   2.0000     -91.888762     -2500.4203
   1   2.0000     -20.599410      -560.5384
   2   2.0000     -20.597124      -560.4762
   3   2.0000     -20.541556      -558.9642
   4   2.0000     -15.628877      -425.2834
   5   2.0000     -15.608253      -424.7222
   6   2.0000     -11.395204      -310.0793
   7   2.0000     -11.383984      -309.7740
   8   2.0000     -11.335819      -308.4633
   9   2.0000     -11.314473      -307.8825
  10   2.0000     -11.308730      -307.7262
  11   2.0000     -11.298091      -307.4367
  12   2.0000     -11.260124      -306.4035
  13   2.0000     -11.258720      -306.3653
  14   2.0000     -11.255757      -306.2847
  15   2.0000     -11.251999      -306.1825
  16   2.0000     -11.243875      -305.9614
  17   2.0000     -11.239175      -305.8335
  18   2.0000     -11.238672      -305.8198
  19   2.0000     -11.221461      -305.3515
  20   2.0000      -8.893828      -242.0134
  21   2.0000      -6.575403      -178.9258
  22   2.0000      -6.573397      -178.8712
  23   2.0000      -6.572811      -178.8553
  24   2.0000      -1.449632       -39.4465
  25   2.0000      -1.416811       -38.5534
  26   2.0000      -1.353988       -36.8439
  27   2.0000      -1.339842       -36.4590
  28   2.0000      -1.238404       -33.6987
  29   2.0000      -1.158295       -31.5188
  30   2.0000      -1.120569       -30.4922
  31   2.0000      -1.043065       -28.3832
  32   2.0000      -1.034547       -28.1515
  33   2.0000      -1.015676       -27.6379
  34   2.0000      -0.995296       -27.0834
  35   2.0000      -0.984153       -26.7802
  36   2.0000      -0.922635       -25.1062
  37   2.0000      -0.895602       -24.3706
  38   2.0000      -0.847031       -23.0489
  39   2.0000      -0.838085       -22.8055
  40   2.0000      -0.834615       -22.7110
  41   2.0000      -0.816054       -22.2060
  42   2.0000      -0.752393       -20.4737
  43   2.0000      -0.732802       -19.9406
  44   2.0000      -0.723106       -19.6767
  45   2.0000      -0.696215       -18.9450
  46   2.0000      -0.688683       -18.7400
  47   2.0000      -0.678089       -18.4518
  48   2.0000      -0.670950       -18.2575
  49   2.0000      -0.660128       -17.9630
  50   2.0000      -0.649046       -17.6614
  51   2.0000      -0.640910       -17.4401
  52   2.0000      -0.632510       -17.2115
  53   2.0000      -0.613501       -16.6942
  54   2.0000      -0.607213       -16.5231
  55   2.0000      -0.600316       -16.3354
  56   2.0000      -0.599027       -16.3004
  57   2.0000      -0.577867       -15.7246
  58   2.0000      -0.570718       -15.5300
  59   2.0000      -0.568338       -15.4653
  60   2.0000      -0.559405       -15.2222
  61   2.0000      -0.543269       -14.7831
  62   2.0000      -0.534348       -14.5404
  63   2.0000      -0.526195       -14.3185
  64   2.0000      -0.524619       -14.2756
  65   2.0000      -0.513218       -13.9654
  66   2.0000      -0.501616       -13.6497
  67   2.0000      -0.499929       -13.6038
  68   2.0000      -0.482252       -13.1227
  69   2.0000      -0.464468       -12.6388
  70   2.0000      -0.454709       -12.3733
  71   2.0000      -0.445765       -12.1299
  72   2.0000      -0.354081        -9.6350
  73   2.0000      -0.350101        -9.5267
  74   2.0000      -0.328227        -8.9315
  75   2.0000      -0.321936        -8.7603
  76   2.0000      -0.316138        -8.6025
  77   0.0000       0.076234         2.0744
  78   0.0000       0.106010         2.8847
  79   0.0000       0.125037         3.4024
  80   0.0000       0.132372         3.6020
  81   0.0000       0.137928         3.7532

MULLIKEN ATOMIC CHARGES
-----------------------
   0 C :   -0.312848
   1 C :    0.022717
   2 O :   -0.359672
   3 C :    0.470188
   4 O :   -0.436570
   5 C :   -0.226032
   6 C :    0.152583
   7 C :   -0.273224
   8 N :   -0.120378
   9 C :    0.211777
  10 S :   -0.440438
  11 N :   -0.206035
  12 C :    0.064476
  13 C :    0.054382
  14 C :   -0.186260
  15 C :   -0.134373
  16 C :   -0.278077
  17 C :    0.313949
  18 O :   -0.356541
  19 C :   -0.262433
  20 H :    0.109454
  21 H :    0.097371
  22 H :    0.119396
  23 H :    0.112817
  24 H :    0.113808
  25 H :    0.131209
  26 H :    0.095303
  27 H :    0.131727
  28 H :    0.197010
  29 H :    0.195098
  30 H :    0.150631
  31 H :    0.151291
  32 H :    0.160402
  33 H :    0.130687
  34 H :    0.240722
  35 H :    0.165883
Sum of atomic charges:   -0.0000000

LOEWDIN ATOMIC CHARGES
----------------------
   0 C :    0.104956
   1 C :   -0.016881
   2 O :    0.304805
   3 C :   -0.413104
   4 O :    0.097064
   5 C :   -0.094088
   6 C :   -0.059297
   7 C :    0.131616
   8 N :    0.406531
   9 C :   -0.456179
  10 S :   -0.035848
  11 N :    0.396478
  12 C :   -0.051882
  13 C :   -0.039576
  14 C :    0.014165
  15 C :    0.038694
  16 C :   -0.002154
  17 C :   -0.190046
  18 O :    0.395627
  19 C :    0.031562
  20 H :   -0.026210
  21 H :   -0.027724
  22 H :   -0.026139
  23 H :   -0.025108
  24 H :   -0.027950
  25 H :   -0.003880
  26 H :   -0.023406
  27 H :   -0.004705
  28 H :   -0.057596
  29 H :   -0.064527
  30 H :   -0.011342
  31 H :   -0.029889
  32 H :   -0.021354
  33 H :   -0.035410
  34 H :   -0.153797
  35 H :   -0.023407

  Mayer bond orders larger than 0.100000
B(  0-C ,  1-C ) :   0.9583 B(  0-C , 20-H ) :   0.9709 B(  0-C , 21-H ) :   0.9777
B(  0-C , 22-H ) :   0.9745 B(  1-C ,  2-O ) :   0.8959 B(  1-C , 23-H ) :   0.9845
B(  1-C , 24-H ) :   0.9828 B(  2-O ,  3-C ) :   1.1607 B(  3-C ,  4-O ) :   1.9647
B(  3-C ,  5-C ) :   1.0600 B(  5-C ,  6-C ) :   1.6545 B(  5-C , 12-C ) :   0.9714
B(  6-C ,  7-C ) :   0.9661 B(  6-C ,  8-N ) :   1.1655 B(  7-C , 25-H ) :   0.9606
B(  7-C , 26-H ) :   0.9903 B(  7-C , 27-H ) :   0.9604 B(  8-N ,  9-C ) :   1.1837
B(  8-N , 28-H ) :   0.9478 B(  9-C , 10-S ) :   1.6066 B(  9-C , 11-N ) :   1.3056
B( 11-N , 12-C ) :   0.9885 B( 11-N , 29-H ) :   0.9512 B( 12-C , 13-C ) :   0.9347
B( 12-C , 30-H ) :   1.0019 B( 13-C , 14-C ) :   1.3555 B( 13-C , 19-C ) :   1.3837
B( 14-C , 15-C ) :   1.3919 B( 14-C , 31-H ) :   0.9716 B( 15-C , 16-C ) :   1.3604
B( 15-C , 32-H ) :   0.9712 B( 16-C , 17-C ) :   1.3315 B( 16-C , 33-H ) :   0.9851
B( 17-C , 18-O ) :   1.1109 B( 17-C , 19-C ) :   1.3707 B( 18-O , 34-H ) :   0.9798
B( 19-C , 35-H ) :   0.9578

MP2 TOTAL ENERGY:    -1274.350452178 Eh
FINAL SINGLE POINT ENERGY     -1274.350452178149

DIPOLE MOMENT
-------------
                                X             Y             Z
Electronic contribution:      9.67454      10.41898       7.32816
Nuclear contribution   :    -10.60793     -12.18544      -7.72422
                        -----------------------------------------
Total Dipole Moment    :     -0.93338      -1.76646      -0.39606
                        -----------------------------------------
Magnitude (a.u.)       :      2.03677
Magnitude (Debye)      :      5.17706

Rotational constants in cm-1:     0.012300     0.008683     0.006286
Rotational constants in MHz :   368.736974   260.320661   188.446953

                             ****ORCA TERMINATED NORMALLY****
TOTAL RUN TIME: 0 days 2 hours 5 minutes 1 seconds 881 msec
