                         Program Version 4.2.0 -  RELEASE  -
|  1> ! ri-mp2 cc-pvtz cc-pvtz/c TightSCF  NoKeepInts
|  2>
|  3> %scf
|  4>   MaxCore 4096
|  5> end
|  6> *xyz  0  1
|  7>     C       15.3907049   14.0675950   17.0049682
|  8>     C       15.3107800   15.4524900   16.3284977
|  9>     O       16.5727108   15.8396133   15.7405499
| 10>     C       17.7203951   15.7682301   16.4751745
| 11>     O       18.3357603   14.7235844   16.5998966
| 12>     C       17.9431085   16.9476005   17.3743910
| 13>     C       17.5148080   18.2074637   17.1065920
| 14>     C       16.7937002   18.6962717   15.8673770
| 15>     N       17.8014491   19.2432940   18.0008777
| 16>     C       18.6062515   19.1264790   19.1034551
| 17>     S       18.9712966   20.4282327   20.0558367
| 18>     N       19.0926153   17.8730797   19.3775354
| 19>     C       18.7088825   16.6402920   18.6642642
| 20>     C       17.8869265   15.7312971   19.5727025
| 21>     C       18.2971212   14.4080317   19.8178824
| 22>     C       17.5309628   13.5611788   20.6362252
| 23>     C       16.3427453   14.0402617   21.2136514
| 24>     C       15.9292834   15.3567076   20.9690805
| 25>     O       14.7766930   15.8192899   21.5152556
| 26>     C       16.6941912   16.1976858   20.1549440
| 27>     H       15.8039871   13.3216987   16.3141701
| 28>     H       14.3923582   13.7333387   17.3112883
| 29>     H       16.0215504   14.0951764   17.9016349
| 30>     H       14.5431339   15.4291998   15.5443364
| 31>     H       15.0042835   16.1954768   17.0766353
| 32>     H       17.2126947   18.2380003   14.9624445
| 33>     H       16.8765035   19.7823769   15.7374014
| 34>     H       15.7271683   18.4456349   15.9098096
| 35>     H       17.4588886   20.1725874   17.8151387
| 36>     H       19.6604197   17.8096562   20.2128914
| 37>     H       19.6324955   16.1111388   18.3875941
| 38>     H       19.2041658   14.0282340   19.3536158
| 39>     H       17.8556532   12.5370939   20.8122330
| 40>     H       15.7463604   13.3878645   21.8428255
| 41>     H       14.4285224   15.1215474   22.0909028
| 42>     H       16.3584283   17.2142968   19.9819205
| 43> *
| 44>
| 45>                          ****END OF INPUT****

CARTESIAN COORDINATES (ANGSTROEM)
---------------------------------
  C     15.390705   14.067595   17.004968
  C     15.310780   15.452490   16.328498
  O     16.572711   15.839613   15.740550
  C     17.720395   15.768230   16.475175
  O     18.335760   14.723584   16.599897
  C     17.943108   16.947600   17.374391
  C     17.514808   18.207464   17.106592
  C     16.793700   18.696272   15.867377
  N     17.801449   19.243294   18.000878
  C     18.606251   19.126479   19.103455
  S     18.971297   20.428233   20.055837
  N     19.092615   17.873080   19.377535
  C     18.708883   16.640292   18.664264
  C     17.886927   15.731297   19.572702
  C     18.297121   14.408032   19.817882
  C     17.530963   13.561179   20.636225
  C     16.342745   14.040262   21.213651
  C     15.929283   15.356708   20.969081
  O     14.776693   15.819290   21.515256
  C     16.694191   16.197686   20.154944
  H     15.803987   13.321699   16.314170
  H     14.392358   13.733339   17.311288
  H     16.021550   14.095176   17.901635
  H     14.543134   15.429200   15.544336
  H     15.004283   16.195477   17.076635
  H     17.212695   18.238000   14.962445
  H     16.876503   19.782377   15.737401
  H     15.727168   18.445635   15.909810
  H     17.458889   20.172587   17.815139
  H     19.660420   17.809656   20.212891
  H     19.632496   16.111139   18.387594
  H     19.204166   14.028234   19.353616
  H     17.855653   12.537094   20.812233
  H     15.746360   13.387864   21.842825
  H     14.428522   15.121547   22.090903
  H     16.358428   17.214297   19.981921

 Total Charge           Charge          ....    0
 Multiplicity           Mult            ....    1
 Number of Electrons    NEL             ....  154
 Basis Dimension        Dim             ....  828

ORBITAL ENERGIES
----------------

  NO   OCC          E(Eh)            E(eV)
   0   2.0000     -91.890197     -2500.4594
   1   2.0000     -20.597779      -560.4941
   2   2.0000     -20.583967      -560.1182
   3   2.0000     -20.553773      -559.2966
   4   2.0000     -15.630396      -425.3247
   5   2.0000     -15.609453      -424.7548
   6   2.0000     -11.394670      -310.0647
   7   2.0000     -11.385637      -309.8189
   8   2.0000     -11.337226      -308.5016
   9   2.0000     -11.314175      -307.8744
  10   2.0000     -11.308832      -307.7290
  11   2.0000     -11.305480      -307.6377
  12   2.0000     -11.262119      -306.4578
  13   2.0000     -11.260779      -306.4214
  14   2.0000     -11.259289      -306.3808
  15   2.0000     -11.254053      -306.2383
  16   2.0000     -11.243690      -305.9564
  17   2.0000     -11.239741      -305.8489
  18   2.0000     -11.236684      -305.7657
  19   2.0000     -11.221522      -305.3531
  20   2.0000      -8.895268      -242.0526
  21   2.0000      -6.576844      -178.9650
  22   2.0000      -6.574836      -178.9104
  23   2.0000      -6.574249      -178.8944
  24   2.0000      -1.447374       -39.3850
  25   2.0000      -1.417551       -38.5735
  26   2.0000      -1.356870       -36.9223
  27   2.0000      -1.341505       -36.5042
  28   2.0000      -1.239572       -33.7305
  29   2.0000      -1.158305       -31.5191
  30   2.0000      -1.122399       -30.5420
  31   2.0000      -1.045508       -28.4497
  32   2.0000      -1.030735       -28.0477
  33   2.0000      -1.015690       -27.6383
  34   2.0000      -1.001610       -27.2552
  35   2.0000      -0.986521       -26.8446
  36   2.0000      -0.925324       -25.1793
  37   2.0000      -0.889680       -24.2094
  38   2.0000      -0.851771       -23.1779
  39   2.0000      -0.840545       -22.8724
  40   2.0000      -0.834172       -22.6990
  41   2.0000      -0.826694       -22.4955
  42   2.0000      -0.745417       -20.2838
  43   2.0000      -0.730143       -19.8682
  44   2.0000      -0.728777       -19.8310
  45   2.0000      -0.695738       -18.9320
  46   2.0000      -0.686306       -18.6753
  47   2.0000      -0.680368       -18.5138
  48   2.0000      -0.675273       -18.3751
  49   2.0000      -0.666368       -18.1328
  50   2.0000      -0.649794       -17.6818
  51   2.0000      -0.648045       -17.6342
  52   2.0000      -0.637884       -17.3577
  53   2.0000      -0.615193       -16.7402
  54   2.0000      -0.606683       -16.5087
  55   2.0000      -0.603809       -16.4305
  56   2.0000      -0.600889       -16.3510
  57   2.0000      -0.579349       -15.7649
  58   2.0000      -0.575333       -15.6556
  59   2.0000      -0.567780       -15.4501
  60   2.0000      -0.554025       -15.0758
  61   2.0000      -0.550613       -14.9829
  62   2.0000      -0.536801       -14.6071
  63   2.0000      -0.527869       -14.3640
  64   2.0000      -0.520752       -14.1704
  65   2.0000      -0.512213       -13.9380
  66   2.0000      -0.500969       -13.6321
  67   2.0000      -0.490169       -13.3382
  68   2.0000      -0.484098       -13.1730
  69   2.0000      -0.466682       -12.6991
  70   2.0000      -0.457491       -12.4489
  71   2.0000      -0.449054       -12.2194
  72   2.0000      -0.356640        -9.7047
  73   2.0000      -0.350104        -9.5268
  74   2.0000      -0.329519        -8.9667
  75   2.0000      -0.321439        -8.7468
  76   2.0000      -0.317686        -8.6447
  77   0.0000       0.070820         1.9271
  78   0.0000       0.103604         2.8192
  79   0.0000       0.119246         3.2448
  80   0.0000       0.130582         3.5533
  81   0.0000       0.138036         3.7561

MULLIKEN ATOMIC CHARGES
-----------------------
   0 C :   -0.282675
   1 C :    0.020105
   2 O :   -0.376356
   3 C :    0.459468
   4 O :   -0.389432
   5 C :   -0.232448
   6 C :    0.159270
   7 C :   -0.288205
   8 N :   -0.125096
   9 C :    0.203381
  10 S :   -0.438161
  11 N :   -0.201516
  12 C :    0.059814
  13 C :    0.020356
  14 C :   -0.155117
  15 C :   -0.134370
  16 C :   -0.274560
  17 C :    0.305979
  18 O :   -0.359870
  19 C :   -0.265590
  20 H :    0.113106
  21 H :    0.096188
  22 H :    0.112762
  23 H :    0.116824
  24 H :    0.085020
  25 H :    0.134274
  26 H :    0.108929
  27 H :    0.120707
  28 H :    0.197285
  29 H :    0.194703
  30 H :    0.154802
  31 H :    0.156167
  32 H :    0.161110
  33 H :    0.131371
  34 H :    0.241535
  35 H :    0.170240
Sum of atomic charges:   -0.0000000

LOEWDIN ATOMIC CHARGES
----------------------
   0 C :    0.109338
   1 C :   -0.020499
   2 O :    0.284613
   3 C :   -0.418808
   4 O :    0.131457
   5 C :   -0.095203
   6 C :   -0.072283
   7 C :    0.126810
   8 N :    0.404693
   9 C :   -0.457930
  10 S :   -0.034817
  11 N :    0.397410
  12 C :   -0.046313
  13 C :   -0.042811
  14 C :    0.021624
  15 C :    0.042649
  16 C :   -0.001041
  17 C :   -0.193667
  18 O :    0.393846
  19 C :    0.027584
  20 H :   -0.021878
  21 H :   -0.027095
  22 H :   -0.025410
  23 H :   -0.022255
  24 H :   -0.038984
  25 H :   -0.005843
  26 H :   -0.018752
  27 H :   -0.012231
  28 H :   -0.058365
  29 H :   -0.063698
  30 H :   -0.004512
  31 H :   -0.024211
  32 H :   -0.019794
  33 H :   -0.035171
  34 H :   -0.153467
  35 H :   -0.024987

  Mayer bond orders larger than 0.100000
B(  0-C ,  1-C ) :   0.9808 B(  0-C , 20-H ) :   0.9739 B(  0-C , 21-H ) :   0.9757
B(  0-C , 22-H ) :   0.9663 B(  1-C ,  2-O ) :   0.8992 B(  1-C , 23-H ) :   0.9782
B(  1-C , 24-H ) :   0.9713 B(  2-O ,  3-C ) :   1.0944 B(  3-C ,  4-O ) :   2.0574
B(  3-C ,  5-C ) :   1.0023 B(  5-C ,  6-C ) :   1.6597 B(  5-C , 12-C ) :   0.9669
B(  6-C ,  7-C ) :   0.9501 B(  6-C ,  8-N ) :   1.1457 B(  7-C , 25-H ) :   0.9673
B(  7-C , 26-H ) :   0.9875 B(  7-C , 27-H ) :   0.9661 B(  8-N ,  9-C ) :   1.1822
B(  8-N , 28-H ) :   0.9491 B(  9-C , 10-S ) :   1.6118 B(  9-C , 11-N ) :   1.3018
B( 11-N , 12-C ) :   0.9931 B( 11-N , 29-H ) :   0.9518 B( 12-C , 13-C ) :   0.9416
B( 12-C , 30-H ) :   0.9984 B( 13-C , 14-C ) :   1.3815 B( 13-C , 19-C ) :   1.3690
B( 14-C , 15-C ) :   1.3925 B( 14-C , 31-H ) :   0.9646 B( 15-C , 16-C ) :   1.3631
B( 15-C , 32-H ) :   0.9715 B( 16-C , 17-C ) :   1.3320 B( 16-C , 33-H ) :   0.9848
B( 17-C , 18-O ) :   1.1107 B( 17-C , 19-C ) :   1.3705 B( 18-O , 34-H ) :   0.9795
B( 19-C , 35-H ) :   0.9574

MP2 TOTAL ENERGY:    -1274.331706192 Eh
FINAL SINGLE POINT ENERGY     -1274.331706192231

DIPOLE MOMENT
-------------
                                X             Y             Z
Electronic contribution:      9.87009       9.23054       6.08852
Nuclear contribution   :    -11.34675     -10.23960      -6.55462
                        -----------------------------------------
Total Dipole Moment    :     -1.47666      -1.00906      -0.46609
                        -----------------------------------------
Magnitude (a.u.)       :      1.84823
Magnitude (Debye)      :      4.69783

Rotational constants in cm-1:     0.012236     0.009275     0.006706
Rotational constants in MHz :   366.829919   278.053565   201.027390

                             ****ORCA TERMINATED NORMALLY****
TOTAL RUN TIME: 0 days 1 hours 46 minutes 28 seconds 840 msec
