                         Program Version 4.2.0 -  RELEASE  -
|  1> ! ri-mp2 cc-pvtz cc-pvtz/c TightSCF  NoKeepInts
|  2>
|  3> %scf
|  4>   MaxCore 4096
|  5> end
|  6> *xyz  0  1
|  7>     C       15.0110714   15.8243710   17.3933538
|  8>     C       15.5683434   15.1837045   16.1045040
|  9>     O       16.9863489   14.8827266   16.1251267
| 10>     C       18.0927356   15.6252197   16.4750799
| 11>     O       19.1776022   15.0765947   16.4146881
| 12>     C       17.9261740   16.7799699   17.4033608
| 13>     C       17.4242946   17.9598888   16.9713772
| 14>     C       16.9100682   18.2744833   15.5818344
| 15>     N       17.4186854   19.0686500   17.8202113
| 16>     C       18.0407358   19.1161557   19.0404290
| 17>     S       18.0589743   20.4954516   19.9522625
| 18>     N       18.6527151   17.9626268   19.4659219
| 19>     C       18.5809376   16.6547873   18.7822819
| 20>     C       17.8886762   15.6007376   19.6438477
| 21>     C       18.2992280   14.2569390   19.5658076
| 22>     C       17.6716036   13.2675042   20.3403746
| 23>     C       16.6222264   13.6224562   21.2043083
| 24>     C       16.2077966   14.9583540   21.2858443
| 25>     O       15.1873503   15.3026221   22.1109380
| 26>     C       16.8337680   15.9419071   20.5131655
| 27>     H       15.4266755   15.3293073   18.2772802
| 28>     H       13.9239376   15.6833533   17.4290106
| 29>     H       15.1839878   16.8995537   17.4608746
| 30>     H       15.0313920   14.2423162   15.9289039
| 31>     H       15.3431044   15.8402500   15.2547924
| 32>     H       17.1906338   17.5076422   14.8497724
| 33>     H       17.3278219   19.2211467   15.2156451
| 34>     H       15.8172808   18.3655557   15.5746551
| 35>     H       16.9945779   19.9312121   17.5169342
| 36>     H       19.0956325   18.0240222   20.3740104
| 37>     H       19.6150607   16.3147079   18.6227042
| 38>     H       19.1050897   13.9760595   18.8905319
| 39>     H       17.9981304   12.2316380   20.2652178
| 40>     H       16.1335421   12.8607344   21.8027376
| 41>     H       14.9158833   14.5030063   22.5864031
| 42>     H       16.4849140   16.9663444   20.5898092
| 43> *
| 44>
| 45>                          ****END OF INPUT****

CARTESIAN COORDINATES (ANGSTROEM)
---------------------------------
  C     15.011071   15.824371   17.393354
  C     15.568343   15.183704   16.104504
  O     16.986349   14.882727   16.125127
  C     18.092736   15.625220   16.475080
  O     19.177602   15.076595   16.414688
  C     17.926174   16.779970   17.403361
  C     17.424295   17.959889   16.971377
  C     16.910068   18.274483   15.581834
  N     17.418685   19.068650   17.820211
  C     18.040736   19.116156   19.040429
  S     18.058974   20.495452   19.952262
  N     18.652715   17.962627   19.465922
  C     18.580938   16.654787   18.782282
  C     17.888676   15.600738   19.643848
  C     18.299228   14.256939   19.565808
  C     17.671604   13.267504   20.340375
  C     16.622226   13.622456   21.204308
  C     16.207797   14.958354   21.285844
  O     15.187350   15.302622   22.110938
  C     16.833768   15.941907   20.513165
  H     15.426675   15.329307   18.277280
  H     13.923938   15.683353   17.429011
  H     15.183988   16.899554   17.460875
  H     15.031392   14.242316   15.928904
  H     15.343104   15.840250   15.254792
  H     17.190634   17.507642   14.849772
  H     17.327822   19.221147   15.215645
  H     15.817281   18.365556   15.574655
  H     16.994578   19.931212   17.516934
  H     19.095633   18.024022   20.374010
  H     19.615061   16.314708   18.622704
  H     19.105090   13.976059   18.890532
  H     17.998130   12.231638   20.265218
  H     16.133542   12.860734   21.802738
  H     14.915883   14.503006   22.586403
  H     16.484914   16.966344   20.589809

 Total Charge           Charge          ....    0
 Multiplicity           Mult            ....    1
 Number of Electrons    NEL             ....  154
 Basis Dimension        Dim             ....  828

ORBITAL ENERGIES
----------------

  NO   OCC          E(Eh)            E(eV)
   0   2.0000     -91.889881     -2500.4508
   1   2.0000     -20.598461      -560.5126
   2   2.0000     -20.597549      -560.4878
   3   2.0000     -20.548616      -559.1563
   4   2.0000     -15.627088      -425.2347
   5   2.0000     -15.611066      -424.7987
   6   2.0000     -11.400034      -310.2107
   7   2.0000     -11.386531      -309.8433
   8   2.0000     -11.328170      -308.2552
   9   2.0000     -11.314475      -307.8825
  10   2.0000     -11.314335      -307.8787
  11   2.0000     -11.312284      -307.8229
  12   2.0000     -11.271685      -306.7181
  13   2.0000     -11.264905      -306.5336
  14   2.0000     -11.262249      -306.4614
  15   2.0000     -11.254782      -306.2582
  16   2.0000     -11.243642      -305.9551
  17   2.0000     -11.239399      -305.8396
  18   2.0000     -11.236218      -305.7530
  19   2.0000     -11.232370      -305.6483
  20   2.0000      -8.894987      -242.0449
  21   2.0000      -6.576577      -178.9578
  22   2.0000      -6.574550      -178.9026
  23   2.0000      -6.573976      -178.8870
  24   2.0000      -1.444343       -39.3026
  25   2.0000      -1.417371       -38.5686
  26   2.0000      -1.355053       -36.8729
  27   2.0000      -1.340189       -36.4684
  28   2.0000      -1.239635       -33.7322
  29   2.0000      -1.158951       -31.5367
  30   2.0000      -1.125199       -30.6182
  31   2.0000      -1.047911       -28.5151
  32   2.0000      -1.040614       -28.3165
  33   2.0000      -1.017318       -27.6826
  34   2.0000      -1.005143       -27.3513
  35   2.0000      -0.990194       -26.9445
  36   2.0000      -0.927781       -25.2462
  37   2.0000      -0.900206       -24.4958
  38   2.0000      -0.853980       -23.2380
  39   2.0000      -0.840340       -22.8668
  40   2.0000      -0.834171       -22.6989
  41   2.0000      -0.828875       -22.5548
  42   2.0000      -0.746422       -20.3112
  43   2.0000      -0.737065       -20.0565
  44   2.0000      -0.730524       -19.8786
  45   2.0000      -0.694668       -18.9029
  46   2.0000      -0.686794       -18.6886
  47   2.0000      -0.677911       -18.4469
  48   2.0000      -0.674361       -18.3503
  49   2.0000      -0.663455       -18.0535
  50   2.0000      -0.653642       -17.7865
  51   2.0000      -0.651989       -17.7415
  52   2.0000      -0.641105       -17.4454
  53   2.0000      -0.613934       -16.7060
  54   2.0000      -0.608206       -16.5501
  55   2.0000      -0.604251       -16.4425
  56   2.0000      -0.601743       -16.3743
  57   2.0000      -0.592998       -16.1363
  58   2.0000      -0.580899       -15.8071
  59   2.0000      -0.574342       -15.6286
  60   2.0000      -0.565464       -15.3871
  61   2.0000      -0.558360       -15.1937
  62   2.0000      -0.542346       -14.7580
  63   2.0000      -0.528950       -14.3934
  64   2.0000      -0.517077       -14.0704
  65   2.0000      -0.513484       -13.9726
  66   2.0000      -0.501660       -13.6509
  67   2.0000      -0.501044       -13.6341
  68   2.0000      -0.484267       -13.1776
  69   2.0000      -0.464677       -12.6445
  70   2.0000      -0.453751       -12.3472
  71   2.0000      -0.450658       -12.2630
  72   2.0000      -0.355820        -9.6824
  73   2.0000      -0.348484        -9.4827
  74   2.0000      -0.329530        -8.9670
  75   2.0000      -0.322802        -8.7839
  76   2.0000      -0.318112        -8.6563
  77   0.0000       0.086965         2.3664
  78   0.0000       0.106356         2.8941
  79   0.0000       0.112626         3.0647
  80   0.0000       0.128911         3.5079
  81   0.0000       0.131259         3.5717

MULLIKEN ATOMIC CHARGES
-----------------------
   0 C :   -0.340083
   1 C :    0.036088
   2 O :   -0.327684
   3 C :    0.403062
   4 O :   -0.379876
   5 C :   -0.171390
   6 C :    0.127582
   7 C :   -0.330135
   8 N :   -0.140154
   9 C :    0.206368
  10 S :   -0.441739
  11 N :   -0.230375
  12 C :    0.088227
  13 C :    0.018515
  14 C :   -0.211654
  15 C :   -0.136293
  16 C :   -0.275450
  17 C :    0.319946
  18 O :   -0.358165
  19 C :   -0.274228
  20 H :    0.134270
  21 H :    0.117329
  22 H :    0.105135
  23 H :    0.131203
  24 H :    0.085199
  25 H :    0.124845
  26 H :    0.138794
  27 H :    0.123495
  28 H :    0.196395
  29 H :    0.203291
  30 H :    0.168932
  31 H :    0.174296
  32 H :    0.163804
  33 H :    0.131968
  34 H :    0.240988
  35 H :    0.177492
Sum of atomic charges:   -0.0000000

LOEWDIN ATOMIC CHARGES
----------------------
   0 C :    0.105016
   1 C :   -0.016944
   2 O :    0.298683
   3 C :   -0.418291
   4 O :    0.124948
   5 C :   -0.077907
   6 C :   -0.103572
   7 C :    0.125438
   8 N :    0.401929
   9 C :   -0.456275
  10 S :   -0.038237
  11 N :    0.398436
  12 C :   -0.041486
  13 C :   -0.042339
  14 C :    0.021083
  15 C :    0.044608
  16 C :   -0.001865
  17 C :   -0.194025
  18 O :    0.395389
  19 C :    0.026690
  20 H :   -0.022039
  21 H :   -0.023110
  22 H :   -0.037744
  23 H :   -0.016129
  24 H :   -0.038069
  25 H :   -0.009335
  26 H :   -0.009325
  27 H :   -0.017674
  28 H :   -0.058407
  29 H :   -0.063742
  30 H :   -0.001664
  31 H :   -0.021553
  32 H :   -0.018499
  33 H :   -0.035114
  34 H :   -0.153583
  35 H :   -0.025293

  Mayer bond orders larger than 0.100000
B(  0-C ,  1-C ) :   0.9518 B(  0-C , 20-H ) :   0.9649 B(  0-C , 21-H ) :   0.9793
B(  0-C , 22-H ) :   0.9757 B(  1-C ,  2-O ) :   0.9150 B(  1-C , 23-H ) :   0.9800
B(  1-C , 24-H ) :   0.9769 B(  2-O ,  3-C ) :   1.1505 B(  3-C ,  4-O ) :   2.0774
B(  3-C ,  5-C ) :   0.9225 B(  5-C ,  6-C ) :   1.7076 B(  5-C , 12-C ) :   0.9552
B(  6-C ,  7-C ) :   0.9421 B(  6-C ,  8-N ) :   1.0937 B(  7-C , 25-H ) :   0.9800
B(  7-C , 26-H ) :   0.9733 B(  7-C , 27-H ) :   0.9643 B(  8-N ,  9-C ) :   1.1985
B(  8-N , 28-H ) :   0.9524 B(  9-C , 10-S ) :   1.6070 B(  9-C , 11-N ) :   1.2879
B( 11-N , 12-C ) :   0.9835 B( 11-N , 29-H ) :   0.9469 B( 12-C , 13-C ) :   0.9503
B( 12-C , 30-H ) :   0.9935 B( 13-C , 14-C ) :   1.3895 B( 13-C , 19-C ) :   1.3428
B( 14-C , 15-C ) :   1.4025 B( 14-C , 31-H ) :   0.9589 B( 15-C , 16-C ) :   1.3586
B( 15-C , 32-H ) :   0.9700 B( 16-C , 17-C ) :   1.3312 B( 16-C , 33-H ) :   0.9848
B( 17-C , 18-O ) :   1.1091 B( 17-C , 19-C ) :   1.3661 B( 18-O , 34-H ) :   0.9796
B( 19-C , 35-H ) :   0.9582

MP2 TOTAL ENERGY:    -1274.320601190 Eh
FINAL SINGLE POINT ENERGY     -1274.320601190107

DIPOLE MOMENT
-------------
                                X             Y             Z
Electronic contribution:      9.50498       5.58241       6.77371
Nuclear contribution   :    -11.12654      -6.66966      -7.51305
                        -----------------------------------------
Total Dipole Moment    :     -1.62157      -1.08725      -0.73934
                        -----------------------------------------
Magnitude (a.u.)       :      2.08763
Magnitude (Debye)      :      5.30634

Rotational constants in cm-1:     0.011713     0.009572     0.006781
Rotational constants in MHz :   351.150944   286.948933   203.285303

                             ****ORCA TERMINATED NORMALLY****
TOTAL RUN TIME: 0 days 1 hours 48 minutes 11 seconds 80 msec
