                         Program Version 4.2.0 -  RELEASE  -
|  1> ! ri-mp2 cc-pvtz cc-pvtz/c TightSCF  NoKeepInts
|  2>
|  3> %scf
|  4>   MaxCore 4096
|  5> end
|  6> *xyz  0  1
|  7>     C       15.1475107   14.3269392   17.2603540
|  8>     C       15.4044382   15.6588665   16.5320134
|  9>     O       16.6486006   15.5440980   15.8105218
| 10>     C       17.8456921   15.6870477   16.4583388
| 11>     O       18.6353246   14.7616319   16.5077944
| 12>     C       17.9736072   16.8886891   17.3449076
| 13>     C       17.5173436   18.1205745   17.0093034
| 14>     C       16.8591919   18.5334797   15.7090415
| 15>     N       17.7153586   19.1962352   17.8788648
| 16>     C       18.4597042   19.1450136   19.0283023
| 17>     S       18.7110592   20.4871994   19.9607409
| 18>     N       18.9833493   17.9223147   19.3679558
| 19>     C       18.7077568   16.6537099   18.6659684
| 20>     C       17.9123511   15.7039408   19.5553264
| 21>     C       18.3458886   14.3796073   19.7482983
| 22>     C       17.6042697   13.4929082   20.5467437
| 23>     C       16.4162072   13.9323564   21.1552123
| 24>     C       15.9782240   15.2491986   20.9608526
| 25>     O       14.8240255   15.6729683   21.5341545
| 26>     C       16.7190051   16.1302066   20.1668493
| 27>     H       15.9440477   14.1122605   17.9829160
| 28>     H       15.1055275   13.4973354   16.5435454
| 29>     H       14.1956214   14.3611751   17.8037947
| 30>     H       14.5880967   15.8341782   15.8195440
| 31>     H       15.4098336   16.4855657   17.2527621
| 32>     H       17.1888888   17.9043684   14.8725462
| 33>     H       17.1121750   19.5661185   15.4374637
| 34>     H       15.7672655   18.4632672   15.7762036
| 35>     H       17.3487657   20.1049962   17.6427914
| 36>     H       19.5075486   17.9087063   20.2337612
| 37>     H       19.6738979   16.1820416   18.4332817
| 38>     H       19.2528811   14.0306448   19.2595780
| 39>     H       17.9475884   12.4687568   20.6830795
| 40>     H       15.8384011   13.2488030   21.7685356
| 41>     H       14.4946737   14.9510111   22.0908770
| 42>     H       16.3628793   17.1457854   20.0317757
| 43> *
| 44>
| 45>                          ****END OF INPUT****

CARTESIAN COORDINATES (ANGSTROEM)
---------------------------------
  C     15.147511   14.326939   17.260354
  C     15.404438   15.658866   16.532013
  O     16.648601   15.544098   15.810522
  C     17.845692   15.687048   16.458339
  O     18.635325   14.761632   16.507794
  C     17.973607   16.888689   17.344908
  C     17.517344   18.120574   17.009303
  C     16.859192   18.533480   15.709041
  N     17.715359   19.196235   17.878865
  C     18.459704   19.145014   19.028302
  S     18.711059   20.487199   19.960741
  N     18.983349   17.922315   19.367956
  C     18.707757   16.653710   18.665968
  C     17.912351   15.703941   19.555326
  C     18.345889   14.379607   19.748298
  C     17.604270   13.492908   20.546744
  C     16.416207   13.932356   21.155212
  C     15.978224   15.249199   20.960853
  O     14.824025   15.672968   21.534154
  C     16.719005   16.130207   20.166849
  H     15.944048   14.112260   17.982916
  H     15.105527   13.497335   16.543545
  H     14.195621   14.361175   17.803795
  H     14.588097   15.834178   15.819544
  H     15.409834   16.485566   17.252762
  H     17.188889   17.904368   14.872546
  H     17.112175   19.566119   15.437464
  H     15.767265   18.463267   15.776204
  H     17.348766   20.104996   17.642791
  H     19.507549   17.908706   20.233761
  H     19.673898   16.182042   18.433282
  H     19.252881   14.030645   19.259578
  H     17.947588   12.468757   20.683079
  H     15.838401   13.248803   21.768536
  H     14.494674   14.951011   22.090877
  H     16.362879   17.145785   20.031776

 Total Charge           Charge          ....    0
 Multiplicity           Mult            ....    1
 Number of Electrons    NEL             ....  154
 Basis Dimension        Dim             ....  828

ORBITAL ENERGIES
----------------

  NO   OCC          E(Eh)            E(eV)
   0   2.0000     -91.891177     -2500.4860
   1   2.0000     -20.599611      -560.5439
   2   2.0000     -20.592065      -560.3386
   3   2.0000     -20.552227      -559.2545
   4   2.0000     -15.630538      -425.3286
   5   2.0000     -15.611130      -424.8005
   6   2.0000     -11.395852      -310.0969
   7   2.0000     -11.387153      -309.8602
   8   2.0000     -11.336001      -308.4683
   9   2.0000     -11.316075      -307.9261
  10   2.0000     -11.311591      -307.8041
  11   2.0000     -11.304572      -307.6130
  12   2.0000     -11.265802      -306.5580
  13   2.0000     -11.263375      -306.4920
  14   2.0000     -11.261701      -306.4465
  15   2.0000     -11.256051      -306.2927
  16   2.0000     -11.245561      -306.0073
  17   2.0000     -11.241757      -305.9038
  18   2.0000     -11.238624      -305.8185
  19   2.0000     -11.223556      -305.4085
  20   2.0000      -8.896256      -242.0794
  21   2.0000      -6.577834      -178.9920
  22   2.0000      -6.575821      -178.9372
  23   2.0000      -6.575236      -178.9213
  24   2.0000      -1.448117       -39.4053
  25   2.0000      -1.419359       -38.6227
  26   2.0000      -1.358870       -36.9767
  27   2.0000      -1.342350       -36.5272
  28   2.0000      -1.240838       -33.7649
  29   2.0000      -1.160610       -31.5818
  30   2.0000      -1.124805       -30.6075
  31   2.0000      -1.047847       -28.5134
  32   2.0000      -1.033098       -28.1120
  33   2.0000      -1.017909       -27.6987
  34   2.0000      -1.004475       -27.3332
  35   2.0000      -0.989129       -26.9156
  36   2.0000      -0.927357       -25.2347
  37   2.0000      -0.886368       -24.1193
  38   2.0000      -0.854591       -23.2546
  39   2.0000      -0.842270       -22.9193
  40   2.0000      -0.836316       -22.7573
  41   2.0000      -0.832963       -22.6661
  42   2.0000      -0.748462       -20.3667
  43   2.0000      -0.737716       -20.0743
  44   2.0000      -0.730814       -19.8865
  45   2.0000      -0.697698       -18.9853
  46   2.0000      -0.687858       -18.7176
  47   2.0000      -0.680065       -18.5055
  48   2.0000      -0.677264       -18.4293
  49   2.0000      -0.662729       -18.0338
  50   2.0000      -0.655144       -17.8274
  51   2.0000      -0.649171       -17.6649
  52   2.0000      -0.640158       -17.4196
  53   2.0000      -0.613640       -16.6980
  54   2.0000      -0.608851       -16.5677
  55   2.0000      -0.605528       -16.4772
  56   2.0000      -0.600733       -16.3468
  57   2.0000      -0.582578       -15.8527
  58   2.0000      -0.577428       -15.7126
  59   2.0000      -0.569326       -15.4921
  60   2.0000      -0.558562       -15.1992
  61   2.0000      -0.554877       -15.0990
  62   2.0000      -0.542770       -14.7695
  63   2.0000      -0.528468       -14.3803
  64   2.0000      -0.520595       -14.1661
  65   2.0000      -0.513510       -13.9733
  66   2.0000      -0.502347       -13.6696
  67   2.0000      -0.494923       -13.4675
  68   2.0000      -0.487309       -13.2604
  69   2.0000      -0.469748       -12.7825
  70   2.0000      -0.459044       -12.4912
  71   2.0000      -0.447635       -12.1808
  72   2.0000      -0.357963        -9.7407
  73   2.0000      -0.352070        -9.5803
  74   2.0000      -0.330584        -8.9956
  75   2.0000      -0.323746        -8.8096
  76   2.0000      -0.319171        -8.6851
  77   0.0000       0.073580         2.0022
  78   0.0000       0.102880         2.7995
  79   0.0000       0.116833         3.1792
  80   0.0000       0.128107         3.4860
  81   0.0000       0.136723         3.7204

MULLIKEN ATOMIC CHARGES
-----------------------
   0 C :   -0.275654
   1 C :    0.004093
   2 O :   -0.348536
   3 C :    0.436896
   4 O :   -0.384196
   5 C :   -0.229621
   6 C :    0.154514
   7 C :   -0.305959
   8 N :   -0.129471
   9 C :    0.200915
  10 S :   -0.437852
  11 N :   -0.203339
  12 C :    0.062282
  13 C :    0.019447
  14 C :   -0.169882
  15 C :   -0.131454
  16 C :   -0.275629
  17 C :    0.313359
  18 O :   -0.361086
  19 C :   -0.272622
  20 H :    0.108357
  21 H :    0.111373
  22 H :    0.092867
  23 H :    0.120808
  24 H :    0.095761
  25 H :    0.139593
  26 H :    0.120029
  27 H :    0.120511
  28 H :    0.197692
  29 H :    0.195607
  30 H :    0.159318
  31 H :    0.161976
  32 H :    0.162710
  33 H :    0.132009
  34 H :    0.241900
  35 H :    0.173286
Sum of atomic charges:    0.0000000

LOEWDIN ATOMIC CHARGES
----------------------
   0 C :    0.109409
   1 C :   -0.024577
   2 O :    0.295248
   3 C :   -0.418313
   4 O :    0.127665
   5 C :   -0.091588
   6 C :   -0.084084
   7 C :    0.128172
   8 N :    0.403493
   9 C :   -0.457752
  10 S :   -0.034757
  11 N :    0.397395
  12 C :   -0.045934
  13 C :   -0.044533
  14 C :    0.021792
  15 C :    0.043825
  16 C :   -0.000145
  17 C :   -0.192959
  18 O :    0.394418
  19 C :    0.027897
  20 H :   -0.024153
  21 H :   -0.023730
  22 H :   -0.026859
  23 H :   -0.024976
  24 H :   -0.040191
  25 H :   -0.006019
  26 H :   -0.014691
  27 H :   -0.014856
  28 H :   -0.057716
  29 H :   -0.063381
  30 H :   -0.003482
  31 H :   -0.022772
  32 H :   -0.019036
  33 H :   -0.034771
  34 H :   -0.152945
  35 H :   -0.025096

  Mayer bond orders larger than 0.100000
B(  0-C ,  1-C ) :   0.9818 B(  0-C , 20-H ) :   0.9681 B(  0-C , 21-H ) :   0.9793
B(  0-C , 22-H ) :   0.9756 B(  1-C ,  2-O ) :   0.8943 B(  1-C , 23-H ) :   0.9797
B(  1-C , 24-H ) :   0.9633 B(  2-O ,  3-C ) :   1.1423 B(  3-C ,  4-O ) :   2.0801
B(  3-C ,  5-C ) :   0.9545 B(  5-C ,  6-C ) :   1.6692 B(  5-C , 12-C ) :   0.9625
B(  6-C ,  7-C ) :   0.9463 B(  6-C ,  8-N ) :   1.1339 B(  7-C , 25-H ) :   0.9712
B(  7-C , 26-H ) :   0.9827 B(  7-C , 27-H ) :   0.9634 B(  8-N ,  9-C ) :   1.1856
B(  8-N , 28-H ) :   0.9501 B(  9-C , 10-S ) :   1.6135 B(  9-C , 11-N ) :   1.2963
B( 11-N , 12-C ) :   0.9977 B( 11-N , 29-H ) :   0.9512 B( 12-C , 13-C ) :   0.9413
B( 12-C , 30-H ) :   0.9975 B( 13-C , 14-C ) :   1.3860 B( 13-C , 19-C ) :   1.3578
B( 14-C , 15-C ) :   1.3921 B( 14-C , 31-H ) :   0.9624 B( 15-C , 16-C ) :   1.3630
B( 15-C , 32-H ) :   0.9711 B( 16-C , 17-C ) :   1.3308 B( 16-C , 33-H ) :   0.9847
B( 17-C , 18-O ) :   1.1079 B( 17-C , 19-C ) :   1.3712 B( 18-O , 34-H ) :   0.9791
B( 19-C , 35-H ) :   0.9575

MP2 TOTAL ENERGY:    -1274.336331960 Eh
FINAL SINGLE POINT ENERGY     -1274.336331959866

DIPOLE MOMENT
-------------
                                X             Y             Z
Electronic contribution:      9.93592       8.38082       5.53816
Nuclear contribution   :    -11.41590      -9.26029      -5.87242
                        -----------------------------------------
Total Dipole Moment    :     -1.47998      -0.87947      -0.33427
                        -----------------------------------------
Magnitude (a.u.)       :      1.75372
Magnitude (Debye)      :      4.45761

Rotational constants in cm-1:     0.012356     0.009304     0.006854
Rotational constants in MHz :   370.425019   278.929373   205.462923

                             ****ORCA TERMINATED NORMALLY****
TOTAL RUN TIME: 0 days 1 hours 50 minutes 14 seconds 876 msec
