                         Program Version 4.2.0 -  RELEASE  -
|  1> ! ri-mp2 cc-pvtz cc-pvtz/c TightSCF  NoKeepInts
|  2>
|  3> %scf
|  4>   MaxCore 4096
|  5> end
|  6> *xyz  0  1
|  7>     C       15.2957280   15.0848760   17.3163060
|  8>     C       15.6012188   15.2009372   15.8069771
|  9>     O       16.9403023   15.6601899   15.4964682
| 10>     C       17.9535709   15.7197430   16.4117715
| 11>     O       18.6632262   14.7469433   16.5949607
| 12>     C       17.9160994   16.8743986   17.3748167
| 13>     C       17.3298369   18.0718975   17.1154879
| 14>     C       16.6189661   18.5073915   15.8507513
| 15>     N       17.4291822   19.1098566   18.0475194
| 16>     C       18.2446912   19.0960474   19.1481896
| 17>     S       18.4180947   20.4222737   20.1206070
| 18>     N       18.9086040   17.9224765   19.4011442
| 19>     C       18.6652180   16.6500006   18.6951243
| 20>     C       17.9245778   15.6667096   19.5989309
| 21>     C       18.3728802   14.3382946   19.7195805
| 22>     C       17.6907294   13.4218422   20.5370225
| 23>     C       16.5487138   13.8357194   21.2430856
| 24>     C       16.0979554   15.1572881   21.1267797
| 25>     O       14.9896235   15.5580010   21.7989256
| 26>     C       16.7793639   16.0674777   20.3127917
| 27>     H       16.0018499   14.4086249   17.8149673
| 28>     H       14.2902822   14.6727034   17.4643035
| 29>     H       15.3233354   16.0633077   17.8088200
| 30>     H       15.4725824   14.2053014   15.3622735
| 31>     H       14.8665786   15.8626012   15.3310114
| 32>     H       15.5931701   18.1229796   15.8255998
| 33>     H       17.1429702   18.1455559   14.9571809
| 34>     H       16.5656346   19.5992942   15.7588953
| 35>     H       16.9545647   19.9819359   17.8756132
| 36>     H       19.4854430   17.9290409   20.2327094
| 37>     H       19.6460141   16.2150802   18.4530088
| 38>     H       19.2459593   14.0096754   19.1601271
| 39>     H       18.0454030   12.3955336   20.6145710
| 40>     H       16.0171654   13.1301053   21.8728841
| 41>     H       14.6967244   14.8130936   22.3452341
| 42>     H       16.4107400   17.0848022   20.2395601
| 43> *
| 44>
| 45>                          ****END OF INPUT****

CARTESIAN COORDINATES (ANGSTROEM)
---------------------------------
  C     15.295728   15.084876   17.316306
  C     15.601219   15.200937   15.806977
  O     16.940302   15.660190   15.496468
  C     17.953571   15.719743   16.411772
  O     18.663226   14.746943   16.594961
  C     17.916099   16.874399   17.374817
  C     17.329837   18.071897   17.115488
  C     16.618966   18.507392   15.850751
  N     17.429182   19.109857   18.047519
  C     18.244691   19.096047   19.148190
  S     18.418095   20.422274   20.120607
  N     18.908604   17.922476   19.401144
  C     18.665218   16.650001   18.695124
  C     17.924578   15.666710   19.598931
  C     18.372880   14.338295   19.719580
  C     17.690729   13.421842   20.537022
  C     16.548714   13.835719   21.243086
  C     16.097955   15.157288   21.126780
  O     14.989624   15.558001   21.798926
  C     16.779364   16.067478   20.312792
  H     16.001850   14.408625   17.814967
  H     14.290282   14.672703   17.464303
  H     15.323335   16.063308   17.808820
  H     15.472582   14.205301   15.362274
  H     14.866579   15.862601   15.331011
  H     15.593170   18.122980   15.825600
  H     17.142970   18.145556   14.957181
  H     16.565635   19.599294   15.758895
  H     16.954565   19.981936   17.875613
  H     19.485443   17.929041   20.232709
  H     19.646014   16.215080   18.453009
  H     19.245959   14.009675   19.160127
  H     18.045403   12.395534   20.614571
  H     16.017165   13.130105   21.872884
  H     14.696724   14.813094   22.345234
  H     16.410740   17.084802   20.239560

 Total Charge           Charge          ....    0
 Multiplicity           Mult            ....    1
 Number of Electrons    NEL             ....  154
 Basis Dimension        Dim             ....  828

ORBITAL ENERGIES
----------------

  NO   OCC          E(Eh)            E(eV)
   0   2.0000     -91.891051     -2500.4826
   1   2.0000     -20.595815      -560.4406
   2   2.0000     -20.582429      -560.0764
   3   2.0000     -20.551936      -559.2466
   4   2.0000     -15.631613      -425.3578
   5   2.0000     -15.609421      -424.7539
   6   2.0000     -11.395951      -310.0996
   7   2.0000     -11.386020      -309.8293
   8   2.0000     -11.338788      -308.5441
   9   2.0000     -11.311829      -307.8105
  10   2.0000     -11.308857      -307.7296
  11   2.0000     -11.308418      -307.7177
  12   2.0000     -11.264029      -306.5098
  13   2.0000     -11.263095      -306.4844
  14   2.0000     -11.257575      -306.3342
  15   2.0000     -11.251958      -306.1814
  16   2.0000     -11.241775      -305.9042
  17   2.0000     -11.237268      -305.7816
  18   2.0000     -11.233853      -305.6887
  19   2.0000     -11.231187      -305.6161
  20   2.0000      -8.896104      -242.0753
  21   2.0000      -6.577677      -178.9877
  22   2.0000      -6.575671      -178.9331
  23   2.0000      -6.575081      -178.9170
  24   2.0000      -1.444978       -39.3198
  25   2.0000      -1.415629       -38.5212
  26   2.0000      -1.353926       -36.8422
  27   2.0000      -1.342675       -36.5360
  28   2.0000      -1.240058       -33.7437
  29   2.0000      -1.156153       -31.4605
  30   2.0000      -1.122120       -30.5344
  31   2.0000      -1.044520       -28.4228
  32   2.0000      -1.034929       -28.1618
  33   2.0000      -1.014097       -27.5950
  34   2.0000      -1.002916       -27.2907
  35   2.0000      -0.988231       -26.8911
  36   2.0000      -0.925713       -25.1899
  37   2.0000      -0.897932       -24.4340
  38   2.0000      -0.852036       -23.1851
  39   2.0000      -0.839938       -22.8559
  40   2.0000      -0.832226       -22.6460
  41   2.0000      -0.821093       -22.3431
  42   2.0000      -0.745000       -20.2725
  43   2.0000      -0.730807       -19.8863
  44   2.0000      -0.728196       -19.8152
  45   2.0000      -0.693699       -18.8765
  46   2.0000      -0.687754       -18.7147
  47   2.0000      -0.677351       -18.4317
  48   2.0000      -0.674069       -18.3423
  49   2.0000      -0.662657       -18.0318
  50   2.0000      -0.651856       -17.7379
  51   2.0000      -0.649827       -17.6827
  52   2.0000      -0.640133       -17.4189
  53   2.0000      -0.624137       -16.9836
  54   2.0000      -0.604894       -16.4600
  55   2.0000      -0.603851       -16.4316
  56   2.0000      -0.599904       -16.3242
  57   2.0000      -0.582334       -15.8461
  58   2.0000      -0.575647       -15.6641
  59   2.0000      -0.564015       -15.3476
  60   2.0000      -0.555550       -15.1173
  61   2.0000      -0.546990       -14.8844
  62   2.0000      -0.541322       -14.7301
  63   2.0000      -0.534910       -14.5556
  64   2.0000      -0.520917       -14.1749
  65   2.0000      -0.512677       -13.9507
  66   2.0000      -0.499892       -13.6027
  67   2.0000      -0.491715       -13.3802
  68   2.0000      -0.482660       -13.1339
  69   2.0000      -0.469152       -12.7663
  70   2.0000      -0.454741       -12.3741
  71   2.0000      -0.448632       -12.2079
  72   2.0000      -0.357055        -9.7160
  73   2.0000      -0.347024        -9.4430
  74   2.0000      -0.330141        -8.9836
  75   2.0000      -0.320385        -8.7181
  76   2.0000      -0.317863        -8.6495
  77   0.0000       0.069105         1.8804
  78   0.0000       0.107658         2.9295
  79   0.0000       0.117672         3.2020
  80   0.0000       0.132120         3.5952
  81   0.0000       0.136358         3.7105

MULLIKEN ATOMIC CHARGES
-----------------------
   0 C :   -0.349731
   1 C :    0.039415
   2 O :   -0.383613
   3 C :    0.488278
   4 O :   -0.394006
   5 C :   -0.232262
   6 C :    0.156345
   7 C :   -0.307602
   8 N :   -0.124551
   9 C :    0.189734
  10 S :   -0.435003
  11 N :   -0.200638
  12 C :    0.047473
  13 C :    0.042003
  14 C :   -0.178863
  15 C :   -0.134450
  16 C :   -0.279741
  17 C :    0.317524
  18 O :   -0.359973
  19 C :   -0.279440
  20 H :    0.133275
  21 H :    0.122435
  22 H :    0.106819
  23 H :    0.120551
  24 H :    0.100139
  25 H :    0.116025
  26 H :    0.142631
  27 H :    0.114724
  28 H :    0.197650
  29 H :    0.194566
  30 H :    0.158639
  31 H :    0.164309
  32 H :    0.162119
  33 H :    0.130902
  34 H :    0.240835
  35 H :    0.173487
Sum of atomic charges:   -0.0000000

LOEWDIN ATOMIC CHARGES
----------------------
   0 C :    0.105227
   1 C :   -0.014737
   2 O :    0.279709
   3 C :   -0.421687
   4 O :    0.126393
   5 C :   -0.092750
   6 C :   -0.071176
   7 C :    0.128033
   8 N :    0.405405
   9 C :   -0.460332
  10 S :   -0.033349
  11 N :    0.397814
  12 C :   -0.045459
  13 C :   -0.041296
  14 C :    0.020651
  15 C :    0.040945
  16 C :   -0.002313
  17 C :   -0.193832
  18 O :    0.394075
  19 C :    0.030081
  20 H :   -0.018602
  21 H :   -0.021360
  22 H :   -0.034303
  23 H :   -0.023953
  24 H :   -0.031738
  25 H :   -0.014557
  26 H :   -0.005319
  27 H :   -0.017518
  28 H :   -0.058507
  29 H :   -0.063409
  30 H :   -0.003045
  31 H :   -0.023618
  32 H :   -0.019941
  33 H :   -0.035552
  34 H :   -0.154036
  35 H :   -0.025946

  Mayer bond orders larger than 0.100000
B(  0-C ,  1-C ) :   0.9631 B(  0-C , 20-H ) :   0.9645 B(  0-C , 21-H ) :   0.9747
B(  0-C , 22-H ) :   0.9697 B(  1-C ,  2-O ) :   0.8912 B(  1-C , 23-H ) :   0.9842
B(  1-C , 24-H ) :   0.9794 B(  2-O ,  3-C ) :   1.1067 B(  3-C ,  4-O ) :   2.0479
B(  3-C ,  5-C ) :   0.9973 B(  5-C ,  6-C ) :   1.6578 B(  5-C , 12-C ) :   0.9644
B(  6-C ,  7-C ) :   0.9508 B(  6-C ,  8-N ) :   1.1366 B(  7-C , 25-H ) :   0.9661
B(  7-C , 26-H ) :   0.9646 B(  7-C , 27-H ) :   0.9889 B(  8-N ,  9-C ) :   1.1789
B(  8-N , 28-H ) :   0.9491 B(  9-C , 10-S ) :   1.6163 B(  9-C , 11-N ) :   1.3000
B( 11-N , 12-C ) :   0.9873 B( 11-N , 29-H ) :   0.9521 B( 12-C , 13-C ) :   0.9474
B( 12-C , 30-H ) :   0.9990 B( 13-C , 14-C ) :   1.3858 B( 13-C , 19-C ) :   1.3469
B( 14-C , 15-C ) :   1.3958 B( 14-C , 31-H ) :   0.9605 B( 15-C , 16-C ) :   1.3616
B( 15-C , 32-H ) :   0.9708 B( 16-C , 17-C ) :   1.3309 B( 16-C , 33-H ) :   0.9850
B( 17-C , 18-O ) :   1.1102 B( 17-C , 19-C ) :   1.3728 B( 18-O , 34-H ) :   0.9801
B( 19-C , 35-H ) :   0.9581

MP2 TOTAL ENERGY:    -1274.327046512 Eh
FINAL SINGLE POINT ENERGY     -1274.327046511707

DIPOLE MOMENT
-------------
                                X             Y             Z
Electronic contribution:      9.64157       7.55771       6.23619
Nuclear contribution   :    -11.13202      -8.61702      -6.84440
                        -----------------------------------------
Total Dipole Moment    :     -1.49046      -1.05932      -0.60821
                        -----------------------------------------
Magnitude (a.u.)       :      1.92705
Magnitude (Debye)      :      4.89817

Rotational constants in cm-1:     0.011396     0.009916     0.006803
Rotational constants in MHz :   341.652504   297.276642   203.943131

                             ****ORCA TERMINATED NORMALLY****
TOTAL RUN TIME: 0 days 1 hours 50 minutes 6 seconds 185 msec
