                         Program Version 4.2.0 -  RELEASE  -
|  1> ! ri-mp2 cc-pvtz cc-pvtz/c TightSCF  NoKeepInts
|  2>
|  3> %scf
|  4>   MaxCore 4096
|  5> end
|  6> *xyz  0  1
|  7>     C       14.2540814   14.8783646   15.2634895
|  8>     C       15.7734178   14.6486443   15.3280349
|  9>     O       16.3538839   15.8109054   15.9459314
| 10>     C       17.4161389   15.6707380   16.7911354
| 11>     O       18.0271430   14.6199803   16.9009034
| 12>     C       17.7245428   16.8774643   17.6336332
| 13>     C       17.1860521   18.1152565   17.4670432
| 14>     C       16.1769921   18.5699992   16.4319603
| 15>     N       17.6098262   19.1711680   18.2815303
| 16>     C       18.6565748   19.1116454   19.1629623
| 17>     S       19.1798440   20.4466719   19.9873197
| 18>     N       19.2476909   17.8850145   19.3255720
| 19>     C       18.7376567   16.6237670   18.7566343
| 20>     C       18.1359836   15.7487371   19.8535090
| 21>     C       18.5864215   14.4284973   20.0386235
| 22>     C       18.0354546   13.6175918   21.0450087
| 23>     C       17.0243047   14.1302299   21.8752721
| 24>     C       16.5700834   15.4433193   21.6922120
| 25>     O       15.5895808   15.9393604   22.4884425
| 26>     C       17.1201347   16.2478883   20.6894138
| 27>     H       13.8408415   15.0155220   16.2706318
| 28>     H       13.7547042   14.0175493   14.8023226
| 29>     H       14.0221489   15.7699938   14.6679404
| 30>     H       15.9610539   13.7446540   15.9240733
| 31>     H       16.1919974   14.4978873   14.3244751
| 32>     H       16.5308031   18.3441142   15.4183042
| 33>     H       15.9827797   19.6485706   16.4726750
| 34>     H       15.2166472   18.0596051   16.5773464
| 35>     H       17.1885401   20.0802449   18.1769345
| 36>     H       19.9964480   17.8593453   20.0057156
| 37>     H       19.5934561   16.0881329   18.3208116
| 38>     H       19.3562766   14.0237699   19.3861213
| 39>     H       18.3885239   12.5959772   21.1731393
| 40>     H       16.5946361   13.5067648   22.6521551
| 41>     H       15.3660314   15.2523444   23.1340114
| 42>     H       16.7563043   17.2622807   20.5687109
| 43> *
| 44>
| 45>                          ****END OF INPUT****

CARTESIAN COORDINATES (ANGSTROEM)
---------------------------------
  C     14.254081   14.878365   15.263490
  C     15.773418   14.648644   15.328035
  O     16.353884   15.810905   15.945931
  C     17.416139   15.670738   16.791135
  O     18.027143   14.619980   16.900903
  C     17.724543   16.877464   17.633633
  C     17.186052   18.115257   17.467043
  C     16.176992   18.569999   16.431960
  N     17.609826   19.171168   18.281530
  C     18.656575   19.111645   19.162962
  S     19.179844   20.446672   19.987320
  N     19.247691   17.885015   19.325572
  C     18.737657   16.623767   18.756634
  C     18.135984   15.748737   19.853509
  C     18.586422   14.428497   20.038623
  C     18.035455   13.617592   21.045009
  C     17.024305   14.130230   21.875272
  C     16.570083   15.443319   21.692212
  O     15.589581   15.939360   22.488443
  C     17.120135   16.247888   20.689414
  H     13.840841   15.015522   16.270632
  H     13.754704   14.017549   14.802323
  H     14.022149   15.769994   14.667940
  H     15.961054   13.744654   15.924073
  H     16.191997   14.497887   14.324475
  H     16.530803   18.344114   15.418304
  H     15.982780   19.648571   16.472675
  H     15.216647   18.059605   16.577346
  H     17.188540   20.080245   18.176935
  H     19.996448   17.859345   20.005716
  H     19.593456   16.088133   18.320812
  H     19.356277   14.023770   19.386121
  H     18.388524   12.595977   21.173139
  H     16.594636   13.506765   22.652155
  H     15.366031   15.252344   23.134011
  H     16.756304   17.262281   20.568711

 Total Charge           Charge          ....    0
 Multiplicity           Mult            ....    1
 Number of Electrons    NEL             ....  154
 Basis Dimension        Dim             ....  828

ORBITAL ENERGIES
----------------

  NO   OCC          E(Eh)            E(eV)
   0   2.0000     -91.888093     -2500.4021
   1   2.0000     -20.604867      -560.6869
   2   2.0000     -20.591083      -560.3118
   3   2.0000     -20.544407      -559.0417
   4   2.0000     -15.628684      -425.2781
   5   2.0000     -15.606520      -424.6750
   6   2.0000     -11.395710      -310.0930
   7   2.0000     -11.382821      -309.7423
   8   2.0000     -11.337285      -308.5032
   9   2.0000     -11.306797      -307.6736
  10   2.0000     -11.304970      -307.6239
  11   2.0000     -11.299316      -307.4700
  12   2.0000     -11.260891      -306.4244
  13   2.0000     -11.259011      -306.3733
  14   2.0000     -11.252723      -306.2022
  15   2.0000     -11.246858      -306.0426
  16   2.0000     -11.236555      -305.7622
  17   2.0000     -11.234674      -305.7110
  18   2.0000     -11.232756      -305.6588
  19   2.0000     -11.229574      -305.5722
  20   2.0000      -8.893152      -241.9950
  21   2.0000      -6.574728      -178.9074
  22   2.0000      -6.572723      -178.8529
  23   2.0000      -6.572136      -178.8369
  24   2.0000      -1.454690       -39.5841
  25   2.0000      -1.410817       -38.3903
  26   2.0000      -1.357086       -36.9282
  27   2.0000      -1.339515       -36.4501
  28   2.0000      -1.236952       -33.6592
  29   2.0000      -1.151482       -31.3334
  30   2.0000      -1.119234       -30.4559
  31   2.0000      -1.044847       -28.4317
  32   2.0000      -1.036859       -28.2144
  33   2.0000      -1.008860       -27.4525
  34   2.0000      -0.997566       -27.1451
  35   2.0000      -0.983163       -26.7532
  36   2.0000      -0.920779       -25.0557
  37   2.0000      -0.890006       -24.2183
  38   2.0000      -0.847088       -23.0504
  39   2.0000      -0.834495       -22.7078
  40   2.0000      -0.827102       -22.5066
  41   2.0000      -0.816699       -22.2235
  42   2.0000      -0.762608       -20.7516
  43   2.0000      -0.735978       -20.0270
  44   2.0000      -0.724280       -19.7087
  45   2.0000      -0.690893       -18.8002
  46   2.0000      -0.685000       -18.6398
  47   2.0000      -0.679633       -18.4938
  48   2.0000      -0.674748       -18.3608
  49   2.0000      -0.659993       -17.9593
  50   2.0000      -0.648423       -17.6445
  51   2.0000      -0.643588       -17.5129
  52   2.0000      -0.634609       -17.2686
  53   2.0000      -0.601146       -16.3580
  54   2.0000      -0.599649       -16.3173
  55   2.0000      -0.594986       -16.1904
  56   2.0000      -0.589978       -16.0541
  57   2.0000      -0.586496       -15.9594
  58   2.0000      -0.572796       -15.5866
  59   2.0000      -0.563232       -15.3263
  60   2.0000      -0.561529       -15.2800
  61   2.0000      -0.556989       -15.1564
  62   2.0000      -0.538184       -14.6447
  63   2.0000      -0.525247       -14.2927
  64   2.0000      -0.516806       -14.0630
  65   2.0000      -0.510025       -13.8785
  66   2.0000      -0.500200       -13.6111
  67   2.0000      -0.495188       -13.4747
  68   2.0000      -0.480627       -13.0785
  69   2.0000      -0.465747       -12.6736
  70   2.0000      -0.457897       -12.4600
  71   2.0000      -0.455586       -12.3971
  72   2.0000      -0.354411        -9.6440
  73   2.0000      -0.343434        -9.3453
  74   2.0000      -0.327166        -8.9026
  75   2.0000      -0.315503        -8.5853
  76   2.0000      -0.313045        -8.5184
  77   0.0000       0.075910         2.0656
  78   0.0000       0.114074         3.1041
  79   0.0000       0.120524         3.2796
  80   0.0000       0.136274         3.7082
  81   0.0000       0.139017         3.7828

MULLIKEN ATOMIC CHARGES
-----------------------
   0 C :   -0.273539
   1 C :    0.030823
   2 O :   -0.336111
   3 C :    0.445420
   4 O :   -0.432342
   5 C :   -0.177636
   6 C :    0.143502
   7 C :   -0.286205
   8 N :   -0.120398
   9 C :    0.201069
  10 S :   -0.438869
  11 N :   -0.196466
  12 C :    0.033795
  13 C :    0.059665
  14 C :   -0.159864
  15 C :   -0.134178
  16 C :   -0.278950
  17 C :    0.311507
  18 O :   -0.359386
  19 C :   -0.273625
  20 H :    0.098964
  21 H :    0.101383
  22 H :    0.091777
  23 H :    0.108367
  24 H :    0.095552
  25 H :    0.127628
  26 H :    0.103690
  27 H :    0.127129
  28 H :    0.196643
  29 H :    0.193462
  30 H :    0.153435
  31 H :    0.152929
  32 H :    0.158820
  33 H :    0.127764
  34 H :    0.240013
  35 H :    0.164234
Sum of atomic charges:    0.0000000

LOEWDIN ATOMIC CHARGES
----------------------
   0 C :    0.104824
   1 C :   -0.013406
   2 O :    0.308357
   3 C :   -0.415358
   4 O :    0.101495
   5 C :   -0.091499
   6 C :   -0.064310
   7 C :    0.124762
   8 N :    0.404993
   9 C :   -0.459171
  10 S :   -0.035682
  11 N :    0.398068
  12 C :   -0.046763
  13 C :   -0.038639
  14 C :    0.022567
  15 C :    0.040891
  16 C :   -0.002420
  17 C :   -0.192731
  18 O :    0.392826
  19 C :    0.028094
  20 H :   -0.026040
  21 H :   -0.023468
  22 H :   -0.030111
  23 H :   -0.025673
  24 H :   -0.030522
  25 H :   -0.008496
  26 H :   -0.021263
  27 H :   -0.009935
  28 H :   -0.059275
  29 H :   -0.063571
  30 H :   -0.005083
  31 H :   -0.025301
  32 H :   -0.021308
  33 H :   -0.036504
  34 H :   -0.154986
  35 H :   -0.025363

  Mayer bond orders larger than 0.100000
B(  0-C ,  1-C ) :   0.9722 B(  0-C , 20-H ) :   0.9762 B(  0-C , 21-H ) :   0.9783
B(  0-C , 22-H ) :   0.9787 B(  1-C ,  2-O ) :   0.8959 B(  1-C , 23-H ) :   0.9740
B(  1-C , 24-H ) :   0.9818 B(  2-O ,  3-C ) :   1.1782 B(  3-C ,  4-O ) :   1.9736
B(  3-C ,  5-C ) :   1.0616 B(  5-C ,  6-C ) :   1.6407 B(  5-C , 12-C ) :   0.9668
B(  6-C ,  7-C ) :   0.9554 B(  6-C ,  8-N ) :   1.1531 B(  7-C , 25-H ) :   0.9644
B(  7-C , 26-H ) :   0.9919 B(  7-C , 27-H ) :   0.9646 B(  8-N ,  9-C ) :   1.1766
B(  8-N , 28-H ) :   0.9487 B(  9-C , 10-S ) :   1.6111 B(  9-C , 11-N ) :   1.3053
B( 11-N , 12-C ) :   0.9926 B( 11-N , 29-H ) :   0.9521 B( 12-C , 13-C ) :   0.9475
B( 12-C , 30-H ) :   1.0005 B( 13-C , 14-C ) :   1.3755 B( 13-C , 19-C ) :   1.3689
B( 14-C , 15-C ) :   1.3947 B( 14-C , 31-H ) :   0.9651 B( 15-C , 16-C ) :   1.3623
B( 15-C , 32-H ) :   0.9715 B( 16-C , 17-C ) :   1.3317 B( 16-C , 33-H ) :   0.9861
B( 17-C , 18-O ) :   1.1078 B( 17-C , 19-C ) :   1.3796 B( 18-O , 34-H ) :   0.9807
B( 19-C , 35-H ) :   0.9585

MP2 TOTAL ENERGY:    -1274.349109926 Eh
FINAL SINGLE POINT ENERGY     -1274.349109925708

DIPOLE MOMENT
-------------
                                X             Y             Z
Electronic contribution:     11.90430       8.72371      10.85061
Nuclear contribution   :    -13.40164     -10.03523     -11.86894
                        -----------------------------------------
Total Dipole Moment    :     -1.49734      -1.31152      -1.01833
                        -----------------------------------------
Magnitude (a.u.)       :      2.23587
Magnitude (Debye)      :      5.68313

Rotational constants in cm-1:     0.010308     0.008868     0.005884
Rotational constants in MHz :   309.028984   265.865911   176.406963

                             ****ORCA TERMINATED NORMALLY****
TOTAL RUN TIME: 0 days 1 hours 36 minutes 49 seconds 987 msec
