                         Program Version 4.2.0 -  RELEASE  -
|  1> ! ri-mp2 cc-pvtz cc-pvtz/c TightSCF  NoKeepInts
|  2>
|  3> %scf
|  4>   MaxCore 4096
|  5> end
|  6> *xyz  0  1
|  7>     C       15.6418051   13.2796622   16.0384098
|  8>     C       15.6194921   14.5879268   16.8454966
|  9>     O       16.7965775   15.3339169   16.4847829
| 10>     C       16.6966969   16.6913986   16.3898095
| 11>     O       15.7945590   17.2096422   15.7552053
| 12>     C       17.5141014   17.4122719   17.4284066
| 13>     C       17.4607965   18.7598214   17.5880041
| 14>     C       16.6019285   19.7429120   16.8212537
| 15>     N       18.2932283   19.3891856   18.5185386
| 16>     C       19.2968406   18.7703211   19.2146537
| 17>     S       20.3222448   19.6091284   20.2049381
| 18>     N       19.4151872   17.4152256   19.0405224
| 19>     C       18.4577392   16.5698082   18.3049323
| 20>     C       17.7065804   15.6834620   19.2936421
| 21>     C       18.0111559   14.3124392   19.3898224
| 22>     C       17.3196043   13.4881653   20.2933480
| 23>     C       16.3190884   14.0398384   21.1115661
| 24>     C       16.0199192   15.4064082   21.0253393
| 25>     O       15.0557014   15.9423866   21.8149136
| 26>     C       16.7081275   16.2239128   20.1236062
| 27>     H       14.7596302   12.6703054   16.2689232
| 28>     H       16.5377398   12.6935999   16.2774040
| 29>     H       15.6416744   13.4914610   14.9617412
| 30>     H       14.7046284   15.1406530   16.5910026
| 31>     H       15.6059691   14.3788554   17.9225744
| 32>     H       15.5371115   19.5307531   16.9818586
| 33>     H       16.7917961   19.6634321   15.7432442
| 34>     H       16.7793778   20.7852929   17.1107510
| 35>     H       18.2243461   20.3852880   18.6534487
| 36>     H       20.1444900   16.9821796   19.5922868
| 37>     H       19.0389984   15.9214338   17.6340210
| 38>     H       18.7818362   13.8824573   18.7554092
| 39>     H       17.5608251   12.4284340   20.3586481
| 40>     H       15.7833282   13.4075703   21.8121509
| 41>     H       14.7371430   15.2420444   22.4041854
| 42>     H       16.4667312   17.2804064   20.0791593
| 43> *
| 44>
| 45>                          ****END OF INPUT****

CARTESIAN COORDINATES (ANGSTROEM)
---------------------------------
  C     15.641805   13.279662   16.038410
  C     15.619492   14.587927   16.845497
  O     16.796578   15.333917   16.484783
  C     16.696697   16.691399   16.389809
  O     15.794559   17.209642   15.755205
  C     17.514101   17.412272   17.428407
  C     17.460797   18.759821   17.588004
  C     16.601928   19.742912   16.821254
  N     18.293228   19.389186   18.518539
  C     19.296841   18.770321   19.214654
  S     20.322245   19.609128   20.204938
  N     19.415187   17.415226   19.040522
  C     18.457739   16.569808   18.304932
  C     17.706580   15.683462   19.293642
  C     18.011156   14.312439   19.389822
  C     17.319604   13.488165   20.293348
  C     16.319088   14.039838   21.111566
  C     16.019919   15.406408   21.025339
  O     15.055701   15.942387   21.814914
  C     16.708127   16.223913   20.123606
  H     14.759630   12.670305   16.268923
  H     16.537740   12.693600   16.277404
  H     15.641674   13.491461   14.961741
  H     14.704628   15.140653   16.591003
  H     15.605969   14.378855   17.922574
  H     15.537111   19.530753   16.981859
  H     16.791796   19.663432   15.743244
  H     16.779378   20.785293   17.110751
  H     18.224346   20.385288   18.653449
  H     20.144490   16.982180   19.592287
  H     19.038998   15.921434   17.634021
  H     18.781836   13.882457   18.755409
  H     17.560825   12.428434   20.358648
  H     15.783328   13.407570   21.812151
  H     14.737143   15.242044   22.404185
  H     16.466731   17.280406   20.079159

 Total Charge           Charge          ....    0
 Multiplicity           Mult            ....    1
 Number of Electrons    NEL             ....  154
 Basis Dimension        Dim             ....  828

ORBITAL ENERGIES
----------------

  NO   OCC          E(Eh)            E(eV)
   0   2.0000     -91.890084     -2500.4563
   1   2.0000     -20.600621      -560.5714
   2   2.0000     -20.587796      -560.2224
   3   2.0000     -20.545366      -559.0678
   4   2.0000     -15.630451      -425.3262
   5   2.0000     -15.609457      -424.7549
   6   2.0000     -11.393506      -310.0331
   7   2.0000     -11.385043      -309.8028
   8   2.0000     -11.336980      -308.4949
   9   2.0000     -11.318506      -307.9922
  10   2.0000     -11.311048      -307.7893
  11   2.0000     -11.292082      -307.2732
  12   2.0000     -11.263275      -306.4893
  13   2.0000     -11.259757      -306.3936
  14   2.0000     -11.259419      -306.3844
  15   2.0000     -11.253038      -306.2107
  16   2.0000     -11.247314      -306.0550
  17   2.0000     -11.242203      -305.9159
  18   2.0000     -11.241832      -305.9058
  19   2.0000     -11.224738      -305.4406
  20   2.0000      -8.895135      -242.0489
  21   2.0000      -6.576706      -178.9613
  22   2.0000      -6.574704      -178.9068
  23   2.0000      -6.574114      -178.8907
  24   2.0000      -1.449081       -39.4315
  25   2.0000      -1.420286       -38.6480
  26   2.0000      -1.352854       -36.8130
  27   2.0000      -1.341519       -36.5046
  28   2.0000      -1.240110       -33.7451
  29   2.0000      -1.161327       -31.6013
  30   2.0000      -1.121313       -30.5125
  31   2.0000      -1.045349       -28.4454
  32   2.0000      -1.035104       -28.1666
  33   2.0000      -1.019387       -27.7389
  34   2.0000      -0.997030       -27.1306
  35   2.0000      -0.985281       -26.8109
  36   2.0000      -0.924723       -25.1630
  37   2.0000      -0.881429       -23.9849
  38   2.0000      -0.848623       -23.0922
  39   2.0000      -0.841079       -22.8869
  40   2.0000      -0.837593       -22.7921
  41   2.0000      -0.824363       -22.4320
  42   2.0000      -0.761684       -20.7265
  43   2.0000      -0.735543       -20.0151
  44   2.0000      -0.724372       -19.7112
  45   2.0000      -0.699516       -19.0348
  46   2.0000      -0.689988       -18.7755
  47   2.0000      -0.678613       -18.4660
  48   2.0000      -0.672806       -18.3080
  49   2.0000      -0.655484       -17.8366
  50   2.0000      -0.647945       -17.6315
  51   2.0000      -0.643269       -17.5042
  52   2.0000      -0.625948       -17.0329
  53   2.0000      -0.622928       -16.9507
  54   2.0000      -0.611168       -16.6307
  55   2.0000      -0.603109       -16.4114
  56   2.0000      -0.600682       -16.3454
  57   2.0000      -0.580950       -15.8085
  58   2.0000      -0.572029       -15.5657
  59   2.0000      -0.566045       -15.4029
  60   2.0000      -0.560154       -15.2426
  61   2.0000      -0.539953       -14.6929
  62   2.0000      -0.533610       -14.5203
  63   2.0000      -0.528766       -14.3885
  64   2.0000      -0.518529       -14.1099
  65   2.0000      -0.515340       -14.0231
  66   2.0000      -0.504050       -13.7159
  67   2.0000      -0.495790       -13.4911
  68   2.0000      -0.489083       -13.3086
  69   2.0000      -0.464443       -12.6381
  70   2.0000      -0.455371       -12.3913
  71   2.0000      -0.446113       -12.1394
  72   2.0000      -0.355896        -9.6844
  73   2.0000      -0.353531        -9.6201
  74   2.0000      -0.329996        -8.9796
  75   2.0000      -0.325772        -8.8647
  76   2.0000      -0.317463        -8.6386
  77   0.0000       0.070900         1.9293
  78   0.0000       0.102564         2.7909
  79   0.0000       0.123009         3.3472
  80   0.0000       0.128964         3.5093
  81   0.0000       0.133581         3.6349

MULLIKEN ATOMIC CHARGES
-----------------------
   0 C :   -0.260864
   1 C :    0.015753
   2 O :   -0.382598
   3 C :    0.499425
   4 O :   -0.416589
   5 C :   -0.277058
   6 C :    0.162478
   7 C :   -0.268911
   8 N :   -0.124225
   9 C :    0.213812
  10 S :   -0.438890
  11 N :   -0.205678
  12 C :    0.066367
  13 C :    0.025236
  14 C :   -0.173723
  15 C :   -0.132963
  16 C :   -0.277269
  17 C :    0.307466
  18 O :   -0.355921
  19 C :   -0.242281
  20 H :    0.086391
  21 H :    0.089715
  22 H :    0.102712
  23 H :    0.115739
  24 H :    0.116814
  25 H :    0.131390
  26 H :    0.131743
  27 H :    0.095172
  28 H :    0.197987
  29 H :    0.194562
  30 H :    0.149152
  31 H :    0.150544
  32 H :    0.162377
  33 H :    0.132884
  34 H :    0.241562
  35 H :    0.167689
Sum of atomic charges:    0.0000000

LOEWDIN ATOMIC CHARGES
----------------------
   0 C :    0.107253
   1 C :   -0.015560
   2 O :    0.296781
   3 C :   -0.417246
   4 O :    0.109615
   5 C :   -0.097997
   6 C :   -0.058356
   7 C :    0.131442
   8 N :    0.406966
   9 C :   -0.456114
  10 S :   -0.034323
  11 N :    0.396205
  12 C :   -0.052745
  13 C :   -0.037893
  14 C :    0.013309
  15 C :    0.040162
  16 C :   -0.002633
  17 C :   -0.190081
  18 O :    0.396537
  19 C :    0.030686
  20 H :   -0.026805
  21 H :   -0.030452
  22 H :   -0.024142
  23 H :   -0.028874
  24 H :   -0.031508
  25 H :   -0.004845
  26 H :   -0.003611
  27 H :   -0.023250
  28 H :   -0.057371
  29 H :   -0.064954
  30 H :   -0.008921
  31 H :   -0.029641
  32 H :   -0.020119
  33 H :   -0.034729
  34 H :   -0.152916
  35 H :   -0.023870

  Mayer bond orders larger than 0.100000
B(  0-C ,  1-C ) :   0.9821 B(  0-C , 20-H ) :   0.9766 B(  0-C , 21-H ) :   0.9796
B(  0-C , 22-H ) :   0.9790 B(  1-C ,  2-O ) :   0.8697 B(  1-C , 23-H ) :   0.9744
B(  1-C , 24-H ) :   0.9657 B(  2-O ,  3-C ) :   1.1149 B(  3-C ,  4-O ) :   2.0038
B(  3-C ,  5-C ) :   1.0715 B(  5-C ,  6-C ) :   1.6488 B(  5-C , 12-C ) :   0.9707
B(  6-C ,  7-C ) :   0.9669 B(  6-C ,  8-N ) :   1.1600 B(  7-C , 25-H ) :   0.9601
B(  7-C , 26-H ) :   0.9600 B(  7-C , 27-H ) :   0.9903 B(  8-N ,  9-C ) :   1.1823
B(  8-N , 28-H ) :   0.9477 B(  9-C , 10-S ) :   1.6074 B(  9-C , 11-N ) :   1.3063
B( 11-N , 12-C ) :   0.9755 B( 11-N , 29-H ) :   0.9524 B( 12-C , 13-C ) :   0.9396
B( 12-C , 30-H ) :   1.0020 B( 13-C , 14-C ) :   1.3540 B( 13-C , 19-C ) :   1.3811
B( 14-C , 15-C ) :   1.3938 B( 14-C , 31-H ) :   0.9735 B( 15-C , 16-C ) :   1.3608
B( 15-C , 32-H ) :   0.9706 B( 16-C , 17-C ) :   1.3293 B( 16-C , 33-H ) :   0.9844
B( 17-C , 18-O ) :   1.1139 B( 17-C , 19-C ) :   1.3737 B( 18-O , 34-H ) :   0.9790
B( 19-C , 35-H ) :   0.9571

MP2 TOTAL ENERGY:    -1274.336824900 Eh
FINAL SINGLE POINT ENERGY     -1274.336824899957

DIPOLE MOMENT
-------------
                                X             Y             Z
Electronic contribution:      9.64049      10.85650       6.94523
Nuclear contribution   :    -10.71182     -12.35715      -6.93065
                        -----------------------------------------
Total Dipole Moment    :     -1.07133      -1.50065       0.01458
                        -----------------------------------------
Magnitude (a.u.)       :      1.84389
Magnitude (Debye)      :      4.68679

Rotational constants in cm-1:     0.012387     0.008574     0.006295
Rotational constants in MHz :   371.351077   257.037659   188.732153

                             ****ORCA TERMINATED NORMALLY****
TOTAL RUN TIME: 0 days 1 hours 50 minutes 2 seconds 922 msec
