                         Program Version 4.2.0 -  RELEASE  -
|  1> ! ri-mp2 cc-pvtz cc-pvtz/c TightSCF  NoKeepInts
|  2>
|  3> %scf
|  4>   MaxCore 4096
|  5> end
|  6> *xyz  0  1
|  7>     C       15.1588285   15.4354860   17.2818003
|  8>     C       15.6612745   15.0645384   15.8718566
|  9>     O       16.9624389   15.5901396   15.5063670
| 10>     C       18.0135037   15.7482183   16.3702177
| 11>     O       18.7940151   14.8272612   16.5297185
| 12>     C       17.8988423   16.8584745   17.3760331
| 13>     C       17.2995803   18.0456986   17.1037026
| 14>     C       16.6515564   18.4731560   15.8017371
| 15>     N       17.3465371   19.0799464   18.0432175
| 16>     C       18.1463611   19.0841976   19.1556185
| 17>     S       18.2682011   20.4104018   20.1357957
| 18>     N       18.8430400   17.9298462   19.4117776
| 19>     C       18.6405533   16.6502994   18.7040652
| 20>     C       17.9299511   15.6411485   19.6035757
| 21>     C       18.3672386   14.3043409   19.6487095
| 22>     C       17.7166400   13.3627616   20.4632300
| 23>     C       16.6173873   13.7593641   21.2430975
| 24>     C       16.1769545   15.0888473   21.2023403
| 25>     O       15.1093526   15.4729616   21.9462277
| 26>     C       16.8261922   16.0241042   20.3902566
| 27>     H       15.8043249   14.9956939   18.0484130
| 28>     H       14.1542603   15.0234790   17.4367691
| 29>     H       15.0929485   16.5171487   17.4331662
| 30>     H       15.7084495   13.9688594   15.8142955
| 31>     H       14.9247846   15.3924480   15.1270947
| 32>     H       15.6411032   18.0605653   15.7045133
| 33>     H       17.2385323   18.1313311   14.9398654
| 34>     H       16.5741600   19.5639644   15.7145208
| 35>     H       16.8515313   19.9394813   17.8655724
| 36>     H       19.4110508   17.9512952   20.2491892
| 37>     H       19.6359424   16.2453271   18.4694531
| 38>     H       19.2095599   13.9901155   19.0361021
| 39>     H       18.0636471   12.3310787   20.4832037
| 40>     H       16.1108294   13.0346306   21.8718229
| 41>     H       14.8346620   14.7094404   22.4759830
| 42>     H       16.4627652   17.0459492   20.3746910
| 43> *
| 44>
| 45>                          ****END OF INPUT****

CARTESIAN COORDINATES (ANGSTROEM)
---------------------------------
  C     15.158829   15.435486   17.281800
  C     15.661274   15.064538   15.871857
  O     16.962439   15.590140   15.506367
  C     18.013504   15.748218   16.370218
  O     18.794015   14.827261   16.529719
  C     17.898842   16.858474   17.376033
  C     17.299580   18.045699   17.103703
  C     16.651556   18.473156   15.801737
  N     17.346537   19.079946   18.043218
  C     18.146361   19.084198   19.155618
  S     18.268201   20.410402   20.135796
  N     18.843040   17.929846   19.411778
  C     18.640553   16.650299   18.704065
  C     17.929951   15.641148   19.603576
  C     18.367239   14.304341   19.648709
  C     17.716640   13.362762   20.463230
  C     16.617387   13.759364   21.243098
  C     16.176955   15.088847   21.202340
  O     15.109353   15.472962   21.946228
  C     16.826192   16.024104   20.390257
  H     15.804325   14.995694   18.048413
  H     14.154260   15.023479   17.436769
  H     15.092949   16.517149   17.433166
  H     15.708450   13.968859   15.814295
  H     14.924785   15.392448   15.127095
  H     15.641103   18.060565   15.704513
  H     17.238532   18.131331   14.939865
  H     16.574160   19.563964   15.714521
  H     16.851531   19.939481   17.865572
  H     19.411051   17.951295   20.249189
  H     19.635942   16.245327   18.469453
  H     19.209560   13.990115   19.036102
  H     18.063647   12.331079   20.483204
  H     16.110829   13.034631   21.871823
  H     14.834662   14.709440   22.475983
  H     16.462765   17.045949   20.374691

 Total Charge           Charge          ....    0
 Multiplicity           Mult            ....    1
 Number of Electrons    NEL             ....  154
 Basis Dimension        Dim             ....  828

ORBITAL ENERGIES
----------------

  NO   OCC          E(Eh)            E(eV)
   0   2.0000     -91.891284     -2500.4890
   1   2.0000     -20.596094      -560.4482
   2   2.0000     -20.581852      -560.0607
   3   2.0000     -20.552279      -559.2559
   4   2.0000     -15.631502      -425.3548
   5   2.0000     -15.609745      -424.7627
   6   2.0000     -11.395970      -310.1001
   7   2.0000     -11.386359      -309.8386
   8   2.0000     -11.337257      -308.5024
   9   2.0000     -11.312515      -307.8292
  10   2.0000     -11.309975      -307.7601
  11   2.0000     -11.308533      -307.7208
  12   2.0000     -11.264085      -306.5113
  13   2.0000     -11.262665      -306.4727
  14   2.0000     -11.258811      -306.3678
  15   2.0000     -11.252885      -306.2066
  16   2.0000     -11.242416      -305.9217
  17   2.0000     -11.237806      -305.7963
  18   2.0000     -11.234480      -305.7058
  19   2.0000     -11.231931      -305.6364
  20   2.0000      -8.896337      -242.0816
  21   2.0000      -6.577911      -178.9941
  22   2.0000      -6.575904      -178.9394
  23   2.0000      -6.575314      -178.9234
  24   2.0000      -1.443998       -39.2932
  25   2.0000      -1.415924       -38.5293
  26   2.0000      -1.352740       -36.8099
  27   2.0000      -1.342554       -36.5328
  28   2.0000      -1.240092       -33.7446
  29   2.0000      -1.156688       -31.4751
  30   2.0000      -1.122571       -30.5467
  31   2.0000      -1.045038       -28.4369
  32   2.0000      -1.036389       -28.2016
  33   2.0000      -1.014762       -27.6131
  34   2.0000      -1.002624       -27.2828
  35   2.0000      -0.989021       -26.9126
  36   2.0000      -0.925941       -25.1961
  37   2.0000      -0.897052       -24.4100
  38   2.0000      -0.851809       -23.1789
  39   2.0000      -0.840381       -22.8679
  40   2.0000      -0.832718       -22.6594
  41   2.0000      -0.821519       -22.3547
  42   2.0000      -0.746948       -20.3255
  43   2.0000      -0.732235       -19.9251
  44   2.0000      -0.728315       -19.8185
  45   2.0000      -0.694170       -18.8893
  46   2.0000      -0.687712       -18.7136
  47   2.0000      -0.675209       -18.3734
  48   2.0000      -0.673487       -18.3265
  49   2.0000      -0.662299       -18.0221
  50   2.0000      -0.652713       -17.7612
  51   2.0000      -0.649393       -17.6709
  52   2.0000      -0.642109       -17.4727
  53   2.0000      -0.617784       -16.8107
  54   2.0000      -0.603886       -16.4326
  55   2.0000      -0.603118       -16.4117
  56   2.0000      -0.600411       -16.3380
  57   2.0000      -0.584962       -15.9176
  58   2.0000      -0.575457       -15.6590
  59   2.0000      -0.563665       -15.3381
  60   2.0000      -0.561865       -15.2891
  61   2.0000      -0.551015       -14.9939
  62   2.0000      -0.546334       -14.8665
  63   2.0000      -0.530384       -14.4325
  64   2.0000      -0.521244       -14.1838
  65   2.0000      -0.513416       -13.9708
  66   2.0000      -0.500159       -13.6100
  67   2.0000      -0.488250       -13.2860
  68   2.0000      -0.482935       -13.1413
  69   2.0000      -0.467883       -12.7317
  70   2.0000      -0.455930       -12.4065
  71   2.0000      -0.448196       -12.1960
  72   2.0000      -0.357066        -9.7163
  73   2.0000      -0.347278        -9.4499
  74   2.0000      -0.330425        -8.9913
  75   2.0000      -0.321196        -8.7402
  76   2.0000      -0.318379        -8.6635
  77   0.0000       0.069940         1.9032
  78   0.0000       0.107125         2.9150
  79   0.0000       0.117742         3.2039
  80   0.0000       0.132103         3.5947
  81   0.0000       0.132435         3.6037

MULLIKEN ATOMIC CHARGES
-----------------------
   0 C :   -0.346980
   1 C :    0.040563
   2 O :   -0.381699
   3 C :    0.464547
   4 O :   -0.387383
   5 C :   -0.209936
   6 C :    0.137770
   7 C :   -0.295118
   8 N :   -0.127380
   9 C :    0.188449
  10 S :   -0.434429
  11 N :   -0.205901
  12 C :    0.060850
  13 C :    0.023743
  14 C :   -0.185546
  15 C :   -0.138119
  16 C :   -0.276752
  17 C :    0.311659
  18 O :   -0.358317
  19 C :   -0.260032
  20 H :    0.130170
  21 H :    0.124978
  22 H :    0.102483
  23 H :    0.114732
  24 H :    0.110272
  25 H :    0.116079
  26 H :    0.138603
  27 H :    0.112358
  28 H :    0.197801
  29 H :    0.195878
  30 H :    0.161158
  31 H :    0.168836
  32 H :    0.162413
  33 H :    0.131396
  34 H :    0.240759
  35 H :    0.172095
Sum of atomic charges:   -0.0000000

LOEWDIN ATOMIC CHARGES
----------------------
   0 C :    0.105030
   1 C :   -0.015510
   2 O :    0.275723
   3 C :   -0.417778
   4 O :    0.127585
   5 C :   -0.091655
   6 C :   -0.073709
   7 C :    0.127668
   8 N :    0.405569
   9 C :   -0.460073
  10 S :   -0.033393
  11 N :    0.397530
  12 C :   -0.044396
  13 C :   -0.042925
  14 C :    0.019412
  15 C :    0.041684
  16 C :   -0.002154
  17 C :   -0.194308
  18 O :    0.394756
  19 C :    0.028976
  20 H :   -0.023492
  21 H :   -0.020544
  22 H :   -0.034833
  23 H :   -0.024102
  24 H :   -0.025153
  25 H :   -0.014903
  26 H :   -0.005365
  27 H :   -0.017603
  28 H :   -0.058588
  29 H :   -0.063573
  30 H :   -0.002619
  31 H :   -0.023098
  32 H :   -0.019563
  33 H :   -0.035383
  34 H :   -0.154030
  35 H :   -0.025183

  Mayer bond orders larger than 0.100000
B(  0-C ,  1-C ) :   0.9623 B(  0-C , 20-H ) :   0.9635 B(  0-C , 21-H ) :   0.9770
B(  0-C , 22-H ) :   0.9716 B(  1-C ,  2-O ) :   0.8926 B(  1-C , 23-H ) :   0.9844
B(  1-C , 24-H ) :   0.9812 B(  2-O ,  3-C ) :   1.1012 B(  3-C ,  4-O ) :   2.0482
B(  3-C ,  5-C ) :   0.9986 B(  5-C ,  6-C ) :   1.6686 B(  5-C , 12-C ) :   0.9557
B(  6-C ,  7-C ) :   0.9529 B(  6-C ,  8-N ) :   1.1234 B(  7-C , 25-H ) :   0.9650
B(  7-C , 26-H ) :   0.9658 B(  7-C , 27-H ) :   0.9884 B(  8-N ,  9-C ) :   1.1801
B(  8-N , 28-H ) :   0.9490 B(  9-C , 10-S ) :   1.6165 B(  9-C , 11-N ) :   1.2969
B( 11-N , 12-C ) :   0.9831 B( 11-N , 29-H ) :   0.9515 B( 12-C , 13-C ) :   0.9483
B( 12-C , 30-H ) :   0.9976 B( 13-C , 14-C ) :   1.3910 B( 13-C , 19-C ) :   1.3516
B( 14-C , 15-C ) :   1.3964 B( 14-C , 31-H ) :   0.9588 B( 15-C , 16-C ) :   1.3622
B( 15-C , 32-H ) :   0.9708 B( 16-C , 17-C ) :   1.3298 B( 16-C , 33-H ) :   0.9848
B( 17-C , 18-O ) :   1.1117 B( 17-C , 19-C ) :   1.3746 B( 18-O , 34-H ) :   0.9800
B( 19-C , 35-H ) :   0.9581

MP2 TOTAL ENERGY:    -1274.323022292 Eh
FINAL SINGLE POINT ENERGY     -1274.323022292368

DIPOLE MOMENT
-------------
                                X             Y             Z
Electronic contribution:      9.61120       7.09383       6.38834
Nuclear contribution   :    -11.07057      -8.19518      -6.98707
                        -----------------------------------------
Total Dipole Moment    :     -1.45937      -1.10135      -0.59874
                        -----------------------------------------
Magnitude (a.u.)       :      1.92386
Magnitude (Debye)      :      4.89006

Rotational constants in cm-1:     0.011239     0.009981     0.006782
Rotational constants in MHz :   336.936364   299.221403   203.323350

                             ****ORCA TERMINATED NORMALLY****
TOTAL RUN TIME: 0 days 1 hours 49 minutes 53 seconds 418 msec
