                         Program Version 4.2.0 -  RELEASE  -
|  1> ! ri-mp2 cc-pvtz cc-pvtz/c TightSCF  NoKeepInts
|  2>
|  3> %scf
|  4>   MaxCore 4096
|  5> end
|  6> *xyz  0  1
|  7>     C       14.5579963   14.6348265   14.9920421
|  8>     C       15.5375452   14.4478408   16.1626925
|  9>     O       16.4704259   15.5402216   16.1201150
| 10>     C       17.6131273   15.4558311   16.8607443
| 11>     O       18.0941240   14.3804396   17.1787214
| 12>     C       17.9445123   16.7217599   17.5964909
| 13>     C       17.5698907   17.9656779   17.1991520
| 14>     C       16.7854042   18.3496008   15.9611877
| 15>     N       17.9833959   19.0827246   17.9323781
| 16>     C       18.8823571   19.0524633   18.9657572
| 17>     S       19.4163340   20.4363468   19.6974076
| 18>     N       19.3174487   17.8130004   19.3613940
| 19>     C       18.7736062   16.5323005   18.8716318
| 20>     C       17.9515753   15.8499675   19.9621070
| 21>     C       18.2511226   14.5346824   20.3625638
| 22>     C       17.4952059   13.9002317   21.3625629
| 23>     C       16.4290872   14.5861407   21.9688102
| 24>     C       16.1247734   15.8948317   21.5703427
| 25>     O       15.0917162   16.5575240   22.1491049
| 26>     C       16.8785866   16.5234355   20.5743143
| 27>     H       14.0162903   15.5838768   15.0882060
| 28>     H       13.8237105   13.8203200   14.9717457
| 29>     H       15.0952107   14.6365182   14.0353844
| 30>     H       15.0020863   14.4370040   17.1213656
| 31>     H       16.0570117   13.4872367   16.0406440
| 32>     H       17.1741502   17.8314602   15.0756122
| 33>     H       16.8310194   19.4245897   15.7486394
| 34>     H       15.7284320   18.0775199   16.0734151
| 35>     H       17.6755177   20.0015872   17.6568119
| 36>     H       19.9559582   17.8162994   20.1464031
| 37>     H       19.6251863   15.8820196   18.6243459
| 38>     H       19.0642297   13.9956763   19.8823655
| 39>     H       17.7339502   12.8803778   21.6587863
| 40>     H       15.8417156   14.0992730   22.7401017
| 41>     H       14.7262386   15.9804379   22.8362796
| 42>     H       16.6280575   17.5379558   20.2843730
| 43> *
| 44>
| 45>                          ****END OF INPUT****

CARTESIAN COORDINATES (ANGSTROEM)
---------------------------------
  C     14.557996   14.634827   14.992042
  C     15.537545   14.447841   16.162692
  O     16.470426   15.540222   16.120115
  C     17.613127   15.455831   16.860744
  O     18.094124   14.380440   17.178721
  C     17.944512   16.721760   17.596491
  C     17.569891   17.965678   17.199152
  C     16.785404   18.349601   15.961188
  N     17.983396   19.082725   17.932378
  C     18.882357   19.052463   18.965757
  S     19.416334   20.436347   19.697408
  N     19.317449   17.813000   19.361394
  C     18.773606   16.532301   18.871632
  C     17.951575   15.849967   19.962107
  C     18.251123   14.534682   20.362564
  C     17.495206   13.900232   21.362563
  C     16.429087   14.586141   21.968810
  C     16.124773   15.894832   21.570343
  O     15.091716   16.557524   22.149105
  C     16.878587   16.523436   20.574314
  H     14.016290   15.583877   15.088206
  H     13.823711   13.820320   14.971746
  H     15.095211   14.636518   14.035384
  H     15.002086   14.437004   17.121366
  H     16.057012   13.487237   16.040644
  H     17.174150   17.831460   15.075612
  H     16.831019   19.424590   15.748639
  H     15.728432   18.077520   16.073415
  H     17.675518   20.001587   17.656812
  H     19.955958   17.816299   20.146403
  H     19.625186   15.882020   18.624346
  H     19.064230   13.995676   19.882365
  H     17.733950   12.880378   21.658786
  H     15.841716   14.099273   22.740102
  H     14.726239   15.980438   22.836280
  H     16.628058   17.537956   20.284373

 Total Charge           Charge          ....    0
 Multiplicity           Mult            ....    1
 Number of Electrons    NEL             ....  154
 Basis Dimension        Dim             ....  828

ORBITAL ENERGIES
----------------

  NO   OCC          E(Eh)            E(eV)
   0   2.0000     -91.888104     -2500.4024
   1   2.0000     -20.597917      -560.4978
   2   2.0000     -20.592522      -560.3510
   3   2.0000     -20.548738      -559.1596
   4   2.0000     -15.628239      -425.2660
   5   2.0000     -15.606939      -424.6864
   6   2.0000     -11.395132      -310.0773
   7   2.0000     -11.383159      -309.7515
   8   2.0000     -11.335131      -308.4446
   9   2.0000     -11.308380      -307.7167
  10   2.0000     -11.306287      -307.6597
  11   2.0000     -11.298410      -307.4454
  12   2.0000     -11.260188      -306.4053
  13   2.0000     -11.259245      -306.3796
  14   2.0000     -11.254212      -306.2427
  15   2.0000     -11.248467      -306.0863
  16   2.0000     -11.238134      -305.8052
  17   2.0000     -11.234213      -305.6985
  18   2.0000     -11.233698      -305.6845
  19   2.0000     -11.231236      -305.6175
  20   2.0000      -8.893170      -241.9955
  21   2.0000      -6.574748      -178.9080
  22   2.0000      -6.572740      -178.8534
  23   2.0000      -6.572156      -178.8374
  24   2.0000      -1.454411       -39.5765
  25   2.0000      -1.412264       -38.4296
  26   2.0000      -1.357332       -36.9349
  27   2.0000      -1.339208       -36.4417
  28   2.0000      -1.236994       -33.6603
  29   2.0000      -1.152827       -31.3700
  30   2.0000      -1.119876       -30.4734
  31   2.0000      -1.044323       -28.4175
  32   2.0000      -1.036832       -28.2136
  33   2.0000      -1.010222       -27.4895
  34   2.0000      -0.997827       -27.1523
  35   2.0000      -0.983450       -26.7610
  36   2.0000      -0.921415       -25.0730
  37   2.0000      -0.886376       -24.1195
  38   2.0000      -0.847098       -23.0507
  39   2.0000      -0.835636       -22.7388
  40   2.0000      -0.828642       -22.5485
  41   2.0000      -0.819958       -22.3122
  42   2.0000      -0.760495       -20.6941
  43   2.0000      -0.735910       -20.0251
  44   2.0000      -0.725529       -19.7426
  45   2.0000      -0.690946       -18.8016
  46   2.0000      -0.684337       -18.6218
  47   2.0000      -0.680740       -18.5239
  48   2.0000      -0.675508       -18.3815
  49   2.0000      -0.654541       -17.8110
  50   2.0000      -0.651731       -17.7345
  51   2.0000      -0.642975       -17.4962
  52   2.0000      -0.634158       -17.2563
  53   2.0000      -0.608888       -16.5687
  54   2.0000      -0.601195       -16.3594
  55   2.0000      -0.600688       -16.3456
  56   2.0000      -0.595880       -16.2147
  57   2.0000      -0.577522       -15.7152
  58   2.0000      -0.573961       -15.6183
  59   2.0000      -0.562784       -15.3141
  60   2.0000      -0.561226       -15.2717
  61   2.0000      -0.545282       -14.8379
  62   2.0000      -0.542496       -14.7621
  63   2.0000      -0.525044       -14.2872
  64   2.0000      -0.517890       -14.0925
  65   2.0000      -0.509741       -13.8707
  66   2.0000      -0.502535       -13.6747
  67   2.0000      -0.495807       -13.4916
  68   2.0000      -0.481461       -13.1012
  69   2.0000      -0.463813       -12.6210
  70   2.0000      -0.461387       -12.5550
  71   2.0000      -0.452088       -12.3019
  72   2.0000      -0.353983        -9.6324
  73   2.0000      -0.344667        -9.3789
  74   2.0000      -0.327272        -8.9055
  75   2.0000      -0.315883        -8.5956
  76   2.0000      -0.314484        -8.5575
  77   0.0000       0.074541         2.0284
  78   0.0000       0.110943         3.0189
  79   0.0000       0.120172         3.2701
  80   0.0000       0.135206         3.6791
  81   0.0000       0.138241         3.7617

MULLIKEN ATOMIC CHARGES
-----------------------
   0 C :   -0.269568
   1 C :    0.038618
   2 O :   -0.351100
   3 C :    0.447545
   4 O :   -0.416475
   5 C :   -0.181102
   6 C :    0.141563
   7 C :   -0.286669
   8 N :   -0.123594
   9 C :    0.202174
  10 S :   -0.439673
  11 N :   -0.198316
  12 C :    0.040999
  13 C :    0.054081
  14 C :   -0.161116
  15 C :   -0.133549
  16 C :   -0.279761
  17 C :    0.311071
  18 O :   -0.359022
  19 C :   -0.273481
  20 H :    0.090463
  21 H :    0.096030
  22 H :    0.098460
  23 H :    0.092732
  24 H :    0.111732
  25 H :    0.125773
  26 H :    0.103763
  27 H :    0.126449
  28 H :    0.196978
  29 H :    0.193802
  30 H :    0.154073
  31 H :    0.153757
  32 H :    0.159396
  33 H :    0.128457
  34 H :    0.240193
  35 H :    0.165315
Sum of atomic charges:   -0.0000000

LOEWDIN ATOMIC CHARGES
----------------------
   0 C :    0.106921
   1 C :   -0.015766
   2 O :    0.301380
   3 C :   -0.413736
   4 O :    0.111799
   5 C :   -0.091959
   6 C :   -0.068737
   7 C :    0.125256
   8 N :    0.404545
   9 C :   -0.458424
  10 S :   -0.036286
  11 N :    0.397558
  12 C :   -0.046032
  13 C :   -0.039100
  14 C :    0.021972
  15 C :    0.041057
  16 C :   -0.002453
  17 C :   -0.193062
  18 O :    0.392982
  19 C :    0.028136
  20 H :   -0.030272
  21 H :   -0.023794
  22 H :   -0.025628
  23 H :   -0.029943
  24 H :   -0.027144
  25 H :   -0.008347
  26 H :   -0.020484
  27 H :   -0.010451
  28 H :   -0.059013
  29 H :   -0.063824
  30 H :   -0.004825
  31 H :   -0.025198
  32 H :   -0.021079
  33 H :   -0.036313
  34 H :   -0.154795
  35 H :   -0.024940

  Mayer bond orders larger than 0.100000
B(  0-C ,  1-C ) :   0.9730 B(  0-C , 20-H ) :   0.9791 B(  0-C , 21-H ) :   0.9775
B(  0-C , 22-H ) :   0.9773 B(  1-C ,  2-O ) :   0.8981 B(  1-C , 23-H ) :   0.9736
B(  1-C , 24-H ) :   0.9774 B(  2-O ,  3-C ) :   1.1303 B(  3-C ,  4-O ) :   2.0027
B(  3-C ,  5-C ) :   1.0421 B(  5-C ,  6-C ) :   1.6546 B(  5-C , 12-C ) :   0.9657
B(  6-C ,  7-C ) :   0.9533 B(  6-C ,  8-N ) :   1.1420 B(  7-C , 25-H ) :   0.9676
B(  7-C , 26-H ) :   0.9909 B(  7-C , 27-H ) :   0.9629 B(  8-N ,  9-C ) :   1.1808
B(  8-N , 28-H ) :   0.9492 B(  9-C , 10-S ) :   1.6104 B(  9-C , 11-N ) :   1.3029
B( 11-N , 12-C ) :   0.9911 B( 11-N , 29-H ) :   0.9519 B( 12-C , 13-C ) :   0.9471
B( 12-C , 30-H ) :   0.9991 B( 13-C , 14-C ) :   1.3768 B( 13-C , 19-C ) :   1.3687
B( 14-C , 15-C ) :   1.3948 B( 14-C , 31-H ) :   0.9646 B( 15-C , 16-C ) :   1.3629
B( 15-C , 32-H ) :   0.9713 B( 16-C , 17-C ) :   1.3313 B( 16-C , 33-H ) :   0.9858
B( 17-C , 18-O ) :   1.1082 B( 17-C , 19-C ) :   1.3784 B( 18-O , 34-H ) :   0.9805
B( 19-C , 35-H ) :   0.9583

MP2 TOTAL ENERGY:    -1274.340002284 Eh
FINAL SINGLE POINT ENERGY     -1274.340002284230

DIPOLE MOMENT
-------------
                                X             Y             Z
Electronic contribution:     11.74110       9.15440      10.57966
Nuclear contribution   :    -13.27827     -10.44227     -11.38847
                        -----------------------------------------
Total Dipole Moment    :     -1.53717      -1.28787      -0.80881
                        -----------------------------------------
Magnitude (a.u.)       :      2.16233
Magnitude (Debye)      :      5.49620

Rotational constants in cm-1:     0.010423     0.009036     0.005998
Rotational constants in MHz :   312.459434   270.883454   179.829559

                             ****ORCA TERMINATED NORMALLY****
TOTAL RUN TIME: 0 days 1 hours 33 minutes 42 seconds 311 msec
