                         Program Version 4.2.0 -  RELEASE  -
|  1> ! ri-mp2 cc-pvtz cc-pvtz/c TightSCF  NoKeepInts
|  2>
|  3> %scf
|  4>   MaxCore 4096
|  5> end
|  6> *xyz  0  1
|  7>     C       15.1607144   13.9474029   16.7021608
|  8>     C       15.3893997   15.4690027   16.6726632
|  9>     O       16.5463466   15.7396666   15.8592198
| 10>     C       17.7629617   15.7539630   16.4747480
| 11>     O       18.4052066   14.7266752   16.6012483
| 12>     C       17.9726426   16.9392231   17.3679070
| 13>     C       17.5212573   18.1860187   17.0844045
| 14>     C       16.7863942   18.6344276   15.8386435
| 15>     N       17.7946664   19.2394804   17.9617010
| 16>     C       18.6148378   19.1516325   19.0562887
| 17>     S       18.9702972   20.4729054   19.9848755
| 18>     N       19.1226476   17.9092853   19.3451348
| 19>     C       18.7418469   16.6585536   18.6606831
| 20>     C       17.9174131   15.7634155   19.5825062
| 21>     C       18.2578911   14.4087004   19.7505538
| 22>     C       17.4858053   13.5721004   20.5736156
| 23>     C       16.3608983   14.0931282   21.2349755
| 24>     C       16.0156581   15.4407662   21.0677019
| 25>     O       14.9226205   15.9445948   21.6937721
| 26>     C       16.7857462   16.2710564   20.2473367
| 27>     H       15.9974294   13.4392753   17.1989094
| 28>     H       15.0704955   13.5484664   15.6841497
| 29>     H       14.2425454   13.7059308   17.2508733
| 30>     H       14.5107419   15.9466781   16.2207225
| 31>     H       15.5054057   15.8607622   17.6920670
| 32>     H       17.1779811   18.1300405   14.9460431
| 33>     H       16.8878149   19.7123696   15.6619383
| 34>     H       15.7164781   18.4056347   15.9115801
| 35>     H       17.4354201   20.1602961   17.7649794
| 36>     H       19.7035196   17.8680487   20.1729689
| 37>     H       19.6666541   16.1257135   18.3949540
| 38>     H       19.1148094   13.9972180   19.2219017
| 39>     H       17.7572248   12.5241322   20.6889910
| 40>     H       15.7600854   13.4492175   21.8687140
| 41>     H       14.5652718   15.2450505   22.2616188
| 42>     H       16.4998715   17.3111671   20.1334486
| 43> *
| 44>
| 45>                          ****END OF INPUT****

CARTESIAN COORDINATES (ANGSTROEM)
---------------------------------
  C     15.160714   13.947403   16.702161
  C     15.389400   15.469003   16.672663
  O     16.546347   15.739667   15.859220
  C     17.762962   15.753963   16.474748
  O     18.405207   14.726675   16.601248
  C     17.972643   16.939223   17.367907
  C     17.521257   18.186019   17.084405
  C     16.786394   18.634428   15.838643
  N     17.794666   19.239480   17.961701
  C     18.614838   19.151633   19.056289
  S     18.970297   20.472905   19.984876
  N     19.122648   17.909285   19.345135
  C     18.741847   16.658554   18.660683
  C     17.917413   15.763416   19.582506
  C     18.257891   14.408700   19.750554
  C     17.485805   13.572100   20.573616
  C     16.360898   14.093128   21.234976
  C     16.015658   15.440766   21.067702
  O     14.922620   15.944595   21.693772
  C     16.785746   16.271056   20.247337
  H     15.997429   13.439275   17.198909
  H     15.070495   13.548466   15.684150
  H     14.242545   13.705931   17.250873
  H     14.510742   15.946678   16.220723
  H     15.505406   15.860762   17.692067
  H     17.177981   18.130040   14.946043
  H     16.887815   19.712370   15.661938
  H     15.716478   18.405635   15.911580
  H     17.435420   20.160296   17.764979
  H     19.703520   17.868049   20.172969
  H     19.666654   16.125713   18.394954
  H     19.114809   13.997218   19.221902
  H     17.757225   12.524132   20.688991
  H     15.760085   13.449217   21.868714
  H     14.565272   15.245050   22.261619
  H     16.499872   17.311167   20.133449

 Total Charge           Charge          ....    0
 Multiplicity           Mult            ....    1
 Number of Electrons    NEL             ....  154
 Basis Dimension        Dim             ....  828

ORBITAL ENERGIES
----------------

  NO   OCC          E(Eh)            E(eV)
   0   2.0000     -91.890926     -2500.4792
   1   2.0000     -20.598097      -560.5027
   2   2.0000     -20.583717      -560.1114
   3   2.0000     -20.556303      -559.3654
   4   2.0000     -15.630764      -425.3347
   5   2.0000     -15.610324      -424.7785
   6   2.0000     -11.394888      -310.0707
   7   2.0000     -11.386518      -309.8429
   8   2.0000     -11.336400      -308.4791
   9   2.0000     -11.314553      -307.8846
  10   2.0000     -11.310307      -307.7691
  11   2.0000     -11.301900      -307.5403
  12   2.0000     -11.263327      -306.4907
  13   2.0000     -11.260983      -306.4269
  14   2.0000     -11.260214      -306.4060
  15   2.0000     -11.254344      -306.2463
  16   2.0000     -11.243967      -305.9639
  17   2.0000     -11.240197      -305.8613
  18   2.0000     -11.236812      -305.7692
  19   2.0000     -11.221425      -305.3505
  20   2.0000      -8.895993      -242.0723
  21   2.0000      -6.577568      -178.9847
  22   2.0000      -6.575560      -178.9301
  23   2.0000      -6.574972      -178.9141
  24   2.0000      -1.450961       -39.4827
  25   2.0000      -1.417920       -38.5836
  26   2.0000      -1.358720       -36.9726
  27   2.0000      -1.341838       -36.5133
  28   2.0000      -1.239975       -33.7414
  29   2.0000      -1.158751       -31.5312
  30   2.0000      -1.123356       -30.5681
  31   2.0000      -1.046286       -28.4709
  32   2.0000      -1.030937       -28.0532
  33   2.0000      -1.016284       -27.6545
  34   2.0000      -1.001995       -27.2657
  35   2.0000      -0.987435       -26.8695
  36   2.0000      -0.925756       -25.1911
  37   2.0000      -0.882083       -24.0027
  38   2.0000      -0.852866       -23.2077
  39   2.0000      -0.841810       -22.9068
  40   2.0000      -0.834664       -22.7124
  41   2.0000      -0.831610       -22.6293
  42   2.0000      -0.750210       -20.4143
  43   2.0000      -0.733893       -19.9703
  44   2.0000      -0.730321       -19.8730
  45   2.0000      -0.696461       -18.9517
  46   2.0000      -0.687562       -18.7095
  47   2.0000      -0.680025       -18.5044
  48   2.0000      -0.675297       -18.3758
  49   2.0000      -0.666065       -18.1245
  50   2.0000      -0.650560       -17.7026
  51   2.0000      -0.648682       -17.6515
  52   2.0000      -0.639327       -17.3970
  53   2.0000      -0.607662       -16.5353
  54   2.0000      -0.606563       -16.5054
  55   2.0000      -0.602119       -16.3845
  56   2.0000      -0.594373       -16.1737
  57   2.0000      -0.579715       -15.7748
  58   2.0000      -0.576693       -15.6926
  59   2.0000      -0.573807       -15.6141
  60   2.0000      -0.562317       -15.3014
  61   2.0000      -0.554255       -15.0821
  62   2.0000      -0.538137       -14.6435
  63   2.0000      -0.524234       -14.2651
  64   2.0000      -0.517048       -14.0696
  65   2.0000      -0.513488       -13.9727
  66   2.0000      -0.501948       -13.6587
  67   2.0000      -0.496321       -13.5056
  68   2.0000      -0.483342       -13.1524
  69   2.0000      -0.468388       -12.7455
  70   2.0000      -0.457639       -12.4530
  71   2.0000      -0.449355       -12.2276
  72   2.0000      -0.357082        -9.7167
  73   2.0000      -0.350086        -9.5263
  74   2.0000      -0.330175        -8.9845
  75   2.0000      -0.321788        -8.7563
  76   2.0000      -0.318407        -8.6643
  77   0.0000       0.070139         1.9086
  78   0.0000       0.103595         2.8190
  79   0.0000       0.118790         3.2325
  80   0.0000       0.130070         3.5394
  81   0.0000       0.135030         3.6744

MULLIKEN ATOMIC CHARGES
-----------------------
   0 C :   -0.258157
   1 C :    0.010280
   2 O :   -0.371062
   3 C :    0.472768
   4 O :   -0.389232
   5 C :   -0.241217
   6 C :    0.156909
   7 C :   -0.288493
   8 N :   -0.124502
   9 C :    0.198386
  10 S :   -0.436377
  11 N :   -0.203466
  12 C :    0.061175
  13 C :    0.047540
  14 C :   -0.176555
  15 C :   -0.133185
  16 C :   -0.277671
  17 C :    0.323000
  18 O :   -0.359524
  19 C :   -0.305544
  20 H :    0.110675
  21 H :    0.099205
  22 H :    0.086983
  23 H :    0.108290
  24 H :    0.102021
  25 H :    0.132280
  26 H :    0.110164
  27 H :    0.121335
  28 H :    0.197364
  29 H :    0.194949
  30 H :    0.157688
  31 H :    0.162708
  32 H :    0.163336
  33 H :    0.131748
  34 H :    0.241351
  35 H :    0.174831
Sum of atomic charges:    0.0000000

LOEWDIN ATOMIC CHARGES
----------------------
   0 C :    0.108985
   1 C :   -0.021145
   2 O :    0.288899
   3 C :   -0.419609
   4 O :    0.133876
   5 C :   -0.095926
   6 C :   -0.075353
   7 C :    0.127655
   8 N :    0.404466
   9 C :   -0.458025
  10 S :   -0.033956
  11 N :    0.397072
  12 C :   -0.045952
  13 C :   -0.042442
  14 C :    0.022126
  15 C :    0.043459
  16 C :   -0.001081
  17 C :   -0.194938
  18 O :    0.393827
  19 C :    0.026812
  20 H :   -0.024211
  21 H :   -0.025185
  22 H :   -0.028962
  23 H :   -0.027987
  24 H :   -0.034447
  25 H :   -0.005967
  26 H :   -0.017930
  27 H :   -0.011670
  28 H :   -0.058238
  29 H :   -0.063796
  30 H :   -0.003825
  31 H :   -0.023519
  32 H :   -0.019592
  33 H :   -0.035098
  34 H :   -0.153347
  35 H :   -0.024975

  Mayer bond orders larger than 0.100000
B(  0-C ,  1-C ) :   0.9885 B(  0-C , 20-H ) :   0.9713 B(  0-C , 21-H ) :   0.9775
B(  0-C , 22-H ) :   0.9757 B(  1-C ,  2-O ) :   0.8891 B(  1-C , 23-H ) :   0.9802
B(  1-C , 24-H ) :   0.9615 B(  2-O ,  3-C ) :   1.1061 B(  3-C ,  4-O ) :   2.0531
B(  3-C ,  5-C ) :   0.9888 B(  5-C ,  6-C ) :   1.6641 B(  5-C , 12-C ) :   0.9600
B(  6-C ,  7-C ) :   0.9520 B(  6-C ,  8-N ) :   1.1410 B(  7-C , 25-H ) :   0.9686
B(  7-C , 26-H ) :   0.9862 B(  7-C , 27-H ) :   0.9649 B(  8-N ,  9-C ) :   1.1825
B(  8-N , 28-H ) :   0.9494 B(  9-C , 10-S ) :   1.6151 B(  9-C , 11-N ) :   1.2980
B( 11-N , 12-C ) :   0.9942 B( 11-N , 29-H ) :   0.9516 B( 12-C , 13-C ) :   0.9436
B( 12-C , 30-H ) :   0.9988 B( 13-C , 14-C ) :   1.3819 B( 13-C , 19-C ) :   1.3481
B( 14-C , 15-C ) :   1.3951 B( 14-C , 31-H ) :   0.9611 B( 15-C , 16-C ) :   1.3636
B( 15-C , 32-H ) :   0.9700 B( 16-C , 17-C ) :   1.3313 B( 16-C , 33-H ) :   0.9844
B( 17-C , 18-O ) :   1.1107 B( 17-C , 19-C ) :   1.3655 B( 18-O , 34-H ) :   0.9796
B( 19-C , 35-H ) :   0.9589

MP2 TOTAL ENERGY:    -1274.328672638 Eh
FINAL SINGLE POINT ENERGY     -1274.328672637794

DIPOLE MOMENT
-------------
                                X             Y             Z
Electronic contribution:     10.42279       9.62249       6.40878
Nuclear contribution   :    -11.85752     -10.58630      -6.80147
                        -----------------------------------------
Total Dipole Moment    :     -1.43473      -0.96381      -0.39269
                        -----------------------------------------
Magnitude (a.u.)       :      1.77245
Magnitude (Debye)      :      4.50521

Rotational constants in cm-1:     0.012230     0.009236     0.006666
Rotational constants in MHz :   366.659175   276.902243   199.827045

                             ****ORCA TERMINATED NORMALLY****
TOTAL RUN TIME: 0 days 1 hours 50 minutes 21 seconds 144 msec
