                         Program Version 4.2.0 -  RELEASE  -
|  1> ! ri-mp2 cc-pvtz cc-pvtz/c TightSCF  NoKeepInts
|  2>
|  3> %scf
|  4>   MaxCore 4096
|  5> end
|  6> *xyz  0  1
|  7>     C       14.9511347   16.0838226   17.2647185
|  8>     C       15.5228715   14.9994830   16.3291955
|  9>     O       16.9148796   15.0821831   15.9090331
| 10>     C       18.0319849   15.6422374   16.4892618
| 11>     O       19.0880075   15.0400689   16.4258777
| 12>     C       17.8979849   16.8140990   17.4017194
| 13>     C       17.4030698   18.0005034   16.9772382
| 14>     C       16.9260626   18.3443709   15.5807462
| 15>     N       17.4181092   19.1065261   17.8296188
| 16>     C       18.0133116   19.1329939   19.0636139
| 17>     S       18.0298703   20.5020453   19.9908035
| 18>     N       18.6014890   17.9680346   19.4904812
| 19>     C       18.5604278   16.6756054   18.7768691
| 20>     C       17.9073317   15.5813107   19.6213146
| 21>     C       18.3753848   14.2567329   19.5343091
| 22>     C       17.7844297   13.2334178   20.2936064
| 23>     C       16.7145949   13.5343417   21.1527958
| 24>     C       16.2452317   14.8510112   21.2464830
| 25>     O       15.2071810   15.1443702   22.0692166
| 26>     C       16.8357153   15.8680862   20.4895615
| 27>     H       15.5139808   16.1664200   18.1966260
| 28>     H       13.9258743   15.8124072   17.5449032
| 29>     H       14.8909771   17.0582716   16.7728753
| 30>     H       15.4053262   14.0418964   16.8537436
| 31>     H       14.8920997   14.9373990   15.4330034
| 32>     H       16.7004174   17.4573571   14.9786731
| 33>     H       17.6985020   18.9090205   15.0432276
| 34>     H       16.0176851   18.9586628   15.6062469
| 35>     H       17.0199738   19.9801724   17.5230551
| 36>     H       19.0240761   18.0148155   20.4091296
| 37>     H       19.6029466   16.3699867   18.6026492
| 38>     H       19.1996048   14.0166146   18.8656206
| 39>     H       18.1561725   12.2133488   20.2116125
| 40>     H       16.2544140   12.7464917   21.7400068
| 41>     H       14.9687335   14.3305222   22.5383491
| 42>     H       16.4471434   16.8773691   20.5778140
| 43> *
| 44>
| 45>                          ****END OF INPUT****

CARTESIAN COORDINATES (ANGSTROEM)
---------------------------------
  C     14.951135   16.083823   17.264719
  C     15.522871   14.999483   16.329196
  O     16.914880   15.082183   15.909033
  C     18.031985   15.642237   16.489262
  O     19.088007   15.040069   16.425878
  C     17.897985   16.814099   17.401719
  C     17.403070   18.000503   16.977238
  C     16.926063   18.344371   15.580746
  N     17.418109   19.106526   17.829619
  C     18.013312   19.132994   19.063614
  S     18.029870   20.502045   19.990803
  N     18.601489   17.968035   19.490481
  C     18.560428   16.675605   18.776869
  C     17.907332   15.581311   19.621315
  C     18.375385   14.256733   19.534309
  C     17.784430   13.233418   20.293606
  C     16.714595   13.534342   21.152796
  C     16.245232   14.851011   21.246483
  O     15.207181   15.144370   22.069217
  C     16.835715   15.868086   20.489562
  H     15.513981   16.166420   18.196626
  H     13.925874   15.812407   17.544903
  H     14.890977   17.058272   16.772875
  H     15.405326   14.041896   16.853744
  H     14.892100   14.937399   15.433003
  H     16.700417   17.457357   14.978673
  H     17.698502   18.909021   15.043228
  H     16.017685   18.958663   15.606247
  H     17.019974   19.980172   17.523055
  H     19.024076   18.014815   20.409130
  H     19.602947   16.369987   18.602649
  H     19.199605   14.016615   18.865621
  H     18.156173   12.213349   20.211613
  H     16.254414   12.746492   21.740007
  H     14.968734   14.330522   22.538349
  H     16.447143   16.877369   20.577814

 Total Charge           Charge          ....    0
 Multiplicity           Mult            ....    1
 Number of Electrons    NEL             ....  154
 Basis Dimension        Dim             ....  828

ORBITAL ENERGIES
----------------

  NO   OCC          E(Eh)            E(eV)
   0   2.0000     -91.890320     -2500.4627
   1   2.0000     -20.599350      -560.5368
   2   2.0000     -20.594400      -560.4021
   3   2.0000     -20.547835      -559.1350
   4   2.0000     -15.627523      -425.2465
   5   2.0000     -15.611423      -424.8084
   6   2.0000     -11.399738      -310.2026
   7   2.0000     -11.386842      -309.8517
   8   2.0000     -11.329934      -308.3032
   9   2.0000     -11.316337      -307.9332
  10   2.0000     -11.314238      -307.8761
  11   2.0000     -11.312440      -307.8271
  12   2.0000     -11.266164      -306.5679
  13   2.0000     -11.264485      -306.5222
  14   2.0000     -11.262922      -306.4797
  15   2.0000     -11.256405      -306.3024
  16   2.0000     -11.245372      -306.0021
  17   2.0000     -11.241767      -305.9040
  18   2.0000     -11.237862      -305.7978
  19   2.0000     -11.236386      -305.7576
  20   2.0000      -8.895423      -242.0568
  21   2.0000      -6.577010      -178.9695
  22   2.0000      -6.574986      -178.9145
  23   2.0000      -6.574409      -178.8988
  24   2.0000      -1.440727       -39.2042
  25   2.0000      -1.419146       -38.6169
  26   2.0000      -1.353064       -36.8187
  27   2.0000      -1.340414       -36.4745
  28   2.0000      -1.240019       -33.7426
  29   2.0000      -1.160332       -31.5743
  30   2.0000      -1.124653       -30.6034
  31   2.0000      -1.047832       -28.5130
  32   2.0000      -1.041718       -28.3466
  33   2.0000      -1.018757       -27.7218
  34   2.0000      -1.004782       -27.3415
  35   2.0000      -0.990304       -26.9476
  36   2.0000      -0.927784       -25.2463
  37   2.0000      -0.901355       -24.5271
  38   2.0000      -0.853016       -23.2117
  39   2.0000      -0.841021       -22.8854
  40   2.0000      -0.835924       -22.7466
  41   2.0000      -0.828309       -22.5394
  42   2.0000      -0.747087       -20.3293
  43   2.0000      -0.733363       -19.9558
  44   2.0000      -0.729807       -19.8590
  45   2.0000      -0.696733       -18.9591
  46   2.0000      -0.686605       -18.6835
  47   2.0000      -0.676227       -18.4011
  48   2.0000      -0.675207       -18.3733
  49   2.0000      -0.662822       -18.0363
  50   2.0000      -0.655430       -17.8352
  51   2.0000      -0.652634       -17.7591
  52   2.0000      -0.639631       -17.4052
  53   2.0000      -0.613579       -16.6963
  54   2.0000      -0.606071       -16.4920
  55   2.0000      -0.603426       -16.4201
  56   2.0000      -0.600802       -16.3487
  57   2.0000      -0.596264       -16.2252
  58   2.0000      -0.578066       -15.7300
  59   2.0000      -0.576134       -15.6774
  60   2.0000      -0.565971       -15.4009
  61   2.0000      -0.557641       -15.1742
  62   2.0000      -0.543933       -14.8012
  63   2.0000      -0.531974       -14.4757
  64   2.0000      -0.521558       -14.1923
  65   2.0000      -0.514199       -13.9921
  66   2.0000      -0.502169       -13.6647
  67   2.0000      -0.493896       -13.4396
  68   2.0000      -0.484626       -13.1873
  69   2.0000      -0.466881       -12.7045
  70   2.0000      -0.456041       -12.4095
  71   2.0000      -0.447943       -12.1892
  72   2.0000      -0.355484        -9.6732
  73   2.0000      -0.349811        -9.5188
  74   2.0000      -0.329905        -8.9772
  75   2.0000      -0.324101        -8.8192
  76   2.0000      -0.319024        -8.6811
  77   0.0000       0.085071         2.3149
  78   0.0000       0.105391         2.8678
  79   0.0000       0.116218         3.1624
  80   0.0000       0.125930         3.4267
  81   0.0000       0.130092         3.5400

MULLIKEN ATOMIC CHARGES
-----------------------
   0 C :   -0.345162
   1 C :    0.047481
   2 O :   -0.348054
   3 C :    0.418748
   4 O :   -0.382765
   5 C :   -0.230069
   6 C :    0.164320
   7 C :   -0.320237
   8 N :   -0.138752
   9 C :    0.207211
  10 S :   -0.441097
  11 N :   -0.231934
  12 C :    0.109700
  13 C :    0.016177
  14 C :   -0.223951
  15 C :   -0.134853
  16 C :   -0.275526
  17 C :    0.326980
  18 O :   -0.356400
  19 C :   -0.286396
  20 H :    0.127831
  21 H :    0.130004
  22 H :    0.094445
  23 H :    0.111672
  24 H :    0.112147
  25 H :    0.126167
  26 H :    0.149870
  27 H :    0.107253
  28 H :    0.196555
  29 H :    0.203428
  30 H :    0.166021
  31 H :    0.178811
  32 H :    0.165056
  33 H :    0.132029
  34 H :    0.241191
  35 H :    0.182101
Sum of atomic charges:   -0.0000000

LOEWDIN ATOMIC CHARGES
----------------------
   0 C :    0.105506
   1 C :   -0.011865
   2 O :    0.284648
   3 C :   -0.415029
   4 O :    0.123508
   5 C :   -0.084119
   6 C :   -0.093671
   7 C :    0.123796
   8 N :    0.403863
   9 C :   -0.456060
  10 S :   -0.037460
  11 N :    0.398023
  12 C :   -0.043273
  13 C :   -0.043112
  14 C :    0.020398
  15 C :    0.044065
  16 C :   -0.001238
  17 C :   -0.193392
  18 O :    0.395249
  19 C :    0.024916
  20 H :   -0.031706
  21 H :   -0.018249
  22 H :   -0.033260
  23 H :   -0.023465
  24 H :   -0.022126
  25 H :   -0.011236
  26 H :   -0.007487
  27 H :   -0.019213
  28 H :   -0.057781
  29 H :   -0.063906
  30 H :   -0.002856
  31 H :   -0.021647
  32 H :   -0.018360
  33 H :   -0.034904
  34 H :   -0.153216
  35 H :   -0.025341

  Mayer bond orders larger than 0.100000
B(  0-C ,  1-C ) :   0.9618 B(  0-C , 20-H ) :   0.9654 B(  0-C , 21-H ) :   0.9772
B(  0-C , 22-H ) :   0.9745 B(  1-C ,  2-O ) :   0.9038 B(  1-C , 23-H ) :   0.9786
B(  1-C , 24-H ) :   0.9802 B(  2-O ,  3-C ) :   1.1637 B(  3-C ,  4-O ) :   2.0805
B(  3-C ,  5-C ) :   0.9482 B(  5-C ,  6-C ) :   1.6771 B(  5-C , 12-C ) :   0.9411
B(  6-C ,  7-C ) :   0.9461 B(  6-C ,  8-N ) :   1.1179 B(  7-C , 25-H ) :   0.9772
B(  7-C , 26-H ) :   0.9639 B(  7-C , 27-H ) :   0.9728 B(  8-N ,  9-C ) :   1.1976
B(  8-N , 28-H ) :   0.9508 B(  9-C , 10-S ) :   1.6074 B(  9-C , 11-N ) :   1.2881
B( 11-N , 12-C ) :   0.9878 B( 11-N , 29-H ) :   0.9469 B( 12-C , 13-C ) :   0.9536
B( 12-C , 30-H ) :   0.9952 B( 13-C , 14-C ) :   1.3917 B( 13-C , 19-C ) :   1.3368
B( 14-C , 15-C ) :   1.4029 B( 14-C , 31-H ) :   0.9568 B( 15-C , 16-C ) :   1.3578
B( 15-C , 32-H ) :   0.9695 B( 16-C , 17-C ) :   1.3327 B( 16-C , 33-H ) :   0.9846
B( 17-C , 18-O ) :   1.1091 B( 17-C , 19-C ) :   1.3649 B( 18-O , 34-H ) :   0.9794
B( 19-C , 35-H ) :   0.9571

MP2 TOTAL ENERGY:    -1274.322259266 Eh
FINAL SINGLE POINT ENERGY     -1274.322259265531

DIPOLE MOMENT
-------------
                                X             Y             Z
Electronic contribution:      9.31843       5.50460       6.62176
Nuclear contribution   :    -10.86784      -6.69091      -7.12182
                        -----------------------------------------
Total Dipole Moment    :     -1.54942      -1.18631      -0.50007
                        -----------------------------------------
Magnitude (a.u.)       :      2.01447
Magnitude (Debye)      :      5.12037

Rotational constants in cm-1:     0.011777     0.009413     0.006739
Rotational constants in MHz :   353.072916   282.207009   202.040071

                             ****ORCA TERMINATED NORMALLY****
TOTAL RUN TIME: 0 days 1 hours 48 minutes 30 seconds 200 msec
