                         Program Version 4.2.0 -  RELEASE  -
|  1> ! ri-mp2 cc-pvtz cc-pvtz/c TightSCF  NoKeepInts
|  2>
|  3> %scf
|  4>   MaxCore 4096
|  5> end
|  6> *xyz  0  1
|  7>     C       15.3073586   14.0145183   16.9778537
|  8>     C       15.2493549   15.4857569   16.5181376
|  9>     O       16.4548328   15.8631982   15.8192542
| 10>     C       17.6532471   15.7791312   16.4656346
| 11>     O       18.2534393   14.7231254   16.5653546
| 12>     C       17.9394298   16.9529752   17.3523683
| 13>     C       17.5316096   18.2210645   17.0948533
| 14>     C       16.7814201   18.7189892   15.8770668
| 15>     N       17.8661871   19.2512061   17.9787571
| 16>     C       18.6890260   19.1143457   19.0658198
| 17>     S       19.1031379   20.4064893   20.0111777
| 18>     N       19.1497036   17.8492662   19.3317955
| 19>     C       18.7301009   16.6263410   18.6215168
| 20>     C       17.9100475   15.7262809   19.5408785
| 21>     C       18.3006099   14.3942929   19.7700932
| 22>     C       17.5324345   13.5548205   20.5941078
| 23>     C       16.3615159   14.0499981   21.1928479
| 24>     C       15.9674577   15.3751551   20.9640142
| 25>     O       14.8309733   15.8533996   21.5300372
| 26>     C       16.7346634   16.2088884   20.1446702
| 27>     H       16.0352742   13.8791842   17.7876123
| 28>     H       15.5901851   13.3583586   16.1450495
| 29>     H       14.3288675   13.6914170   17.3525433
| 30>     H       14.3923428   15.6162599   15.8449829
| 31>     H       15.0951699   16.1349348   17.3904968
| 32>     H       17.1535943   18.2392784   14.9628228
| 33>     H       16.8907350   19.8009641   15.7331482
| 34>     H       15.7104065   18.4987679   15.9604883
| 35>     H       17.5422056   20.1884181   17.7994366
| 36>     H       19.7311642   17.7722530   20.1565611
| 37>     H       19.6378757   16.0829596   18.3210639
| 38>     H       19.1931376   14.0019971   19.2884460
| 39>     H       17.8417629   12.5239200   20.7575861
| 40>     H       15.7632827   13.4032553   21.8261044
| 41>     H       14.4803934   15.1583935   22.1075976
| 42>     H       16.4140525   17.2323959   19.9838214
| 43> *
| 44>
| 45>                          ****END OF INPUT****

CARTESIAN COORDINATES (ANGSTROEM)
---------------------------------
  C     15.307359   14.014518   16.977854
  C     15.249355   15.485757   16.518138
  O     16.454833   15.863198   15.819254
  C     17.653247   15.779131   16.465635
  O     18.253439   14.723125   16.565355
  C     17.939430   16.952975   17.352368
  C     17.531610   18.221065   17.094853
  C     16.781420   18.718989   15.877067
  N     17.866187   19.251206   17.978757
  C     18.689026   19.114346   19.065820
  S     19.103138   20.406489   20.011178
  N     19.149704   17.849266   19.331795
  C     18.730101   16.626341   18.621517
  C     17.910048   15.726281   19.540879
  C     18.300610   14.394293   19.770093
  C     17.532434   13.554820   20.594108
  C     16.361516   14.049998   21.192848
  C     15.967458   15.375155   20.964014
  O     14.830973   15.853400   21.530037
  C     16.734663   16.208888   20.144670
  H     16.035274   13.879184   17.787612
  H     15.590185   13.358359   16.145049
  H     14.328867   13.691417   17.352543
  H     14.392343   15.616260   15.844983
  H     15.095170   16.134935   17.390497
  H     17.153594   18.239278   14.962823
  H     16.890735   19.800964   15.733148
  H     15.710406   18.498768   15.960488
  H     17.542206   20.188418   17.799437
  H     19.731164   17.772253   20.156561
  H     19.637876   16.082960   18.321064
  H     19.193138   14.001997   19.288446
  H     17.841763   12.523920   20.757586
  H     15.763283   13.403255   21.826104
  H     14.480393   15.158393   22.107598
  H     16.414053   17.232396   19.983821

 Total Charge           Charge          ....    0
 Multiplicity           Mult            ....    1
 Number of Electrons    NEL             ....  154
 Basis Dimension        Dim             ....  828

ORBITAL ENERGIES
----------------

  NO   OCC          E(Eh)            E(eV)
   0   2.0000     -91.890171     -2500.4587
   1   2.0000     -20.598204      -560.5056
   2   2.0000     -20.583747      -560.1122
   3   2.0000     -20.554644      -559.3203
   4   2.0000     -15.630165      -425.3184
   5   2.0000     -15.609626      -424.7595
   6   2.0000     -11.394505      -310.0602
   7   2.0000     -11.385739      -309.8217
   8   2.0000     -11.336400      -308.4791
   9   2.0000     -11.314511      -307.8835
  10   2.0000     -11.309186      -307.7386
  11   2.0000     -11.304057      -307.5990
  12   2.0000     -11.262022      -306.4552
  13   2.0000     -11.260234      -306.4065
  14   2.0000     -11.259668      -306.3911
  15   2.0000     -11.254279      -306.2445
  16   2.0000     -11.243956      -305.9636
  17   2.0000     -11.240124      -305.8593
  18   2.0000     -11.237028      -305.7751
  19   2.0000     -11.220348      -305.3212
  20   2.0000      -8.895245      -242.0519
  21   2.0000      -6.576821      -178.9644
  22   2.0000      -6.574812      -178.9097
  23   2.0000      -6.574226      -178.8938
  24   2.0000      -1.448313       -39.4106
  25   2.0000      -1.417974       -38.5850
  26   2.0000      -1.357467       -36.9386
  27   2.0000      -1.341276       -36.4980
  28   2.0000      -1.239493       -33.7283
  29   2.0000      -1.158630       -31.5279
  30   2.0000      -1.122591       -30.5472
  31   2.0000      -1.045768       -28.4568
  32   2.0000      -1.030108       -28.0307
  33   2.0000      -1.016016       -27.6472
  34   2.0000      -1.001444       -27.2507
  35   2.0000      -0.986479       -26.8435
  36   2.0000      -0.925327       -25.1794
  37   2.0000      -0.887460       -24.1490
  38   2.0000      -0.851678       -23.1753
  39   2.0000      -0.840695       -22.8765
  40   2.0000      -0.834525       -22.7086
  41   2.0000      -0.827846       -22.5268
  42   2.0000      -0.746335       -20.3088
  43   2.0000      -0.730427       -19.8759
  44   2.0000      -0.729585       -19.8530
  45   2.0000      -0.696187       -18.9442
  46   2.0000      -0.686528       -18.6814
  47   2.0000      -0.680548       -18.5186
  48   2.0000      -0.674680       -18.3590
  49   2.0000      -0.667010       -18.1503
  50   2.0000      -0.649579       -17.6759
  51   2.0000      -0.648020       -17.6335
  52   2.0000      -0.638051       -17.3622
  53   2.0000      -0.611174       -16.6309
  54   2.0000      -0.607043       -16.5185
  55   2.0000      -0.603388       -16.4190
  56   2.0000      -0.600714       -16.3463
  57   2.0000      -0.579380       -15.7657
  58   2.0000      -0.575166       -15.6511
  59   2.0000      -0.568894       -15.4804
  60   2.0000      -0.556782       -15.1508
  61   2.0000      -0.551339       -15.0027
  62   2.0000      -0.536161       -14.5897
  63   2.0000      -0.526497       -14.3267
  64   2.0000      -0.520568       -14.1654
  65   2.0000      -0.512414       -13.9435
  66   2.0000      -0.501259       -13.6399
  67   2.0000      -0.491044       -13.3620
  68   2.0000      -0.483553       -13.1582
  69   2.0000      -0.467064       -12.7095
  70   2.0000      -0.457498       -12.4492
  71   2.0000      -0.448947       -12.2165
  72   2.0000      -0.356334        -9.6963
  73   2.0000      -0.350313        -9.5325
  74   2.0000      -0.329523        -8.9668
  75   2.0000      -0.321671        -8.7531
  76   2.0000      -0.317644        -8.6435
  77   0.0000       0.070880         1.9288
  78   0.0000       0.103013         2.8031
  79   0.0000       0.119125         3.2416
  80   0.0000       0.130075         3.5395
  81   0.0000       0.137416         3.7393

MULLIKEN ATOMIC CHARGES
-----------------------
   0 C :   -0.276122
   1 C :    0.011747
   2 O :   -0.375314
   3 C :    0.464079
   4 O :   -0.389585
   5 C :   -0.241197
   6 C :    0.163143
   7 C :   -0.285711
   8 N :   -0.125090
   9 C :    0.204401
  10 S :   -0.438348
  11 N :   -0.202820
  12 C :    0.062493
  13 C :    0.040636
  14 C :   -0.165904
  15 C :   -0.132063
  16 C :   -0.276288
  17 C :    0.313747
  18 O :   -0.359928
  19 C :   -0.290185
  20 H :    0.113678
  21 H :    0.109658
  22 H :    0.093193
  23 H :    0.117738
  24 H :    0.090374
  25 H :    0.132545
  26 H :    0.108335
  27 H :    0.121184
  28 H :    0.197260
  29 H :    0.194922
  30 H :    0.154724
  31 H :    0.156514
  32 H :    0.161832
  33 H :    0.131468
  34 H :    0.241703
  35 H :    0.173183
Sum of atomic charges:   -0.0000000

LOEWDIN ATOMIC CHARGES
----------------------
   0 C :    0.109024
   1 C :   -0.021647
   2 O :    0.285218
   3 C :   -0.417904
   4 O :    0.133189
   5 C :   -0.095645
   6 C :   -0.073717
   7 C :    0.126820
   8 N :    0.404524
   9 C :   -0.457431
  10 S :   -0.034995
  11 N :    0.397209
  12 C :   -0.046209
  13 C :   -0.042312
  14 C :    0.021817
  15 C :    0.042711
  16 C :   -0.000840
  17 C :   -0.193926
  18 O :    0.393641
  19 C :    0.028083
  20 H :   -0.025520
  21 H :   -0.022416
  22 H :   -0.028052
  23 H :   -0.023002
  24 H :   -0.037970
  25 H :   -0.005972
  26 H :   -0.018778
  27 H :   -0.011461
  28 H :   -0.058368
  29 H :   -0.063781
  30 H :   -0.004673
  31 H :   -0.024272
  32 H :   -0.019820
  33 H :   -0.035130
  34 H :   -0.153316
  35 H :   -0.025078

  Mayer bond orders larger than 0.100000
B(  0-C ,  1-C ) :   0.9831 B(  0-C , 20-H ) :   0.9669 B(  0-C , 21-H ) :   0.9749
B(  0-C , 22-H ) :   0.9756 B(  1-C ,  2-O ) :   0.8986 B(  1-C , 23-H ) :   0.9782
B(  1-C , 24-H ) :   0.9690 B(  2-O ,  3-C ) :   1.0949 B(  3-C ,  4-O ) :   2.0571
B(  3-C ,  5-C ) :   0.9980 B(  5-C ,  6-C ) :   1.6596 B(  5-C , 12-C ) :   0.9670
B(  6-C ,  7-C ) :   0.9511 B(  6-C ,  8-N ) :   1.1447 B(  7-C , 25-H ) :   0.9682
B(  7-C , 26-H ) :   0.9871 B(  7-C , 27-H ) :   0.9653 B(  8-N ,  9-C ) :   1.1831
B(  8-N , 28-H ) :   0.9492 B(  9-C , 10-S ) :   1.6116 B(  9-C , 11-N ) :   1.3011
B( 11-N , 12-C ) :   0.9937 B( 11-N , 29-H ) :   0.9516 B( 12-C , 13-C ) :   0.9416
B( 12-C , 30-H ) :   0.9983 B( 13-C , 14-C ) :   1.3794 B( 13-C , 19-C ) :   1.3605
B( 14-C , 15-C ) :   1.3919 B( 14-C , 31-H ) :   0.9648 B( 15-C , 16-C ) :   1.3631
B( 15-C , 32-H ) :   0.9712 B( 16-C , 17-C ) :   1.3321 B( 16-C , 33-H ) :   0.9847
B( 17-C , 18-O ) :   1.1102 B( 17-C , 19-C ) :   1.3671 B( 18-O , 34-H ) :   0.9795
B( 19-C , 35-H ) :   0.9575

MP2 TOTAL ENERGY:    -1274.331046142 Eh
FINAL SINGLE POINT ENERGY     -1274.331046141555

DIPOLE MOMENT
-------------
                                X             Y             Z
Electronic contribution:     10.18200       9.30011       5.85772
Nuclear contribution   :    -11.66035     -10.28691      -6.26685
                        -----------------------------------------
Total Dipole Moment    :     -1.47835      -0.98680      -0.40913
                        -----------------------------------------
Magnitude (a.u.)       :      1.82392
Magnitude (Debye)      :      4.63604

Rotational constants in cm-1:     0.012450     0.009180     0.006715
Rotational constants in MHz :   373.233905   275.206150   201.299037

                             ****ORCA TERMINATED NORMALLY****
TOTAL RUN TIME: 0 days 1 hours 46 minutes 41 seconds 134 msec
