                         Program Version 5.0.0 -  RELEASE  -
|  1> ! ri-mp2 cc-pvtz cc-pvtz/c TightSCF NoKeepInts
|  2>
|  3> %scf
|  4>   MaxCore 4096
|  5> end
|  6> *xyz  0  1
|  7>     C       15.1453679   14.3137457   17.0199241
|  8>     C       16.4534470   13.9737660   16.2711432
|  9>     O       17.4632492   14.9837362   16.4814253
| 10>     C       17.1855346   16.3054779   16.2713875
| 11>     O       16.4350024   16.6678371   15.3814576
| 12>     C       17.7259138   17.1997886   17.3535671
| 13>     C       17.5252793   18.5423901   17.3546238
| 14>     C       16.7415061   19.3539216   16.3453852
| 15>     N       18.1105994   19.3374202   18.3448528
| 16>     C       19.0153122   18.8920706   19.2714925
| 17>     S       19.7616601   19.9198934   20.3308857
| 18>     N       19.2766632   17.5455750   19.2720468
| 19>     C       18.5469812   16.5422005   18.4753168
| 20>     C       17.6826637   15.6886700   19.3985403
| 21>     C       17.9752933   14.3251110   19.5899264
| 22>     C       17.1839146   13.5366232   20.4421420
| 23>     C       16.0934491   14.1168287   21.1124176
| 24>     C       15.8030740   15.4758158   20.9294409
| 25>     O       14.7506715   16.0387498   21.5745310
| 26>     C       16.5914612   16.2575648   20.0794792
| 27>     H       15.3368151   14.4787996   18.0861315
| 28>     H       14.4336053   13.4844327   16.9309684
| 29>     H       14.6624576   15.2085575   16.6088900
| 30>     H       16.8331154   13.0051026   16.6202806
| 31>     H       16.2391745   13.8855353   15.1975624
| 32>     H       17.1556382   19.2210312   15.3377707
| 33>     H       16.7426645   20.4281194   16.5641722
| 34>     H       15.6953754   19.0233299   16.3149013
| 35>     H       17.9339743   20.3292823   18.3549750
| 36>     H       19.9229057   17.2418663   19.9889508
| 37>     H       19.2965815   15.8920982   18.0025614
| 38>     H       18.8161059   13.8734375   19.0702501
| 39>     H       17.4173196   12.4825483   20.5821323
| 40>     H       15.4798710   13.5123113   21.7723236
| 41>     H       14.3600909   15.3594758   22.1445802
| 42>     H       16.3542611   17.3088855   19.9575636
| 43> *
| 44>
| 45>                          ****END OF INPUT****

CARTESIAN COORDINATES (ANGSTROEM)
---------------------------------
  C     15.145368   14.313746   17.019924
  C     16.453447   13.973766   16.271143
  O     17.463249   14.983736   16.481425
  C     17.185535   16.305478   16.271387
  O     16.435002   16.667837   15.381458
  C     17.725914   17.199789   17.353567
  C     17.525279   18.542390   17.354624
  C     16.741506   19.353922   16.345385
  N     18.110599   19.337420   18.344853
  C     19.015312   18.892071   19.271492
  S     19.761660   19.919893   20.330886
  N     19.276663   17.545575   19.272047
  C     18.546981   16.542200   18.475317
  C     17.682664   15.688670   19.398540
  C     17.975293   14.325111   19.589926
  C     17.183915   13.536623   20.442142
  C     16.093449   14.116829   21.112418
  C     15.803074   15.475816   20.929441
  O     14.750671   16.038750   21.574531
  C     16.591461   16.257565   20.079479
  H     15.336815   14.478800   18.086131
  H     14.433605   13.484433   16.930968
  H     14.662458   15.208557   16.608890
  H     16.833115   13.005103   16.620281
  H     16.239175   13.885535   15.197562
  H     17.155638   19.221031   15.337771
  H     16.742665   20.428119   16.564172
  H     15.695375   19.023330   16.314901
  H     17.933974   20.329282   18.354975
  H     19.922906   17.241866   19.988951
  H     19.296581   15.892098   18.002561
  H     18.816106   13.873437   19.070250
  H     17.417320   12.482548   20.582132
  H     15.479871   13.512311   21.772324
  H     14.360091   15.359476   22.144580
  H     16.354261   17.308885   19.957564

 Total Charge           Charge          ....    0
 Multiplicity           Mult            ....    1
 Number of Electrons    NEL             ....  154
 Basis Dimension        Dim             ....  828

ORBITAL ENERGIES
----------------

  NO   OCC          E(Eh)            E(eV)
   0   2.0000     -91.889779     -2500.4480
   1   2.0000     -20.598680      -560.5186
   2   2.0000     -20.592723      -560.3565
   3   2.0000     -20.542467      -558.9890
   4   2.0000     -15.630137      -425.3177
   5   2.0000     -15.608907      -424.7399
   6   2.0000     -11.394430      -310.0582
   7   2.0000     -11.384704      -309.7936
   8   2.0000     -11.336837      -308.4910
   9   2.0000     -11.316229      -307.9303
  10   2.0000     -11.309970      -307.7599
  11   2.0000     -11.298078      -307.4363
  12   2.0000     -11.261547      -306.4423
  13   2.0000     -11.259357      -306.3827
  14   2.0000     -11.257775      -306.3396
  15   2.0000     -11.252641      -306.1999
  16   2.0000     -11.245584      -306.0079
  17   2.0000     -11.240523      -305.8702
  18   2.0000     -11.240272      -305.8634
  19   2.0000     -11.220798      -305.3334
  20   2.0000      -8.894824      -242.0405
  21   2.0000      -6.576394      -178.9528
  22   2.0000      -6.574394      -178.8984
  23   2.0000      -6.573803      -178.8823
  24   2.0000      -1.447605       -39.3913
  25   2.0000      -1.418402       -38.5967
  26   2.0000      -1.352136       -36.7935
  27   2.0000      -1.341047       -36.4918
  28   2.0000      -1.239419       -33.7263
  29   2.0000      -1.159676       -31.5564
  30   2.0000      -1.121088       -30.5063
  31   2.0000      -1.044081       -28.4109
  32   2.0000      -1.032488       -28.0954
  33   2.0000      -1.017476       -27.6869
  34   2.0000      -0.996545       -27.1174
  35   2.0000      -0.985275       -26.8107
  36   2.0000      -0.923769       -25.1370
  37   2.0000      -0.895906       -24.3788
  38   2.0000      -0.847840       -23.0709
  39   2.0000      -0.840150       -22.8616
  40   2.0000      -0.836194       -22.7540
  41   2.0000      -0.815931       -22.2026
  42   2.0000      -0.749418       -20.3927
  43   2.0000      -0.733861       -19.9694
  44   2.0000      -0.723010       -19.6741
  45   2.0000      -0.697840       -18.9892
  46   2.0000      -0.690163       -18.7803
  47   2.0000      -0.675928       -18.3929
  48   2.0000      -0.670112       -18.2347
  49   2.0000      -0.662935       -18.0394
  50   2.0000      -0.649726       -17.6799
  51   2.0000      -0.642082       -17.4719
  52   2.0000      -0.634521       -17.2662
  53   2.0000      -0.616984       -16.7890
  54   2.0000      -0.609022       -16.5723
  55   2.0000      -0.601911       -16.3788
  56   2.0000      -0.599912       -16.3244
  57   2.0000      -0.579382       -15.7658
  58   2.0000      -0.571187       -15.5428
  59   2.0000      -0.566403       -15.4126
  60   2.0000      -0.552997       -15.0478
  61   2.0000      -0.544100       -14.8057
  62   2.0000      -0.533316       -14.5123
  63   2.0000      -0.528621       -14.3845
  64   2.0000      -0.526625       -14.3302
  65   2.0000      -0.514322       -13.9954
  66   2.0000      -0.502648       -13.6778
  67   2.0000      -0.501224       -13.6390
  68   2.0000      -0.479101       -13.0370
  69   2.0000      -0.465294       -12.6613
  70   2.0000      -0.453391       -12.3374
  71   2.0000      -0.444373       -12.0920
  72   2.0000      -0.355570        -9.6755
  73   2.0000      -0.351561        -9.5665
  74   2.0000      -0.329228        -8.9587
  75   2.0000      -0.324246        -8.8232
  76   2.0000      -0.316915        -8.6237
  77   0.0000       0.072848         1.9823
  78   0.0000       0.104880         2.8539
  79   0.0000       0.123869         3.3707
  80   0.0000       0.130740         3.5576
  81   0.0000       0.136759         3.7214

MULLIKEN ATOMIC CHARGES
-----------------------
   0 C :   -0.325530
   1 C :    0.029542
   2 O :   -0.379202
   3 C :    0.477326
   4 O :   -0.430175
   5 C :   -0.229080
   6 C :    0.152615
   7 C :   -0.271360
   8 N :   -0.122841
   9 C :    0.209166
  10 S :   -0.437771
  11 N :   -0.202147
  12 C :    0.052430
  13 C :    0.037152
  14 C :   -0.175509
  15 C :   -0.136181
  16 C :   -0.271823
  17 C :    0.302212
  18 O :   -0.359018
  19 C :   -0.245542
  20 H :    0.111294
  21 H :    0.103925
  22 H :    0.118880
  23 H :    0.113302
  24 H :    0.120019
  25 H :    0.132605
  26 H :    0.095297
  27 H :    0.131317
  28 H :    0.198150
  29 H :    0.193638
  30 H :    0.152104
  31 H :    0.154912
  32 H :    0.161280
  33 H :    0.131699
  34 H :    0.240960
  35 H :    0.166355
Sum of atomic charges:   -0.0000000

LOEWDIN ATOMIC CHARGES
----------------------
   0 C :    0.106144
   1 C :   -0.015246
   2 O :    0.294905
   3 C :   -0.416412
   4 O :    0.102068
   5 C :   -0.095580
   6 C :   -0.057867
   7 C :    0.131679
   8 N :    0.406772
   9 C :   -0.456999
  10 S :   -0.033971
  11 N :    0.396724
  12 C :   -0.052081
  13 C :   -0.039815
  14 C :    0.014950
  15 C :    0.039207
  16 C :   -0.002137
  17 C :   -0.191120
  18 O :    0.396432
  19 C :    0.031409
  20 H :   -0.027402
  21 H :   -0.025941
  22 H :   -0.027000
  23 H :   -0.025024
  24 H :   -0.028273
  25 H :   -0.003398
  26 H :   -0.023334
  27 H :   -0.005007
  28 H :   -0.057465
  29 H :   -0.064695
  30 H :   -0.009065
  31 H :   -0.029271
  32 H :   -0.020882
  33 H :   -0.035141
  34 H :   -0.153410
  35 H :   -0.023754

  Mayer bond orders larger than 0.100000
B(  0-C ,  1-C ) :   0.9559 B(  0-C , 20-H ) :   0.9689 B(  0-C , 21-H ) :   0.9783
B(  0-C , 22-H ) :   0.9739 B(  1-C ,  2-O ) :   0.8858 B(  1-C , 23-H ) :   0.9827
B(  1-C , 24-H ) :   0.9855 B(  2-O ,  3-C ) :   1.1359 B(  3-C ,  4-O ) :   1.9816
B(  3-C ,  5-C ) :   1.0647 B(  5-C ,  6-C ) :   1.6533 B(  5-C , 12-C ) :   0.9708
B(  6-C ,  7-C ) :   0.9669 B(  6-C ,  8-N ) :   1.1608 B(  7-C , 25-H ) :   0.9594
B(  7-C , 26-H ) :   0.9901 B(  7-C , 27-H ) :   0.9612 B(  8-N ,  9-C ) :   1.1810
B(  8-N , 28-H ) :   0.9478 B(  9-C , 10-S ) :   1.6109 B(  9-C , 11-N ) :   1.3040
B( 11-N , 12-C ) :   0.9847 B( 11-N , 29-H ) :   0.9526 B( 12-C , 13-C ) :   0.9352
B( 12-C , 30-H ) :   1.0024 B( 13-C , 14-C ) :   1.3601 B( 13-C , 19-C ) :   1.3847
B( 14-C , 15-C ) :   1.3866 B( 14-C , 31-H ) :   0.9702 B( 15-C , 16-C ) :   1.3615
B( 15-C , 32-H ) :   0.9713 B( 16-C , 17-C ) :   1.3320 B( 16-C , 33-H ) :   0.9848
B( 17-C , 18-O ) :   1.1124 B( 17-C , 19-C ) :   1.3736 B( 18-O , 34-H ) :   0.9795
B( 19-C , 35-H ) :   0.9572

MP2 TOTAL ENERGY:    -1274.345379439 Eh
FINAL SINGLE POINT ENERGY     -1274.345379439363

DIPOLE MOMENT
-------------
                                X             Y             Z
Electronic contribution:      9.90903       9.57048       6.20181
Nuclear contribution   :    -10.90224     -11.26334      -6.36987
                        -----------------------------------------
Total Dipole Moment    :     -0.99322      -1.69286      -0.16806
                        -----------------------------------------
Magnitude (a.u.)       :      1.96990
Magnitude (Debye)      :      5.00709

Rotational constants in cm-1:     0.012379     0.009060     0.006484
Rotational constants in MHz :   371.101341   271.607570   194.389041

                             ****ORCA TERMINATED NORMALLY****
TOTAL RUN TIME: 0 days 2 hours 7 minutes 20 seconds 57 msec
