                         Program Version 5.0.0 -  RELEASE  -
|  1> ! ri-mp2 cc-pvtz cc-pvtz/c TightSCF NoKeepInts
|  2>
|  3> %scf
|  4>   MaxCore 4096
|  5> end
|  6> *xyz  0  1
|  7>     C       15.2967087   13.7472590   16.3959928
|  8>     C       15.2082817   15.2734715   16.5991483
|  9>     O       16.3189947   15.9482763   15.9724328
| 10>     C       17.5692211   15.8332484   16.5091976
| 11>     O       18.1274828   14.7558854   16.6237442
| 12>     C       17.9116754   16.9910133   17.3964784
| 13>     C       17.5255862   18.2693138   17.1576828
| 14>     C       16.7444826   18.7870394   15.9680220
| 15>     N       17.9178018   19.2881824   18.0310770
| 16>     C       18.7859259   19.1289800   19.0793980
| 17>     S       19.2767426   20.4086747   20.0049214
| 18>     N       19.2253932   17.8518675   19.3238730
| 19>     C       18.7326873   16.6408091   18.6401274
| 20>     C       17.9092506   15.7798270   19.5944428
| 21>     C       18.2249382   14.4217096   19.7825914
| 22>     C       17.4552589   13.6194726   20.6414695
| 23>     C       16.3582742   14.1788726   21.3184035
| 24>     C       16.0376713   15.5300213   21.1304961
| 25>     O       14.9721801   16.0707524   21.7732747
| 26>     C       16.8051432   16.3258685   20.2743872
| 27>     H       16.0769331   13.3065608   17.0287776
| 28>     H       15.5197121   13.5060270   15.3492247
| 29>     H       14.3458970   13.2709390   16.6631093
| 30>     H       14.2770455   15.6332632   16.1432904
| 31>     H       15.1710243   15.5070865   17.6720593
| 32>     H       17.0790738   18.3074390   15.0394683
| 33>     H       16.8625988   19.8685581   15.8283360
| 34>     H       15.6740240   18.5786006   16.0861756
| 35>     H       17.6076808   20.2329100   17.8677904
| 36>     H       19.8417521   17.7587014   20.1210879
| 37>     H       19.6075145   16.0596777   18.3139106
| 38>     H       19.0600298   13.9813692   19.2428556
| 39>     H       17.7069041   12.5685547   20.7730717
| 40>     H       15.7597018   13.5618947   21.9803569
| 41>     H       14.6129225   15.3901635   22.3623683
| 42>     H       16.5404851   17.3697098   20.1449567
| 43> *
| 44>
| 45>                          ****END OF INPUT****

CARTESIAN COORDINATES (ANGSTROEM)
---------------------------------
  C     15.296709   13.747259   16.395993
  C     15.208282   15.273471   16.599148
  O     16.318995   15.948276   15.972433
  C     17.569221   15.833248   16.509198
  O     18.127483   14.755885   16.623744
  C     17.911675   16.991013   17.396478
  C     17.525586   18.269314   17.157683
  C     16.744483   18.787039   15.968022
  N     17.917802   19.288182   18.031077
  C     18.785926   19.128980   19.079398
  S     19.276743   20.408675   20.004921
  N     19.225393   17.851868   19.323873
  C     18.732687   16.640809   18.640127
  C     17.909251   15.779827   19.594443
  C     18.224938   14.421710   19.782591
  C     17.455259   13.619473   20.641469
  C     16.358274   14.178873   21.318403
  C     16.037671   15.530021   21.130496
  O     14.972180   16.070752   21.773275
  C     16.805143   16.325868   20.274387
  H     16.076933   13.306561   17.028778
  H     15.519712   13.506027   15.349225
  H     14.345897   13.270939   16.663109
  H     14.277045   15.633263   16.143290
  H     15.171024   15.507086   17.672059
  H     17.079074   18.307439   15.039468
  H     16.862599   19.868558   15.828336
  H     15.674024   18.578601   16.086176
  H     17.607681   20.232910   17.867790
  H     19.841752   17.758701   20.121088
  H     19.607515   16.059678   18.313911
  H     19.060030   13.981369   19.242856
  H     17.706904   12.568555   20.773072
  H     15.759702   13.561895   21.980357
  H     14.612922   15.390163   22.362368
  H     16.540485   17.369710   20.144957

 Total Charge           Charge          ....    0
 Multiplicity           Mult            ....    1
 Number of Electrons    NEL             ....  154
 Basis Dimension        Dim             ....  828

ORBITAL ENERGIES
----------------

  NO   OCC          E(Eh)            E(eV)
   0   2.0000     -91.889217     -2500.4327
   1   2.0000     -20.596783      -560.4670
   2   2.0000     -20.583792      -560.1135
   3   2.0000     -20.555956      -559.3560
   4   2.0000     -15.628772      -425.2805
   5   2.0000     -15.608712      -424.7347
   6   2.0000     -11.395775      -310.0948
   7   2.0000     -11.384692      -309.7932
   8   2.0000     -11.333985      -308.4134
   9   2.0000     -11.313090      -307.8448
  10   2.0000     -11.308699      -307.7254
  11   2.0000     -11.302327      -307.5520
  12   2.0000     -11.260259      -306.4072
  13   2.0000     -11.259127      -306.3764
  14   2.0000     -11.258544      -306.3606
  15   2.0000     -11.253177      -306.2145
  16   2.0000     -11.242760      -305.9310
  17   2.0000     -11.238668      -305.8197
  18   2.0000     -11.235847      -305.7429
  19   2.0000     -11.218981      -305.2840
  20   2.0000      -8.894290      -242.0259
  21   2.0000      -6.575868      -178.9385
  22   2.0000      -6.573858      -178.8838
  23   2.0000      -6.573273      -178.8679
  24   2.0000      -1.449557       -39.4444
  25   2.0000      -1.416590       -38.5474
  26   2.0000      -1.357986       -36.9527
  27   2.0000      -1.339917       -36.4610
  28   2.0000      -1.238226       -33.6938
  29   2.0000      -1.157155       -31.4878
  30   2.0000      -1.121505       -30.5177
  31   2.0000      -1.044686       -28.4273
  32   2.0000      -1.030150       -28.0318
  33   2.0000      -1.014654       -27.6102
  34   2.0000      -0.999385       -27.1946
  35   2.0000      -0.984685       -26.7946
  36   2.0000      -0.923934       -25.1415
  37   2.0000      -0.885919       -24.1071
  38   2.0000      -0.849745       -23.1227
  39   2.0000      -0.839551       -22.8453
  40   2.0000      -0.833222       -22.6731
  41   2.0000      -0.826107       -22.4795
  42   2.0000      -0.747612       -20.3435
  43   2.0000      -0.730199       -19.8697
  44   2.0000      -0.728813       -19.8320
  45   2.0000      -0.695051       -18.9133
  46   2.0000      -0.686222       -18.6730
  47   2.0000      -0.681282       -18.5386
  48   2.0000      -0.672385       -18.2965
  49   2.0000      -0.666879       -18.1467
  50   2.0000      -0.647583       -17.6216
  51   2.0000      -0.645591       -17.5674
  52   2.0000      -0.636783       -17.3278
  53   2.0000      -0.605790       -16.4844
  54   2.0000      -0.604553       -16.4507
  55   2.0000      -0.600661       -16.3448
  56   2.0000      -0.596570       -16.2335
  57   2.0000      -0.578724       -15.7479
  58   2.0000      -0.574940       -15.6449
  59   2.0000      -0.572690       -15.5837
  60   2.0000      -0.561434       -15.2774
  61   2.0000      -0.549752       -14.9595
  62   2.0000      -0.535166       -14.5626
  63   2.0000      -0.522653       -14.2221
  64   2.0000      -0.518713       -14.1149
  65   2.0000      -0.512052       -13.9336
  66   2.0000      -0.500879       -13.6296
  67   2.0000      -0.495443       -13.4817
  68   2.0000      -0.480867       -13.0851
  69   2.0000      -0.466319       -12.6892
  70   2.0000      -0.454842       -12.3769
  71   2.0000      -0.448484       -12.2039
  72   2.0000      -0.354756        -9.6534
  73   2.0000      -0.348738        -9.4897
  74   2.0000      -0.328541        -8.9401
  75   2.0000      -0.320252        -8.7145
  76   2.0000      -0.316284        -8.6065
  77   0.0000       0.071360         1.9418
  78   0.0000       0.104436         2.8418
  79   0.0000       0.120025         3.2661
  80   0.0000       0.131324         3.5735
  81   0.0000       0.136392         3.7114

MULLIKEN ATOMIC CHARGES
-----------------------
   0 C :   -0.271192
   1 C :    0.032623
   2 O :   -0.380045
   3 C :    0.462126
   4 O :   -0.398460
   5 C :   -0.200467
   6 C :    0.141786
   7 C :   -0.281215
   8 N :   -0.124241
   9 C :    0.202623
  10 S :   -0.439187
  11 N :   -0.202320
  12 C :    0.057701
  13 C :    0.051214
  14 C :   -0.169279
  15 C :   -0.132995
  16 C :   -0.279353
  17 C :    0.320619
  18 O :   -0.359970
  19 C :   -0.297402
  20 H :    0.114374
  21 H :    0.099688
  22 H :    0.089269
  23 H :    0.105366
  24 H :    0.092997
  25 H :    0.126190
  26 H :    0.104891
  27 H :    0.123564
  28 H :    0.197218
  29 H :    0.194539
  30 H :    0.155488
  31 H :    0.158954
  32 H :    0.162288
  33 H :    0.131176
  34 H :    0.241056
  35 H :    0.170375
Sum of atomic charges:   -0.0000000

LOEWDIN ATOMIC CHARGES
----------------------
   0 C :    0.106634
   1 C :   -0.016893
   2 O :    0.283934
   3 C :   -0.413974
   4 O :    0.134471
   5 C :   -0.094929
   6 C :   -0.073513
   7 C :    0.126201
   8 N :    0.404238
   9 C :   -0.457544
  10 S :   -0.035954
  11 N :    0.397039
  12 C :   -0.045780
  13 C :   -0.041357
  14 C :    0.021492
  15 C :    0.042027
  16 C :   -0.001920
  17 C :   -0.194625
  18 O :    0.393596
  19 C :    0.027825
  20 H :   -0.027306
  21 H :   -0.024680
  22 H :   -0.030016
  23 H :   -0.024328
  24 H :   -0.031831
  25 H :   -0.007236
  26 H :   -0.019521
  27 H :   -0.010160
  28 H :   -0.058600
  29 H :   -0.064064
  30 H :   -0.004871
  31 H :   -0.024456
  32 H :   -0.020152
  33 H :   -0.035439
  34 H :   -0.153787
  35 H :   -0.024519

  Mayer bond orders larger than 0.100000
B(  0-C ,  1-C ) :   0.9832 B(  0-C , 20-H ) :   0.9706 B(  0-C , 21-H ) :   0.9758
B(  0-C , 22-H ) :   0.9750 B(  1-C ,  2-O ) :   0.8982 B(  1-C , 23-H ) :   0.9816
B(  1-C , 24-H ) :   0.9682 B(  2-O ,  3-C ) :   1.0783 B(  3-C ,  4-O ) :   2.0270
B(  3-C ,  5-C ) :   1.0220 B(  5-C ,  6-C ) :   1.6693 B(  5-C , 12-C ) :   0.9612
B(  6-C ,  7-C ) :   0.9522 B(  6-C ,  8-N ) :   1.1404 B(  7-C , 25-H ) :   0.9696
B(  7-C , 26-H ) :   0.9880 B(  7-C , 27-H ) :   0.9640 B(  8-N ,  9-C ) :   1.1841
B(  8-N , 28-H ) :   0.9496 B(  9-C , 10-S ) :   1.6114 B(  9-C , 11-N ) :   1.2996
B( 11-N , 12-C ) :   0.9938 B( 11-N , 29-H ) :   0.9516 B( 12-C , 13-C ) :   0.9435
B( 12-C , 30-H ) :   0.9987 B( 13-C , 14-C ) :   1.3777 B( 13-C , 19-C ) :   1.3599
B( 14-C , 15-C ) :   1.3934 B( 14-C , 31-H ) :   0.9629 B( 15-C , 16-C ) :   1.3637
B( 15-C , 32-H ) :   0.9702 B( 16-C , 17-C ) :   1.3314 B( 16-C , 33-H ) :   0.9847
B( 17-C , 18-O ) :   1.1091 B( 17-C , 19-C ) :   1.3675 B( 18-O , 34-H ) :   0.9797
B( 19-C , 35-H ) :   0.9589

MP2 TOTAL ENERGY:    -1274.326173985 Eh
FINAL SINGLE POINT ENERGY     -1274.326173984711

DIPOLE MOMENT
-------------
                                X             Y             Z
Electronic contribution:     10.42746      10.28632       7.05551
Nuclear contribution   :    -11.91978     -11.38163      -7.55578
                        -----------------------------------------
Total Dipole Moment    :     -1.49233      -1.09531      -0.50026
                        -----------------------------------------
Magnitude (a.u.)       :      1.91755
Magnitude (Debye)      :      4.87403

Rotational constants in cm-1:     0.012159     0.009057     0.006483
Rotational constants in MHz :   364.518271   271.532928   194.354322

                             ****ORCA TERMINATED NORMALLY****
TOTAL RUN TIME: 0 days 1 hours 31 minutes 29 seconds 600 msec
