                         Program Version 4.2.0 -  RELEASE  -
|  1> ! ri-mp2 cc-pvtz cc-pvtz/c TightSCF  NoKeepInts
|  2>
|  3> %scf
|  4>   MaxCore 4096
|  5> end
|  6> *xyz  0  1
|  7>     C       14.1922533   14.9764872   15.3331378
|  8>     C       15.6180837   14.5921935   15.7624553
|  9>     O       16.3349297   15.8109306   16.0152771
| 10>     C       17.5094838   15.7420326   16.7048368
| 11>     O       18.1387099   14.7006472   16.7999423
| 12>     C       17.7780857   16.9268890   17.5879977
| 13>     C       17.2169625   18.1551974   17.4347129
| 14>     C       16.2392779   18.6088123   16.3697818
| 15>     N       17.5913884   19.2002179   18.2860025
| 16>     C       18.6129548   19.1416890   19.1968373
| 17>     S       19.0772947   20.4657553   20.0725354
| 18>     N       19.2313469   17.9261429   19.3436951
| 19>     C       18.7743792   16.6681625   18.7240027
| 20>     C       18.1750569   15.7411800   19.7785458
| 21>     C       18.6645254   14.4314092   19.9368342
| 22>     C       18.1146823   13.5727130   20.9034036
| 23>     C       17.0652254   14.0264927   21.7203025
| 24>     C       16.5721014   15.3289255   21.5635831
| 25>     O       15.5545492   15.7680538   22.3466144
| 26>     C       17.1210973   16.1811070   20.6003345
| 27>     H       13.6912195   15.5488961   16.1236604
| 28>     H       13.5970583   14.0778138   15.1302399
| 29>     H       14.2141190   15.5870709   14.4219358
| 30>     H       15.5696057   13.9808422   16.6743730
| 31>     H       16.1169687   14.0092324   14.9766646
| 32>     H       16.5896439   18.3214691   15.3705536
| 33>     H       16.0984746   19.6964030   16.3595756
| 34>     H       15.2553312   18.1495940   16.5272740
| 35>     H       17.1495500   20.1008443   18.1931940
| 36>     H       19.9604475   17.9010305   20.0449172
| 37>     H       19.6551443   16.1724311   18.2907458
| 38>     H       19.4644893   14.0721938   19.2939825
| 39>     H       18.4986176   12.5599083   21.0112656
| 40>     H       16.6364947   13.3660586   22.4665752
| 41>     H       15.3407098   15.0569396   22.9689892
| 42>     H       16.7267376   17.1862338   20.4992210
| 43> *
| 44>
| 45>                          ****END OF INPUT****

CARTESIAN COORDINATES (ANGSTROEM)
---------------------------------
  C     14.192253   14.976487   15.333138
  C     15.618084   14.592194   15.762455
  O     16.334930   15.810931   16.015277
  C     17.509484   15.742033   16.704837
  O     18.138710   14.700647   16.799942
  C     17.778086   16.926889   17.587998
  C     17.216962   18.155197   17.434713
  C     16.239278   18.608812   16.369782
  N     17.591388   19.200218   18.286002
  C     18.612955   19.141689   19.196837
  S     19.077295   20.465755   20.072535
  N     19.231347   17.926143   19.343695
  C     18.774379   16.668163   18.724003
  C     18.175057   15.741180   19.778546
  C     18.664525   14.431409   19.936834
  C     18.114682   13.572713   20.903404
  C     17.065225   14.026493   21.720302
  C     16.572101   15.328925   21.563583
  O     15.554549   15.768054   22.346614
  C     17.121097   16.181107   20.600334
  H     13.691220   15.548896   16.123660
  H     13.597058   14.077814   15.130240
  H     14.214119   15.587071   14.421936
  H     15.569606   13.980842   16.674373
  H     16.116969   14.009232   14.976665
  H     16.589644   18.321469   15.370554
  H     16.098475   19.696403   16.359576
  H     15.255331   18.149594   16.527274
  H     17.149550   20.100844   18.193194
  H     19.960447   17.901030   20.044917
  H     19.655144   16.172431   18.290746
  H     19.464489   14.072194   19.293982
  H     18.498618   12.559908   21.011266
  H     16.636495   13.366059   22.466575
  H     15.340710   15.056940   22.968989
  H     16.726738   17.186234   20.499221

 Total Charge           Charge          ....    0
 Multiplicity           Mult            ....    1
 Number of Electrons    NEL             ....  154
 Basis Dimension        Dim             ....  828

ORBITAL ENERGIES
----------------

  NO   OCC          E(Eh)            E(eV)
   0   2.0000     -91.888111     -2500.4026
   1   2.0000     -20.601304      -560.5900
   2   2.0000     -20.592004      -560.3369
   3   2.0000     -20.547022      -559.1129
   4   2.0000     -15.628426      -425.2711
   5   2.0000     -15.606812      -424.6829
   6   2.0000     -11.394781      -310.0678
   7   2.0000     -11.383065      -309.7490
   8   2.0000     -11.335987      -308.4679
   9   2.0000     -11.307802      -307.7009
  10   2.0000     -11.305853      -307.6479
  11   2.0000     -11.299464      -307.4740
  12   2.0000     -11.260506      -306.4139
  13   2.0000     -11.259128      -306.3765
  14   2.0000     -11.253685      -306.2283
  15   2.0000     -11.247896      -306.0708
  16   2.0000     -11.237568      -305.7898
  17   2.0000     -11.235281      -305.7275
  18   2.0000     -11.233692      -305.6843
  19   2.0000     -11.230643      -305.6013
  20   2.0000      -8.893176      -241.9956
  21   2.0000      -6.574754      -178.9081
  22   2.0000      -6.572747      -178.8535
  23   2.0000      -6.572161      -178.8376
  24   2.0000      -1.455490       -39.6059
  25   2.0000      -1.411741       -38.4154
  26   2.0000      -1.357208       -36.9315
  27   2.0000      -1.339350       -36.4456
  28   2.0000      -1.237012       -33.6608
  29   2.0000      -1.152366       -31.3575
  30   2.0000      -1.119726       -30.4693
  31   2.0000      -1.044749       -28.4291
  32   2.0000      -1.037133       -28.2218
  33   2.0000      -1.009740       -27.4764
  34   2.0000      -0.997846       -27.1528
  35   2.0000      -0.983508       -26.7626
  36   2.0000      -0.921209       -25.0674
  37   2.0000      -0.888150       -24.1678
  38   2.0000      -0.847007       -23.0482
  39   2.0000      -0.835150       -22.7256
  40   2.0000      -0.828086       -22.5334
  41   2.0000      -0.818508       -22.2727
  42   2.0000      -0.761584       -20.7238
  43   2.0000      -0.735880       -20.0243
  44   2.0000      -0.725059       -19.7298
  45   2.0000      -0.690911       -18.8007
  46   2.0000      -0.683392       -18.5960
  47   2.0000      -0.682402       -18.5691
  48   2.0000      -0.676251       -18.4017
  49   2.0000      -0.659178       -17.9371
  50   2.0000      -0.650129       -17.6909
  51   2.0000      -0.643623       -17.5139
  52   2.0000      -0.635070       -17.2811
  53   2.0000      -0.601164       -16.3585
  54   2.0000      -0.600519       -16.3410
  55   2.0000      -0.597734       -16.2652
  56   2.0000      -0.595304       -16.1990
  57   2.0000      -0.578641       -15.7456
  58   2.0000      -0.573445       -15.6042
  59   2.0000      -0.564758       -15.3678
  60   2.0000      -0.561723       -15.2853
  61   2.0000      -0.554321       -15.0838
  62   2.0000      -0.541204       -14.7269
  63   2.0000      -0.518388       -14.1061
  64   2.0000      -0.517136       -14.0720
  65   2.0000      -0.511650       -13.9227
  66   2.0000      -0.505566       -13.7571
  67   2.0000      -0.495841       -13.4925
  68   2.0000      -0.480950       -13.0873
  69   2.0000      -0.462456       -12.5841
  70   2.0000      -0.461325       -12.5533
  71   2.0000      -0.455580       -12.3970
  72   2.0000      -0.354152        -9.6370
  73   2.0000      -0.344230        -9.3670
  74   2.0000      -0.327251        -8.9049
  75   2.0000      -0.315707        -8.5908
  76   2.0000      -0.314029        -8.5452
  77   0.0000       0.075516         2.0549
  78   0.0000       0.112222         3.0537
  79   0.0000       0.120202         3.2709
  80   0.0000       0.135638         3.6909
  81   0.0000       0.138746         3.7755

MULLIKEN ATOMIC CHARGES
-----------------------
   0 C :   -0.278334
   1 C :    0.052266
   2 O :   -0.340156
   3 C :    0.427839
   4 O :   -0.420317
   5 C :   -0.169074
   6 C :    0.143565
   7 C :   -0.287826
   8 N :   -0.123042
   9 C :    0.201706
  10 S :   -0.439348
  11 N :   -0.197653
  12 C :    0.038507
  13 C :    0.056123
  14 C :   -0.160491
  15 C :   -0.134072
  16 C :   -0.279466
  17 C :    0.311225
  18 O :   -0.359170
  19 C :   -0.273235
  20 H :    0.095062
  21 H :    0.102480
  22 H :    0.096093
  23 H :    0.091384
  24 H :    0.097594
  25 H :    0.126986
  26 H :    0.104450
  27 H :    0.126819
  28 H :    0.196871
  29 H :    0.193697
  30 H :    0.153645
  31 H :    0.153499
  32 H :    0.159299
  33 H :    0.128212
  34 H :    0.240116
  35 H :    0.164744
Sum of atomic charges:   -0.0000000

LOEWDIN ATOMIC CHARGES
----------------------
   0 C :    0.106983
   1 C :   -0.017719
   2 O :    0.304710
   3 C :   -0.415266
   4 O :    0.107446
   5 C :   -0.091753
   6 C :   -0.067111
   7 C :    0.125164
   8 N :    0.404698
   9 C :   -0.458696
  10 S :   -0.036043
  11 N :    0.397736
  12 C :   -0.046248
  13 C :   -0.038940
  14 C :    0.022184
  15 C :    0.040861
  16 C :   -0.002482
  17 C :   -0.192859
  18 O :    0.392919
  19 C :    0.028169
  20 H :   -0.028085
  21 H :   -0.022692
  22 H :   -0.027796
  23 H :   -0.026508
  24 H :   -0.028819
  25 H :   -0.008414
  26 H :   -0.020758
  27 H :   -0.010269
  28 H :   -0.059117
  29 H :   -0.063727
  30 H :   -0.004835
  31 H :   -0.025205
  32 H :   -0.021154
  33 H :   -0.036394
  34 H :   -0.154885
  35 H :   -0.025097

  Mayer bond orders larger than 0.100000
B(  0-C ,  1-C ) :   0.9698 B(  0-C , 20-H ) :   0.9776 B(  0-C , 21-H ) :   0.9788
B(  0-C , 22-H ) :   0.9772 B(  1-C ,  2-O ) :   0.9069 B(  1-C , 23-H ) :   0.9736
B(  1-C , 24-H ) :   0.9807 B(  2-O ,  3-C ) :   1.1525 B(  3-C ,  4-O ) :   1.9978
B(  3-C ,  5-C ) :   1.0465 B(  5-C ,  6-C ) :   1.6504 B(  5-C , 12-C ) :   0.9665
B(  6-C ,  7-C ) :   0.9537 B(  6-C ,  8-N ) :   1.1436 B(  7-C , 25-H ) :   0.9665
B(  7-C , 26-H ) :   0.9916 B(  7-C , 27-H ) :   0.9631 B(  8-N ,  9-C ) :   1.1796
B(  8-N , 28-H ) :   0.9489 B(  9-C , 10-S ) :   1.6107 B(  9-C , 11-N ) :   1.3038
B( 11-N , 12-C ) :   0.9915 B( 11-N , 29-H ) :   0.9520 B( 12-C , 13-C ) :   0.9472
B( 12-C , 30-H ) :   0.9995 B( 13-C , 14-C ) :   1.3760 B( 13-C , 19-C ) :   1.3693
B( 14-C , 15-C ) :   1.3947 B( 14-C , 31-H ) :   0.9648 B( 15-C , 16-C ) :   1.3625
B( 15-C , 32-H ) :   0.9714 B( 16-C , 17-C ) :   1.3314 B( 16-C , 33-H ) :   0.9860
B( 17-C , 18-O ) :   1.1080 B( 17-C , 19-C ) :   1.3789 B( 18-O , 34-H ) :   0.9805
B( 19-C , 35-H ) :   0.9585

MP2 TOTAL ENERGY:    -1274.345203438 Eh
FINAL SINGLE POINT ENERGY     -1274.345203437569

DIPOLE MOMENT
-------------
                                X             Y             Z
Electronic contribution:     12.08005       8.68031      10.29801
Nuclear contribution   :    -13.56610     -10.01464     -11.20980
                        -----------------------------------------
Total Dipole Moment    :     -1.48605      -1.33433      -0.91179
                        -----------------------------------------
Magnitude (a.u.)       :      2.19548
Magnitude (Debye)      :      5.58046

Rotational constants in cm-1:     0.010330     0.009046     0.006017
Rotational constants in MHz :   309.680176   271.192087   180.395570

                             ****ORCA TERMINATED NORMALLY****
TOTAL RUN TIME: 0 days 2 hours 3 minutes 51 seconds 15 msec
