                         Program Version 5.0.0 -  RELEASE  -
|  1> ! ri-mp2 cc-pvtz cc-pvtz/c TightSCF NoKeepInts
|  2>
|  3> %scf
|  4>   MaxCore 4096
|  5> end
|  6> *xyz  0  1
|  7>     C       14.7204785   16.1756996   16.9103292
|  8>     C       15.6172691   14.9322572   17.0569492
|  9>     O       16.8034527   14.9731869   16.2300224
| 10>     C       17.9252856   15.7495201   16.4019370
| 11>     O       19.0048374   15.3260407   16.0342474
| 12>     C       17.8617055   16.8673064   17.3841537
| 13>     C       17.3725153   18.0789436   17.0368930
| 14>     C       16.7949503   18.4736139   15.6945872
| 15>     N       17.4515118   19.1464374   17.9331899
| 16>     C       18.1055714   19.1052322   19.1369677
| 17>     S       18.1885324   20.4270890   20.1268497
| 18>     N       18.6897811   17.9108874   19.4819236
| 19>     C       18.5973315   16.6561093   18.7080579
| 20>     C       17.9682964   15.5345993   19.5270293
| 21>     C       18.4513366   14.2193671   19.3982374
| 22>     C       17.8686355   13.1680452   20.1250228
| 23>     C       16.7919330   13.4324575   20.9883055
| 24>     C       16.3044901   14.7399188   21.1168371
| 25>     O       15.2559249   14.9961123   21.9382932
| 26>     C       16.8841992   15.7848313   20.3900208
| 27>     H       15.0552197   16.9947974   17.5540430
| 28>     H       13.6973825   15.9299558   17.2205980
| 29>     H       14.6786010   16.5121442   15.8677179
| 30>     H       15.8743647   14.7676142   18.1086278
| 31>     H       15.0290566   14.0616652   16.7390660
| 32>     H       16.7145251   17.6242227   15.0054984
| 33>     H       17.4332187   19.2207704   15.2058605
| 34>     H       15.7924346   18.9048991   15.8046070
| 35>     H       17.0528594   20.0386734   17.6860634
| 36>     H       19.1546332   17.9077911   20.3811874
| 37>     H       19.6241057   16.3475884   18.4605110
| 38>     H       19.2757755   14.0095288   18.7193284
| 39>     H       18.2506399   12.1543240   20.0143060
| 40>     H       16.3386298   12.6225222   21.5505889
| 41>     H       15.0351359   14.1708879   22.3964568
| 42>     H       16.4823792   16.7869597   20.4996854
| 43> *
| 44>
| 45>                          ****END OF INPUT****

CARTESIAN COORDINATES (ANGSTROEM)
---------------------------------
  C     14.720479   16.175700   16.910329
  C     15.617269   14.932257   17.056949
  O     16.803453   14.973187   16.230022
  C     17.925286   15.749520   16.401937
  O     19.004837   15.326041   16.034247
  C     17.861705   16.867306   17.384154
  C     17.372515   18.078944   17.036893
  C     16.794950   18.473614   15.694587
  N     17.451512   19.146437   17.933190
  C     18.105571   19.105232   19.136968
  S     18.188532   20.427089   20.126850
  N     18.689781   17.910887   19.481924
  C     18.597331   16.656109   18.708058
  C     17.968296   15.534599   19.527029
  C     18.451337   14.219367   19.398237
  C     17.868635   13.168045   20.125023
  C     16.791933   13.432457   20.988305
  C     16.304490   14.739919   21.116837
  O     15.255925   14.996112   21.938293
  C     16.884199   15.784831   20.390021
  H     15.055220   16.994797   17.554043
  H     13.697382   15.929956   17.220598
  H     14.678601   16.512144   15.867718
  H     15.874365   14.767614   18.108628
  H     15.029057   14.061665   16.739066
  H     16.714525   17.624223   15.005498
  H     17.433219   19.220770   15.205861
  H     15.792435   18.904899   15.804607
  H     17.052859   20.038673   17.686063
  H     19.154633   17.907791   20.381187
  H     19.624106   16.347588   18.460511
  H     19.275776   14.009529   18.719328
  H     18.250640   12.154324   20.014306
  H     16.338630   12.622522   21.550589
  H     15.035136   14.170888   22.396457
  H     16.482379   16.786960   20.499685

 Total Charge           Charge          ....    0
 Multiplicity           Mult            ....    1
 Number of Electrons    NEL             ....  154
 Basis Dimension        Dim             ....  828

ORBITAL ENERGIES
----------------

  NO   OCC          E(Eh)            E(eV)
   0   2.0000     -91.889849     -2500.4499
   1   2.0000     -20.603226      -560.6423
   2   2.0000     -20.595475      -560.4314
   3   2.0000     -20.551382      -559.2315
   4   2.0000     -15.625583      -425.1937
   5   2.0000     -15.612356      -424.8338
   6   2.0000     -11.398335      -310.1645
   7   2.0000     -11.386770      -309.8498
   8   2.0000     -11.326190      -308.2013
   9   2.0000     -11.321168      -308.0646
  10   2.0000     -11.317428      -307.9629
  11   2.0000     -11.302746      -307.5633
  12   2.0000     -11.267863      -306.6141
  13   2.0000     -11.265858      -306.5596
  14   2.0000     -11.262999      -306.4818
  15   2.0000     -11.261757      -306.4480
  16   2.0000     -11.250297      -306.1361
  17   2.0000     -11.245558      -306.0072
  18   2.0000     -11.243547      -305.9525
  19   2.0000     -11.234561      -305.7080
  20   2.0000      -8.894965      -242.0443
  21   2.0000      -6.576555      -178.9572
  22   2.0000      -6.574526      -178.9020
  23   2.0000      -6.573954      -178.8864
  24   2.0000      -1.444300       -39.3014
  25   2.0000      -1.423043       -38.7230
  26   2.0000      -1.356804       -36.9205
  27   2.0000      -1.339722       -36.4557
  28   2.0000      -1.240234       -33.7485
  29   2.0000      -1.165034       -31.7022
  30   2.0000      -1.126255       -30.6470
  31   2.0000      -1.051136       -28.6029
  32   2.0000      -1.038700       -28.2645
  33   2.0000      -1.022847       -27.8331
  34   2.0000      -1.005530       -27.3619
  35   2.0000      -0.990476       -26.9522
  36   2.0000      -0.929106       -25.2823
  37   2.0000      -0.895942       -24.3798
  38   2.0000      -0.852885       -23.2082
  39   2.0000      -0.843162       -22.9436
  40   2.0000      -0.840415       -22.8689
  41   2.0000      -0.833346       -22.6765
  42   2.0000      -0.752708       -20.4822
  43   2.0000      -0.736342       -20.0369
  44   2.0000      -0.729561       -19.8524
  45   2.0000      -0.700782       -19.0693
  46   2.0000      -0.690804       -18.7977
  47   2.0000      -0.679307       -18.4849
  48   2.0000      -0.676584       -18.4108
  49   2.0000      -0.664339       -18.0776
  50   2.0000      -0.655454       -17.8358
  51   2.0000      -0.641439       -17.4544
  52   2.0000      -0.640783       -17.4366
  53   2.0000      -0.616881       -16.7862
  54   2.0000      -0.610605       -16.6154
  55   2.0000      -0.609177       -16.5765
  56   2.0000      -0.606380       -16.5004
  57   2.0000      -0.585630       -15.9358
  58   2.0000      -0.584378       -15.9017
  59   2.0000      -0.578723       -15.7479
  60   2.0000      -0.567508       -15.4427
  61   2.0000      -0.556928       -15.1548
  62   2.0000      -0.538596       -14.6559
  63   2.0000      -0.534877       -14.5548
  64   2.0000      -0.524756       -14.2793
  65   2.0000      -0.515757       -14.0345
  66   2.0000      -0.504464       -13.7272
  67   2.0000      -0.498425       -13.5628
  68   2.0000      -0.490617       -13.3504
  69   2.0000      -0.465079       -12.6554
  70   2.0000      -0.453724       -12.3465
  71   2.0000      -0.449476       -12.2309
  72   2.0000      -0.355937        -9.6855
  73   2.0000      -0.355266        -9.6673
  74   2.0000      -0.330235        -8.9861
  75   2.0000      -0.328804        -8.9472
  76   2.0000      -0.318684        -8.6718
  77   0.0000       0.090489         2.4623
  78   0.0000       0.101612         2.7650
  79   0.0000       0.117594         3.1999
  80   0.0000       0.125024         3.4021
  81   0.0000       0.127586         3.4718

MULLIKEN ATOMIC CHARGES
-----------------------
   0 C :   -0.328083
   1 C :    0.037252
   2 O :   -0.328679
   3 C :    0.392042
   4 O :   -0.375871
   5 C :   -0.162342
   6 C :    0.113864
   7 C :   -0.330153
   8 N :   -0.136555
   9 C :    0.208229
  10 S :   -0.442628
  11 N :   -0.224860
  12 C :    0.082605
  13 C :   -0.005093
  14 C :   -0.199739
  15 C :   -0.136329
  16 C :   -0.271253
  17 C :    0.308966
  18 O :   -0.356273
  19 C :   -0.252525
  20 H :    0.102965
  21 H :    0.121479
  22 H :    0.106141
  23 H :    0.104311
  24 H :    0.125353
  25 H :    0.121520
  26 H :    0.149768
  27 H :    0.120772
  28 H :    0.197039
  29 H :    0.201862
  30 H :    0.165944
  31 H :    0.170081
  32 H :    0.165647
  33 H :    0.134514
  34 H :    0.241912
  35 H :    0.178116
Sum of atomic charges:    0.0000000

LOEWDIN ATOMIC CHARGES
----------------------
   0 C :    0.103011
   1 C :   -0.014666
   2 O :    0.294970
   3 C :   -0.417175
   4 O :    0.126846
   5 C :   -0.080744
   6 C :   -0.103750
   7 C :    0.125303
   8 N :    0.402087
   9 C :   -0.455440
  10 S :   -0.038693
  11 N :    0.397632
  12 C :   -0.044844
  13 C :   -0.045560
  14 C :    0.019791
  15 C :    0.046187
  16 C :   -0.000189
  17 C :   -0.193863
  18 O :    0.396713
  19 C :    0.026169
  20 H :   -0.034211
  21 H :   -0.021768
  22 H :   -0.028419
  23 H :   -0.032170
  24 H :   -0.019184
  25 H :   -0.009887
  26 H :   -0.008761
  27 H :   -0.016486
  28 H :   -0.057471
  29 H :   -0.064126
  30 H :   -0.002548
  31 H :   -0.021443
  32 H :   -0.017394
  33 H :   -0.033814
  34 H :   -0.152324
  35 H :   -0.023778

  Mayer bond orders larger than 0.100000
B(  0-C ,  1-C ) :   0.9534 B(  0-C , 20-H ) :   0.9763 B(  0-C , 21-H ) :   0.9787
B(  0-C , 22-H ) :   0.9736 B(  1-C ,  2-O ) :   0.9019 B(  1-C , 23-H ) :   0.9654
B(  1-C , 24-H ) :   0.9861 B(  2-O ,  3-C ) :   1.1809 B(  3-C ,  4-O ) :   2.1073
B(  3-C ,  5-C ) :   0.8982 B(  5-C ,  6-C ) :   1.7228 B(  5-C , 12-C ) :   0.9487
B(  6-C ,  7-C ) :   0.9530 B(  6-C ,  8-N ) :   1.0955 B(  7-C , 25-H ) :   0.9804
B(  7-C , 26-H ) :   0.9667 B(  7-C , 27-H ) :   0.9665 B(  8-N ,  9-C ) :   1.2020
B(  8-N , 28-H ) :   0.9517 B(  9-C , 10-S ) :   1.6087 B(  9-C , 11-N ) :   1.2840
B( 11-N , 12-C ) :   0.9927 B( 11-N , 29-H ) :   0.9467 B( 12-C , 13-C ) :   0.9459
B( 12-C , 30-H ) :   0.9965 B( 13-C , 14-C ) :   1.3928 B( 13-C , 19-C ) :   1.3439
B( 14-C , 15-C ) :   1.3966 B( 14-C , 31-H ) :   0.9617 B( 15-C , 16-C ) :   1.3615
B( 15-C , 32-H ) :   0.9693 B( 16-C , 17-C ) :   1.3285 B( 16-C , 33-H ) :   0.9839
B( 17-C , 18-O ) :   1.1126 B( 17-C , 19-C ) :   1.3666 B( 18-O , 34-H ) :   0.9785
B( 19-C , 35-H ) :   0.9577

MP2 TOTAL ENERGY:    -1274.327182542 Eh
FINAL SINGLE POINT ENERGY     -1274.327182541884

DIPOLE MOMENT
-------------
                                X             Y             Z
Electronic contribution:      9.86359       5.05962       6.58749
Nuclear contribution   :    -11.36451      -6.36918      -6.76070
                        -----------------------------------------
Total Dipole Moment    :     -1.50092      -1.30956      -0.17322
                        -----------------------------------------
Magnitude (a.u.)       :      1.99943
Magnitude (Debye)      :      5.08214

Rotational constants in cm-1:     0.012167     0.009282     0.006866
Rotational constants in MHz :   364.745126   278.272559   205.825575

                             ****ORCA TERMINATED NORMALLY****
TOTAL RUN TIME: 0 days 1 hours 37 minutes 31 seconds 696 msec
