                         Program Version 4.2.0 -  RELEASE  -
|  1> ! ri-mp2 cc-pvtz cc-pvtz/c TightSCF  NoKeepInts
|  2>
|  3> %scf
|  4>   MaxCore 4096
|  5> end
|  6> *xyz  0  1
|  7>     C       15.3510664   13.8446862   17.0064110
|  8>     C       16.5124383   14.0633774   16.0175854
|  9>     O       17.3590336   15.1081586   16.5300133
| 10>     C       16.9861609   16.4156053   16.3806273
| 11>     O       16.1543260   16.7653791   15.5601797
| 12>     C       17.6070204   17.3198266   17.4094533
| 13>     C       17.3969851   18.6608044   17.4206993
| 14>     C       16.5470004   19.4639095   16.4593916
| 15>     N       18.0268964   19.4615083   18.3780390
| 16>     C       18.9511054   19.0181547   19.2857383
| 17>     S       19.7193435   20.0488267   20.3267076
| 18>     N       19.2125496   17.6719316   19.2852784
| 19>     C       18.4938384   16.6659594   18.4824745
| 20>     C       17.7005265   15.7472368   19.4073972
| 21>     C       18.1363273   14.4300444   19.6449404
| 22>     C       17.4116188   13.5796781   20.4970117
| 23>     C       16.2415658   14.0500352   21.1172290
| 24>     C       15.8074397   15.3626529   20.8865677
| 25>     O       14.6789542   15.8200645   21.4850050
| 26>     C       16.5320802   16.2074517   20.0403070
| 27>     H       15.7319305   13.6020497   18.0057965
| 28>     H       14.7134755   13.0175022   16.6723724
| 29>     H       14.7277710   14.7445083   17.0831650
| 30>     H       17.0915301   13.1344308   15.9400344
| 31>     H       16.1316720   14.3113318   15.0172219
| 32>     H       15.4987027   19.1430850   16.5127540
| 33>     H       16.8832275   19.3112550   15.4259537
| 34>     H       16.5742965   20.5414390   16.6593635
| 35>     H       17.8485537   20.4529814   18.3921540
| 36>     H       19.8697612   17.3700888   19.9928844
| 37>     H       19.2504073   16.0620538   17.9619789
| 38>     H       19.0377486   14.0623136   19.1622114
| 39>     H       17.7562692   12.5622270   20.6733714
| 40>     H       15.6779684   13.3971104   21.7755143
| 41>     H       14.3433601   15.1117389   22.0546469
| 42>     H       16.1840491   17.2225930   19.8835206
| 43> *
| 44>
| 45>                          ****END OF INPUT****

CARTESIAN COORDINATES (ANGSTROEM)
---------------------------------
  C     15.351066   13.844686   17.006411
  C     16.512438   14.063377   16.017585
  O     17.359034   15.108159   16.530013
  C     16.986161   16.415605   16.380627
  O     16.154326   16.765379   15.560180
  C     17.607020   17.319827   17.409453
  C     17.396985   18.660804   17.420699
  C     16.547000   19.463909   16.459392
  N     18.026896   19.461508   18.378039
  C     18.951105   19.018155   19.285738
  S     19.719344   20.048827   20.326708
  N     19.212550   17.671932   19.285278
  C     18.493838   16.665959   18.482474
  C     17.700526   15.747237   19.407397
  C     18.136327   14.430044   19.644940
  C     17.411619   13.579678   20.497012
  C     16.241566   14.050035   21.117229
  C     15.807440   15.362653   20.886568
  O     14.678954   15.820065   21.485005
  C     16.532080   16.207452   20.040307
  H     15.731930   13.602050   18.005796
  H     14.713475   13.017502   16.672372
  H     14.727771   14.744508   17.083165
  H     17.091530   13.134431   15.940034
  H     16.131672   14.311332   15.017222
  H     15.498703   19.143085   16.512754
  H     16.883228   19.311255   15.425954
  H     16.574296   20.541439   16.659364
  H     17.848554   20.452981   18.392154
  H     19.869761   17.370089   19.992884
  H     19.250407   16.062054   17.961979
  H     19.037749   14.062314   19.162211
  H     17.756269   12.562227   20.673371
  H     15.677968   13.397110   21.775514
  H     14.343360   15.111739   22.054647
  H     16.184049   17.222593   19.883521

 Total Charge           Charge          ....    0
 Multiplicity           Mult            ....    1
 Number of Electrons    NEL             ....  154
 Basis Dimension        Dim             ....  828

ORBITAL ENERGIES
----------------

  NO   OCC          E(Eh)            E(eV)
   0   2.0000     -91.889001     -2500.4268
   1   2.0000     -20.599019      -560.5278
   2   2.0000     -20.597853      -560.4961
   3   2.0000     -20.541623      -558.9660
   4   2.0000     -15.629291      -425.2946
   5   2.0000     -15.608500      -424.7289
   6   2.0000     -11.394816      -310.0687
   7   2.0000     -11.384177      -309.7792
   8   2.0000     -11.336372      -308.4784
   9   2.0000     -11.315229      -307.9030
  10   2.0000     -11.309390      -307.7441
  11   2.0000     -11.294858      -307.3487
  12   2.0000     -11.260853      -306.4234
  13   2.0000     -11.259158      -306.3773
  14   2.0000     -11.256526      -306.3056
  15   2.0000     -11.252302      -306.1907
  16   2.0000     -11.244261      -305.9719
  17   2.0000     -11.239311      -305.8372
  18   2.0000     -11.239057      -305.8303
  19   2.0000     -11.220897      -305.3361
  20   2.0000      -8.894061      -242.0197
  21   2.0000      -6.575635      -178.9321
  22   2.0000      -6.573630      -178.8776
  23   2.0000      -6.573044      -178.8616
  24   2.0000      -1.450383       -39.4669
  25   2.0000      -1.417513       -38.5725
  26   2.0000      -1.353826       -36.8395
  27   2.0000      -1.340305       -36.4715
  28   2.0000      -1.238877       -33.7116
  29   2.0000      -1.158732       -31.5307
  30   2.0000      -1.120829       -30.4993
  31   2.0000      -1.043433       -28.3932
  32   2.0000      -1.034218       -28.1425
  33   2.0000      -1.016314       -27.6553
  34   2.0000      -0.995743       -27.0955
  35   2.0000      -0.984428       -26.7876
  36   2.0000      -0.923109       -25.1191
  37   2.0000      -0.893134       -24.3034
  38   2.0000      -0.847351       -23.0576
  39   2.0000      -0.838656       -22.8210
  40   2.0000      -0.834909       -22.7190
  41   2.0000      -0.814757       -22.1707
  42   2.0000      -0.756126       -20.5752
  43   2.0000      -0.733280       -19.9536
  44   2.0000      -0.723344       -19.6832
  45   2.0000      -0.696941       -18.9647
  46   2.0000      -0.688919       -18.7464
  47   2.0000      -0.678484       -18.4625
  48   2.0000      -0.670536       -18.2462
  49   2.0000      -0.662623       -18.0309
  50   2.0000      -0.648577       -17.6487
  51   2.0000      -0.641802       -17.4643
  52   2.0000      -0.632866       -17.2212
  53   2.0000      -0.608420       -16.5559
  54   2.0000      -0.607563       -16.5326
  55   2.0000      -0.600645       -16.3444
  56   2.0000      -0.599436       -16.3115
  57   2.0000      -0.578566       -15.7436
  58   2.0000      -0.570906       -15.5352
  59   2.0000      -0.567207       -15.4345
  60   2.0000      -0.558570       -15.1995
  61   2.0000      -0.543638       -14.7931
  62   2.0000      -0.532575       -14.4921
  63   2.0000      -0.531346       -14.4587
  64   2.0000      -0.526143       -14.3171
  65   2.0000      -0.513407       -13.9705
  66   2.0000      -0.502073       -13.6621
  67   2.0000      -0.499436       -13.5903
  68   2.0000      -0.479757       -13.0549
  69   2.0000      -0.464458       -12.6385
  70   2.0000      -0.453861       -12.3502
  71   2.0000      -0.446433       -12.1481
  72   2.0000      -0.354573        -9.6484
  73   2.0000      -0.350818        -9.5462
  74   2.0000      -0.328547        -8.9402
  75   2.0000      -0.322743        -8.7823
  76   2.0000      -0.316546        -8.6137
  77   0.0000       0.075982         2.0676
  78   0.0000       0.105267         2.8645
  79   0.0000       0.124342         3.3835
  80   0.0000       0.132112         3.5950
  81   0.0000       0.137539         3.7426

MULLIKEN ATOMIC CHARGES
-----------------------
   0 C :   -0.305402
   1 C :    0.020151
   2 O :   -0.359529
   3 C :    0.460196
   4 O :   -0.433042
   5 C :   -0.233818
   6 C :    0.156193
   7 C :   -0.271341
   8 N :   -0.122235
   9 C :    0.214356
  10 S :   -0.440664
  11 N :   -0.207603
  12 C :    0.066422
  13 C :    0.062366
  14 C :   -0.189099
  15 C :   -0.136949
  16 C :   -0.278190
  17 C :    0.313435
  18 O :   -0.356957
  19 C :   -0.256568
  20 H :    0.107039
  21 H :    0.103283
  22 H :    0.107903
  23 H :    0.110340
  24 H :    0.119818
  25 H :    0.131838
  26 H :    0.131239
  27 H :    0.095303
  28 H :    0.197274
  29 H :    0.195355
  30 H :    0.149706
  31 H :    0.149266
  32 H :    0.161217
  33 H :    0.131112
  34 H :    0.241027
  35 H :    0.166558
Sum of atomic charges:   -0.0000000

LOEWDIN ATOMIC CHARGES
----------------------
   0 C :    0.104935
   1 C :   -0.017496
   2 O :    0.305813
   3 C :   -0.414951
   4 O :    0.096404
   5 C :   -0.094765
   6 C :   -0.058974
   7 C :    0.131590
   8 N :    0.406802
   9 C :   -0.455544
  10 S :   -0.035652
  11 N :    0.396392
  12 C :   -0.051844
  13 C :   -0.037575
  14 C :    0.012411
  15 C :    0.039371
  16 C :   -0.002444
  17 C :   -0.189191
  18 O :    0.396020
  19 C :    0.032127
  20 H :   -0.026200
  21 H :   -0.027587
  22 H :   -0.026218
  23 H :   -0.026037
  24 H :   -0.028175
  25 H :   -0.004719
  26 H :   -0.003799
  27 H :   -0.023358
  28 H :   -0.057511
  29 H :   -0.064764
  30 H :   -0.010592
  31 H :   -0.030142
  32 H :   -0.021098
  33 H :   -0.035459
  34 H :   -0.153580
  35 H :   -0.024189

  Mayer bond orders larger than 0.100000
B(  0-C ,  1-C ) :   0.9608 B(  0-C , 20-H ) :   0.9707 B(  0-C , 21-H ) :   0.9780
B(  0-C , 22-H ) :   0.9762 B(  1-C ,  2-O ) :   0.8901 B(  1-C , 23-H ) :   0.9847
B(  1-C , 24-H ) :   0.9795 B(  2-O ,  3-C ) :   1.1613 B(  3-C ,  4-O ) :   1.9724
B(  3-C ,  5-C ) :   1.0590 B(  5-C ,  6-C ) :   1.6535 B(  5-C , 12-C ) :   0.9729
B(  6-C ,  7-C ) :   0.9664 B(  6-C ,  8-N ) :   1.1652 B(  7-C , 25-H ) :   0.9602
B(  7-C , 26-H ) :   0.9604 B(  7-C , 27-H ) :   0.9904 B(  8-N ,  9-C ) :   1.1834
B(  8-N , 28-H ) :   0.9477 B(  9-C , 10-S ) :   1.6048 B(  9-C , 11-N ) :   1.3075
B( 11-N , 12-C ) :   0.9798 B( 11-N , 29-H ) :   0.9516 B( 12-C , 13-C ) :   0.9374
B( 12-C , 30-H ) :   1.0020 B( 13-C , 14-C ) :   1.3532 B( 13-C , 19-C ) :   1.3820
B( 14-C , 15-C ) :   1.3913 B( 14-C , 31-H ) :   0.9729 B( 15-C , 16-C ) :   1.3588
B( 15-C , 32-H ) :   0.9718 B( 16-C , 17-C ) :   1.3312 B( 16-C , 33-H ) :   0.9852
B( 17-C , 18-O ) :   1.1113 B( 17-C , 19-C ) :   1.3703 B( 18-O , 34-H ) :   0.9796
B( 19-C , 35-H ) :   0.9575

MP2 TOTAL ENERGY:    -1274.351348016 Eh
FINAL SINGLE POINT ENERGY     -1274.351348015567

DIPOLE MOMENT
-------------
                                X             Y             Z
Electronic contribution:      8.97072      10.70426       6.52817
Nuclear contribution   :     -9.79232     -12.45998      -6.87910
                        -----------------------------------------
Total Dipole Moment    :     -0.82160      -1.75573      -0.35093
                        -----------------------------------------
Magnitude (a.u.)       :      1.96996
Magnitude (Debye)      :      5.00725

Rotational constants in cm-1:     0.012523     0.008729     0.006373
Rotational constants in MHz :   375.426607   261.694344   191.043570

                             ****ORCA TERMINATED NORMALLY****
TOTAL RUN TIME: 0 days 1 hours 45 minutes 7 seconds 441 msec
