                         Program Version 4.2.0 -  RELEASE  -
|  1> ! ri-mp2 cc-pvtz cc-pvtz/c TightSCF  NoKeepInts
|  2>
|  3> %scf
|  4>   MaxCore 4096
|  5> end
|  6> *xyz  0  1
|  7>     C       15.3603753   14.5135859   17.3151298
|  8>     C       16.3836179   14.1870500   16.2124948
|  9>     O       17.6242561   14.8986189   16.4177241
| 10>     C       17.6720983   16.2204347   16.0769312
| 11>     O       17.2300321   16.5842836   15.0009898
| 12>     C       17.7599029   17.1271885   17.2743209
| 13>     C       17.3187366   18.4116509   17.2568187
| 14>     C       16.5547636   19.1101414   16.1523814
| 15>     N       17.6176475   19.2651169   18.3239327
| 16>     C       18.5435156   18.9908411   19.2962863
| 17>     S       19.0098777   20.1230411   20.4080368
| 18>     N       19.0728633   17.7245853   19.2911167
| 19>     C       18.5414454   16.6044905   18.4920701
| 20>     C       17.7332923   15.6866790   19.4036455
| 21>     C       18.1595463   14.3651545   19.6367099
| 22>     C       17.4486592   13.5277237   20.5131699
| 23>     C       16.3038778   14.0159839   21.1660984
| 24>     C       15.8792747   15.3327215   20.9411685
| 25>     O       14.7736954   15.8067558   21.5684309
| 26>     C       16.5887446   16.1638883   20.0686787
| 27>     H       15.6795464   14.0947191   18.2742246
| 28>     H       14.3872282   14.0716560   17.0699403
| 29>     H       15.2204980   15.5955836   17.4260170
| 30>     H       16.5816684   13.1077076   16.2286545
| 31>     H       15.9619059   14.4283477   15.2270235
| 32>     H       15.6813752   18.5177268   15.8517466
| 33>     H       17.1882869   19.2326021   15.2644939
| 34>     H       16.1923593   20.1026804   16.4443984
| 35>     H       17.2497583   20.2031039   18.3289081
| 36>     H       19.7334224   17.5405368   20.0352609
| 37>     H       19.4004092   16.0341167   18.1114606
| 38>     H       19.0454963   13.9846815   19.1352232
| 39>     H       17.7865038   12.5071946   20.6853198
| 40>     H       15.7520674   13.3732916   21.8442271
| 41>     H       14.4598797   15.1147210   22.1697874
| 42>     H       16.2503717   17.1833954   19.9211790
| 43> *
| 44>
| 45>                          ****END OF INPUT****

CARTESIAN COORDINATES (ANGSTROEM)
---------------------------------
  C     15.360375   14.513586   17.315130
  C     16.383618   14.187050   16.212495
  O     17.624256   14.898619   16.417724
  C     17.672098   16.220435   16.076931
  O     17.230032   16.584284   15.000990
  C     17.759903   17.127188   17.274321
  C     17.318737   18.411651   17.256819
  C     16.554764   19.110141   16.152381
  N     17.617647   19.265117   18.323933
  C     18.543516   18.990841   19.296286
  S     19.009878   20.123041   20.408037
  N     19.072863   17.724585   19.291117
  C     18.541445   16.604491   18.492070
  C     17.733292   15.686679   19.403645
  C     18.159546   14.365154   19.636710
  C     17.448659   13.527724   20.513170
  C     16.303878   14.015984   21.166098
  C     15.879275   15.332721   20.941168
  O     14.773695   15.806756   21.568431
  C     16.588745   16.163888   20.068679
  H     15.679546   14.094719   18.274225
  H     14.387228   14.071656   17.069940
  H     15.220498   15.595584   17.426017
  H     16.581668   13.107708   16.228655
  H     15.961906   14.428348   15.227023
  H     15.681375   18.517727   15.851747
  H     17.188287   19.232602   15.264494
  H     16.192359   20.102680   16.444398
  H     17.249758   20.203104   18.328908
  H     19.733422   17.540537   20.035261
  H     19.400409   16.034117   18.111461
  H     19.045496   13.984682   19.135223
  H     17.786504   12.507195   20.685320
  H     15.752067   13.373292   21.844227
  H     14.459880   15.114721   22.169787
  H     16.250372   17.183395   19.921179

 Total Charge           Charge          ....    0
 Multiplicity           Mult            ....    1
 Number of Electrons    NEL             ....  154
 Basis Dimension        Dim             ....  828

ORBITAL ENERGIES
----------------

  NO   OCC          E(Eh)            E(eV)
   0   2.0000     -91.890543     -2500.4688
   1   2.0000     -20.598420      -560.5115
   2   2.0000     -20.585612      -560.1630
   3   2.0000     -20.549871      -559.1904
   4   2.0000     -15.630671      -425.3322
   5   2.0000     -15.608957      -424.7413
   6   2.0000     -11.394613      -310.0632
   7   2.0000     -11.384957      -309.8004
   8   2.0000     -11.336679      -308.4867
   9   2.0000     -11.315600      -307.9131
  10   2.0000     -11.311642      -307.8054
  11   2.0000     -11.296106      -307.3827
  12   2.0000     -11.261007      -306.4276
  13   2.0000     -11.260675      -306.4185
  14   2.0000     -11.257201      -306.3240
  15   2.0000     -11.253750      -306.2301
  16   2.0000     -11.245344      -306.0014
  17   2.0000     -11.239713      -305.8482
  18   2.0000     -11.239542      -305.8435
  19   2.0000     -11.221220      -305.3449
  20   2.0000      -8.895554      -242.0603
  21   2.0000      -6.577118      -178.9725
  22   2.0000      -6.575127      -178.9183
  23   2.0000      -6.574529      -178.9020
  24   2.0000      -1.449563       -39.4446
  25   2.0000      -1.418137       -38.5895
  26   2.0000      -1.352157       -36.7941
  27   2.0000      -1.341778       -36.5116
  28   2.0000      -1.239870       -33.7386
  29   2.0000      -1.158796       -31.5324
  30   2.0000      -1.120842       -30.4997
  31   2.0000      -1.043862       -28.4049
  32   2.0000      -1.032093       -28.0847
  33   2.0000      -1.016923       -27.6719
  34   2.0000      -0.998522       -27.1712
  35   2.0000      -0.985797       -26.8249
  36   2.0000      -0.924308       -25.1517
  37   2.0000      -0.891764       -24.2661
  38   2.0000      -0.847817       -23.0703
  39   2.0000      -0.841014       -22.8852
  40   2.0000      -0.835704       -22.7407
  41   2.0000      -0.816069       -22.2064
  42   2.0000      -0.754311       -20.5258
  43   2.0000      -0.733702       -19.9650
  44   2.0000      -0.722982       -19.6734
  45   2.0000      -0.697998       -18.9935
  46   2.0000      -0.690520       -18.7900
  47   2.0000      -0.678308       -18.4577
  48   2.0000      -0.668377       -18.1875
  49   2.0000      -0.667386       -18.1605
  50   2.0000      -0.649390       -17.6708
  51   2.0000      -0.645686       -17.5700
  52   2.0000      -0.637342       -17.3429
  53   2.0000      -0.608924       -16.5697
  54   2.0000      -0.605399       -16.4737
  55   2.0000      -0.600172       -16.3315
  56   2.0000      -0.597888       -16.2694
  57   2.0000      -0.579287       -15.7632
  58   2.0000      -0.572283       -15.5726
  59   2.0000      -0.564834       -15.3699
  60   2.0000      -0.558896       -15.2083
  61   2.0000      -0.547816       -14.9068
  62   2.0000      -0.539776       -14.6881
  63   2.0000      -0.526658       -14.3311
  64   2.0000      -0.522549       -14.2193
  65   2.0000      -0.514967       -14.0130
  66   2.0000      -0.503540       -13.7020
  67   2.0000      -0.502019       -13.6606
  68   2.0000      -0.475134       -12.9291
  69   2.0000      -0.464235       -12.6325
  70   2.0000      -0.452244       -12.3062
  71   2.0000      -0.445284       -12.1168
  72   2.0000      -0.357552        -9.7295
  73   2.0000      -0.350299        -9.5321
  74   2.0000      -0.329691        -8.9713
  75   2.0000      -0.324209        -8.8222
  76   2.0000      -0.317220        -8.6320
  77   0.0000       0.067939         1.8487
  78   0.0000       0.105353         2.8668
  79   0.0000       0.120049         3.2667
  80   0.0000       0.130383         3.5479
  81   0.0000       0.133835         3.6418

MULLIKEN ATOMIC CHARGES
-----------------------
   0 C :   -0.320244
   1 C :    0.039505
   2 O :   -0.382726
   3 C :    0.476305
   4 O :   -0.409893
   5 C :   -0.233682
   6 C :    0.157501
   7 C :   -0.272175
   8 N :   -0.124532
   9 C :    0.202084
  10 S :   -0.434045
  11 N :   -0.191722
  12 C :    0.026646
  13 C :    0.074922
  14 C :   -0.185566
  15 C :   -0.130062
  16 C :   -0.280135
  17 C :    0.309454
  18 O :   -0.358668
  19 C :   -0.262881
  20 H :    0.110447
  21 H :    0.117150
  22 H :    0.100006
  23 H :    0.108532
  24 H :    0.116148
  25 H :    0.125668
  26 H :    0.137064
  27 H :    0.094277
  28 H :    0.198350
  29 H :    0.190838
  30 H :    0.148710
  31 H :    0.150803
  32 H :    0.161499
  33 H :    0.131717
  34 H :    0.241146
  35 H :    0.167558
Sum of atomic charges:    0.0000000

LOEWDIN ATOMIC CHARGES
----------------------
   0 C :    0.105295
   1 C :   -0.014585
   2 O :    0.283335
   3 C :   -0.416624
   4 O :    0.119378
   5 C :   -0.097246
   6 C :   -0.061329
   7 C :    0.129909
   8 N :    0.406673
   9 C :   -0.458074
  10 S :   -0.031768
  11 N :    0.396734
  12 C :   -0.052665
  13 C :   -0.037715
  14 C :    0.014057
  15 C :    0.039064
  16 C :   -0.002678
  17 C :   -0.190968
  18 O :    0.396409
  19 C :    0.034760
  20 H :   -0.026200
  21 H :   -0.025571
  22 H :   -0.030763
  23 H :   -0.023509
  24 H :   -0.029060
  25 H :   -0.007125
  26 H :   -0.003333
  27 H :   -0.023082
  28 H :   -0.057872
  29 H :   -0.065232
  30 H :   -0.006463
  31 H :   -0.029118
  32 H :   -0.020686
  33 H :   -0.035192
  34 H :   -0.153448
  35 H :   -0.025312

  Mayer bond orders larger than 0.100000
B(  0-C ,  1-C ) :   0.9592 B(  0-C , 20-H ) :   0.9738 B(  0-C , 21-H ) :   0.9779
B(  0-C , 22-H ) :   0.9720 B(  1-C ,  2-O ) :   0.8831 B(  1-C , 23-H ) :   0.9853
B(  1-C , 24-H ) :   0.9810 B(  2-O ,  3-C ) :   1.1065 B(  3-C ,  4-O ) :   2.0036
B(  3-C ,  5-C ) :   1.0580 B(  5-C ,  6-C ) :   1.6567 B(  5-C , 12-C ) :   0.9717
B(  6-C ,  7-C ) :   0.9708 B(  6-C ,  8-N ) :   1.1434 B(  7-C , 25-H ) :   0.9657
B(  7-C , 26-H ) :   0.9570 B(  7-C , 27-H ) :   0.9880 B(  8-N ,  9-C ) :   1.1780
B(  8-N , 28-H ) :   0.9487 B(  9-C , 10-S ) :   1.6186 B(  9-C , 11-N ) :   1.2987
B( 11-N , 12-C ) :   0.9858 B( 11-N , 29-H ) :   0.9543 B( 12-C , 13-C ) :   0.9410
B( 12-C , 30-H ) :   1.0058 B( 13-C , 14-C ) :   1.3606 B( 13-C , 19-C ) :   1.3636
B( 14-C , 15-C ) :   1.3868 B( 14-C , 31-H ) :   0.9708 B( 15-C , 16-C ) :   1.3615
B( 15-C , 32-H ) :   0.9715 B( 16-C , 17-C ) :   1.3308 B( 16-C , 33-H ) :   0.9850
B( 17-C , 18-O ) :   1.1131 B( 17-C , 19-C ) :   1.3756 B( 18-O , 34-H ) :   0.9795
B( 19-C , 35-H ) :   0.9576

MP2 TOTAL ENERGY:    -1274.329095134 Eh
FINAL SINGLE POINT ENERGY     -1274.329095134198

DIPOLE MOMENT
-------------
                                X             Y             Z
Electronic contribution:      9.37547       9.20942       5.56165
Nuclear contribution   :    -10.38810     -10.87548      -5.63801
                        -----------------------------------------
Total Dipole Moment    :     -1.01263      -1.66606      -0.07636
                        -----------------------------------------
Magnitude (a.u.)       :      1.95115
Magnitude (Debye)      :      4.95944

Rotational constants in cm-1:     0.011785     0.009811     0.006594
Rotational constants in MHz :   353.319109   294.129931   197.671749

                             ****ORCA TERMINATED NORMALLY****
TOTAL RUN TIME: 0 days 1 hours 53 minutes 45 seconds 527 msec
