                         Program Version 5.0.0 -  RELEASE  -
|  1> ! ri-mp2 cc-pvtz cc-pvtz/c TightSCF NoKeepInts
|  2>
|  3> %scf
|  4>   MaxCore 4096
|  5> end
|  6> *xyz  0  1
|  7>     C       16.0255669   13.0982696   16.4894166
|  8>     C       15.6242879   14.5787282   16.6007184
|  9>     O       16.8143095   15.3672704   16.4375141
| 10>     C       16.6738281   16.7240879   16.3914362
| 11>     O       15.7452311   17.2436083   15.7965934
| 12>     C       17.5212660   17.4356693   17.4104485
| 13>     C       17.5084450   18.7861586   17.5482373
| 14>     C       16.6894623   19.7811576   16.7538618
| 15>     N       18.3469456   19.4040966   18.4807050
| 16>     C       19.3028270   18.7615766   19.2211022
| 17>     S       20.3281195   19.5811443   20.2275894
| 18>     N       19.3729629   17.3993159   19.0795126
| 19>     C       18.4201821   16.5750363   18.3144423
| 20>     C       17.6151743   15.7069020   19.2773232
| 21>     C       17.9241883   14.3421516   19.4269381
| 22>     C       17.1847159   13.5333038   20.3061425
| 23>     C       16.1306059   14.0947350   21.0465260
| 24>     C       15.8268324   15.4559258   20.9082356
| 25>     O       14.8117435   16.0018694   21.6238549
| 26>     C       16.5637886   16.2581102   20.0316607
| 27>     H       16.7473369   12.8306937   17.2698690
| 28>     H       16.4795807   12.8943190   15.5117393
| 29>     H       15.1456651   12.4532755   16.6008523
| 30>     H       14.8921893   14.8187980   15.8174072
| 31>     H       15.1677023   14.7750024   17.5802903
| 32>     H       15.6178019   19.6297860   16.9365462
| 33>     H       16.8588371   19.6504244   15.6774912
| 34>     H       16.9245789   20.8234649   16.9992078
| 35>     H       18.3113207   20.4044415   18.5954388
| 36>     H       20.0644717   16.9503704   19.6660413
| 37>     H       19.0072790   15.9132832   17.6619438
| 38>     H       18.7370640   13.9049648   18.8531735
| 39>     H       17.4300637   12.4779647   20.4127185
| 40>     H       15.5571865   13.4745052   21.7276947
| 41>     H       14.4582661   15.3106794   22.2038525
| 42>     H       16.3171733   17.3109093   19.9474746
| 43> *
| 44>
| 45>                          ****END OF INPUT****

CARTESIAN COORDINATES (ANGSTROEM)
---------------------------------
  C     16.025567   13.098270   16.489417
  C     15.624288   14.578728   16.600718
  O     16.814310   15.367270   16.437514
  C     16.673828   16.724088   16.391436
  O     15.745231   17.243608   15.796593
  C     17.521266   17.435669   17.410449
  C     17.508445   18.786159   17.548237
  C     16.689462   19.781158   16.753862
  N     18.346946   19.404097   18.480705
  C     19.302827   18.761577   19.221102
  S     20.328119   19.581144   20.227589
  N     19.372963   17.399316   19.079513
  C     18.420182   16.575036   18.314442
  C     17.615174   15.706902   19.277323
  C     17.924188   14.342152   19.426938
  C     17.184716   13.533304   20.306142
  C     16.130606   14.094735   21.046526
  C     15.826832   15.455926   20.908236
  O     14.811744   16.001869   21.623855
  C     16.563789   16.258110   20.031661
  H     16.747337   12.830694   17.269869
  H     16.479581   12.894319   15.511739
  H     15.145665   12.453276   16.600852
  H     14.892189   14.818798   15.817407
  H     15.167702   14.775002   17.580290
  H     15.617802   19.629786   16.936546
  H     16.858837   19.650424   15.677491
  H     16.924579   20.823465   16.999208
  H     18.311321   20.404442   18.595439
  H     20.064472   16.950370   19.666041
  H     19.007279   15.913283   17.661944
  H     18.737064   13.904965   18.853174
  H     17.430064   12.477965   20.412719
  H     15.557186   13.474505   21.727695
  H     14.458266   15.310679   22.203852
  H     16.317173   17.310909   19.947475

 Total Charge           Charge          ....    0
 Multiplicity           Mult            ....    1
 Number of Electrons    NEL             ....  154
 Basis Dimension        Dim             ....  828

ORBITAL ENERGIES
----------------

  NO   OCC          E(Eh)            E(eV)
   0   2.0000     -91.889685     -2500.4455
   1   2.0000     -20.599946      -560.5530
   2   2.0000     -20.591610      -560.3262
   3   2.0000     -20.544109      -559.0336
   4   2.0000     -15.629980      -425.3134
   5   2.0000     -15.609250      -424.7493
   6   2.0000     -11.393021      -310.0199
   7   2.0000     -11.384824      -309.7968
   8   2.0000     -11.336525      -308.4825
   9   2.0000     -11.317568      -307.9667
  10   2.0000     -11.310691      -307.7796
  11   2.0000     -11.293320      -307.3069
  12   2.0000     -11.263099      -306.4845
  13   2.0000     -11.259145      -306.3769
  14   2.0000     -11.259113      -306.3760
  15   2.0000     -11.252840      -306.2053
  16   2.0000     -11.246524      -306.0335
  17   2.0000     -11.241430      -305.8949
  18   2.0000     -11.241347      -305.8926
  19   2.0000     -11.226538      -305.4896
  20   2.0000      -8.894742      -242.0382
  21   2.0000      -6.576315      -178.9506
  22   2.0000      -6.574311      -178.8961
  23   2.0000      -6.573723      -178.8801
  24   2.0000      -1.450484       -39.4697
  25   2.0000      -1.419618       -38.6298
  26   2.0000      -1.353323       -36.8258
  27   2.0000      -1.341033       -36.4914
  28   2.0000      -1.239730       -33.7348
  29   2.0000      -1.160844       -31.5882
  30   2.0000      -1.121309       -30.5124
  31   2.0000      -1.044960       -28.4348
  32   2.0000      -1.036499       -28.2046
  33   2.0000      -1.018861       -27.7246
  34   2.0000      -0.996855       -27.1258
  35   2.0000      -0.985300       -26.8114
  36   2.0000      -0.924335       -25.1524
  37   2.0000      -0.883206       -24.0333
  38   2.0000      -0.848212       -23.0810
  39   2.0000      -0.840152       -22.8617
  40   2.0000      -0.836870       -22.7724
  41   2.0000      -0.821837       -22.3633
  42   2.0000      -0.763005       -20.7624
  43   2.0000      -0.735120       -20.0036
  44   2.0000      -0.723574       -19.6895
  45   2.0000      -0.698968       -19.0199
  46   2.0000      -0.688526       -18.7358
  47   2.0000      -0.678124       -18.4527
  48   2.0000      -0.675138       -18.3714
  49   2.0000      -0.659278       -17.9399
  50   2.0000      -0.647416       -17.6171
  51   2.0000      -0.644501       -17.5378
  52   2.0000      -0.636990       -17.3334
  53   2.0000      -0.611031       -16.6270
  54   2.0000      -0.608389       -16.5551
  55   2.0000      -0.602673       -16.3996
  56   2.0000      -0.600022       -16.3274
  57   2.0000      -0.580350       -15.7921
  58   2.0000      -0.571898       -15.5621
  59   2.0000      -0.566174       -15.4064
  60   2.0000      -0.555976       -15.1289
  61   2.0000      -0.539662       -14.6850
  62   2.0000      -0.539180       -14.6718
  63   2.0000      -0.528150       -14.3717
  64   2.0000      -0.518744       -14.1157
  65   2.0000      -0.514206       -13.9923
  66   2.0000      -0.506418       -13.7803
  67   2.0000      -0.500679       -13.6242
  68   2.0000      -0.486878       -13.2486
  69   2.0000      -0.465630       -12.6704
  70   2.0000      -0.457295       -12.4436
  71   2.0000      -0.445099       -12.1117
  72   2.0000      -0.355214        -9.6659
  73   2.0000      -0.352880        -9.6024
  74   2.0000      -0.329450        -8.9648
  75   2.0000      -0.324753        -8.8370
  76   2.0000      -0.317205        -8.6316
  77   0.0000       0.072755         1.9798
  78   0.0000       0.102544         2.7904
  79   0.0000       0.123400         3.3579
  80   0.0000       0.130105         3.5403
  81   0.0000       0.134672         3.6646

MULLIKEN ATOMIC CHARGES
-----------------------
   0 C :   -0.269041
   1 C :    0.020738
   2 O :   -0.367957
   3 C :    0.475065
   4 O :   -0.418749
   5 C :   -0.261833
   6 C :    0.161395
   7 C :   -0.269571
   8 N :   -0.123847
   9 C :    0.215842
  10 S :   -0.440258
  11 N :   -0.209150
  12 C :    0.071583
  13 C :    0.051788
  14 C :   -0.200780
  15 C :   -0.127540
  16 C :   -0.277089
  17 C :    0.314447
  18 O :   -0.356129
  19 C :   -0.260916
  20 H :    0.091137
  21 H :    0.100633
  22 H :    0.091183
  23 H :    0.126494
  24 H :    0.099211
  25 H :    0.132511
  26 H :    0.130369
  27 H :    0.095455
  28 H :    0.197558
  29 H :    0.195167
  30 H :    0.148953
  31 H :    0.156487
  32 H :    0.165036
  33 H :    0.132568
  34 H :    0.241420
  35 H :    0.167819
Sum of atomic charges:    0.0000000

LOEWDIN ATOMIC CHARGES
----------------------
   0 C :    0.108727
   1 C :   -0.018524
   2 O :    0.299012
   3 C :   -0.415937
   4 O :    0.107098
   5 C :   -0.097192
   6 C :   -0.058866
   7 C :    0.131616
   8 N :    0.407013
   9 C :   -0.455240
  10 S :   -0.035126
  11 N :    0.395984
  12 C :   -0.052401
  13 C :   -0.036918
  14 C :    0.014206
  15 C :    0.041887
  16 C :   -0.002229
  17 C :   -0.190137
  18 O :    0.396299
  19 C :    0.030698
  20 H :   -0.032208
  21 H :   -0.026801
  22 H :   -0.024981
  23 H :   -0.028036
  24 H :   -0.031048
  25 H :   -0.004599
  26 H :   -0.003840
  27 H :   -0.023182
  28 H :   -0.057359
  29 H :   -0.065097
  30 H :   -0.009617
  31 H :   -0.030504
  32 H :   -0.020485
  33 H :   -0.034882
  34 H :   -0.153142
  35 H :   -0.024186

  Mayer bond orders larger than 0.100000
B(  0-C ,  1-C ) :   0.9750 B(  0-C , 20-H ) :   0.9761 B(  0-C , 21-H ) :   0.9779
B(  0-C , 22-H ) :   0.9775 B(  1-C ,  2-O ) :   0.8793 B(  1-C , 23-H ) :   0.9815
B(  1-C , 24-H ) :   0.9670 B(  2-O ,  3-C ) :   1.1375 B(  3-C ,  4-O ) :   2.0008
B(  3-C ,  5-C ) :   1.0587 B(  5-C ,  6-C ) :   1.6494 B(  5-C , 12-C ) :   0.9730
B(  6-C ,  7-C ) :   0.9660 B(  6-C ,  8-N ) :   1.1618 B(  7-C , 25-H ) :   0.9591
B(  7-C , 26-H ) :   0.9612 B(  7-C , 27-H ) :   0.9905 B(  8-N ,  9-C ) :   1.1836
B(  8-N , 28-H ) :   0.9478 B(  9-C , 10-S ) :   1.6045 B(  9-C , 11-N ) :   1.3077
B( 11-N , 12-C ) :   0.9736 B( 11-N , 29-H ) :   0.9518 B( 12-C , 13-C ) :   0.9407
B( 12-C , 30-H ) :   1.0011 B( 13-C , 14-C ) :   1.3498 B( 13-C , 19-C ) :   1.3768
B( 14-C , 15-C ) :   1.3854 B( 14-C , 31-H ) :   0.9713 B( 15-C , 16-C ) :   1.3657
B( 15-C , 32-H ) :   0.9689 B( 16-C , 17-C ) :   1.3290 B( 16-C , 33-H ) :   0.9841
B( 17-C , 18-O ) :   1.1129 B( 17-C , 19-C ) :   1.3709 B( 18-O , 34-H ) :   0.9792
B( 19-C , 35-H ) :   0.9584

MP2 TOTAL ENERGY:    -1274.341905758 Eh
FINAL SINGLE POINT ENERGY     -1274.341905758268

DIPOLE MOMENT
-------------
                                X             Y             Z
Electronic contribution:      8.68218      11.20925       6.33168
Nuclear contribution   :     -9.73282     -12.74452      -6.44360
                        -----------------------------------------
Total Dipole Moment    :     -1.05064      -1.53527      -0.11192
                        -----------------------------------------
Magnitude (a.u.)       :      1.86371
Magnitude (Debye)      :      4.73718

Rotational constants in cm-1:     0.012663     0.008455     0.006395
Rotational constants in MHz :   379.623399   253.479890   191.719316

                             ****ORCA TERMINATED NORMALLY****
TOTAL RUN TIME: 0 days 2 hours 6 minutes 49 seconds 734 msec
