                         Program Version 5.0.0 -  RELEASE  -
|  1> ! ri-mp2 cc-pvtz cc-pvtz/c TightSCF NoKeepInts
|  2>
|  3> %scf
|  4>   MaxCore 4096
|  5> end
|  6> *xyz  0  1
|  7>     C       15.9549311   13.9652545   14.8303773
|  8>     C       15.4415734   14.3190550   16.2369630
|  9>     O       16.4061173   15.1931919   16.8498463
| 10>     C       16.1856799   16.5429339   16.8899202
| 11>     O       15.2452741   17.0706142   16.3202603
| 12>     C       17.2414585   17.2793297   17.6676352
| 13>     C       17.2744813   18.6337549   17.7503935
| 14>     C       16.3096476   19.6149285   17.1196378
| 15>     N       18.3034542   19.2684283   18.4527276
| 16>     C       19.3837975   18.6332062   19.0044643
| 17>     S       20.6099660   19.4681004   19.7361604
| 18>     N       19.3991361   17.2645555   18.9174147
| 19>     C       18.2969437   16.4337231   18.3987822
| 20>     C       17.6838905   15.6206039   19.5353432
| 21>     C       17.7923137   14.2172517   19.5484482
| 22>     C       17.2283900   13.4662125   20.5935266
| 23>     C       16.5525909   14.1234374   21.6358021
| 24>     C       16.4458570   15.5209896   21.6278074
| 25>     O       15.7946893   16.1585071   22.6331043
| 26>     C       17.0079419   16.2656820   20.5863550
| 27>     H       16.0188225   14.8659380   14.2066944
| 28>     H       15.2752688   13.2579249   14.3399011
| 29>     H       16.9502358   13.5070571   14.8831392
| 30>     H       14.4417512   14.7719629   16.1884283
| 31>     H       15.3652187   13.3974285   16.8281068
| 32>     H       15.2899638   19.4419047   17.4870303
| 33>     H       16.2899017   19.4903107   16.0294838
| 34>     H       16.5631324   20.6608260   17.3284796
| 35>     H       18.3095005   20.2732806   18.5252912
| 36>     H       20.1897094   16.8219086   19.3678444
| 37>     H       18.7317960   15.7373358   17.6680899
| 38>     H       18.3094612   13.7063664   18.7407052
| 39>     H       17.3155684   12.3811540   20.5934688
| 40>     H       16.1155116   13.5479052   22.4450917
| 41>     H       15.5023173   15.4842221   23.2644536
| 42>     H       16.9207067   17.3467146   20.6028222
| 43> *
| 44>
| 45>                          ****END OF INPUT****

CARTESIAN COORDINATES (ANGSTROEM)
---------------------------------
  C     15.954931   13.965254   14.830377
  C     15.441573   14.319055   16.236963
  O     16.406117   15.193192   16.849846
  C     16.185680   16.542934   16.889920
  O     15.245274   17.070614   16.320260
  C     17.241459   17.279330   17.667635
  C     17.274481   18.633755   17.750393
  C     16.309648   19.614929   17.119638
  N     18.303454   19.268428   18.452728
  C     19.383797   18.633206   19.004464
  S     20.609966   19.468100   19.736160
  N     19.399136   17.264556   18.917415
  C     18.296944   16.433723   18.398782
  C     17.683891   15.620604   19.535343
  C     17.792314   14.217252   19.548448
  C     17.228390   13.466212   20.593527
  C     16.552591   14.123437   21.635802
  C     16.445857   15.520990   21.627807
  O     15.794689   16.158507   22.633104
  C     17.007942   16.265682   20.586355
  H     16.018822   14.865938   14.206694
  H     15.275269   13.257925   14.339901
  H     16.950236   13.507057   14.883139
  H     14.441751   14.771963   16.188428
  H     15.365219   13.397429   16.828107
  H     15.289964   19.441905   17.487030
  H     16.289902   19.490311   16.029484
  H     16.563132   20.660826   17.328480
  H     18.309500   20.273281   18.525291
  H     20.189709   16.821909   19.367844
  H     18.731796   15.737336   17.668090
  H     18.309461   13.706366   18.740705
  H     17.315568   12.381154   20.593469
  H     16.115512   13.547905   22.445092
  H     15.502317   15.484222   23.264454
  H     16.920707   17.346715   20.602822

 Total Charge           Charge          ....    0
 Multiplicity           Mult            ....    1
 Number of Electrons    NEL             ....  154
 Basis Dimension        Dim             ....  828

ORBITAL ENERGIES
----------------

  NO   OCC          E(Eh)            E(eV)
   0   2.0000     -91.888609     -2500.4162
   1   2.0000     -20.602693      -560.6278
   2   2.0000     -20.595240      -560.4250
   3   2.0000     -20.541714      -558.9685
   4   2.0000     -15.628828      -425.2820
   5   2.0000     -15.607883      -424.7121
   6   2.0000     -11.395804      -310.0956
   7   2.0000     -11.383684      -309.7658
   8   2.0000     -11.335852      -308.4642
   9   2.0000     -11.312264      -307.8224
  10   2.0000     -11.308341      -307.7156
  11   2.0000     -11.296416      -307.3911
  12   2.0000     -11.258868      -306.3694
  13   2.0000     -11.258316      -306.3543
  14   2.0000     -11.253740      -306.2298
  15   2.0000     -11.251830      -306.1779
  16   2.0000     -11.241709      -305.9024
  17   2.0000     -11.237247      -305.7810
  18   2.0000     -11.237011      -305.7746
  19   2.0000     -11.227825      -305.5247
  20   2.0000      -8.893670      -242.0091
  21   2.0000      -6.575245      -178.9215
  22   2.0000      -6.573241      -178.8670
  23   2.0000      -6.572654      -178.8510
  24   2.0000      -1.451759       -39.5044
  25   2.0000      -1.414893       -38.5012
  26   2.0000      -1.355185       -36.8764
  27   2.0000      -1.339763       -36.4568
  28   2.0000      -1.238126       -33.6911
  29   2.0000      -1.156456       -31.4688
  30   2.0000      -1.120006       -30.4769
  31   2.0000      -1.042493       -28.3677
  32   2.0000      -1.038318       -28.2541
  33   2.0000      -1.013693       -27.5840
  34   2.0000      -0.995311       -27.0838
  35   2.0000      -0.983872       -26.7725
  36   2.0000      -0.921909       -25.0864
  37   2.0000      -0.892896       -24.2969
  38   2.0000      -0.846579       -23.0366
  39   2.0000      -0.836631       -22.7659
  40   2.0000      -0.832759       -22.6605
  41   2.0000      -0.817069       -22.2336
  42   2.0000      -0.761449       -20.7201
  43   2.0000      -0.731497       -19.9050
  44   2.0000      -0.722660       -19.6646
  45   2.0000      -0.694430       -18.8964
  46   2.0000      -0.687219       -18.7002
  47   2.0000      -0.680660       -18.5217
  48   2.0000      -0.672352       -18.2956
  49   2.0000      -0.655837       -17.8462
  50   2.0000      -0.645394       -17.5621
  51   2.0000      -0.644545       -17.5389
  52   2.0000      -0.630942       -17.1688
  53   2.0000      -0.610903       -16.6235
  54   2.0000      -0.605383       -16.4733
  55   2.0000      -0.598663       -16.2905
  56   2.0000      -0.597794       -16.2668
  57   2.0000      -0.577930       -15.7263
  58   2.0000      -0.570473       -15.5234
  59   2.0000      -0.568825       -15.4785
  60   2.0000      -0.563262       -15.3271
  61   2.0000      -0.539750       -14.6873
  62   2.0000      -0.537159       -14.6168
  63   2.0000      -0.532955       -14.5025
  64   2.0000      -0.523871       -14.2553
  65   2.0000      -0.512922       -13.9573
  66   2.0000      -0.500794       -13.6273
  67   2.0000      -0.496946       -13.5226
  68   2.0000      -0.485521       -13.2117
  69   2.0000      -0.463527       -12.6132
  70   2.0000      -0.454169       -12.3586
  71   2.0000      -0.449582       -12.2337
  72   2.0000      -0.354140        -9.6366
  73   2.0000      -0.348248        -9.4763
  74   2.0000      -0.327891        -8.9224
  75   2.0000      -0.320017        -8.7081
  76   2.0000      -0.315581        -8.5874
  77   0.0000       0.076798         2.0898
  78   0.0000       0.107955         2.9376
  79   0.0000       0.123692         3.3658
  80   0.0000       0.132914         3.6168
  81   0.0000       0.136066         3.7025

MULLIKEN ATOMIC CHARGES
-----------------------
   0 C :   -0.275653
   1 C :    0.024968
   2 O :   -0.349517
   3 C :    0.475330
   4 O :   -0.438162
   5 C :   -0.222080
   6 C :    0.148622
   7 C :   -0.274372
   8 N :   -0.119951
   9 C :    0.210200
  10 S :   -0.439967
  11 N :   -0.203017
  12 C :    0.044680
  13 C :    0.067459
  14 C :   -0.176558
  15 C :   -0.133664
  16 C :   -0.277628
  17 C :    0.315267
  18 O :   -0.356902
  19 C :   -0.268294
  20 H :    0.103864
  21 H :    0.092722
  22 H :    0.091687
  23 H :    0.114295
  24 H :    0.105677
  25 H :    0.131994
  26 H :    0.130812
  27 H :    0.094926
  28 H :    0.197287
  29 H :    0.194383
  30 H :    0.151345
  31 H :    0.146882
  32 H :    0.159266
  33 H :    0.129090
  34 H :    0.240500
  35 H :    0.164512
Sum of atomic charges:    0.0000000

LOEWDIN ATOMIC CHARGES
----------------------
   0 C :    0.104345
   1 C :   -0.014743
   2 O :    0.311191
   3 C :   -0.413005
   4 O :    0.093631
   5 C :   -0.093992
   6 C :   -0.058822
   7 C :    0.131451
   8 N :    0.406521
   9 C :   -0.456772
  10 S :   -0.035577
  11 N :    0.396641
  12 C :   -0.052911
  13 C :   -0.038986
  14 C :    0.014448
  15 C :    0.038993
  16 C :   -0.001309
  17 C :   -0.189545
  18 O :    0.394973
  19 C :    0.031547
  20 H :   -0.025111
  21 H :   -0.026328
  22 H :   -0.029473
  23 H :   -0.027673
  24 H :   -0.027926
  25 H :   -0.004477
  26 H :   -0.004118
  27 H :   -0.023463
  28 H :   -0.057604
  29 H :   -0.064520
  30 H :   -0.011608
  31 H :   -0.030452
  32 H :   -0.021666
  33 H :   -0.035729
  34 H :   -0.154091
  35 H :   -0.023839

  Mayer bond orders larger than 0.100000
B(  0-C ,  1-C ) :   0.9683 B(  0-C , 20-H ) :   0.9784 B(  0-C , 21-H ) :   0.9756
B(  0-C , 22-H ) :   0.9784 B(  1-C ,  2-O ) :   0.8888 B(  1-C , 23-H ) :   0.9750
B(  1-C , 24-H ) :   0.9821 B(  2-O ,  3-C ) :   1.1726 B(  3-C ,  4-O ) :   1.9577
B(  3-C ,  5-C ) :   1.0642 B(  5-C ,  6-C ) :   1.6563 B(  5-C , 12-C ) :   0.9726
B(  6-C ,  7-C ) :   0.9674 B(  6-C ,  8-N ) :   1.1653 B(  7-C , 25-H ) :   0.9609
B(  7-C , 26-H ) :   0.9599 B(  7-C , 27-H ) :   0.9904 B(  8-N ,  9-C ) :   1.1824
B(  8-N , 28-H ) :   0.9479 B(  9-C , 10-S ) :   1.6078 B(  9-C , 11-N ) :   1.3048
B( 11-N , 12-C ) :   0.9889 B( 11-N , 29-H ) :   0.9516 B( 12-C , 13-C ) :   0.9370
B( 12-C , 30-H ) :   1.0034 B( 13-C , 14-C ) :   1.3562 B( 13-C , 19-C ) :   1.3820
B( 14-C , 15-C ) :   1.3935 B( 14-C , 31-H ) :   0.9721 B( 15-C , 16-C ) :   1.3643
B( 15-C , 32-H ) :   0.9709 B( 16-C , 17-C ) :   1.3316 B( 16-C , 33-H ) :   0.9854
B( 17-C , 18-O ) :   1.1096 B( 17-C , 19-C ) :   1.3738 B( 18-O , 34-H ) :   0.9801
B( 19-C , 35-H ) :   0.9583

MP2 TOTAL ENERGY:    -1274.350736491 Eh
FINAL SINGLE POINT ENERGY     -1274.350736490926

DIPOLE MOMENT
-------------
                                X             Y             Z
Electronic contribution:      9.04848       9.34307      10.37601
Nuclear contribution   :    -10.23618     -10.95372     -10.73065
                        -----------------------------------------
Total Dipole Moment    :     -1.18770      -1.61065      -0.35463
                        -----------------------------------------
Magnitude (a.u.)       :      2.03239
Magnitude (Debye)      :      5.16591

Rotational constants in cm-1:     0.010689     0.008831     0.006040
Rotational constants in MHz :   320.450965   264.738630   181.086387

                             ****ORCA TERMINATED NORMALLY****
TOTAL RUN TIME: 0 days 1 hours 52 minutes 52 seconds 689 msec
