                         Program Version 4.2.0 -  RELEASE  -
|  1> ! ri-mp2 cc-pvtz cc-pvtz/c TightSCF  NoKeepInts
|  2>
|  3> %scf
|  4>   MaxCore 4096
|  5> end
|  6> *xyz  0  1
|  7>     C       14.4992829   14.6851249   16.0146342
|  8>     C       15.7204124   14.9703286   16.9039424
|  9>     O       16.8057474   15.3465773   16.0405426
| 10>     C       18.0160445   15.5376753   16.6346568
| 11>     O       18.7164073   14.5792604   16.9078867
| 12>     C       18.0750009   16.8051946   17.4319171
| 13>     C       17.5237581   17.9730768   17.0193719
| 14>     C       16.8064191   18.2339165   15.7116604
| 15>     N       17.6564918   19.1203330   17.8068529
| 16>     C       18.4308182   19.2074068   18.9345088
| 17>     S       18.6215621   20.6328357   19.7507318
| 18>     N       19.0372021   18.0492438   19.3541803
| 19>     C       18.8018922   16.7123460   18.7751504
| 20>     C       18.0128720   15.8346201   19.7431296
| 21>     C       18.4778185   14.5507001   20.0816374
| 22>     C       17.7424511   13.7284962   20.9516102
| 23>     C       16.5291782   14.1922980   21.4876597
| 24>     C       16.0599730   15.4686113   21.1497184
| 25>     O       14.8823998   15.9151314   21.6541296
| 26>     C       16.7937825   16.2845564   20.2830976
| 27>     H       14.7190489   13.8750571   15.3077883
| 28>     H       14.2181336   15.5775442   15.4422505
| 29>     H       13.6403636   14.3830390   16.6261780
| 30>     H       15.4878712   15.7742248   17.6149367
| 31>     H       15.9836747   14.0674355   17.4727374
| 32>     H       17.2872130   17.6975257   14.8837395
| 33>     H       16.8047532   19.2973511   15.4425364
| 34>     H       15.7634202   17.8989720   15.7657760
| 35>     H       17.2225444   19.9813861   17.5136861
| 36>     H       19.5807768   18.1365180   20.2034716
| 37>     H       19.7812590   16.2439096   18.5987927
| 38>     H       19.4053704   14.1807343   19.6506524
| 39>     H       18.1110850   12.7347116   21.2001762
| 40>     H       15.9568413   13.5587823   22.1572744
| 41>     H       14.5625652   15.2472285   22.2795828
| 42>     H       16.4125656   17.2698469   20.0374023
| 43> *
| 44>
| 45>                          ****END OF INPUT****

CARTESIAN COORDINATES (ANGSTROEM)
---------------------------------
  C     14.499283   14.685125   16.014634
  C     15.720412   14.970329   16.903942
  O     16.805747   15.346577   16.040543
  C     18.016044   15.537675   16.634657
  O     18.716407   14.579260   16.907887
  C     18.075001   16.805195   17.431917
  C     17.523758   17.973077   17.019372
  C     16.806419   18.233916   15.711660
  N     17.656492   19.120333   17.806853
  C     18.430818   19.207407   18.934509
  S     18.621562   20.632836   19.750732
  N     19.037202   18.049244   19.354180
  C     18.801892   16.712346   18.775150
  C     18.012872   15.834620   19.743130
  C     18.477819   14.550700   20.081637
  C     17.742451   13.728496   20.951610
  C     16.529178   14.192298   21.487660
  C     16.059973   15.468611   21.149718
  O     14.882400   15.915131   21.654130
  C     16.793782   16.284556   20.283098
  H     14.719049   13.875057   15.307788
  H     14.218134   15.577544   15.442250
  H     13.640364   14.383039   16.626178
  H     15.487871   15.774225   17.614937
  H     15.983675   14.067435   17.472737
  H     17.287213   17.697526   14.883740
  H     16.804753   19.297351   15.442536
  H     15.763420   17.898972   15.765776
  H     17.222544   19.981386   17.513686
  H     19.580777   18.136518   20.203472
  H     19.781259   16.243910   18.598793
  H     19.405370   14.180734   19.650652
  H     18.111085   12.734712   21.200176
  H     15.956841   13.558782   22.157274
  H     14.562565   15.247228   22.279583
  H     16.412566   17.269847   20.037402

 Total Charge           Charge          ....    0
 Multiplicity           Mult            ....    1
 Number of Electrons    NEL             ....  154
 Basis Dimension        Dim             ....  828

ORBITAL ENERGIES
----------------

  NO   OCC          E(Eh)            E(eV)
   0   2.0000     -91.890461     -2500.4666
   1   2.0000     -20.597540      -560.4875
   2   2.0000     -20.583029      -560.0927
   3   2.0000     -20.557084      -559.3867
   4   2.0000     -15.630281      -425.3216
   5   2.0000     -15.609839      -424.7653
   6   2.0000     -11.393397      -310.0301
   7   2.0000     -11.386052      -309.8302
   8   2.0000     -11.335141      -308.4449
   9   2.0000     -11.313627      -307.8595
  10   2.0000     -11.309983      -307.7603
  11   2.0000     -11.300297      -307.4967
  12   2.0000     -11.263431      -306.4935
  13   2.0000     -11.260534      -306.4147
  14   2.0000     -11.259149      -306.3770
  15   2.0000     -11.253552      -306.2247
  16   2.0000     -11.243301      -305.9458
  17   2.0000     -11.239263      -305.8359
  18   2.0000     -11.236161      -305.7515
  19   2.0000     -11.233003      -305.6655
  20   2.0000      -8.895529      -242.0596
  21   2.0000      -6.577104      -178.9721
  22   2.0000      -6.575096      -178.9175
  23   2.0000      -6.574509      -178.9015
  24   2.0000      -1.452849       -39.5340
  25   2.0000      -1.417336       -38.5677
  26   2.0000      -1.358231       -36.9594
  27   2.0000      -1.341302       -36.4987
  28   2.0000      -1.239433       -33.7267
  29   2.0000      -1.157881       -31.5075
  30   2.0000      -1.122899       -30.5556
  31   2.0000      -1.046058       -28.4647
  32   2.0000      -1.036263       -28.1981
  33   2.0000      -1.015372       -27.6297
  34   2.0000      -1.001523       -27.2528
  35   2.0000      -0.987177       -26.8625
  36   2.0000      -0.925092       -25.1730
  37   2.0000      -0.878361       -23.9014
  38   2.0000      -0.851565       -23.1723
  39   2.0000      -0.841550       -22.8997
  40   2.0000      -0.833867       -22.6907
  41   2.0000      -0.832097       -22.6425
  42   2.0000      -0.757479       -20.6121
  43   2.0000      -0.736485       -20.0408
  44   2.0000      -0.730004       -19.8644
  45   2.0000      -0.695512       -18.9258
  46   2.0000      -0.687855       -18.7175
  47   2.0000      -0.682298       -18.5663
  48   2.0000      -0.675450       -18.3799
  49   2.0000      -0.658439       -17.9170
  50   2.0000      -0.650328       -17.6963
  51   2.0000      -0.642596       -17.4859
  52   2.0000      -0.633670       -17.2430
  53   2.0000      -0.623230       -16.9590
  54   2.0000      -0.606075       -16.4921
  55   2.0000      -0.604849       -16.4588
  56   2.0000      -0.601113       -16.3571
  57   2.0000      -0.580745       -15.8029
  58   2.0000      -0.576912       -15.6986
  59   2.0000      -0.565305       -15.3827
  60   2.0000      -0.558354       -15.1936
  61   2.0000      -0.551215       -14.9993
  62   2.0000      -0.536931       -14.6106
  63   2.0000      -0.523578       -14.2473
  64   2.0000      -0.523113       -14.2346
  65   2.0000      -0.514247       -13.9934
  66   2.0000      -0.502962       -13.6863
  67   2.0000      -0.498296       -13.5593
  68   2.0000      -0.482904       -13.1405
  69   2.0000      -0.466037       -12.6815
  70   2.0000      -0.459860       -12.5134
  71   2.0000      -0.453890       -12.3510
  72   2.0000      -0.356481        -9.7003
  73   2.0000      -0.349283        -9.5045
  74   2.0000      -0.329710        -8.9719
  75   2.0000      -0.320929        -8.7329
  76   2.0000      -0.317714        -8.6454
  77   0.0000       0.069523         1.8918
  78   0.0000       0.103411         2.8140
  79   0.0000       0.117617         3.2005
  80   0.0000       0.131091         3.5672
  81   0.0000       0.134492         3.6597

MULLIKEN ATOMIC CHARGES
-----------------------
   0 C :   -0.259111
   1 C :    0.014152
   2 O :   -0.366227
   3 C :    0.476033
   4 O :   -0.386144
   5 C :   -0.244926
   6 C :    0.152514
   7 C :   -0.286114
   8 N :   -0.124599
   9 C :    0.199144
  10 S :   -0.437172
  11 N :   -0.201700
  12 C :    0.051984
  13 C :    0.055435
  14 C :   -0.167879
  15 C :   -0.133039
  16 C :   -0.279780
  17 C :    0.318736
  18 O :   -0.359345
  19 C :   -0.305955
  20 H :    0.106324
  21 H :    0.090707
  22 H :    0.092697
  23 H :    0.097415
  24 H :    0.118281
  25 H :    0.129882
  26 H :    0.110903
  27 H :    0.120328
  28 H :    0.197358
  29 H :    0.194469
  30 H :    0.157404
  31 H :    0.159947
  32 H :    0.161882
  33 H :    0.131241
  34 H :    0.241440
  35 H :    0.173712
Sum of atomic charges:   -0.0000000

LOEWDIN ATOMIC CHARGES
----------------------
   0 C :    0.111433
   1 C :   -0.022283
   2 O :    0.289398
   3 C :   -0.420816
   4 O :    0.135942
   5 C :   -0.095311
   6 C :   -0.077289
   7 C :    0.127168
   8 N :    0.404257
   9 C :   -0.457784
  10 S :   -0.034534
  11 N :    0.397063
  12 C :   -0.045777
  13 C :   -0.041377
  14 C :    0.022130
  15 C :    0.042642
  16 C :   -0.001748
  17 C :   -0.195102
  18 O :    0.393384
  19 C :    0.028047
  20 H :   -0.022951
  21 H :   -0.030770
  22 H :   -0.023828
  23 H :   -0.037665
  24 H :   -0.024173
  25 H :   -0.006368
  26 H :   -0.018038
  27 H :   -0.011815
  28 H :   -0.058465
  29 H :   -0.063879
  30 H :   -0.003835
  31 H :   -0.023733
  32 H :   -0.019753
  33 H :   -0.035283
  34 H :   -0.153451
  35 H :   -0.025433

  Mayer bond orders larger than 0.100000
B(  0-C ,  1-C ) :   0.9781 B(  0-C , 20-H ) :   0.9789 B(  0-C , 21-H ) :   0.9784
B(  0-C , 22-H ) :   0.9762 B(  1-C ,  2-O ) :   0.8900 B(  1-C , 23-H ) :   0.9656
B(  1-C , 24-H ) :   0.9754 B(  2-O ,  3-C ) :   1.1084 B(  3-C ,  4-O ) :   2.0647
B(  3-C ,  5-C ) :   0.9872 B(  5-C ,  6-C ) :   1.6619 B(  5-C , 12-C ) :   0.9649
B(  6-C ,  7-C ) :   0.9523 B(  6-C ,  8-N ) :   1.1373 B(  7-C , 25-H ) :   0.9700
B(  7-C , 26-H ) :   0.9865 B(  7-C , 27-H ) :   0.9634 B(  8-N ,  9-C ) :   1.1829
B(  8-N , 28-H ) :   0.9496 B(  9-C , 10-S ) :   1.6142 B(  9-C , 11-N ) :   1.2982
B( 11-N , 12-C ) :   0.9941 B( 11-N , 29-H ) :   0.9519 B( 12-C , 13-C ) :   0.9452
B( 12-C , 30-H ) :   0.9989 B( 13-C , 14-C ) :   1.3821 B( 13-C , 19-C ) :   1.3483
B( 14-C , 15-C ) :   1.3949 B( 14-C , 31-H ) :   0.9620 B( 15-C , 16-C ) :   1.3645
B( 15-C , 32-H ) :   0.9705 B( 16-C , 17-C ) :   1.3304 B( 16-C , 33-H ) :   0.9847
B( 17-C , 18-O ) :   1.1108 B( 17-C , 19-C ) :   1.3697 B( 18-O , 34-H ) :   0.9797
B( 19-C , 35-H ) :   0.9585

MP2 TOTAL ENERGY:    -1274.325222002 Eh
FINAL SINGLE POINT ENERGY     -1274.325222001997

DIPOLE MOMENT
-------------
                                X             Y             Z
Electronic contribution:     11.25255       8.76683       7.54191
Nuclear contribution   :    -12.58119      -9.90596      -7.94333
                        -----------------------------------------
Total Dipole Moment    :     -1.32864      -1.13913      -0.40142
                        -----------------------------------------
Magnitude (a.u.)       :      1.79556
Magnitude (Debye)      :      4.56396

Rotational constants in cm-1:     0.011347     0.009310     0.006733
Rotational constants in MHz :   340.163110   279.094564   201.845018

                             ****ORCA TERMINATED NORMALLY****
TOTAL RUN TIME: 0 days 1 hours 44 minutes 6 seconds 593 msec
