                         Program Version 5.0.0 -  RELEASE  -
|  1> ! ri-mp2 cc-pvtz cc-pvtz/c TightSCF NoKeepInts
|  2>
|  3> %scf
|  4>   MaxCore 4096
|  5> end
|  6> *xyz  0  1
|  7>     C       14.6567370   15.7512076   16.4619438
|  8>     C       15.6652638   14.8969122   17.2522331
|  9>     O       16.9075711   14.8174678   16.5226200
| 10>     C       17.7926346   15.8521127   16.3627689
| 11>     O       18.5182861   15.9105846   15.3884471
| 12>     C       17.7926818   16.9307151   17.3949281
| 13>     C       17.4184343   18.1900852   17.0717839
| 14>     C       16.8443901   18.6591719   15.7519478
| 15>     N       17.5877036   19.2296672   17.9878036
| 16>     C       18.2354403   19.1121194   19.1889033
| 17>     S       18.4293500   20.4015663   20.2056403
| 18>     N       18.7182470   17.8676540   19.5095923
| 19>     C       18.5270343   16.6383761   18.7135139
| 20>     C       17.9096950   15.5274558   19.5578286
| 21>     C       18.3336358   14.1967304   19.3825462
| 22>     C       17.7717594   13.1590830   20.1445545
| 23>     C       16.7800171   13.4527459   21.0954014
| 24>     C       16.3576220   14.7760958   21.2781501
| 25>     O       15.3944409   15.0620800   22.1892965
| 26>     C       16.9161636   15.8076737   20.5164491
| 27>     H       14.9015307   16.8156766   16.5241641
| 28>     H       13.6475007   15.6192644   16.8708759
| 29>     H       14.6374338   15.4535101   15.4057364
| 30>     H       15.7870713   15.3111639   18.2545581
| 31>     H       15.2596387   13.8826020   17.3598563
| 32>     H       16.6260589   17.8285305   15.0695989
| 33>     H       17.5586150   19.3121332   15.2344960
| 34>     H       15.9121817   19.2183871   15.8968103
| 35>     H       17.2658168   20.1563366   17.7560901
| 36>     H       19.1801647   17.8113841   20.4087987
| 37>     H       19.5321857   16.2925656   18.4308299
| 38>     H       19.0953969   13.9627719   18.6422211
| 39>     H       18.1051245   12.1331114   19.9956075
| 40>     H       16.3434937   12.6535941   21.6858416
| 41>     H       15.1728491   14.2385733   22.6501902
| 42>     H       16.5648298   16.8228906   20.6719722
| 43> *
| 44>
| 45>                          ****END OF INPUT****

CARTESIAN COORDINATES (ANGSTROEM)
---------------------------------
  C     14.656737   15.751208   16.461944
  C     15.665264   14.896912   17.252233
  O     16.907571   14.817468   16.522620
  C     17.792635   15.852113   16.362769
  O     18.518286   15.910585   15.388447
  C     17.792682   16.930715   17.394928
  C     17.418434   18.190085   17.071784
  C     16.844390   18.659172   15.751948
  N     17.587704   19.229667   17.987804
  C     18.235440   19.112119   19.188903
  S     18.429350   20.401566   20.205640
  N     18.718247   17.867654   19.509592
  C     18.527034   16.638376   18.713514
  C     17.909695   15.527456   19.557829
  C     18.333636   14.196730   19.382546
  C     17.771759   13.159083   20.144555
  C     16.780017   13.452746   21.095401
  C     16.357622   14.776096   21.278150
  O     15.394441   15.062080   22.189297
  C     16.916164   15.807674   20.516449
  H     14.901531   16.815677   16.524164
  H     13.647501   15.619264   16.870876
  H     14.637434   15.453510   15.405736
  H     15.787071   15.311164   18.254558
  H     15.259639   13.882602   17.359856
  H     16.626059   17.828530   15.069599
  H     17.558615   19.312133   15.234496
  H     15.912182   19.218387   15.896810
  H     17.265817   20.156337   17.756090
  H     19.180165   17.811384   20.408799
  H     19.532186   16.292566   18.430830
  H     19.095397   13.962772   18.642221
  H     18.105124   12.133111   19.995607
  H     16.343494   12.653594   21.685842
  H     15.172849   14.238573   22.650190
  H     16.564830   16.822891   20.671972

 Total Charge           Charge          ....    0
 Multiplicity           Mult            ....    1
 Number of Electrons    NEL             ....  154
 Basis Dimension        Dim             ....  828

ORBITAL ENERGIES
----------------

  NO   OCC          E(Eh)            E(eV)
   0   2.0000     -91.889716     -2500.4463
   1   2.0000     -20.604274      -560.6708
   2   2.0000     -20.598392      -560.5107
   3   2.0000     -20.552274      -559.2558
   4   2.0000     -15.624887      -425.1748
   5   2.0000     -15.612496      -424.8376
   6   2.0000     -11.397629      -310.1453
   7   2.0000     -11.386356      -309.8385
   8   2.0000     -11.327163      -308.2278
   9   2.0000     -11.322517      -308.1013
  10   2.0000     -11.320837      -308.0556
  11   2.0000     -11.300888      -307.5128
  12   2.0000     -11.270489      -306.6856
  13   2.0000     -11.263725      -306.5015
  14   2.0000     -11.263420      -306.4932
  15   2.0000     -11.259844      -306.3959
  16   2.0000     -11.251806      -306.1772
  17   2.0000     -11.247075      -306.0485
  18   2.0000     -11.246787      -306.0406
  19   2.0000     -11.233318      -305.6741
  20   2.0000      -8.894832      -242.0407
  21   2.0000      -6.576423      -178.9536
  22   2.0000      -6.574394      -178.8983
  23   2.0000      -6.573822      -178.8828
  24   2.0000      -1.446793       -39.3692
  25   2.0000      -1.424078       -38.7511
  26   2.0000      -1.360438       -37.0194
  27   2.0000      -1.339576       -36.4517
  28   2.0000      -1.240682       -33.7607
  29   2.0000      -1.165993       -31.7283
  30   2.0000      -1.124960       -30.6117
  31   2.0000      -1.050984       -28.5987
  32   2.0000      -1.038105       -28.2483
  33   2.0000      -1.024411       -27.8756
  34   2.0000      -1.004560       -27.3355
  35   2.0000      -0.989530       -26.9265
  36   2.0000      -0.929092       -25.2819
  37   2.0000      -0.894949       -24.3528
  38   2.0000      -0.852544       -23.1989
  39   2.0000      -0.844385       -22.9769
  40   2.0000      -0.841617       -22.9016
  41   2.0000      -0.835258       -22.7285
  42   2.0000      -0.754877       -20.5412
  43   2.0000      -0.737896       -20.0792
  44   2.0000      -0.725199       -19.7337
  45   2.0000      -0.702533       -19.1169
  46   2.0000      -0.693125       -18.8609
  47   2.0000      -0.680668       -18.5219
  48   2.0000      -0.677350       -18.4316
  49   2.0000      -0.667070       -18.1519
  50   2.0000      -0.654910       -17.8210
  51   2.0000      -0.645371       -17.5614
  52   2.0000      -0.636719       -17.3260
  53   2.0000      -0.622948       -16.9513
  54   2.0000      -0.613083       -16.6828
  55   2.0000      -0.609264       -16.5789
  56   2.0000      -0.606043       -16.4913
  57   2.0000      -0.584966       -15.9177
  58   2.0000      -0.579266       -15.7626
  59   2.0000      -0.567635       -15.4461
  60   2.0000      -0.562982       -15.3195
  61   2.0000      -0.553109       -15.0509
  62   2.0000      -0.546938       -14.8829
  63   2.0000      -0.533437       -14.5156
  64   2.0000      -0.527599       -14.3567
  65   2.0000      -0.517632       -14.0855
  66   2.0000      -0.506119       -13.7722
  67   2.0000      -0.504999       -13.7417
  68   2.0000      -0.487061       -13.2536
  69   2.0000      -0.469539       -12.7768
  70   2.0000      -0.454057       -12.3555
  71   2.0000      -0.450410       -12.2563
  72   2.0000      -0.357945        -9.7402
  73   2.0000      -0.353721        -9.6252
  74   2.0000      -0.330751        -9.0002
  75   2.0000      -0.329046        -8.9538
  76   2.0000      -0.319241        -8.6870
  77   0.0000       0.090821         2.4714
  78   0.0000       0.099552         2.7089
  79   0.0000       0.119744         3.2584
  80   0.0000       0.126559         3.4438
  81   0.0000       0.128806         3.5050

MULLIKEN ATOMIC CHARGES
-----------------------
   0 C :   -0.313114
   1 C :    0.036350
   2 O :   -0.321943
   3 C :    0.387343
   4 O :   -0.372047
   5 C :   -0.182638
   6 C :    0.141100
   7 C :   -0.322995
   8 N :   -0.136052
   9 C :    0.212626
  10 S :   -0.443273
  11 N :   -0.230810
  12 C :    0.061570
  13 C :    0.010173
  14 C :   -0.192601
  15 C :   -0.136259
  16 C :   -0.272090
  17 C :    0.310431
  18 O :   -0.353823
  19 C :   -0.255179
  20 H :    0.093880
  21 H :    0.107645
  22 H :    0.115549
  23 H :    0.103714
  24 H :    0.121651
  25 H :    0.126017
  26 H :    0.146318
  27 H :    0.114390
  28 H :    0.196440
  29 H :    0.204120
  30 H :    0.164010
  31 H :    0.154834
  32 H :    0.165409
  33 H :    0.135102
  34 H :    0.241778
  35 H :    0.182375
Sum of atomic charges:    0.0000000

LOEWDIN ATOMIC CHARGES
----------------------
   0 C :    0.104415
   1 C :   -0.018098
   2 O :    0.305637
   3 C :   -0.421167
   4 O :    0.128075
   5 C :   -0.082181
   6 C :   -0.096766
   7 C :    0.125222
   8 N :    0.403300
   9 C :   -0.455543
  10 S :   -0.038491
  11 N :    0.396751
  12 C :   -0.049075
  13 C :   -0.044915
  14 C :    0.019740
  15 C :    0.046335
  16 C :    0.000888
  17 C :   -0.192698
  18 O :    0.397260
  19 C :    0.026879
  20 H :   -0.034045
  21 H :   -0.023570
  22 H :   -0.023511
  23 H :   -0.039041
  24 H :   -0.020015
  25 H :   -0.008807
  26 H :   -0.007953
  27 H :   -0.018858
  28 H :   -0.056602
  29 H :   -0.064465
  30 H :   -0.006872
  31 H :   -0.025423
  32 H :   -0.017628
  33 H :   -0.033558
  34 H :   -0.152099
  35 H :   -0.023120

  Mayer bond orders larger than 0.100000
B(  0-C ,  1-C ) :   0.9687 B(  0-C , 20-H ) :   0.9777 B(  0-C , 21-H ) :   0.9784
B(  0-C , 22-H ) :   0.9746 B(  1-C ,  2-O ) :   0.8908 B(  1-C , 23-H ) :   0.9586
B(  1-C , 24-H ) :   0.9821 B(  2-O ,  3-C ) :   1.1803 B(  3-C ,  4-O ) :   2.1214
B(  3-C ,  5-C ) :   0.8799 B(  5-C ,  6-C ) :   1.7211 B(  5-C , 12-C ) :   0.9574
B(  6-C ,  7-C ) :   0.9502 B(  6-C ,  8-N ) :   1.1197 B(  7-C , 25-H ) :   0.9769
B(  7-C , 26-H ) :   0.9638 B(  7-C , 27-H ) :   0.9717 B(  8-N ,  9-C ) :   1.2067
B(  8-N , 28-H ) :   0.9519 B(  9-C , 10-S ) :   1.6058 B(  9-C , 11-N ) :   1.2836
B( 11-N , 12-C ) :   0.9872 B( 11-N , 29-H ) :   0.9446 B( 12-C , 13-C ) :   0.9558
B( 12-C , 30-H ) :   1.0004 B( 13-C , 14-C ) :   1.3814 B( 13-C , 19-C ) :   1.3397
B( 14-C , 15-C ) :   1.3990 B( 14-C , 31-H ) :   0.9716 B( 15-C , 16-C ) :   1.3611
B( 15-C , 32-H ) :   0.9691 B( 16-C , 17-C ) :   1.3304 B( 16-C , 33-H ) :   0.9834
B( 17-C , 18-O ) :   1.1116 B( 17-C , 19-C ) :   1.3651 B( 18-O , 34-H ) :   0.9786
B( 19-C , 35-H ) :   0.9572

MP2 TOTAL ENERGY:    -1274.331568818 Eh
FINAL SINGLE POINT ENERGY     -1274.331568818438

DIPOLE MOMENT
-------------
                                X             Y             Z
Electronic contribution:     10.02853       5.68487       7.50734
Nuclear contribution   :    -11.43758      -7.25519      -7.36899
                        -----------------------------------------
Total Dipole Moment    :     -1.40905      -1.57032       0.13835
                        -----------------------------------------
Magnitude (a.u.)       :      2.11435
Magnitude (Debye)      :      5.37425

Rotational constants in cm-1:     0.011806     0.009305     0.006447
Rotational constants in MHz :   353.939410   278.953015   193.274200

                             ****ORCA TERMINATED NORMALLY****
TOTAL RUN TIME: 0 days 1 hours 34 minutes 43 seconds 370 msec
