                         Program Version 4.2.0 -  RELEASE  -
|  1> ! ri-mp2 cc-pvtz cc-pvtz/c TightSCF  NoKeepInts
|  2>
|  3> %scf
|  4>   MaxCore 4096
|  5> end
|  6> *xyz  0  1
|  7>     C       15.6012827   13.6710300   15.2277093
|  8>     C       15.2817419   15.1786695   15.1387747
|  9>     O       16.0695242   16.0637012   15.9819995
| 10>     C       17.0852289   15.7469795   16.8484671
| 11>     O       17.5706517   14.6354859   16.9683265
| 12>     C       17.5962857   16.9119871   17.6546278
| 13>     C       17.2530197   18.2166156   17.4745287
| 14>     C       16.2999410   18.8110665   16.4569117
| 15>     N       17.8572789   19.2077194   18.2563010
| 16>     C       18.9055270   19.0028382   19.1133880
| 17>     S       19.6520722   20.2555897   19.8938332
| 18>     N       19.3020909   17.7025208   19.2900127
| 19>     C       18.5850130   16.5267248   18.7633885
| 20>     C       17.8809284   15.7808960   19.8944844
| 21>     C       18.1166939   14.4085076   20.0974309
| 22>     C       17.4708356   13.7158137   21.1351873
| 23>     C       16.5803615   14.4005583   21.9794055
| 24>     C       16.3396977   15.7665360   21.7788529
| 25>     O       15.4757579   16.4293021   22.5886814
| 26>     C       16.9836795   16.4531572   20.7447549
| 27>     H       16.6279517   13.4638208   14.9005498
| 28>     H       14.9253394   13.1018579   14.5784486
| 29>     H       15.4715615   13.2989006   16.2519186
| 30>     H       15.4050150   15.4943011   14.0948058
| 31>     H       14.2223135   15.3190364   15.3890648
| 32>     H       15.2789038   18.4457410   16.6231812
| 33>     H       16.5989675   18.5364219   15.4377526
| 34>     H       16.2635324   19.9064326   16.4975720
| 35>     H       17.5802122   20.1693481   18.1413324
| 36>     H       20.0561054   17.5723510   19.9520645
| 37>     H       19.3359064   15.8540608   18.3241305
| 38>     H       18.7916096   13.8726392   19.4343506
| 39>     H       17.6572699   12.6528144   21.2766343
| 40>     H       16.0778623   13.8690392   22.7805399
| 41>     H       15.1614236   15.7987275   23.2537104
| 42>     H       16.7854135   17.5108084   20.6108779
| 43> *
| 44>
| 45>                          ****END OF INPUT****

CARTESIAN COORDINATES (ANGSTROEM)
---------------------------------
  C     15.601283   13.671030   15.227709
  C     15.281742   15.178669   15.138775
  O     16.069524   16.063701   15.981999
  C     17.085229   15.746980   16.848467
  O     17.570652   14.635486   16.968326
  C     17.596286   16.911987   17.654628
  C     17.253020   18.216616   17.474529
  C     16.299941   18.811066   16.456912
  N     17.857279   19.207719   18.256301
  C     18.905527   19.002838   19.113388
  S     19.652072   20.255590   19.893833
  N     19.302091   17.702521   19.290013
  C     18.585013   16.526725   18.763389
  C     17.880928   15.780896   19.894484
  C     18.116694   14.408508   20.097431
  C     17.470836   13.715814   21.135187
  C     16.580361   14.400558   21.979405
  C     16.339698   15.766536   21.778853
  O     15.475758   16.429302   22.588681
  C     16.983679   16.453157   20.744755
  H     16.627952   13.463821   14.900550
  H     14.925339   13.101858   14.578449
  H     15.471561   13.298901   16.251919
  H     15.405015   15.494301   14.094806
  H     14.222313   15.319036   15.389065
  H     15.278904   18.445741   16.623181
  H     16.598968   18.536422   15.437753
  H     16.263532   19.906433   16.497572
  H     17.580212   20.169348   18.141332
  H     20.056105   17.572351   19.952064
  H     19.335906   15.854061   18.324130
  H     18.791610   13.872639   19.434351
  H     17.657270   12.652814   21.276634
  H     16.077862   13.869039   22.780540
  H     15.161424   15.798727   23.253710
  H     16.785414   17.510808   20.610878

 Total Charge           Charge          ....    0
 Multiplicity           Mult            ....    1
 Number of Electrons    NEL             ....  154
 Basis Dimension        Dim             ....  828

ORBITAL ENERGIES
----------------

  NO   OCC          E(Eh)            E(eV)
   0   2.0000     -91.887120     -2500.3757
   1   2.0000     -20.601662      -560.5997
   2   2.0000     -20.590408      -560.2935
   3   2.0000     -20.542309      -558.9846
   4   2.0000     -15.627309      -425.2407
   5   2.0000     -15.605513      -424.6476
   6   2.0000     -11.399465      -310.1952
   7   2.0000     -11.381647      -309.7104
   8   2.0000     -11.335722      -308.4607
   9   2.0000     -11.307904      -307.7037
  10   2.0000     -11.306104      -307.6547
  11   2.0000     -11.303648      -307.5879
  12   2.0000     -11.259755      -306.3935
  13   2.0000     -11.257822      -306.3409
  14   2.0000     -11.251950      -306.1811
  15   2.0000     -11.246259      -306.0263
  16   2.0000     -11.235895      -305.7442
  17   2.0000     -11.231978      -305.6377
  18   2.0000     -11.228858      -305.5528
  19   2.0000     -11.225265      -305.4550
  20   2.0000      -8.892189      -241.9688
  21   2.0000      -6.573769      -178.8813
  22   2.0000      -6.571762      -178.8267
  23   2.0000      -6.571177      -178.8108
  24   2.0000      -1.444569       -39.3087
  25   2.0000      -1.410139       -38.3718
  26   2.0000      -1.356563       -36.9139
  27   2.0000      -1.338415       -36.4201
  28   2.0000      -1.235890       -33.6303
  29   2.0000      -1.150492       -31.3065
  30   2.0000      -1.117337       -30.4043
  31   2.0000      -1.041535       -28.3416
  32   2.0000      -1.034591       -28.1526
  33   2.0000      -1.008050       -27.4304
  34   2.0000      -0.996043       -27.1037
  35   2.0000      -0.981306       -26.7027
  36   2.0000      -0.920388       -25.0450
  37   2.0000      -0.897589       -24.4246
  38   2.0000      -0.847279       -23.0556
  39   2.0000      -0.834781       -22.7156
  40   2.0000      -0.826465       -22.4893
  41   2.0000      -0.816687       -22.2232
  42   2.0000      -0.742359       -20.2006
  43   2.0000      -0.725440       -19.7402
  44   2.0000      -0.723115       -19.6770
  45   2.0000      -0.688905       -18.7460
  46   2.0000      -0.683239       -18.5919
  47   2.0000      -0.677021       -18.4227
  48   2.0000      -0.673710       -18.3326
  49   2.0000      -0.664218       -18.0743
  50   2.0000      -0.645914       -17.5762
  51   2.0000      -0.642869       -17.4934
  52   2.0000      -0.633544       -17.2396
  53   2.0000      -0.602493       -16.3947
  54   2.0000      -0.599467       -16.3123
  55   2.0000      -0.597412       -16.2564
  56   2.0000      -0.593953       -16.1623
  57   2.0000      -0.583299       -15.8724
  58   2.0000      -0.571722       -15.5574
  59   2.0000      -0.570044       -15.5117
  60   2.0000      -0.558402       -15.1949
  61   2.0000      -0.540783       -14.7154
  62   2.0000      -0.537630       -14.6296
  63   2.0000      -0.526556       -14.3283
  64   2.0000      -0.516123       -14.0444
  65   2.0000      -0.510187       -13.8829
  66   2.0000      -0.498331       -13.5603
  67   2.0000      -0.493937       -13.4407
  68   2.0000      -0.479079       -13.0364
  69   2.0000      -0.462185       -12.5767
  70   2.0000      -0.451100       -12.2750
  71   2.0000      -0.447214       -12.1693
  72   2.0000      -0.353057        -9.6072
  73   2.0000      -0.342648        -9.3239
  74   2.0000      -0.326265        -8.8781
  75   2.0000      -0.314587        -8.5604
  76   2.0000      -0.312262        -8.4971
  77   0.0000       0.076850         2.0912
  78   0.0000       0.115068         3.1311
  79   0.0000       0.121167         3.2971
  80   0.0000       0.136726         3.7205
  81   0.0000       0.139261         3.7895

MULLIKEN ATOMIC CHARGES
-----------------------
   0 C :   -0.287809
   1 C :    0.050069
   2 O :   -0.358416
   3 C :    0.444598
   4 O :   -0.432040
   5 C :   -0.154515
   6 C :    0.140889
   7 C :   -0.286433
   8 N :   -0.119772
   9 C :    0.200570
  10 S :   -0.440446
  11 N :   -0.196382
  12 C :    0.028818
  13 C :    0.060970
  14 C :   -0.162371
  15 C :   -0.134165
  16 C :   -0.279026
  17 C :    0.311652
  18 O :   -0.359311
  19 C :   -0.273117
  20 H :    0.112970
  21 H :    0.097567
  22 H :    0.111419
  23 H :    0.089212
  24 H :    0.090574
  25 H :    0.127117
  26 H :    0.126526
  27 H :    0.103037
  28 H :    0.196168
  29 H :    0.193320
  30 H :    0.154467
  31 H :    0.153475
  32 H :    0.158594
  33 H :    0.127541
  34 H :    0.239866
  35 H :    0.164387
Sum of atomic charges:   -0.0000000

LOEWDIN ATOMIC CHARGES
----------------------
   0 C :    0.102848
   1 C :   -0.007922
   2 O :    0.293429
   3 C :   -0.413087
   4 O :    0.112109
   5 C :   -0.090185
   6 C :   -0.063934
   7 C :    0.124017
   8 N :    0.404693
   9 C :   -0.459757
  10 S :   -0.036951
  11 N :    0.398183
  12 C :   -0.046998
  13 C :   -0.038471
  14 C :    0.021828
  15 C :    0.040381
  16 C :   -0.002634
  17 C :   -0.192619
  18 O :    0.392857
  19 C :    0.028372
  20 H :   -0.024649
  21 H :   -0.027588
  22 H :   -0.024018
  23 H :   -0.028817
  24 H :   -0.027937
  25 H :   -0.009732
  26 H :   -0.008771
  27 H :   -0.021689
  28 H :   -0.059630
  29 H :   -0.063618
  30 H :   -0.005818
  31 H :   -0.025418
  32 H :   -0.021490
  33 H :   -0.036619
  34 H :   -0.155085
  35 H :   -0.025280

  Mayer bond orders larger than 0.100000
B(  0-C ,  1-C ) :   0.9844 B(  0-C , 20-H ) :   0.9730 B(  0-C , 21-H ) :   0.9726
B(  0-C , 22-H ) :   0.9735 B(  1-C ,  2-O ) :   0.8977 B(  1-C , 23-H ) :   0.9778
B(  1-C , 24-H ) :   0.9784 B(  2-O ,  3-C ) :   1.1511 B(  3-C ,  4-O ) :   1.9731
B(  3-C ,  5-C ) :   1.0637 B(  5-C ,  6-C ) :   1.6476 B(  5-C , 12-C ) :   0.9667
B(  6-C ,  7-C ) :   0.9549 B(  6-C ,  8-N ) :   1.1501 B(  7-C , 25-H ) :   0.9650
B(  7-C , 26-H ) :   0.9650 B(  7-C , 27-H ) :   0.9923 B(  8-N ,  9-C ) :   1.1776
B(  8-N , 28-H ) :   0.9487 B(  9-C , 10-S ) :   1.6098 B(  9-C , 11-N ) :   1.3059
B( 11-N , 12-C ) :   0.9915 B( 11-N , 29-H ) :   0.9522 B( 12-C , 13-C ) :   0.9467
B( 12-C , 30-H ) :   1.0010 B( 13-C , 14-C ) :   1.3745 B( 13-C , 19-C ) :   1.3696
B( 14-C , 15-C ) :   1.3946 B( 14-C , 31-H ) :   0.9650 B( 15-C , 16-C ) :   1.3621
B( 15-C , 32-H ) :   0.9716 B( 16-C , 17-C ) :   1.3317 B( 16-C , 33-H ) :   0.9862
B( 17-C , 18-O ) :   1.1078 B( 17-C , 19-C ) :   1.3794 B( 18-O , 34-H ) :   0.9808
B( 19-C , 35-H ) :   0.9583

MP2 TOTAL ENERGY:    -1274.336992560 Eh
FINAL SINGLE POINT ENERGY     -1274.336992560012

DIPOLE MOMENT
-------------
                                X             Y             Z
Electronic contribution:      9.84003      10.16296      11.19141
Nuclear contribution   :    -11.51548     -11.31718     -12.29670
                        -----------------------------------------
Total Dipole Moment    :     -1.67544      -1.15422      -1.10530
                        -----------------------------------------
Magnitude (a.u.)       :      2.31539
Magnitude (Debye)      :      5.88525

Rotational constants in cm-1:     0.010578     0.008822     0.005765
Rotational constants in MHz :   317.127783   264.463189   172.822894

                             ****ORCA TERMINATED NORMALLY****
TOTAL RUN TIME: 0 days 1 hours 42 minutes 26 seconds 296 msec
