                         Program Version 5.0.0 -  RELEASE  -
|  1> ! ri-mp2 cc-pvtz cc-pvtz/c TightSCF NoKeepInts
|  2>
|  3> %scf
|  4>   MaxCore 4096
|  5> end
|  6> *xyz  0  1
|  7>     C       14.5742691   14.3543531   15.9567591
|  8>     C       15.6407530   14.9433412   16.8943194
|  9>     O       16.6544467   15.5445039   16.0714447
| 10>     C       17.9013428   15.6372977   16.6103557
| 11>     O       18.5371927   14.6280716   16.8608732
| 12>     C       18.0537219   16.8772170   17.4365859
| 13>     C       17.5561389   18.0840599   17.0705783
| 14>     C       16.8195909   18.4189686   15.7906747
| 15>     N       17.7693366   19.1997776   17.8853443
| 16>     C       18.5677790   19.2119085   18.9993444
| 17>     S       18.8515766   20.6005651   19.8513545
| 18>     N       19.1181096   18.0111263   19.3738483
| 19>     C       18.8038922   16.7067461   18.7594956
| 20>     C       17.9928805   15.8401938   19.7191850
| 21>     C       18.4225800   14.5403860   20.0434504
| 22>     C       17.6657003   13.7299506   20.9060340
| 23>     C       16.4665346   14.2218456   21.4488371
| 24>     C       16.0326205   15.5142703   21.1250090
| 25>     O       14.8688354   15.9881941   21.6364660
| 26>     C       16.7877671   16.3183990   20.2657619
| 27>     H       15.0190805   13.6023868   15.2927816
| 28>     H       14.1246131   15.1407398   15.3381500
| 29>     H       13.7769760   13.8724435   16.5354983
| 30>     H       15.1995323   15.6878759   17.5700521
| 31>     H       16.0652831   14.1314779   17.5022238
| 32>     H       17.2618995   17.8961196   14.9332633
| 33>     H       16.8484638   19.4910095   15.5603036
| 34>     H       15.7669669   18.1173514   15.8584747
| 35>     H       17.3759372   20.0906551   17.6263075
| 36>     H       19.6795427   18.0440256   20.2152438
| 37>     H       19.7543429   16.1962326   18.5461735
| 38>     H       19.3387908   14.1494760   19.6070676
| 39>     H       18.0067723   12.7238057   21.1438761
| 40>     H       15.8776902   13.5977152   22.1129045
| 41>     H       14.5315704   15.3229935   22.2555385
| 42>     H       16.4344698   17.3165162   20.0304195
| 43> *
| 44>
| 45>                          ****END OF INPUT****

CARTESIAN COORDINATES (ANGSTROEM)
---------------------------------
  C     14.574269   14.354353   15.956759
  C     15.640753   14.943341   16.894319
  O     16.654447   15.544504   16.071445
  C     17.901343   15.637298   16.610356
  O     18.537193   14.628072   16.860873
  C     18.053722   16.877217   17.436586
  C     17.556139   18.084060   17.070578
  C     16.819591   18.418969   15.790675
  N     17.769337   19.199778   17.885344
  C     18.567779   19.211908   18.999344
  S     18.851577   20.600565   19.851354
  N     19.118110   18.011126   19.373848
  C     18.803892   16.706746   18.759496
  C     17.992880   15.840194   19.719185
  C     18.422580   14.540386   20.043450
  C     17.665700   13.729951   20.906034
  C     16.466535   14.221846   21.448837
  C     16.032621   15.514270   21.125009
  O     14.868835   15.988194   21.636466
  C     16.787767   16.318399   20.265762
  H     15.019080   13.602387   15.292782
  H     14.124613   15.140740   15.338150
  H     13.776976   13.872443   16.535498
  H     15.199532   15.687876   17.570052
  H     16.065283   14.131478   17.502224
  H     17.261899   17.896120   14.933263
  H     16.848464   19.491010   15.560304
  H     15.766967   18.117351   15.858475
  H     17.375937   20.090655   17.626307
  H     19.679543   18.044026   20.215244
  H     19.754343   16.196233   18.546173
  H     19.338791   14.149476   19.607068
  H     18.006772   12.723806   21.143876
  H     15.877690   13.597715   22.112904
  H     14.531570   15.322994   22.255539
  H     16.434470   17.316516   20.030420

 Total Charge           Charge          ....    0
 Multiplicity           Mult            ....    1
 Number of Electrons    NEL             ....  154
 Basis Dimension        Dim             ....  828

ORBITAL ENERGIES
----------------

  NO   OCC          E(Eh)            E(eV)
   0   2.0000     -91.889629     -2500.4439
   1   2.0000     -20.597273      -560.4803
   2   2.0000     -20.581995      -560.0646
   3   2.0000     -20.557322      -559.3932
   4   2.0000     -15.629247      -425.2934
   5   2.0000     -15.609174      -424.7472
   6   2.0000     -11.393742      -310.0395
   7   2.0000     -11.385222      -309.8076
   8   2.0000     -11.333719      -308.4062
   9   2.0000     -11.313344      -307.8517
  10   2.0000     -11.309535      -307.7481
  11   2.0000     -11.298483      -307.4474
  12   2.0000     -11.261735      -306.4474
  13   2.0000     -11.259653      -306.3907
  14   2.0000     -11.258762      -306.3665
  15   2.0000     -11.253454      -306.2221
  16   2.0000     -11.243167      -305.9421
  17   2.0000     -11.238910      -305.8263
  18   2.0000     -11.236170      -305.7517
  19   2.0000     -11.229616      -305.5734
  20   2.0000      -8.894702      -242.0371
  21   2.0000      -6.576279      -178.9497
  22   2.0000      -6.574270      -178.8950
  23   2.0000      -6.573685      -178.8791
  24   2.0000      -1.453216       -39.5440
  25   2.0000      -1.417058       -38.5601
  26   2.0000      -1.357355       -36.9355
  27   2.0000      -1.340313       -36.4718
  28   2.0000      -1.238621       -33.7046
  29   2.0000      -1.157524       -31.4978
  30   2.0000      -1.122215       -30.5370
  31   2.0000      -1.045676       -28.4543
  32   2.0000      -1.034391       -28.1472
  33   2.0000      -1.014986       -27.6192
  34   2.0000      -1.000336       -27.2205
  35   2.0000      -0.985816       -26.8254
  36   2.0000      -0.924343       -25.1527
  37   2.0000      -0.878506       -23.9054
  38   2.0000      -0.849962       -23.1286
  39   2.0000      -0.840270       -22.8649
  40   2.0000      -0.833556       -22.6822
  41   2.0000      -0.829792       -22.5798
  42   2.0000      -0.756845       -20.5948
  43   2.0000      -0.735812       -20.0225
  44   2.0000      -0.729451       -19.8494
  45   2.0000      -0.695144       -18.9158
  46   2.0000      -0.687329       -18.7032
  47   2.0000      -0.681380       -18.5413
  48   2.0000      -0.674851       -18.3636
  49   2.0000      -0.659099       -17.9350
  50   2.0000      -0.648985       -17.6598
  51   2.0000      -0.641872       -17.4662
  52   2.0000      -0.632062       -17.1993
  53   2.0000      -0.620226       -16.8772
  54   2.0000      -0.605761       -16.4836
  55   2.0000      -0.604080       -16.4379
  56   2.0000      -0.600755       -16.3474
  57   2.0000      -0.579913       -15.7802
  58   2.0000      -0.576866       -15.6973
  59   2.0000      -0.564440       -15.3592
  60   2.0000      -0.558530       -15.1984
  61   2.0000      -0.550783       -14.9876
  62   2.0000      -0.535382       -14.5685
  63   2.0000      -0.522852       -14.2275
  64   2.0000      -0.516395       -14.0518
  65   2.0000      -0.513214       -13.9653
  66   2.0000      -0.503645       -13.7049
  67   2.0000      -0.498424       -13.5628
  68   2.0000      -0.482763       -13.1366
  69   2.0000      -0.465517       -12.6674
  70   2.0000      -0.458886       -12.4869
  71   2.0000      -0.453025       -12.3274
  72   2.0000      -0.355279        -9.6676
  73   2.0000      -0.349040        -9.4979
  74   2.0000      -0.328943        -8.9510
  75   2.0000      -0.320632        -8.7248
  76   2.0000      -0.316640        -8.6162
  77   0.0000       0.069553         1.8926
  78   0.0000       0.103017         2.8032
  79   0.0000       0.117307         3.1921
  80   0.0000       0.131051         3.5661
  81   0.0000       0.134242         3.6529

MULLIKEN ATOMIC CHARGES
-----------------------
   0 C :   -0.255611
   1 C :    0.027846
   2 O :   -0.374495
   3 C :    0.466224
   4 O :   -0.390912
   5 C :   -0.221653
   6 C :    0.145626
   7 C :   -0.280784
   8 N :   -0.124964
   9 C :    0.202077
  10 S :   -0.438626
  11 N :   -0.201568
  12 C :    0.051904
  13 C :    0.048656
  14 C :   -0.163709
  15 C :   -0.133959
  16 C :   -0.279802
  17 C :    0.315714
  18 O :   -0.359505
  19 C :   -0.292871
  20 H :    0.104410
  21 H :    0.090782
  22 H :    0.088592
  23 H :    0.094551
  24 H :    0.114880
  25 H :    0.125453
  26 H :    0.106948
  27 H :    0.123284
  28 H :    0.197224
  29 H :    0.194263
  30 H :    0.155803
  31 H :    0.158349
  32 H :    0.161709
  33 H :    0.131313
  34 H :    0.241352
  35 H :    0.171498
Sum of atomic charges:    0.0000000

LOEWDIN ATOMIC CHARGES
----------------------
   0 C :    0.110187
   1 C :   -0.019000
   2 O :    0.288992
   3 C :   -0.420094
   4 O :    0.133896
   5 C :   -0.094787
   6 C :   -0.076456
   7 C :    0.126672
   8 N :    0.404083
   9 C :   -0.457346
  10 S :   -0.035558
  11 N :    0.396950
  12 C :   -0.045541
  13 C :   -0.041165
  14 C :    0.021626
  15 C :    0.041899
  16 C :   -0.001976
  17 C :   -0.194770
  18 O :    0.393417
  19 C :    0.028912
  20 H :   -0.022741
  21 H :   -0.029784
  22 H :   -0.025340
  23 H :   -0.036388
  24 H :   -0.023847
  25 H :   -0.007286
  26 H :   -0.018864
  27 H :   -0.010521
  28 H :   -0.058601
  29 H :   -0.064065
  30 H :   -0.004379
  31 H :   -0.024225
  32 H :   -0.019984
  33 H :   -0.035354
  34 H :   -0.153573
  35 H :   -0.024990

  Mayer bond orders larger than 0.100000
B(  0-C ,  1-C ) :   0.9803 B(  0-C , 20-H ) :   0.9785 B(  0-C , 21-H ) :   0.9799
B(  0-C , 22-H ) :   0.9764 B(  1-C ,  2-O ) :   0.8820 B(  1-C , 23-H ) :   0.9706
B(  1-C , 24-H ) :   0.9712 B(  2-O ,  3-C ) :   1.0990 B(  3-C ,  4-O ) :   2.0487
B(  3-C ,  5-C ) :   1.0042 B(  5-C ,  6-C ) :   1.6659 B(  5-C , 12-C ) :   0.9667
B(  6-C ,  7-C ) :   0.9517 B(  6-C ,  8-N ) :   1.1386 B(  7-C , 25-H ) :   0.9710
B(  7-C , 26-H ) :   0.9868 B(  7-C , 27-H ) :   0.9637 B(  8-N ,  9-C ) :   1.1840
B(  8-N , 28-H ) :   0.9498 B(  9-C , 10-S ) :   1.6123 B(  9-C , 11-N ) :   1.2988
B( 11-N , 12-C ) :   0.9939 B( 11-N , 29-H ) :   0.9518 B( 12-C , 13-C ) :   0.9455
B( 12-C , 30-H ) :   0.9985 B( 13-C , 14-C ) :   1.3794 B( 13-C , 19-C ) :   1.3564
B( 14-C , 15-C ) :   1.3939 B( 14-C , 31-H ) :   0.9630 B( 15-C , 16-C ) :   1.3643
B( 15-C , 32-H ) :   0.9707 B( 16-C , 17-C ) :   1.3306 B( 16-C , 33-H ) :   0.9846
B( 17-C , 18-O ) :   1.1097 B( 17-C , 19-C ) :   1.3713 B( 18-O , 34-H ) :   0.9797
B( 19-C , 35-H ) :   0.9585

MP2 TOTAL ENERGY:    -1274.322695143 Eh
FINAL SINGLE POINT ENERGY     -1274.322695143140

DIPOLE MOMENT
-------------
                                X             Y             Z
Electronic contribution:     11.26275       9.56142       7.70875
Nuclear contribution   :    -12.59120     -10.75403      -8.15646
                        -----------------------------------------
Total Dipole Moment    :     -1.32846      -1.19261      -0.44771
                        -----------------------------------------
Magnitude (a.u.)       :      1.84053
Magnitude (Debye)      :      4.67826

Rotational constants in cm-1:     0.011610     0.009130     0.006590
Rotational constants in MHz :   348.048992   273.723475   197.572957

                             ****ORCA TERMINATED NORMALLY****
TOTAL RUN TIME: 0 days 1 hours 56 minutes 52 seconds 667 msec
