                         Program Version 4.2.0 -  RELEASE  -
|  1> ! ri-mp2 cc-pvtz cc-pvtz/c TightSCF  NoKeepInts
|  2>
|  3> %scf
|  4>   MaxCore 4096
|  5> end
|  6> *xyz  0  1
|  7>     C       14.9050226   14.1188965   15.7101451
|  8>     C       16.3705682   13.8854143   16.1377683
|  9>     O       17.0399037   15.0269131   16.7342929
| 10>     C       16.6765714   16.3490346   16.6523282
| 11>     O       15.8573157   16.7828548   15.8623949
| 12>     C       17.5306020   17.2186293   17.5362402
| 13>     C       17.4631555   18.5748201   17.5137351
| 14>     C       16.5702150   19.4374915   16.6472946
| 15>     N       18.3009998   19.3333151   18.3369029
| 16>     C       19.2865460   18.8227816   19.1382800
| 17>     S       20.2907688   19.7978192   20.0196949
| 18>     N       19.4002056   17.4568365   19.1731843
| 19>     C       18.4830395   16.5093428   18.5140785
| 20>     C       17.7223152   15.7102737   19.5683461
| 21>     C       17.9535281   14.3303664   19.7224572
| 22>     C       17.2526287   13.5917947   20.6907149
| 23>     C       16.3147803   14.2384104   21.5137219
| 24>     C       16.0854188   15.6132683   21.3659668
| 25>     O       15.1816059   16.2406492   22.1600344
| 26>     C       16.7844694   16.3456058   20.4015553
| 27>     H       14.3295560   14.5912702   16.5162136
| 28>     H       14.4250272   13.1630273   15.4687359
| 29>     H       14.8463105   14.7494098   14.8142877
| 30>     H       16.4019904   13.0548512   16.8546779
| 31>     H       16.9361809   13.5679966   15.2522555
| 32>     H       16.7635979   19.2464484   15.5840382
| 33>     H       16.7094135   20.5108459   16.8211867
| 34>     H       15.5135744   19.2066973   16.8339663
| 35>     H       18.2325885   20.3383508   18.3236774
| 36>     H       20.1099825   17.1085993   19.8046151
| 37>     H       19.1026611   15.8142003   17.9304375
| 38>     H       18.6751352   13.8275307   19.0843504
| 39>     H       17.4369841   12.5246788   20.8013629
| 40>     H       15.7711433   13.6725579   22.2630738
| 41>     H       14.8252711   15.5809454   22.7736859
| 42>     H       16.5979231   17.4100724   20.3082988
| 43> *
| 44>
| 45>                          ****END OF INPUT****

CARTESIAN COORDINATES (ANGSTROEM)
---------------------------------
  C     14.905023   14.118896   15.710145
  C     16.370568   13.885414   16.137768
  O     17.039904   15.026913   16.734293
  C     16.676571   16.349035   16.652328
  O     15.857316   16.782855   15.862395
  C     17.530602   17.218629   17.536240
  C     17.463155   18.574820   17.513735
  C     16.570215   19.437492   16.647295
  N     18.301000   19.333315   18.336903
  C     19.286546   18.822782   19.138280
  S     20.290769   19.797819   20.019695
  N     19.400206   17.456837   19.173184
  C     18.483040   16.509343   18.514079
  C     17.722315   15.710274   19.568346
  C     17.953528   14.330366   19.722457
  C     17.252629   13.591795   20.690715
  C     16.314780   14.238410   21.513722
  C     16.085419   15.613268   21.365967
  O     15.181606   16.240649   22.160034
  C     16.784469   16.345606   20.401555
  H     14.329556   14.591270   16.516214
  H     14.425027   13.163027   15.468736
  H     14.846310   14.749410   14.814288
  H     16.401990   13.054851   16.854678
  H     16.936181   13.567997   15.252256
  H     16.763598   19.246448   15.584038
  H     16.709414   20.510846   16.821187
  H     15.513574   19.206697   16.833966
  H     18.232588   20.338351   18.323677
  H     20.109983   17.108599   19.804615
  H     19.102661   15.814200   17.930438
  H     18.675135   13.827531   19.084350
  H     17.436984   12.524679   20.801363
  H     15.771143   13.672558   22.263074
  H     14.825271   15.580945   22.773686
  H     16.597923   17.410072   20.308299

 Total Charge           Charge          ....    0
 Multiplicity           Mult            ....    1
 Number of Electrons    NEL             ....  154
 Basis Dimension        Dim             ....  828

ORBITAL ENERGIES
----------------

  NO   OCC          E(Eh)            E(eV)
   0   2.0000     -91.887633     -2500.3896
   1   2.0000     -20.598837      -560.5228
   2   2.0000     -20.595902      -560.4430
   3   2.0000     -20.539942      -558.9203
   4   2.0000     -15.627598      -425.2486
   5   2.0000     -15.606882      -424.6848
   6   2.0000     -11.397667      -310.1463
   7   2.0000     -11.382640      -309.7374
   8   2.0000     -11.334490      -308.4272
   9   2.0000     -11.312957      -307.8412
  10   2.0000     -11.307007      -307.6793
  11   2.0000     -11.303374      -307.5804
  12   2.0000     -11.258750      -306.3662
  13   2.0000     -11.257927      -306.3438
  14   2.0000     -11.254523      -306.2511
  15   2.0000     -11.250866      -306.1516
  16   2.0000     -11.242297      -305.9185
  17   2.0000     -11.237624      -305.7913
  18   2.0000     -11.237535      -305.7889
  19   2.0000     -11.223154      -305.3976
  20   2.0000      -8.892710      -241.9829
  21   2.0000      -6.574289      -178.8955
  22   2.0000      -6.572281      -178.8409
  23   2.0000      -6.571698      -178.8250
  24   2.0000      -1.443117       -39.2692
  25   2.0000      -1.415550       -38.5191
  26   2.0000      -1.353952       -36.8429
  27   2.0000      -1.338728       -36.4286
  28   2.0000      -1.237206       -33.6661
  29   2.0000      -1.156654       -31.4741
  30   2.0000      -1.118689       -30.4411
  31   2.0000      -1.041659       -28.3450
  32   2.0000      -1.036464       -28.2036
  33   2.0000      -1.014245       -27.5990
  34   2.0000      -0.994355       -27.0578
  35   2.0000      -0.982641       -26.7390
  36   2.0000      -0.921248       -25.0684
  37   2.0000      -0.898457       -24.4483
  38   2.0000      -0.846165       -23.0253
  39   2.0000      -0.837059       -22.7775
  40   2.0000      -0.833275       -22.6746
  41   2.0000      -0.817647       -22.2493
  42   2.0000      -0.744597       -20.2615
  43   2.0000      -0.730026       -19.8650
  44   2.0000      -0.718522       -19.5520
  45   2.0000      -0.694859       -18.9081
  46   2.0000      -0.686875       -18.6908
  47   2.0000      -0.675089       -18.3701
  48   2.0000      -0.670772       -18.2526
  49   2.0000      -0.659506       -17.9461
  50   2.0000      -0.650790       -17.7089
  51   2.0000      -0.642639       -17.4871
  52   2.0000      -0.634888       -17.2762
  53   2.0000      -0.606363       -16.5000
  54   2.0000      -0.604489       -16.4490
  55   2.0000      -0.599375       -16.3098
  56   2.0000      -0.597689       -16.2639
  57   2.0000      -0.577342       -15.7103
  58   2.0000      -0.574685       -15.6380
  59   2.0000      -0.569724       -15.5030
  60   2.0000      -0.560339       -15.2476
  61   2.0000      -0.539628       -14.6840
  62   2.0000      -0.535503       -14.5718
  63   2.0000      -0.525030       -14.2868
  64   2.0000      -0.521217       -14.1830
  65   2.0000      -0.512376       -13.9425
  66   2.0000      -0.501854       -13.6562
  67   2.0000      -0.498361       -13.5611
  68   2.0000      -0.484620       -13.1872
  69   2.0000      -0.462388       -12.5822
  70   2.0000      -0.452322       -12.3083
  71   2.0000      -0.440192       -11.9782
  72   2.0000      -0.352704        -9.5976
  73   2.0000      -0.348559        -9.4848
  74   2.0000      -0.327127        -8.9016
  75   2.0000      -0.320605        -8.7241
  76   2.0000      -0.314848        -8.5674
  77   0.0000       0.077985         2.1221
  78   0.0000       0.107114         2.9147
  79   0.0000       0.125597         3.4177
  80   0.0000       0.133438         3.6310
  81   0.0000       0.137463         3.7406

MULLIKEN ATOMIC CHARGES
-----------------------
   0 C :   -0.296122
   1 C :    0.053878
   2 O :   -0.360626
   3 C :    0.464840
   4 O :   -0.432111
   5 C :   -0.208457
   6 C :    0.147778
   7 C :   -0.273096
   8 N :   -0.119771
   9 C :    0.212030
  10 S :   -0.442206
  11 N :   -0.204665
  12 C :    0.052755
  13 C :    0.066780
  14 C :   -0.184631
  15 C :   -0.132023
  16 C :   -0.278529
  17 C :    0.316253
  18 O :   -0.356741
  19 C :   -0.270528
  20 H :    0.102631
  21 H :    0.095755
  22 H :    0.120808
  23 H :    0.094461
  24 H :    0.089612
  25 H :    0.131321
  26 H :    0.094656
  27 H :    0.130421
  28 H :    0.196896
  29 H :    0.194645
  30 H :    0.149472
  31 H :    0.149570
  32 H :    0.159967
  33 H :    0.129407
  34 H :    0.240586
  35 H :    0.164984
Sum of atomic charges:   -0.0000000

LOEWDIN ATOMIC CHARGES
----------------------
   0 C :    0.102942
   1 C :   -0.008167
   2 O :    0.296758
   3 C :   -0.412215
   4 O :    0.105658
   5 C :   -0.093051
   6 C :   -0.059566
   7 C :    0.130557
   8 N :    0.406265
   9 C :   -0.456818
  10 S :   -0.037231
  11 N :    0.396546
  12 C :   -0.053013
  13 C :   -0.038443
  14 C :    0.014485
  15 C :    0.038557
  16 C :   -0.001744
  17 C :   -0.189655
  18 O :    0.395073
  19 C :    0.031257
  20 H :   -0.025482
  21 H :   -0.028096
  22 H :   -0.025086
  23 H :   -0.027002
  24 H :   -0.029249
  25 H :   -0.004245
  26 H :   -0.023763
  27 H :   -0.005112
  28 H :   -0.057837
  29 H :   -0.064702
  30 H :   -0.012110
  31 H :   -0.030373
  32 H :   -0.021663
  33 H :   -0.035733
  34 H :   -0.154034
  35 H :   -0.023709

  Mayer bond orders larger than 0.100000
B(  0-C ,  1-C ) :   0.9750 B(  0-C , 20-H ) :   0.9759 B(  0-C , 21-H ) :   0.9743
B(  0-C , 22-H ) :   0.9723 B(  1-C ,  2-O ) :   0.9026 B(  1-C , 23-H ) :   0.9788
B(  1-C , 24-H ) :   0.9803 B(  2-O ,  3-C ) :   1.1567 B(  3-C ,  4-O ) :   1.9698
B(  3-C ,  5-C ) :   1.0597 B(  5-C ,  6-C ) :   1.6557 B(  5-C , 12-C ) :   0.9736
B(  6-C ,  7-C ) :   0.9677 B(  6-C ,  8-N ) :   1.1625 B(  7-C , 25-H ) :   0.9599
B(  7-C , 26-H ) :   0.9907 B(  7-C , 27-H ) :   0.9612 B(  8-N ,  9-C ) :   1.1842
B(  8-N , 28-H ) :   0.9480 B(  9-C , 10-S ) :   1.6051 B(  9-C , 11-N ) :   1.3061
B( 11-N , 12-C ) :   0.9864 B( 11-N , 29-H ) :   0.9515 B( 12-C , 13-C ) :   0.9362
B( 12-C , 30-H ) :   1.0033 B( 13-C , 14-C ) :   1.3550 B( 13-C , 19-C ) :   1.3819
B( 14-C , 15-C ) :   1.3914 B( 14-C , 31-H ) :   0.9713 B( 15-C , 16-C ) :   1.3643
B( 15-C , 32-H ) :   0.9707 B( 16-C , 17-C ) :   1.3318 B( 16-C , 33-H ) :   0.9852
B( 17-C , 18-O ) :   1.1096 B( 17-C , 19-C ) :   1.3717 B( 18-O , 34-H ) :   0.9800
B( 19-C , 35-H ) :   0.9585

MP2 TOTAL ENERGY:    -1274.339697520 Eh
FINAL SINGLE POINT ENERGY     -1274.339697520242

DIPOLE MOMENT
-------------
                                X             Y             Z
Electronic contribution:     10.31827       9.94609       9.03385
Nuclear contribution   :    -11.38912     -11.74595      -9.43805
                        -----------------------------------------
Total Dipole Moment    :     -1.07085      -1.79986      -0.40420
                        -----------------------------------------
Magnitude (a.u.)       :      2.13298
Magnitude (Debye)      :      5.42160

Rotational constants in cm-1:     0.011397     0.008694     0.006071
Rotational constants in MHz :   341.658915   260.624983   182.014401

                             ****ORCA TERMINATED NORMALLY****
TOTAL RUN TIME: 0 days 1 hours 40 minutes 32 seconds 111 msec
