                         Program Version 4.2.0 -  RELEASE  -
|  1> ! ri-mp2 cc-pvtz cc-pvtz/c TightSCF  NoKeepInts
|  2>
|  3> %scf
|  4>   MaxCore 4096
|  5> end
|  6> *xyz  0  1
|  7>     C       15.4040765   13.8890666   16.7814336
|  8>     C       15.2408570   15.3625387   16.3527551
|  9>     O       16.4629593   15.9310473   15.8291838
| 10>     C       17.6392716   15.8120729   16.5119486
| 11>     O       18.2252074   14.7486252   16.6215231
| 12>     C       17.9340134   16.9838933   17.3988456
| 13>     C       17.5365658   18.2568434   17.1469675
| 14>     C       16.7876414   18.7685447   15.9340210
| 15>     N       17.8814057   19.2804659   18.0348084
| 16>     C       18.7042503   19.1327055   19.1203380
| 17>     S       19.1323350   20.4180220   20.0689234
| 18>     N       19.1528063   17.8625413   19.3819246
| 19>     C       18.7191115   16.6462004   18.6689723
| 20>     C       17.8877405   15.7534675   19.5858527
| 21>     C       18.2591523   14.4146271   19.8072382
| 22>     C       17.4817212   13.5825430   20.6300257
| 23>     C       16.3209538   14.0922919   21.2361942
| 24>     C       15.9456525   15.4242348   21.0151001
| 25>     O       14.8194551   15.9167609   21.5895377
| 26>     C       16.7215642   16.2502117   20.1960205
| 27>     H       15.8742666   13.3008292   15.9831952
| 28>     H       14.4262753   13.4449397   17.0025018
| 29>     H       16.0193778   13.8041430   17.6863160
| 30>     H       14.4610592   15.4290540   15.5832513
| 31>     H       14.9046714   15.9469934   17.2195542
| 32>     H       17.1763096   18.3150392   15.0133506
| 33>     H       16.8765325   19.8552625   15.8143438
| 34>     H       15.7203877   18.5259264   16.0042708
| 35>     H       17.5651024   20.2209701   17.8595320
| 36>     H       19.7338265   17.7771306   20.2061044
| 37>     H       19.6210557   16.0930367   18.3689416
| 38>     H       19.1441781   14.0116645   19.3206092
| 39>     H       17.7765148   12.5465037   20.7875607
| 40>     H       15.7160101   13.4517543   21.8693412
| 41>     H       14.4597665   15.2232326   22.1631082
| 42>     H       16.4149251   17.2788158   20.0404049
| 43> *
| 44>
| 45>                          ****END OF INPUT****

CARTESIAN COORDINATES (ANGSTROEM)
---------------------------------
  C     15.404076   13.889067   16.781434
  C     15.240857   15.362539   16.352755
  O     16.462959   15.931047   15.829184
  C     17.639272   15.812073   16.511949
  O     18.225207   14.748625   16.621523
  C     17.934013   16.983893   17.398846
  C     17.536566   18.256843   17.146967
  C     16.787641   18.768545   15.934021
  N     17.881406   19.280466   18.034808
  C     18.704250   19.132706   19.120338
  S     19.132335   20.418022   20.068923
  N     19.152806   17.862541   19.381925
  C     18.719111   16.646200   18.668972
  C     17.887740   15.753467   19.585853
  C     18.259152   14.414627   19.807238
  C     17.481721   13.582543   20.630026
  C     16.320954   14.092292   21.236194
  C     15.945652   15.424235   21.015100
  O     14.819455   15.916761   21.589538
  C     16.721564   16.250212   20.196020
  H     15.874267   13.300829   15.983195
  H     14.426275   13.444940   17.002502
  H     16.019378   13.804143   17.686316
  H     14.461059   15.429054   15.583251
  H     14.904671   15.946993   17.219554
  H     17.176310   18.315039   15.013351
  H     16.876532   19.855262   15.814344
  H     15.720388   18.525926   16.004271
  H     17.565102   20.220970   17.859532
  H     19.733826   17.777131   20.206104
  H     19.621056   16.093037   18.368942
  H     19.144178   14.011665   19.320609
  H     17.776515   12.546504   20.787561
  H     15.716010   13.451754   21.869341
  H     14.459766   15.223233   22.163108
  H     16.414925   17.278816   20.040405

 Total Charge           Charge          ....    0
 Multiplicity           Mult            ....    1
 Number of Electrons    NEL             ....  154
 Basis Dimension        Dim             ....  828

ORBITAL ENERGIES
----------------

  NO   OCC          E(Eh)            E(eV)
   0   2.0000     -91.889482     -2500.4399
   1   2.0000     -20.597152      -560.4770
   2   2.0000     -20.584527      -560.1335
   3   2.0000     -20.553522      -559.2898
   4   2.0000     -15.629402      -425.2976
   5   2.0000     -15.608857      -424.7386
   6   2.0000     -11.395146      -310.0777
   7   2.0000     -11.384937      -309.7999
   8   2.0000     -11.335716      -308.4605
   9   2.0000     -11.313443      -307.8544
  10   2.0000     -11.308270      -307.7137
  11   2.0000     -11.304848      -307.6206
  12   2.0000     -11.260692      -306.4190
  13   2.0000     -11.259535      -306.3875
  14   2.0000     -11.258655      -306.3636
  15   2.0000     -11.253287      -306.2175
  16   2.0000     -11.242989      -305.9373
  17   2.0000     -11.239085      -305.8310
  18   2.0000     -11.235983      -305.7466
  19   2.0000     -11.220905      -305.3363
  20   2.0000      -8.894557      -242.0332
  21   2.0000      -6.576134      -178.9457
  22   2.0000      -6.574125      -178.8910
  23   2.0000      -6.573540      -178.8751
  24   2.0000      -1.447071       -39.3768
  25   2.0000      -1.416922       -38.5564
  26   2.0000      -1.356909       -36.9234
  27   2.0000      -1.340484       -36.4764
  28   2.0000      -1.238684       -33.7063
  29   2.0000      -1.157513       -31.4975
  30   2.0000      -1.121662       -30.5220
  31   2.0000      -1.044805       -28.4306
  32   2.0000      -1.030868       -28.0513
  33   2.0000      -1.014918       -27.6173
  34   2.0000      -1.000237       -27.2178
  35   2.0000      -0.985337       -26.8124
  36   2.0000      -0.924385       -25.1538
  37   2.0000      -0.889520       -24.2051
  38   2.0000      -0.850447       -23.1418
  39   2.0000      -0.839626       -22.8474
  40   2.0000      -0.833459       -22.6796
  41   2.0000      -0.825265       -22.4566
  42   2.0000      -0.745328       -20.2814
  43   2.0000      -0.729193       -19.8424
  44   2.0000      -0.727907       -19.8074
  45   2.0000      -0.695049       -18.9133
  46   2.0000      -0.685755       -18.6603
  47   2.0000      -0.680236       -18.5102
  48   2.0000      -0.673965       -18.3395
  49   2.0000      -0.667098       -18.1527
  50   2.0000      -0.648670       -17.6512
  51   2.0000      -0.646663       -17.5966
  52   2.0000      -0.637079       -17.3358
  53   2.0000      -0.611134       -16.6298
  54   2.0000      -0.605865       -16.4864
  55   2.0000      -0.602728       -16.4011
  56   2.0000      -0.600424       -16.3384
  57   2.0000      -0.578151       -15.7323
  58   2.0000      -0.574425       -15.6309
  59   2.0000      -0.568417       -15.4674
  60   2.0000      -0.556964       -15.1558
  61   2.0000      -0.549465       -14.9517
  62   2.0000      -0.535753       -14.5786
  63   2.0000      -0.526171       -14.3178
  64   2.0000      -0.520173       -14.1546
  65   2.0000      -0.511931       -13.9303
  66   2.0000      -0.500393       -13.6164
  67   2.0000      -0.491891       -13.3850
  68   2.0000      -0.482335       -13.1250
  69   2.0000      -0.465985       -12.6801
  70   2.0000      -0.456140       -12.4122
  71   2.0000      -0.448611       -12.2073
  72   2.0000      -0.355317        -9.6687
  73   2.0000      -0.349248        -9.5035
  74   2.0000      -0.328824        -8.9477
  75   2.0000      -0.320505        -8.7214
  76   2.0000      -0.316768        -8.6197
  77   0.0000       0.071752         1.9525
  78   0.0000       0.103965         2.8290
  79   0.0000       0.119918         3.2631
  80   0.0000       0.131292         3.5726
  81   0.0000       0.138134         3.7588

MULLIKEN ATOMIC CHARGES
-----------------------
   0 C :   -0.280399
   1 C :    0.026945
   2 O :   -0.379906
   3 C :    0.457601
   4 O :   -0.393962
   5 C :   -0.216157
   6 C :    0.153433
   7 C :   -0.283659
   8 N :   -0.124756
   9 C :    0.204598
  10 S :   -0.439095
  11 N :   -0.203119
  12 C :    0.062437
  13 C :    0.043181
  14 C :   -0.170063
  15 C :   -0.132553
  16 C :   -0.277346
  17 C :    0.311770
  18 O :   -0.359232
  19 C :   -0.282752
  20 H :    0.110179
  21 H :    0.094218
  22 H :    0.115116
  23 H :    0.111866
  24 H :    0.086288
  25 H :    0.130625
  26 H :    0.106105
  27 H :    0.121494
  28 H :    0.197218
  29 H :    0.194862
  30 H :    0.154297
  31 H :    0.156451
  32 H :    0.161648
  33 H :    0.131086
  34 H :    0.241331
  35 H :    0.170249
Sum of atomic charges:   -0.0000000

LOEWDIN ATOMIC CHARGES
----------------------
   0 C :    0.107405
   1 C :   -0.018419
   2 O :    0.283972
   3 C :   -0.415797
   4 O :    0.131611
   5 C :   -0.095219
   6 C :   -0.071987
   7 C :    0.126145
   8 N :    0.404495
   9 C :   -0.457513
  10 S :   -0.035639
  11 N :    0.397231
  12 C :   -0.046182
  13 C :   -0.041751
  14 C :    0.021650
  15 C :    0.041913
  16 C :   -0.001548
  17 C :   -0.193920
  18 O :    0.393476
  19 C :    0.027922
  20 H :   -0.022469
  21 H :   -0.028068
  22 H :   -0.025268
  23 H :   -0.022907
  24 H :   -0.036440
  25 H :   -0.006364
  26 H :   -0.019555
  27 H :   -0.010996
  28 H :   -0.058566
  29 H :   -0.063877
  30 H :   -0.004992
  31 H :   -0.024496
  32 H :   -0.020119
  33 H :   -0.035370
  34 H :   -0.153678
  35 H :   -0.024680

  Mayer bond orders larger than 0.100000
B(  0-C ,  1-C ) :   0.9824 B(  0-C , 20-H ) :   0.9735 B(  0-C , 21-H ) :   0.9747
B(  0-C , 22-H ) :   0.9674 B(  1-C ,  2-O ) :   0.9007 B(  1-C , 23-H ) :   0.9786
B(  1-C , 24-H ) :   0.9718 B(  2-O ,  3-C ) :   1.0873 B(  3-C ,  4-O ) :   2.0463
B(  3-C ,  5-C ) :   1.0125 B(  5-C ,  6-C ) :   1.6606 B(  5-C , 12-C ) :   0.9656
B(  6-C ,  7-C ) :   0.9519 B(  6-C ,  8-N ) :   1.1442 B(  7-C , 25-H ) :   0.9680
B(  7-C , 26-H ) :   0.9880 B(  7-C , 27-H ) :   0.9656 B(  8-N ,  9-C ) :   1.1833
B(  8-N , 28-H ) :   0.9491 B(  9-C , 10-S ) :   1.6107 B(  9-C , 11-N ) :   1.3016
B( 11-N , 12-C ) :   0.9928 B( 11-N , 29-H ) :   0.9515 B( 12-C , 13-C ) :   0.9412
B( 12-C , 30-H ) :   0.9985 B( 13-C , 14-C ) :   1.3772 B( 13-C , 19-C ) :   1.3654
B( 14-C , 15-C ) :   1.3924 B( 14-C , 31-H ) :   0.9648 B( 15-C , 16-C ) :   1.3626
B( 15-C , 32-H ) :   0.9711 B( 16-C , 17-C ) :   1.3320 B( 16-C , 33-H ) :   0.9849
B( 17-C , 18-O ) :   1.1099 B( 17-C , 19-C ) :   1.3700 B( 18-O , 34-H ) :   0.9797
B( 19-C , 35-H ) :   0.9576

MP2 TOTAL ENERGY:    -1274.330142520 Eh
FINAL SINGLE POINT ENERGY     -1274.330142519833

DIPOLE MOMENT
-------------
                                X             Y             Z
Electronic contribution:     10.04211       9.79340       6.57808
Nuclear contribution   :    -11.55199     -10.87076      -7.10739
                        -----------------------------------------
Total Dipole Moment    :     -1.50987      -1.07736      -0.52932
                        -----------------------------------------
Magnitude (a.u.)       :      1.92888
Magnitude (Debye)      :      4.90283

Rotational constants in cm-1:     0.012257     0.009125     0.006589
Rotational constants in MHz :   367.453174   273.565563   197.519701

                             ****ORCA TERMINATED NORMALLY****
TOTAL RUN TIME: 0 days 1 hours 44 minutes 18 seconds 382 msec
