                         Program Version 5.0.0 -  RELEASE  -
|  1> ! ri-mp2 cc-pvtz cc-pvtz/c TightSCF NoKeepInts
|  2>
|  3> %scf
|  4>   MaxCore 4096
|  5> end
|  6> *xyz  0  1
|  7>     C       15.0528078   14.0218808   16.0621349
|  8>     C       15.6939421   15.0172951   15.0686521
|  9>     O       16.3964774   16.0739229   15.7580219
| 10>     C       17.3548693   15.8179619   16.6978038
| 11>     O       17.9099177   14.7352215   16.7892767
| 12>     C       17.7176353   16.9830875   17.5770030
| 13>     C       17.2790550   18.2611604   17.4211758
| 14>     C       16.3458325   18.8136935   16.3628932
| 15>     N       17.7440593   19.2635520   18.2797062
| 16>     C       18.7387492   19.1045257   19.2077225
| 17>     S       19.3188489   20.3767413   20.0912737
| 18>     N       19.2270583   17.8331011   19.3662473
| 19>     C       18.6563350   16.6280245   18.7366408
| 20>     C       17.9414340   15.7688314   19.7766793
| 21>     C       18.2814596   14.4126286   19.9355895
| 22>     C       17.6235803   13.6153669   20.8871299
| 23>     C       16.6156937   14.1780800   21.6884140
| 24>     C       16.2711963   15.5273759   21.5310901
| 25>     O       15.2938814   16.0721350   22.2988635
| 26>     C       16.9274104   16.3182354   20.5827129
| 27>     H       15.8050086   13.3939591   16.5545207
| 28>     H       14.3632459   13.3525109   15.5339298
| 29>     H       14.4841789   14.5544328   16.8344997
| 30>     H       16.3877859   14.4753368   14.4120683
| 31>     H       14.9104040   15.4591253   14.4399016
| 32>     H       15.3541767   18.3509033   16.4412015
| 33>     H       16.7363950   18.6128432   15.3574757
| 34>     H       16.2057540   19.8983780   16.4439435
| 35>     H       17.3984433   20.2044203   18.1791209
| 36>     H       19.9376721   17.7348816   20.0798608
| 37>     H       19.4920749   16.0442840   18.3242081
| 38>     H       19.0483630   13.9704182   19.3041966
| 39>     H       17.8920435   12.5660633   20.9951673
| 40>     H       16.1037088   13.5654855   22.4229073
| 41>     H       14.9904528   15.3853078   22.9111940
| 42>     H       16.6470492   17.3608286   20.4807729
| 43> *
| 44>
| 45>                          ****END OF INPUT****

CARTESIAN COORDINATES (ANGSTROEM)
---------------------------------
  C     15.052808   14.021881   16.062135
  C     15.693942   15.017295   15.068652
  O     16.396477   16.073923   15.758022
  C     17.354869   15.817962   16.697804
  O     17.909918   14.735221   16.789277
  C     17.717635   16.983087   17.577003
  C     17.279055   18.261160   17.421176
  C     16.345833   18.813693   16.362893
  N     17.744059   19.263552   18.279706
  C     18.738749   19.104526   19.207722
  S     19.318849   20.376741   20.091274
  N     19.227058   17.833101   19.366247
  C     18.656335   16.628024   18.736641
  C     17.941434   15.768831   19.776679
  C     18.281460   14.412629   19.935589
  C     17.623580   13.615367   20.887130
  C     16.615694   14.178080   21.688414
  C     16.271196   15.527376   21.531090
  O     15.293881   16.072135   22.298863
  C     16.927410   16.318235   20.582713
  H     15.805009   13.393959   16.554521
  H     14.363246   13.352511   15.533930
  H     14.484179   14.554433   16.834500
  H     16.387786   14.475337   14.412068
  H     14.910404   15.459125   14.439902
  H     15.354177   18.350903   16.441201
  H     16.736395   18.612843   15.357476
  H     16.205754   19.898378   16.443943
  H     17.398443   20.204420   18.179121
  H     19.937672   17.734882   20.079861
  H     19.492075   16.044284   18.324208
  H     19.048363   13.970418   19.304197
  H     17.892043   12.566063   20.995167
  H     16.103709   13.565485   22.422907
  H     14.990453   15.385308   22.911194
  H     16.647049   17.360829   20.480773

 Total Charge           Charge          ....    0
 Multiplicity           Mult            ....    1
 Number of Electrons    NEL             ....  154
 Basis Dimension        Dim             ....  828

ORBITAL ENERGIES
----------------

  NO   OCC          E(Eh)            E(eV)
   0   2.0000     -91.888054     -2500.4011
   1   2.0000     -20.602045      -560.6101
   2   2.0000     -20.591452      -560.3219
   3   2.0000     -20.544369      -559.0407
   4   2.0000     -15.628569      -425.2750
   5   2.0000     -15.606561      -424.6761
   6   2.0000     -11.396825      -310.1234
   7   2.0000     -11.382755      -309.7405
   8   2.0000     -11.337224      -308.5016
   9   2.0000     -11.307241      -307.6857
  10   2.0000     -11.304882      -307.6215
  11   2.0000     -11.303617      -307.5870
  12   2.0000     -11.260795      -306.4218
  13   2.0000     -11.258523      -306.3600
  14   2.0000     -11.253106      -306.2126
  15   2.0000     -11.247343      -306.0558
  16   2.0000     -11.237012      -305.7746
  17   2.0000     -11.233201      -305.6709
  18   2.0000     -11.230008      -305.5840
  19   2.0000     -11.225854      -305.4710
  20   2.0000      -8.893114      -241.9939
  21   2.0000      -6.574690      -178.9064
  22   2.0000      -6.572685      -178.8518
  23   2.0000      -6.572098      -178.8359
  24   2.0000      -1.451382       -39.4941
  25   2.0000      -1.411194       -38.4005
  26   2.0000      -1.356329       -36.9076
  27   2.0000      -1.339450       -36.4483
  28   2.0000      -1.236935       -33.6587
  29   2.0000      -1.151837       -31.3431
  30   2.0000      -1.118994       -30.4494
  31   2.0000      -1.041571       -28.3426
  32   2.0000      -1.033820       -28.1317
  33   2.0000      -1.009216       -27.4622
  34   2.0000      -0.997226       -27.1359
  35   2.0000      -0.982647       -26.7392
  36   2.0000      -0.921265       -25.0689
  37   2.0000      -0.896565       -24.3968
  38   2.0000      -0.847829       -23.0706
  39   2.0000      -0.835301       -22.7297
  40   2.0000      -0.827577       -22.5195
  41   2.0000      -0.815946       -22.2030
  42   2.0000      -0.748587       -20.3701
  43   2.0000      -0.734038       -19.9742
  44   2.0000      -0.724492       -19.7144
  45   2.0000      -0.690331       -18.7849
  46   2.0000      -0.685273       -18.6472
  47   2.0000      -0.678430       -18.4610
  48   2.0000      -0.671006       -18.2590
  49   2.0000      -0.656466       -17.8634
  50   2.0000      -0.651179       -17.7195
  51   2.0000      -0.644057       -17.5257
  52   2.0000      -0.631382       -17.1808
  53   2.0000      -0.615177       -16.7398
  54   2.0000      -0.600155       -16.3310
  55   2.0000      -0.599307       -16.3080
  56   2.0000      -0.594900       -16.1880
  57   2.0000      -0.580848       -15.8057
  58   2.0000      -0.573287       -15.5999
  59   2.0000      -0.564757       -15.3678
  60   2.0000      -0.557703       -15.1759
  61   2.0000      -0.543212       -14.7816
  62   2.0000      -0.538271       -14.6471
  63   2.0000      -0.525573       -14.3016
  64   2.0000      -0.516378       -14.0514
  65   2.0000      -0.509699       -13.8696
  66   2.0000      -0.500857       -13.6290
  67   2.0000      -0.495149       -13.4737
  68   2.0000      -0.479675       -13.0526
  69   2.0000      -0.463375       -12.6091
  70   2.0000      -0.457581       -12.4514
  71   2.0000      -0.450710       -12.2645
  72   2.0000      -0.354148        -9.6369
  73   2.0000      -0.343810        -9.3555
  74   2.0000      -0.327153        -8.9023
  75   2.0000      -0.315584        -8.5875
  76   2.0000      -0.313374        -8.5274
  77   0.0000       0.075438         2.0528
  78   0.0000       0.113373         3.0850
  79   0.0000       0.121515         3.3066
  80   0.0000       0.136247         3.7075
  81   0.0000       0.141060         3.8384

MULLIKEN ATOMIC CHARGES
-----------------------
   0 C :   -0.310617
   1 C :    0.039538
   2 O :   -0.350628
   3 C :    0.458907
   4 O :   -0.437227
   5 C :   -0.179668
   6 C :    0.144629
   7 C :   -0.281744
   8 N :   -0.120378
   9 C :    0.201288
  10 S :   -0.438938
  11 N :   -0.197422
  12 C :    0.036245
  13 C :    0.058967
  14 C :   -0.163567
  15 C :   -0.133877
  16 C :   -0.278890
  17 C :    0.311700
  18 O :   -0.359227
  19 C :   -0.274519
  20 H :    0.130226
  21 H :    0.097039
  22 H :    0.095448
  23 H :    0.101083
  24 H :    0.106727
  25 H :    0.124881
  26 H :    0.128582
  27 H :    0.101281
  28 H :    0.196664
  29 H :    0.193689
  30 H :    0.153995
  31 H :    0.154071
  32 H :    0.159079
  33 H :    0.127955
  34 H :    0.240063
  35 H :    0.164644
Sum of atomic charges:   -0.0000000

LOEWDIN ATOMIC CHARGES
----------------------
   0 C :    0.105650
   1 C :   -0.014024
   2 O :    0.300638
   3 C :   -0.414086
   4 O :    0.104602
   5 C :   -0.090911
   6 C :   -0.063585
   7 C :    0.124932
   8 N :    0.405055
   9 C :   -0.459231
  10 S :   -0.035763
  11 N :    0.398171
  12 C :   -0.046751
  13 C :   -0.038878
  14 C :    0.022174
  15 C :    0.040508
  16 C :   -0.002347
  17 C :   -0.192782
  18 O :    0.392912
  19 C :    0.028069
  20 H :   -0.024330
  21 H :   -0.026815
  22 H :   -0.028971
  23 H :   -0.028243
  24 H :   -0.025109
  25 H :   -0.010113
  26 H :   -0.007957
  27 H :   -0.021538
  28 H :   -0.059284
  29 H :   -0.063545
  30 H :   -0.005339
  31 H :   -0.025257
  32 H :   -0.021305
  33 H :   -0.036438
  34 H :   -0.154915
  35 H :   -0.025193

  Mayer bond orders larger than 0.100000
B(  0-C ,  1-C ) :   0.9607 B(  0-C , 20-H ) :   0.9714 B(  0-C , 21-H ) :   0.9766
B(  0-C , 22-H ) :   0.9754 B(  1-C ,  2-O ) :   0.9001 B(  1-C , 23-H ) :   0.9814
B(  1-C , 24-H ) :   0.9843 B(  2-O ,  3-C ) :   1.1575 B(  3-C ,  4-O ) :   1.9640
B(  3-C ,  5-C ) :   1.0632 B(  5-C ,  6-C ) :   1.6409 B(  5-C , 12-C ) :   0.9666
B(  6-C ,  7-C ) :   0.9570 B(  6-C ,  8-N ) :   1.1534 B(  7-C , 25-H ) :   0.9648
B(  7-C , 26-H ) :   0.9636 B(  7-C , 27-H ) :   0.9917 B(  8-N ,  9-C ) :   1.1768
B(  8-N , 28-H ) :   0.9485 B(  9-C , 10-S ) :   1.6110 B(  9-C , 11-N ) :   1.3054
B( 11-N , 12-C ) :   0.9921 B( 11-N , 29-H ) :   0.9519 B( 12-C , 13-C ) :   0.9463
B( 12-C , 30-H ) :   1.0009 B( 13-C , 14-C ) :   1.3752 B( 13-C , 19-C ) :   1.3686
B( 14-C , 15-C ) :   1.3943 B( 14-C , 31-H ) :   0.9646 B( 15-C , 16-C ) :   1.3622
B( 15-C , 32-H ) :   0.9714 B( 16-C , 17-C ) :   1.3319 B( 16-C , 33-H ) :   0.9860
B( 17-C , 18-O ) :   1.1079 B( 17-C , 19-C ) :   1.3788 B( 18-O , 34-H ) :   0.9806
B( 19-C , 35-H ) :   0.9584

MP2 TOTAL ENERGY:    -1274.346294038 Eh
FINAL SINGLE POINT ENERGY     -1274.346294038444

DIPOLE MOMENT
-------------
                                X             Y             Z
Electronic contribution:     10.40898      10.09725       9.55267
Nuclear contribution   :    -11.96203     -11.32210     -10.62697
                        -----------------------------------------
Total Dipole Moment    :     -1.55305      -1.22485      -1.07431
                        -----------------------------------------
Magnitude (a.u.)       :      2.25086
Magnitude (Debye)      :      5.72122

Rotational constants in cm-1:     0.010683     0.009174     0.005987
Rotational constants in MHz :   320.260527   275.040452   179.475187

                             ****ORCA TERMINATED NORMALLY****
TOTAL RUN TIME: 0 days 1 hours 38 minutes 12 seconds 165 msec
