                         Program Version 4.2.0 -  RELEASE  -
|  1> ! ri-mp2 cc-pvtz cc-pvtz/c TightSCF  NoKeepInts
|  2>
|  3> %scf
|  4>   MaxCore 4096
|  5> end
|  6> *xyz  0  1
|  7>     C       15.0035149   14.6499114   17.3783594
|  8>     C       15.5113185   15.5910828   16.2730565
|  9>     O       16.8516650   15.1824670   15.9287170
| 10>     C       18.0252475   15.6748682   16.4510966
| 11>     O       19.0209064   14.9751152   16.4283029
| 12>     C       17.9504770   16.8546090   17.3696074
| 13>     C       17.4869142   18.0628263   16.9669943
| 14>     C       16.9848694   18.4406599   15.5879125
| 15>     N       17.5584456   19.1607621   17.8271084
| 16>     C       18.2227654   19.1694628   19.0253333
| 17>     S       18.3407194   20.5396049   19.9433093
| 18>     N       18.7900841   17.9840555   19.4220627
| 19>     C       18.6236108   16.6874390   18.7350191
| 20>     C       17.8719734   15.6885743   19.6094843
| 21>     C       18.2667204   14.3381211   19.6298970
| 22>     C       17.5807034   13.4023182   20.4216611
| 23>     C       16.4887929   13.8188281   21.2017522
| 24>     C       16.0891669   15.1617798   21.1824242
| 25>     O       15.0272622   15.5644790   21.9244508
| 26>     C       16.7721665   16.0914205   20.3913965
| 27>     H       15.6334676   14.7129394   18.2701553
| 28>     H       15.0116009   13.6091633   17.0309832
| 29>     H       13.9771276   14.9078209   17.6658399
| 30>     H       14.8641191   15.4782098   15.3936415
| 31>     H       15.4387359   16.6264417   16.6135833
| 32>     H       17.1222498   17.6358131   14.8556375
| 33>     H       17.5334874   19.3089832   15.2005561
| 34>     H       15.9195215   18.7008496   15.6086764
| 35>     H       17.1703094   20.0464714   17.5425092
| 36>     H       19.2627386   18.0152906   20.3166859
| 37>     H       19.6302428   16.2801416   18.5579748
| 38>     H       19.1038336   14.0098838   19.0168313
| 39>     H       17.8947518   12.3598339   20.4241235
| 40>     H       15.9553201   13.0984251   21.8130535
| 41>     H       14.7231013   14.7994051   22.4357930
| 42>     H       16.4390686   17.1239424   20.3900103
| 43> *
| 44>
| 45>                          ****END OF INPUT****

CARTESIAN COORDINATES (ANGSTROEM)
---------------------------------
  C     15.003515   14.649911   17.378359
  C     15.511318   15.591083   16.273056
  O     16.851665   15.182467   15.928717
  C     18.025247   15.674868   16.451097
  O     19.020906   14.975115   16.428303
  C     17.950477   16.854609   17.369607
  C     17.486914   18.062826   16.966994
  C     16.984869   18.440660   15.587912
  N     17.558446   19.160762   17.827108
  C     18.222765   19.169463   19.025333
  S     18.340719   20.539605   19.943309
  N     18.790084   17.984056   19.422063
  C     18.623611   16.687439   18.735019
  C     17.871973   15.688574   19.609484
  C     18.266720   14.338121   19.629897
  C     17.580703   13.402318   20.421661
  C     16.488793   13.818828   21.201752
  C     16.089167   15.161780   21.182424
  O     15.027262   15.564479   21.924451
  C     16.772167   16.091421   20.391396
  H     15.633468   14.712939   18.270155
  H     15.011601   13.609163   17.030983
  H     13.977128   14.907821   17.665840
  H     14.864119   15.478210   15.393641
  H     15.438736   16.626442   16.613583
  H     17.122250   17.635813   14.855638
  H     17.533487   19.308983   15.200556
  H     15.919521   18.700850   15.608676
  H     17.170309   20.046471   17.542509
  H     19.262739   18.015291   20.316686
  H     19.630243   16.280142   18.557975
  H     19.103834   14.009884   19.016831
  H     17.894752   12.359834   20.424124
  H     15.955320   13.098425   21.813053
  H     14.723101   14.799405   22.435793
  H     16.439069   17.123942   20.390010

 Total Charge           Charge          ....    0
 Multiplicity           Mult            ....    1
 Number of Electrons    NEL             ....  154
 Basis Dimension        Dim             ....  828

ORBITAL ENERGIES
----------------

  NO   OCC          E(Eh)            E(eV)
   0   2.0000     -91.890990     -2500.4810
   1   2.0000     -20.600853      -560.5777
   2   2.0000     -20.598862      -560.5235
   3   2.0000     -20.548785      -559.1609
   4   2.0000     -15.628878      -425.2834
   5   2.0000     -15.611726      -424.8167
   6   2.0000     -11.400081      -310.2120
   7   2.0000     -11.387371      -309.8661
   8   2.0000     -11.333837      -308.4094
   9   2.0000     -11.315990      -307.9237
  10   2.0000     -11.314314      -307.8781
  11   2.0000     -11.305681      -307.6432
  12   2.0000     -11.270620      -306.6892
  13   2.0000     -11.267787      -306.6121
  14   2.0000     -11.263055      -306.4833
  15   2.0000     -11.256325      -306.3002
  16   2.0000     -11.245354      -306.0016
  17   2.0000     -11.241206      -305.8888
  18   2.0000     -11.238022      -305.8021
  19   2.0000     -11.225052      -305.4492
  20   2.0000      -8.896088      -242.0749
  21   2.0000      -6.577674      -178.9876
  22   2.0000      -6.575650      -178.9325
  23   2.0000      -6.575072      -178.9168
  24   2.0000      -1.446797       -39.3694
  25   2.0000      -1.418655       -38.6036
  26   2.0000      -1.358689       -36.9718
  27   2.0000      -1.342139       -36.5214
  28   2.0000      -1.241114       -33.7724
  29   2.0000      -1.160616       -31.5820
  30   2.0000      -1.126130       -30.6436
  31   2.0000      -1.048832       -28.5402
  32   2.0000      -1.037423       -28.2297
  33   2.0000      -1.018510       -27.7151
  34   2.0000      -1.005988       -27.3743
  35   2.0000      -0.990237       -26.9457
  36   2.0000      -0.928317       -25.2608
  37   2.0000      -0.888539       -24.1784
  38   2.0000      -0.855814       -23.2879
  39   2.0000      -0.842107       -22.9149
  40   2.0000      -0.836026       -22.7494
  41   2.0000      -0.833549       -22.6820
  42   2.0000      -0.752330       -20.4719
  43   2.0000      -0.741213       -20.1694
  44   2.0000      -0.730935       -19.8897
  45   2.0000      -0.696868       -18.9627
  46   2.0000      -0.688730       -18.7413
  47   2.0000      -0.681306       -18.5393
  48   2.0000      -0.676535       -18.4094
  49   2.0000      -0.661909       -18.0115
  50   2.0000      -0.654678       -17.8147
  51   2.0000      -0.644154       -17.5283
  52   2.0000      -0.639281       -17.3957
  53   2.0000      -0.618662       -16.8347
  54   2.0000      -0.610051       -16.6003
  55   2.0000      -0.607208       -16.5230
  56   2.0000      -0.602245       -16.3879
  57   2.0000      -0.587425       -15.9846
  58   2.0000      -0.578029       -15.7290
  59   2.0000      -0.567787       -15.4503
  60   2.0000      -0.564027       -15.3480
  61   2.0000      -0.552990       -15.0476
  62   2.0000      -0.544601       -14.8194
  63   2.0000      -0.533134       -14.5073
  64   2.0000      -0.519616       -14.1395
  65   2.0000      -0.513327       -13.9683
  66   2.0000      -0.503621       -13.7042
  67   2.0000      -0.501597       -13.6492
  68   2.0000      -0.483668       -13.1613
  69   2.0000      -0.470489       -12.8026
  70   2.0000      -0.453965       -12.3530
  71   2.0000      -0.448248       -12.1975
  72   2.0000      -0.359168        -9.7735
  73   2.0000      -0.351340        -9.5605
  74   2.0000      -0.330542        -8.9945
  75   2.0000      -0.324233        -8.8228
  76   2.0000      -0.319762        -8.7012
  77   0.0000       0.082232         2.2376
  78   0.0000       0.105650         2.8749
  79   0.0000       0.112701         3.0667
  80   0.0000       0.129407         3.5213
  81   0.0000       0.131456         3.5771

MULLIKEN ATOMIC CHARGES
-----------------------
   0 C :   -0.269580
   1 C :    0.021230
   2 O :   -0.320982
   3 C :    0.410159
   4 O :   -0.384820
   5 C :   -0.199551
   6 C :    0.134571
   7 C :   -0.323380
   8 N :   -0.134829
   9 C :    0.201106
  10 S :   -0.439146
  11 N :   -0.218000
  12 C :    0.069683
  13 C :   -0.001216
  14 C :   -0.192515
  15 C :   -0.138417
  16 C :   -0.267337
  17 C :    0.303917
  18 O :   -0.358667
  19 C :   -0.240755
  20 H :    0.105285
  21 H :    0.107185
  22 H :    0.091751
  23 H :    0.116203
  24 H :    0.089076
  25 H :    0.129385
  26 H :    0.139605
  27 H :    0.121207
  28 H :    0.196546
  29 H :    0.200413
  30 H :    0.166809
  31 H :    0.173860
  32 H :    0.163311
  33 H :    0.132320
  34 H :    0.241170
  35 H :    0.174401
Sum of atomic charges:   -0.0000000

LOEWDIN ATOMIC CHARGES
----------------------
   0 C :    0.109859
   1 C :   -0.021924
   2 O :    0.305465
   3 C :   -0.414799
   4 O :    0.121141
   5 C :   -0.082340
   6 C :   -0.098993
   7 C :    0.123903
   8 N :    0.402309
   9 C :   -0.458075
  10 S :   -0.036378
  11 N :    0.397929
  12 C :   -0.043598
  13 C :   -0.045493
  14 C :    0.020188
  15 C :    0.044972
  16 C :   -0.000641
  17 C :   -0.192988
  18 O :    0.395819
  19 C :    0.025797
  20 H :   -0.027133
  21 H :   -0.024037
  22 H :   -0.026794
  23 H :   -0.024487
  24 H :   -0.040543
  25 H :   -0.007651
  26 H :   -0.009200
  27 H :   -0.017501
  28 H :   -0.057167
  29 H :   -0.063194
  30 H :   -0.002050
  31 H :   -0.021652
  32 H :   -0.018416
  33 H :   -0.034712
  34 H :   -0.153174
  35 H :   -0.024442

  Mayer bond orders larger than 0.100000
B(  0-C ,  1-C ) :   0.9780 B(  0-C , 20-H ) :   0.9685 B(  0-C , 21-H ) :   0.9802
B(  0-C , 22-H ) :   0.9759 B(  1-C ,  2-O ) :   0.9000 B(  1-C , 23-H ) :   0.9823
B(  1-C , 24-H ) :   0.9637 B(  2-O ,  3-C ) :   1.1827 B(  3-C ,  4-O ) :   2.0828
B(  3-C ,  5-C ) :   0.9260 B(  5-C ,  6-C ) :   1.6938 B(  5-C , 12-C ) :   0.9531
B(  6-C ,  7-C ) :   0.9431 B(  6-C ,  8-N ) :   1.1131 B(  7-C , 25-H ) :   0.9788
B(  7-C , 26-H ) :   0.9708 B(  7-C , 27-H ) :   0.9660 B(  8-N ,  9-C ) :   1.1924
B(  8-N , 28-H ) :   0.9516 B(  9-C , 10-S ) :   1.6120 B(  9-C , 11-N ) :   1.2904
B( 11-N , 12-C ) :   0.9912 B( 11-N , 29-H ) :   0.9485 B( 12-C , 13-C ) :   0.9475
B( 12-C , 30-H ) :   0.9955 B( 13-C , 14-C ) :   1.3941 B( 13-C , 19-C ) :   1.3537
B( 14-C , 15-C ) :   1.3949 B( 14-C , 31-H ) :   0.9581 B( 15-C , 16-C ) :   1.3603
B( 15-C , 32-H ) :   0.9708 B( 16-C , 17-C ) :   1.3319 B( 16-C , 33-H ) :   0.9847
B( 17-C , 18-O ) :   1.1110 B( 17-C , 19-C ) :   1.3687 B( 18-O , 34-H ) :   0.9794
B( 19-C , 35-H ) :   0.9573

MP2 TOTAL ENERGY:    -1274.334424232 Eh
FINAL SINGLE POINT ENERGY     -1274.334424231550

DIPOLE MOMENT
-------------
                                X             Y             Z
Electronic contribution:      9.67710       7.68945       6.16208
Nuclear contribution   :    -11.22784      -8.59480      -6.68247
                        -----------------------------------------
Total Dipole Moment    :     -1.55074      -0.90535      -0.52039
                        -----------------------------------------
Magnitude (a.u.)       :      1.86956
Magnitude (Debye)      :      4.75205

Rotational constants in cm-1:     0.011836     0.009435     0.006715
Rotational constants in MHz :   354.823524   282.849605   201.324222

                             ****ORCA TERMINATED NORMALLY****
TOTAL RUN TIME: 0 days 1 hours 53 minutes 29 seconds 26 msec
