                         Program Version 4.2.0 -  RELEASE  -
|  1> ! ri-mp2 cc-pvtz cc-pvtz/c TightSCF  NoKeepInts
|  2>
|  3> %scf
|  4>   MaxCore 4096
|  5> end
|  6> *xyz  0  1
|  7>     C       15.4781429   14.2034356   17.0033619
|  8>     C       15.4350885   15.2549552   15.8715579
|  9>     O       16.7033773   15.9077236   15.6146589
| 10>     C       17.7671663   15.8260353   16.4665732
| 11>     O       18.4010248   14.7932405   16.6004178
| 12>     C       17.9012889   16.9835488   17.4138031
| 13>     C       17.4040795   18.2281971   17.1925247
| 14>     C       16.6540114   18.7294852   15.9754620
| 15>     N       17.6412763   19.2456318   18.1226079
| 16>     C       18.4843413   19.1433956   19.1975994
| 17>     S       18.8084127   20.4363026   20.1765766
| 18>     N       19.0442897   17.9109795   19.4200124
| 19>     C       18.6807145   16.6773875   18.6975429
| 20>     C       17.8895202   15.7379358   19.6038430
| 21>     C       18.2819008   14.3948789   19.7525449
| 22>     C       17.5480867   13.5199898   20.5708567
| 23>     C       16.4106223   13.9909416   21.2481744
| 24>     C       16.0143998   15.3270015   21.1011140
| 25>     O       14.9106119   15.7824071   21.7454075
| 26>     C       16.7459795   16.1952443   20.2847463
| 27>     H       16.1893734   13.4007169   16.7705589
| 28>     H       14.4904467   13.7447867   17.1315737
| 29>     H       15.7596181   14.6562452   17.9611400
| 30>     H       15.0879797   14.7752627   14.9472254
| 31>     H       14.6932237   16.0173509   16.1412250
| 32>     H       15.6220445   18.3595567   15.9733601
| 33>     H       17.1380172   18.3913025   15.0504419
| 34>     H       16.6137247   19.8246457   15.9284467
| 35>     H       17.2426794   20.1591280   17.9749055
| 36>     H       19.6409676   17.8543927   20.2354281
| 37>     H       19.6149244   16.1728335   18.4106893
| 38>     H       19.1500239   14.0227347   19.2133464
| 39>     H       17.8591748   12.4816245   20.6711715
| 40>     H       15.8397915   13.3177509   21.8790762
| 41>     H       14.5795696   15.0596474   22.2996174
| 42>     H       16.4211054   17.2253038   20.1864084
| 43> *
| 44>
| 45>                          ****END OF INPUT****

CARTESIAN COORDINATES (ANGSTROEM)
---------------------------------
  C     15.478143   14.203436   17.003362
  C     15.435089   15.254955   15.871558
  O     16.703377   15.907724   15.614659
  C     17.767166   15.826035   16.466573
  O     18.401025   14.793240   16.600418
  C     17.901289   16.983549   17.413803
  C     17.404080   18.228197   17.192525
  C     16.654011   18.729485   15.975462
  N     17.641276   19.245632   18.122608
  C     18.484341   19.143396   19.197599
  S     18.808413   20.436303   20.176577
  N     19.044290   17.910979   19.420012
  C     18.680715   16.677387   18.697543
  C     17.889520   15.737936   19.603843
  C     18.281901   14.394879   19.752545
  C     17.548087   13.519990   20.570857
  C     16.410622   13.990942   21.248174
  C     16.014400   15.327001   21.101114
  O     14.910612   15.782407   21.745407
  C     16.745980   16.195244   20.284746
  H     16.189373   13.400717   16.770559
  H     14.490447   13.744787   17.131574
  H     15.759618   14.656245   17.961140
  H     15.087980   14.775263   14.947225
  H     14.693224   16.017351   16.141225
  H     15.622044   18.359557   15.973360
  H     17.138017   18.391302   15.050442
  H     16.613725   19.824646   15.928447
  H     17.242679   20.159128   17.974905
  H     19.640968   17.854393   20.235428
  H     19.614924   16.172833   18.410689
  H     19.150024   14.022735   19.213346
  H     17.859175   12.481625   20.671171
  H     15.839792   13.317751   21.879076
  H     14.579570   15.059647   22.299617
  H     16.421105   17.225304   20.186408

 Total Charge           Charge          ....    0
 Multiplicity           Mult            ....    1
 Number of Electrons    NEL             ....  154
 Basis Dimension        Dim             ....  828

ORBITAL ENERGIES
----------------

  NO   OCC          E(Eh)            E(eV)
   0   2.0000     -91.889915     -2500.4517
   1   2.0000     -20.595813      -560.4406
   2   2.0000     -20.583976      -560.1185
   3   2.0000     -20.551661      -559.2391
   4   2.0000     -15.630323      -425.3227
   5   2.0000     -15.608597      -424.7315
   6   2.0000     -11.395615      -310.0905
   7   2.0000     -11.384938      -309.7999
   8   2.0000     -11.337827      -308.5180
   9   2.0000     -11.312171      -307.8198
  10   2.0000     -11.307652      -307.6969
  11   2.0000     -11.307110      -307.6821
  12   2.0000     -11.261211      -306.4331
  13   2.0000     -11.260991      -306.4271
  14   2.0000     -11.257502      -306.3322
  15   2.0000     -11.252084      -306.1848
  16   2.0000     -11.241849      -305.9063
  17   2.0000     -11.237764      -305.7951
  18   2.0000     -11.234241      -305.6992
  19   2.0000     -11.225391      -305.4584
  20   2.0000      -8.894974      -242.0445
  21   2.0000      -6.576548      -178.9570
  22   2.0000      -6.574542      -178.9024
  23   2.0000      -6.573954      -178.8864
  24   2.0000      -1.445411       -39.3316
  25   2.0000      -1.415629       -38.5212
  26   2.0000      -1.354838       -36.8670
  27   2.0000      -1.341257       -36.4975
  28   2.0000      -1.238933       -33.7131
  29   2.0000      -1.156243       -31.4630
  30   2.0000      -1.121236       -30.5104
  31   2.0000      -1.044057       -28.4102
  32   2.0000      -1.032331       -28.0912
  33   2.0000      -1.013880       -27.5891
  34   2.0000      -1.000640       -27.2288
  35   2.0000      -0.985931       -26.8285
  36   2.0000      -0.924397       -25.1541
  37   2.0000      -0.895309       -24.3626
  38   2.0000      -0.850632       -23.1469
  39   2.0000      -0.839324       -22.8392
  40   2.0000      -0.832165       -22.6444
  41   2.0000      -0.821609       -22.3571
  42   2.0000      -0.743632       -20.2353
  43   2.0000      -0.728543       -19.8247
  44   2.0000      -0.726422       -19.7669
  45   2.0000      -0.693601       -18.8738
  46   2.0000      -0.686323       -18.6758
  47   2.0000      -0.677579       -18.4379
  48   2.0000      -0.675508       -18.3815
  49   2.0000      -0.664151       -18.0725
  50   2.0000      -0.650052       -17.6888
  51   2.0000      -0.647257       -17.6128
  52   2.0000      -0.636058       -17.3080
  53   2.0000      -0.624200       -16.9854
  54   2.0000      -0.604519       -16.4498
  55   2.0000      -0.603005       -16.4086
  56   2.0000      -0.599687       -16.3183
  57   2.0000      -0.578353       -15.7378
  58   2.0000      -0.575219       -15.6525
  59   2.0000      -0.565083       -15.3767
  60   2.0000      -0.551387       -15.0040
  61   2.0000      -0.546574       -14.8730
  62   2.0000      -0.537495       -14.6260
  63   2.0000      -0.528300       -14.3758
  64   2.0000      -0.519390       -14.1333
  65   2.0000      -0.511635       -13.9223
  66   2.0000      -0.500109       -13.6087
  67   2.0000      -0.494178       -13.4473
  68   2.0000      -0.481750       -13.1091
  69   2.0000      -0.465595       -12.6695
  70   2.0000      -0.455875       -12.4050
  71   2.0000      -0.449193       -12.2232
  72   2.0000      -0.356091        -9.6897
  73   2.0000      -0.348021        -9.4701
  74   2.0000      -0.329094        -8.9551
  75   2.0000      -0.319555        -8.6955
  76   2.0000      -0.316998        -8.6260
  77   0.0000       0.070724         1.9245
  78   0.0000       0.106928         2.9096
  79   0.0000       0.120308         3.2738
  80   0.0000       0.132385         3.6024
  81   0.0000       0.138400         3.7660

MULLIKEN ATOMIC CHARGES
-----------------------
   0 C :   -0.317148
   1 C :    0.055540
   2 O :   -0.386967
   3 C :    0.476709
   4 O :   -0.399695
   5 C :   -0.207046
   6 C :    0.139623
   7 C :   -0.290358
   8 N :   -0.122176
   9 C :    0.196776
  10 S :   -0.437054
  11 N :   -0.200202
  12 C :    0.049539
  13 C :    0.015239
  14 C :   -0.153705
  15 C :   -0.141463
  16 C :   -0.270265
  17 C :    0.304416
  18 O :   -0.360217
  19 C :   -0.252204
  20 H :    0.121603
  21 H :    0.107270
  22 H :    0.110367
  23 H :    0.108852
  24 H :    0.081223
  25 H :    0.120414
  26 H :    0.134245
  27 H :    0.107370
  28 H :    0.197333
  29 H :    0.194188
  30 H :    0.156192
  31 H :    0.160652
  32 H :    0.161199
  33 H :    0.131089
  34 H :    0.240670
  35 H :    0.167991
Sum of atomic charges:   -0.0000000

LOEWDIN ATOMIC CHARGES
----------------------
   0 C :    0.108289
   1 C :   -0.012270
   2 O :    0.282683
   3 C :   -0.420136
   4 O :    0.125503
   5 C :   -0.095282
   6 C :   -0.068076
   7 C :    0.126573
   8 N :    0.405022
   9 C :   -0.459301
  10 S :   -0.034469
  11 N :    0.397662
  12 C :   -0.046133
  13 C :   -0.042416
  14 C :    0.022418
  15 C :    0.042165
  16 C :   -0.001948
  17 C :   -0.194279
  18 O :    0.394054
  19 C :    0.026352
  20 H :   -0.022377
  21 H :   -0.024561
  22 H :   -0.026110
  23 H :   -0.024202
  24 H :   -0.036153
  25 H :   -0.012391
  26 H :   -0.005892
  27 H :   -0.019575
  28 H :   -0.058653
  29 H :   -0.063737
  30 H :   -0.004113
  31 H :   -0.024088
  32 H :   -0.020151
  33 H :   -0.035562
  34 H :   -0.154043
  35 H :   -0.024803

  Mayer bond orders larger than 0.100000
B(  0-C ,  1-C ) :   0.9720 B(  0-C , 20-H ) :   0.9700 B(  0-C , 21-H ) :   0.9745
B(  0-C , 22-H ) :   0.9658 B(  1-C ,  2-O ) :   0.8995 B(  1-C , 23-H ) :   0.9812
B(  1-C , 24-H ) :   0.9756 B(  2-O ,  3-C ) :   1.0877 B(  3-C ,  4-O ) :   2.0339
B(  3-C ,  5-C ) :   1.0290 B(  5-C ,  6-C ) :   1.6616 B(  5-C , 12-C ) :   0.9599
B(  6-C ,  7-C ) :   0.9518 B(  6-C ,  8-N ) :   1.1452 B(  7-C , 25-H ) :   0.9675
B(  7-C , 26-H ) :   0.9652 B(  7-C , 27-H ) :   0.9892 B(  8-N ,  9-C ) :   1.1797
B(  8-N , 28-H ) :   0.9489 B(  9-C , 10-S ) :   1.6138 B(  9-C , 11-N ) :   1.3021
B( 11-N , 12-C ) :   0.9902 B( 11-N , 29-H ) :   0.9521 B( 12-C , 13-C ) :   0.9456
B( 12-C , 30-H ) :   0.9994 B( 13-C , 14-C ) :   1.3858 B( 13-C , 19-C ) :   1.3656
B( 14-C , 15-C ) :   1.3942 B( 14-C , 31-H ) :   0.9612 B( 15-C , 16-C ) :   1.3621
B( 15-C , 32-H ) :   0.9710 B( 16-C , 17-C ) :   1.3318 B( 16-C , 33-H ) :   0.9847
B( 17-C , 18-O ) :   1.1109 B( 17-C , 19-C ) :   1.3737 B( 18-O , 34-H ) :   0.9800
B( 19-C , 35-H ) :   0.9584

MP2 TOTAL ENERGY:    -1274.330458755 Eh
FINAL SINGLE POINT ENERGY     -1274.330458754662

DIPOLE MOMENT
-------------
                                X             Y             Z
Electronic contribution:      9.68708       9.36363       6.79050
Nuclear contribution   :    -11.19245     -10.51198      -7.44084
                        -----------------------------------------
Total Dipole Moment    :     -1.50536      -1.14835      -0.65034
                        -----------------------------------------
Magnitude (a.u.)       :      2.00194
Magnitude (Debye)      :      5.08854

Rotational constants in cm-1:     0.011677     0.009509     0.006587
Rotational constants in MHz :   350.060607   285.073478   197.463908

                             ****ORCA TERMINATED NORMALLY****
TOTAL RUN TIME: 0 days 2 hours 23 minutes 51 seconds 792 msec
