                         Program Version 4.2.0 -  RELEASE  -
|  1> ! ri-mp2 cc-pvtz cc-pvtz/c TightSCF  NoKeepInts
|  2>
|  3> %scf
|  4>   MaxCore 4096
|  5> end
|  6> *xyz  0  1
|  7>     C       15.8066257   13.2699117   15.7760832
|  8>     C       15.5041636   14.5017529   16.6450963
|  9>     O       16.6604896   15.3558101   16.5931925
| 10>     C       16.4944141   16.7114829   16.5708266
| 11>     O       15.5369611   17.2365418   16.0288065
| 12>     C       17.4375572   17.4236280   17.5016107
| 13>     C       17.4425574   18.7741388   17.6375230
| 14>     C       16.5549278   19.7704802   16.9226774
| 15>     N       18.3665129   19.3902291   18.4868475
| 16>     C       19.3790372   18.7441312   19.1443416
| 17>     S       20.4913591   19.5608550   20.0562236
| 18>     N       19.4272649   17.3806133   19.0049485
| 19>     C       18.4115503   16.5597599   18.3209300
| 20>     C       17.6846800   15.6875754   19.3410745
| 21>     C       17.8756059   14.2929185   19.3504732
| 22>     C       17.2003231   13.4849591   20.2806113
| 23>     C       16.3300703   14.0763576   21.2121608
| 24>     C       16.1425927   15.4654320   21.2099392
| 25>     O       15.3039530   16.0394482   22.1088077
| 26>     C       16.8146525   16.2666811   20.2818205
| 27>     H       14.9555009   12.5782739   15.7799837
| 28>     H       16.6864571   12.7357674   16.1554079
| 29>     H       16.0016084   13.5687877   14.7384867
| 30>     H       14.6127681   15.0024723   16.2433206
| 31>     H       15.2973913   14.2057992   17.6821157
| 32>     H       15.5034715   19.6133709   17.1956033
| 33>     H       16.6319989   19.6467140   15.8349788
| 34>     H       16.8060252   20.8122493   17.1539729
| 35>     H       18.3473815   20.3912157   18.5998421
| 36>     H       20.1633880   16.9287882   19.5320501
| 37>     H       18.9421914   15.9019569   17.6181487
| 38>     H       18.5435928   13.8327496   18.6271586
| 39>     H       17.3531892   12.4070631   20.2785136
| 40>     H       15.8072834   13.4569263   21.9335729
| 41>     H       14.9691285   15.3369618   22.6861330
| 42>     H       16.6603254   17.3401966   20.3007169
| 43> *
| 44>
| 45>                          ****END OF INPUT****

CARTESIAN COORDINATES (ANGSTROEM)
---------------------------------
  C     15.806626   13.269912   15.776083
  C     15.504164   14.501753   16.645096
  O     16.660490   15.355810   16.593193
  C     16.494414   16.711483   16.570827
  O     15.536961   17.236542   16.028807
  C     17.437557   17.423628   17.501611
  C     17.442557   18.774139   17.637523
  C     16.554928   19.770480   16.922677
  N     18.366513   19.390229   18.486847
  C     19.379037   18.744131   19.144342
  S     20.491359   19.560855   20.056224
  N     19.427265   17.380613   19.004949
  C     18.411550   16.559760   18.320930
  C     17.684680   15.687575   19.341075
  C     17.875606   14.292918   19.350473
  C     17.200323   13.484959   20.280611
  C     16.330070   14.076358   21.212161
  C     16.142593   15.465432   21.209939
  O     15.303953   16.039448   22.108808
  C     16.814653   16.266681   20.281820
  H     14.955501   12.578274   15.779984
  H     16.686457   12.735767   16.155408
  H     16.001608   13.568788   14.738487
  H     14.612768   15.002472   16.243321
  H     15.297391   14.205799   17.682116
  H     15.503471   19.613371   17.195603
  H     16.631999   19.646714   15.834979
  H     16.806025   20.812249   17.153973
  H     18.347381   20.391216   18.599842
  H     20.163388   16.928788   19.532050
  H     18.942191   15.901957   17.618149
  H     18.543593   13.832750   18.627159
  H     17.353189   12.407063   20.278514
  H     15.807283   13.456926   21.933573
  H     14.969129   15.336962   22.686133
  H     16.660325   17.340197   20.300717

 Total Charge           Charge          ....    0
 Multiplicity           Mult            ....    1
 Number of Electrons    NEL             ....  154
 Basis Dimension        Dim             ....  828

ORBITAL ENERGIES
----------------

  NO   OCC          E(Eh)            E(eV)
   0   2.0000     -91.889363     -2500.4367
   1   2.0000     -20.598255      -560.5070
   2   2.0000     -20.594986      -560.4181
   3   2.0000     -20.543253      -559.0103
   4   2.0000     -15.629526      -425.3010
   5   2.0000     -15.608824      -424.7377
   6   2.0000     -11.394334      -310.0556
   7   2.0000     -11.384487      -309.7876
   8   2.0000     -11.336092      -308.4708
   9   2.0000     -11.315825      -307.9193
  10   2.0000     -11.309928      -307.7588
  11   2.0000     -11.293410      -307.3093
  12   2.0000     -11.261376      -306.4376
  13   2.0000     -11.258812      -306.3678
  14   2.0000     -11.257218      -306.3245
  15   2.0000     -11.252403      -306.1935
  16   2.0000     -11.244926      -305.9900
  17   2.0000     -11.240179      -305.8608
  18   2.0000     -11.239828      -305.8513
  19   2.0000     -11.227570      -305.5177
  20   2.0000      -8.894422      -242.0295
  21   2.0000      -6.575995      -178.9419
  22   2.0000      -6.573991      -178.8874
  23   2.0000      -6.573403      -178.8714
  24   2.0000      -1.450071       -39.4585
  25   2.0000      -1.417911       -38.5833
  26   2.0000      -1.354157       -36.8485
  27   2.0000      -1.340522       -36.4775
  28   2.0000      -1.239109       -33.7179
  29   2.0000      -1.159230       -31.5443
  30   2.0000      -1.120796       -30.4984
  31   2.0000      -1.043925       -28.4066
  32   2.0000      -1.037981       -28.2449
  33   2.0000      -1.017002       -27.6740
  34   2.0000      -0.996149       -27.1066
  35   2.0000      -0.984713       -26.7954
  36   2.0000      -0.923411       -25.1273
  37   2.0000      -0.885648       -24.0997
  38   2.0000      -0.847480       -23.0611
  39   2.0000      -0.839029       -22.8311
  40   2.0000      -0.835691       -22.7403
  41   2.0000      -0.820605       -22.3298
  42   2.0000      -0.763228       -20.7685
  43   2.0000      -0.733949       -19.9718
  44   2.0000      -0.723548       -19.6887
  45   2.0000      -0.697150       -18.9704
  46   2.0000      -0.688277       -18.7290
  47   2.0000      -0.679170       -18.4811
  48   2.0000      -0.673557       -18.3284
  49   2.0000      -0.655715       -17.8429
  50   2.0000      -0.647142       -17.6096
  51   2.0000      -0.643012       -17.4972
  52   2.0000      -0.632373       -17.2077
  53   2.0000      -0.614372       -16.7179
  54   2.0000      -0.608590       -16.5606
  55   2.0000      -0.601201       -16.3595
  56   2.0000      -0.599374       -16.3098
  57   2.0000      -0.579142       -15.7592
  58   2.0000      -0.571373       -15.5479
  59   2.0000      -0.565560       -15.3897
  60   2.0000      -0.561916       -15.2905
  61   2.0000      -0.540178       -14.6990
  62   2.0000      -0.534917       -14.5558
  63   2.0000      -0.526881       -14.3372
  64   2.0000      -0.525879       -14.3099
  65   2.0000      -0.514299       -13.9948
  66   2.0000      -0.502493       -13.6735
  67   2.0000      -0.496117       -13.5000
  68   2.0000      -0.487666       -13.2701
  69   2.0000      -0.465036       -12.6543
  70   2.0000      -0.457008       -12.4358
  71   2.0000      -0.446615       -12.1530
  72   2.0000      -0.354598        -9.6491
  73   2.0000      -0.351137        -9.5549
  74   2.0000      -0.328866        -8.9489
  75   2.0000      -0.323367        -8.7993
  76   2.0000      -0.316684        -8.6174
  77   0.0000       0.073827         2.0089
  78   0.0000       0.104448         2.8422
  79   0.0000       0.124018         3.3747
  80   0.0000       0.130788         3.5589
  81   0.0000       0.135122         3.6769

MULLIKEN ATOMIC CHARGES
-----------------------
   0 C :   -0.261299
   1 C :    0.009785
   2 O :   -0.369196
   3 C :    0.479075
   4 O :   -0.424502
   5 C :   -0.248518
   6 C :    0.157487
   7 C :   -0.270953
   8 N :   -0.122796
   9 C :    0.211844
  10 S :   -0.439447
  11 N :   -0.205491
  12 C :    0.065874
  13 C :    0.054752
  14 C :   -0.191492
  15 C :   -0.130929
  16 C :   -0.279792
  17 C :    0.314298
  18 O :   -0.355613
  19 C :   -0.262817
  20 H :    0.088479
  21 H :    0.089244
  22 H :    0.100059
  23 H :    0.126380
  24 H :    0.113284
  25 H :    0.132641
  26 H :    0.130273
  27 H :    0.095182
  28 H :    0.197693
  29 H :    0.194968
  30 H :    0.149607
  31 H :    0.151327
  32 H :    0.161890
  33 H :    0.131636
  34 H :    0.240936
  35 H :    0.166129
Sum of atomic charges:    0.0000000

LOEWDIN ATOMIC CHARGES
----------------------
   0 C :    0.106303
   1 C :   -0.014818
   2 O :    0.304908
   3 C :   -0.415115
   4 O :    0.102014
   5 C :   -0.096447
   6 C :   -0.058976
   7 C :    0.131620
   8 N :    0.406655
   9 C :   -0.456287
  10 S :   -0.035038
  11 N :    0.396284
  12 C :   -0.052319
  13 C :   -0.038188
  14 C :    0.014233
  15 C :    0.038451
  16 C :   -0.002721
  17 C :   -0.189549
  18 O :    0.395850
  19 C :    0.031326
  20 H :   -0.026045
  21 H :   -0.030965
  22 H :   -0.024891
  23 H :   -0.028199
  24 H :   -0.030518
  25 H :   -0.004490
  26 H :   -0.003967
  27 H :   -0.023303
  28 H :   -0.057479
  29 H :   -0.064634
  30 H :   -0.010271
  31 H :   -0.030232
  32 H :   -0.021006
  33 H :   -0.035286
  34 H :   -0.153552
  35 H :   -0.023348

  Mayer bond orders larger than 0.100000
B(  0-C ,  1-C ) :   0.9775 B(  0-C , 20-H ) :   0.9764 B(  0-C , 21-H ) :   0.9796
B(  0-C , 22-H ) :   0.9785 B(  1-C ,  2-O ) :   0.8721 B(  1-C , 23-H ) :   0.9749
B(  1-C , 24-H ) :   0.9696 B(  2-O ,  3-C ) :   1.1428 B(  3-C ,  4-O ) :   1.9948
B(  3-C ,  5-C ) :   1.0612 B(  5-C ,  6-C ) :   1.6524 B(  5-C , 12-C ) :   0.9714
B(  6-C ,  7-C ) :   0.9664 B(  6-C ,  8-N ) :   1.1618 B(  7-C , 25-H ) :   0.9593
B(  7-C , 26-H ) :   0.9612 B(  7-C , 27-H ) :   0.9905 B(  8-N ,  9-C ) :   1.1832
B(  8-N , 28-H ) :   0.9478 B(  9-C , 10-S ) :   1.6076 B(  9-C , 11-N ) :   1.3054
B( 11-N , 12-C ) :   0.9849 B( 11-N , 29-H ) :   0.9517 B( 12-C , 13-C ) :   0.9346
B( 12-C , 30-H ) :   1.0021 B( 13-C , 14-C ) :   1.3548 B( 13-C , 19-C ) :   1.3832
B( 14-C , 15-C ) :   1.3905 B( 14-C , 31-H ) :   0.9731 B( 15-C , 16-C ) :   1.3609
B( 15-C , 32-H ) :   0.9706 B( 16-C , 17-C ) :   1.3311 B( 16-C , 33-H ) :   0.9847
B( 17-C , 18-O ) :   1.1121 B( 17-C , 19-C ) :   1.3716 B( 18-O , 34-H ) :   0.9796
B( 19-C , 35-H ) :   0.9577

MP2 TOTAL ENERGY:    -1274.344012259 Eh
FINAL SINGLE POINT ENERGY     -1274.344012259091

DIPOLE MOMENT
-------------
                                X             Y             Z
Electronic contribution:      9.45292      10.95259       7.87716
Nuclear contribution   :    -10.59184     -12.51830      -8.07855
                        -----------------------------------------
Total Dipole Moment    :     -1.13892      -1.56571      -0.20139
                        -----------------------------------------
Magnitude (a.u.)       :      1.94658
Magnitude (Debye)      :      4.94780

Rotational constants in cm-1:     0.012080     0.008459     0.006211
Rotational constants in MHz :   362.159539   253.604924   186.214630

                             ****ORCA TERMINATED NORMALLY****
TOTAL RUN TIME: 0 days 1 hours 47 minutes 15 seconds 99 msec
