                         Program Version 4.2.0 -  RELEASE  -
|  1> ! ri-mp2 cc-pvtz cc-pvtz/c TightSCF  NoKeepInts
|  2>
|  3> %scf
|  4>   MaxCore 4096
|  5> end
|  6> *xyz  0  1
|  7>     C       15.1002169   15.6080209   17.4677647
|  8>     C       15.5392170   15.3197484   16.0162681
|  9>     O       16.9570717   15.0606623   15.8512986
| 10>     C       18.0675538   15.5835735   16.4780170
| 11>     O       19.0915386   14.9253094   16.4903716
| 12>     C       17.9276100   16.7651513   17.3852836
| 13>     C       17.3989722   17.9439607   16.9759315
| 14>     C       16.8687058   18.2876682   15.6006603
| 15>     N       17.4081417   19.0475139   17.8322331
| 16>     C       18.0745806   19.1007340   19.0279939
| 17>     S       18.1179090   20.4806977   19.9378450
| 18>     N       18.7082974   17.9513810   19.4296916
| 19>     C       18.6044624   16.6418956   18.7550133
| 20>     C       17.9001159   15.6142079   19.6377846
| 21>     C       18.3340039   14.2755674   19.6387586
| 22>     C       17.6899758   13.3124422   20.4329042
| 23>     C       16.6004328   13.6889472   21.2359957
| 24>     C       16.1628248   15.0199656   21.2383036
| 25>     O       15.1037930   15.3846623   22.0038033
| 26>     C       16.8053710   15.9770301   20.4463963
| 27>     H       15.5743390   14.9007839   18.1587883
| 28>     H       14.0157671   15.4712094   17.5581937
| 29>     H       15.3139790   16.6303815   17.7900642
| 30>     H       14.9961208   14.4344792   15.6603257
| 31>     H       15.2288828   16.1520650   15.3747580
| 32>     H       17.1423100   17.5368461   14.8495900
| 33>     H       17.2851337   19.2402545   15.2485455
| 34>     H       15.7765811   18.3849535   15.6107135
| 35>     H       16.9676913   19.9074946   17.5452975
| 36>     H       19.1820981   18.0143450   20.3219732
| 37>     H       19.6299874   16.2817640   18.5845495
| 38>     H       19.1701676   13.9774108   19.0093771
| 39>     H       18.0346771   12.2797967   20.4194585
| 40>     H       16.0989280   12.9473604   21.8489789
| 41>     H       14.8283482   14.6048807   22.5090593
| 42>     H       16.4411944   16.9988351   20.4620088
| 43> *
| 44>
| 45>                          ****END OF INPUT****

CARTESIAN COORDINATES (ANGSTROEM)
---------------------------------
  C     15.100217   15.608021   17.467765
  C     15.539217   15.319748   16.016268
  O     16.957072   15.060662   15.851299
  C     18.067554   15.583573   16.478017
  O     19.091539   14.925309   16.490372
  C     17.927610   16.765151   17.385284
  C     17.398972   17.943961   16.975932
  C     16.868706   18.287668   15.600660
  N     17.408142   19.047514   17.832233
  C     18.074581   19.100734   19.027994
  S     18.117909   20.480698   19.937845
  N     18.708297   17.951381   19.429692
  C     18.604462   16.641896   18.755013
  C     17.900116   15.614208   19.637785
  C     18.334004   14.275567   19.638759
  C     17.689976   13.312442   20.432904
  C     16.600433   13.688947   21.235996
  C     16.162825   15.019966   21.238304
  O     15.103793   15.384662   22.003803
  C     16.805371   15.977030   20.446396
  H     15.574339   14.900784   18.158788
  H     14.015767   15.471209   17.558194
  H     15.313979   16.630381   17.790064
  H     14.996121   14.434479   15.660326
  H     15.228883   16.152065   15.374758
  H     17.142310   17.536846   14.849590
  H     17.285134   19.240254   15.248546
  H     15.776581   18.384954   15.610713
  H     16.967691   19.907495   17.545298
  H     19.182098   18.014345   20.321973
  H     19.629987   16.281764   18.584550
  H     19.170168   13.977411   19.009377
  H     18.034677   12.279797   20.419459
  H     16.098928   12.947360   21.848979
  H     14.828348   14.604881   22.509059
  H     16.441194   16.998835   20.462009

 Total Charge           Charge          ....    0
 Multiplicity           Mult            ....    1
 Number of Electrons    NEL             ....  154
 Basis Dimension        Dim             ....  828

ORBITAL ENERGIES
----------------

  NO   OCC          E(Eh)            E(eV)
   0   2.0000     -91.890929     -2500.4793
   1   2.0000     -20.597648      -560.4905
   2   2.0000     -20.597522      -560.4871
   3   2.0000     -20.546571      -559.1006
   4   2.0000     -15.629293      -425.2947
   5   2.0000     -15.611180      -424.8018
   6   2.0000     -11.400565      -310.2251
   7   2.0000     -11.387138      -309.8598
   8   2.0000     -11.332919      -308.3844
   9   2.0000     -11.314235      -307.8760
  10   2.0000     -11.313056      -307.8439
  11   2.0000     -11.311877      -307.8118
  12   2.0000     -11.270317      -306.6809
  13   2.0000     -11.266453      -306.5758
  14   2.0000     -11.261393      -306.4381
  15   2.0000     -11.254752      -306.2574
  16   2.0000     -11.243996      -305.9647
  17   2.0000     -11.239372      -305.8389
  18   2.0000     -11.236277      -305.7546
  19   2.0000     -11.232748      -305.6586
  20   2.0000      -8.896021      -242.0730
  21   2.0000      -6.577607      -178.9858
  22   2.0000      -6.575584      -178.9307
  23   2.0000      -6.575005      -178.9150
  24   2.0000      -1.442236       -39.2452
  25   2.0000      -1.417462       -38.5711
  26   2.0000      -1.354687       -36.8629
  27   2.0000      -1.342092       -36.5202
  28   2.0000      -1.240778       -33.7633
  29   2.0000      -1.159062       -31.5397
  30   2.0000      -1.125238       -30.6193
  31   2.0000      -1.047675       -28.5087
  32   2.0000      -1.039979       -28.2993
  33   2.0000      -1.017199       -27.6794
  34   2.0000      -1.005931       -27.3728
  35   2.0000      -0.990416       -26.9506
  36   2.0000      -0.928225       -25.2583
  37   2.0000      -0.899880       -24.4870
  38   2.0000      -0.855088       -23.2681
  39   2.0000      -0.841052       -22.8862
  40   2.0000      -0.834539       -22.7090
  41   2.0000      -0.828213       -22.5368
  42   2.0000      -0.745290       -20.2804
  43   2.0000      -0.736981       -20.0543
  44   2.0000      -0.730615       -19.8810
  45   2.0000      -0.695197       -18.9173
  46   2.0000      -0.687015       -18.6946
  47   2.0000      -0.679008       -18.4767
  48   2.0000      -0.674572       -18.3560
  49   2.0000      -0.661072       -17.9887
  50   2.0000      -0.656330       -17.8596
  51   2.0000      -0.652051       -17.7432
  52   2.0000      -0.641206       -17.4481
  53   2.0000      -0.617166       -16.7939
  54   2.0000      -0.609235       -16.5781
  55   2.0000      -0.605603       -16.4793
  56   2.0000      -0.602203       -16.3868
  57   2.0000      -0.590373       -16.0649
  58   2.0000      -0.577453       -15.7133
  59   2.0000      -0.571208       -15.5434
  60   2.0000      -0.565677       -15.3928
  61   2.0000      -0.556034       -15.1305
  62   2.0000      -0.542841       -14.7714
  63   2.0000      -0.530408       -14.4331
  64   2.0000      -0.521529       -14.1915
  65   2.0000      -0.513604       -13.9759
  66   2.0000      -0.501269       -13.6402
  67   2.0000      -0.498528       -13.5656
  68   2.0000      -0.483068       -13.1449
  69   2.0000      -0.467501       -12.7214
  70   2.0000      -0.454932       -12.3793
  71   2.0000      -0.448965       -12.2169
  72   2.0000      -0.356983        -9.7140
  73   2.0000      -0.348776        -9.4907
  74   2.0000      -0.330430        -8.9914
  75   2.0000      -0.323074        -8.7913
  76   2.0000      -0.319124        -8.6838
  77   0.0000       0.081092         2.2066
  78   0.0000       0.107762         2.9324
  79   0.0000       0.114114         3.1052
  80   0.0000       0.130758         3.5581
  81   0.0000       0.131062         3.5664

MULLIKEN ATOMIC CHARGES
-----------------------
   0 C :   -0.339256
   1 C :    0.036067
   2 O :   -0.330385
   3 C :    0.426290
   4 O :   -0.387050
   5 C :   -0.206839
   6 C :    0.143376
   7 C :   -0.338361
   8 N :   -0.136110
   9 C :    0.199180
  10 S :   -0.438971
  11 N :   -0.219888
  12 C :    0.077222
  13 C :    0.020504
  14 C :   -0.209160
  15 C :   -0.135156
  16 C :   -0.277511
  17 C :    0.316743
  18 O :   -0.358221
  19 C :   -0.269486
  20 H :    0.129935
  21 H :    0.119030
  22 H :    0.109909
  23 H :    0.133311
  24 H :    0.084950
  25 H :    0.134209
  26 H :    0.138557
  27 H :    0.121952
  28 H :    0.197353
  29 H :    0.200813
  30 H :    0.167279
  31 H :    0.176280
  32 H :    0.163807
  33 H :    0.131996
  34 H :    0.241094
  35 H :    0.176538
Sum of atomic charges:   -0.0000000

LOEWDIN ATOMIC CHARGES
----------------------
   0 C :    0.104122
   1 C :   -0.016087
   2 O :    0.292773
   3 C :   -0.415104
   4 O :    0.120278
   5 C :   -0.081091
   6 C :   -0.094279
   7 C :    0.124755
   8 N :    0.403030
   9 C :   -0.458511
  10 S :   -0.036317
  11 N :    0.398354
  12 C :   -0.042935
  13 C :   -0.043422
  14 C :    0.019740
  15 C :    0.043331
  16 C :   -0.001770
  17 C :   -0.194067
  18 O :    0.395215
  19 C :    0.028762
  20 H :   -0.019719
  21 H :   -0.022841
  22 H :   -0.036434
  23 H :   -0.017241
  24 H :   -0.038959
  25 H :   -0.007209
  26 H :   -0.009467
  27 H :   -0.018069
  28 H :   -0.057365
  29 H :   -0.063243
  30 H :   -0.001732
  31 H :   -0.021754
  32 H :   -0.018668
  33 H :   -0.035005
  34 H :   -0.153594
  35 H :   -0.025475

  Mayer bond orders larger than 0.100000
B(  0-C ,  1-C ) :   0.9561 B(  0-C , 20-H ) :   0.9671 B(  0-C , 21-H ) :   0.9771
B(  0-C , 22-H ) :   0.9729 B(  1-C ,  2-O ) :   0.9060 B(  1-C , 23-H ) :   0.9798
B(  1-C , 24-H ) :   0.9736 B(  2-O ,  3-C ) :   1.1829 B(  3-C ,  4-O ) :   2.0735
B(  3-C ,  5-C ) :   0.9303 B(  5-C ,  6-C ) :   1.6923 B(  5-C , 12-C ) :   0.9566
B(  6-C ,  7-C ) :   0.9441 B(  6-C ,  8-N ) :   1.1061 B(  7-C , 25-H ) :   0.9786
B(  7-C , 26-H ) :   0.9733 B(  7-C , 27-H ) :   0.9644 B(  8-N ,  9-C ) :   1.1919
B(  8-N , 28-H ) :   0.9517 B(  9-C , 10-S ) :   1.6117 B(  9-C , 11-N ) :   1.2899
B( 11-N , 12-C ) :   0.9890 B( 11-N , 29-H ) :   0.9489 B( 12-C , 13-C ) :   0.9467
B( 12-C , 30-H ) :   0.9954 B( 13-C , 14-C ) :   1.3914 B( 13-C , 19-C ) :   1.3432
B( 14-C , 15-C ) :   1.3987 B( 14-C , 31-H ) :   0.9575 B( 15-C , 16-C ) :   1.3599
B( 15-C , 32-H ) :   0.9703 B( 16-C , 17-C ) :   1.3297 B( 16-C , 33-H ) :   0.9848
B( 17-C , 18-O ) :   1.1109 B( 17-C , 19-C ) :   1.3711 B( 18-O , 34-H ) :   0.9797
B( 19-C , 35-H ) :   0.9572

MP2 TOTAL ENERGY:    -1274.327727067 Eh
FINAL SINGLE POINT ENERGY     -1274.327727067084

DIPOLE MOMENT
-------------
                                X             Y             Z
Electronic contribution:      9.39444       5.88551       6.35871
Nuclear contribution   :    -11.00733      -6.87310      -6.96742
                        -----------------------------------------
Total Dipole Moment    :     -1.61289      -0.98759      -0.60871
                        -----------------------------------------
Magnitude (a.u.)       :      1.98677
Magnitude (Debye)      :      5.04997

Rotational constants in cm-1:     0.011606     0.009670     0.006823
Rotational constants in MHz :   347.953333   289.894465   204.548060

                             ****ORCA TERMINATED NORMALLY****
TOTAL RUN TIME: 0 days 2 hours 20 minutes 53 seconds 114 msec
