                         Program Version 5.0.0 -  RELEASE  -
|  1> ! ri-mp2 cc-pvtz cc-pvtz/c TightSCF NoKeepInts
|  2>
|  3> %scf
|  4>   MaxCore 4096
|  5> end
|  6> *xyz  0  1
|  7>     C       15.1340147   15.5020866   17.4877890
|  8>     C       15.5309663   15.3601318   16.0032925
|  9>     O       16.9457129   15.1262021   15.7852220
| 10>     C       18.0461726   15.5768108   16.4800821
| 11>     O       19.0456653   14.8825095   16.5124836
| 12>     C       17.9239858   16.7703049   17.3772656
| 13>     C       17.3947365   17.9521337   16.9752823
| 14>     C       16.8676913   18.3123130   15.6029617
| 15>     N       17.4132230   19.0529124   17.8352315
| 16>     C       18.0879167   19.1019066   19.0263262
| 17>     S       18.1428880   20.4802216   19.9380276
| 18>     N       18.7197537   17.9496157   19.4214085
| 19>     C       18.6041268   16.6419305   18.7458037
| 20>     C       17.8962876   15.6200601   19.6329140
| 21>     C       18.3344795   14.2829112   19.6519133
| 22>     C       17.6865075   13.3259986   20.4503698
| 23>     C       16.5888484   13.7072969   21.2400157
| 24>     C       16.1476017   15.0370105   21.2251938
| 25>     O       15.0812167   15.4065291   21.9780585
| 26>     C       16.7943525   15.9878334   20.4292653
| 27>     H       15.6354575   14.7395812   18.0967085
| 28>     H       14.0535459   15.3498221   17.5986690
| 29>     H       15.3558541   16.4936505   17.8931665
| 30>     H       14.9840031   14.5080126   15.5789523
| 31>     H       15.1972159   16.2462113   15.4531322
| 32>     H       17.1259665   17.5616391   14.8465313
| 33>     H       17.3024895   19.2582368   15.2550699
| 34>     H       15.7779881   18.4329340   15.6156635
| 35>     H       16.9742947   19.9152275   17.5530072
| 36>     H       19.1993477   18.0088180   20.3108564
| 37>     H       19.6266960   16.2751768   18.5718093
| 38>     H       19.1768434   13.9806847   19.0328979
| 39>     H       18.0344187   12.2943390   20.4505051
| 40>     H       16.0841983   12.9704779   21.8561644
| 41>     H       14.8042186   14.6313896   22.4895871
| 42>     H       16.4283146   17.0090797   20.4323730
| 43> *
| 44>
| 45>                          ****END OF INPUT****

CARTESIAN COORDINATES (ANGSTROEM)
---------------------------------
  C     15.134015   15.502087   17.487789
  C     15.530966   15.360132   16.003293
  O     16.945713   15.126202   15.785222
  C     18.046173   15.576811   16.480082
  O     19.045665   14.882509   16.512484
  C     17.923986   16.770305   17.377266
  C     17.394737   17.952134   16.975282
  C     16.867691   18.312313   15.602962
  N     17.413223   19.052912   17.835231
  C     18.087917   19.101907   19.026326
  S     18.142888   20.480222   19.938028
  N     18.719754   17.949616   19.421408
  C     18.604127   16.641931   18.745804
  C     17.896288   15.620060   19.632914
  C     18.334480   14.282911   19.651913
  C     17.686508   13.325999   20.450370
  C     16.588848   13.707297   21.240016
  C     16.147602   15.037010   21.225194
  O     15.081217   15.406529   21.978058
  C     16.794352   15.987833   20.429265
  H     15.635457   14.739581   18.096708
  H     14.053546   15.349822   17.598669
  H     15.355854   16.493651   17.893166
  H     14.984003   14.508013   15.578952
  H     15.197216   16.246211   15.453132
  H     17.125967   17.561639   14.846531
  H     17.302490   19.258237   15.255070
  H     15.777988   18.432934   15.615664
  H     16.974295   19.915228   17.553007
  H     19.199348   18.008818   20.310856
  H     19.626696   16.275177   18.571809
  H     19.176843   13.980685   19.032898
  H     18.034419   12.294339   20.450505
  H     16.084198   12.970478   21.856164
  H     14.804219   14.631390   22.489587
  H     16.428315   17.009080   20.432373

 Total Charge           Charge          ....    0
 Multiplicity           Mult            ....    1
 Number of Electrons    NEL             ....  154
 Basis Dimension        Dim             ....  828

ORBITAL ENERGIES
----------------

  NO   OCC          E(Eh)            E(eV)
   0   2.0000     -91.891013     -2500.4816
   1   2.0000     -20.597573      -560.4885
   2   2.0000     -20.597223      -560.4789
   3   2.0000     -20.547171      -559.1170
   4   2.0000     -15.629524      -425.3010
   5   2.0000     -15.611081      -424.7991
   6   2.0000     -11.400413      -310.2210
   7   2.0000     -11.387101      -309.8588
   8   2.0000     -11.334127      -308.4173
   9   2.0000     -11.314082      -307.8718
  10   2.0000     -11.312708      -307.8344
  11   2.0000     -11.311170      -307.7926
  12   2.0000     -11.269550      -306.6600
  13   2.0000     -11.267082      -306.5929
  14   2.0000     -11.261080      -306.4296
  15   2.0000     -11.254544      -306.2517
  16   2.0000     -11.243949      -305.9634
  17   2.0000     -11.239300      -305.8369
  18   2.0000     -11.236119      -305.7503
  19   2.0000     -11.232461      -305.6508
  20   2.0000      -8.896105      -242.0753
  21   2.0000      -6.577690      -178.9880
  22   2.0000      -6.575667      -178.9330
  23   2.0000      -6.575088      -178.9172
  24   2.0000      -1.442686       -39.2575
  25   2.0000      -1.417390       -38.5691
  26   2.0000      -1.355359       -36.8812
  27   2.0000      -1.342396       -36.5285
  28   2.0000      -1.240942       -33.7678
  29   2.0000      -1.158894       -31.5351
  30   2.0000      -1.124962       -30.6118
  31   2.0000      -1.047372       -28.5005
  32   2.0000      -1.039435       -28.2845
  33   2.0000      -1.017044       -27.6752
  34   2.0000      -1.006010       -27.3749
  35   2.0000      -0.990215       -26.9451
  36   2.0000      -0.928144       -25.2561
  37   2.0000      -0.899538       -24.4777
  38   2.0000      -0.855135       -23.2694
  39   2.0000      -0.841056       -22.8863
  40   2.0000      -0.834474       -22.7072
  41   2.0000      -0.827996       -22.5309
  42   2.0000      -0.745191       -20.2777
  43   2.0000      -0.736857       -20.0509
  44   2.0000      -0.730534       -19.8788
  45   2.0000      -0.695248       -18.9187
  46   2.0000      -0.686869       -18.6907
  47   2.0000      -0.679591       -18.4926
  48   2.0000      -0.674777       -18.3616
  49   2.0000      -0.660213       -17.9653
  50   2.0000      -0.657352       -17.8874
  51   2.0000      -0.651896       -17.7390
  52   2.0000      -0.640864       -17.4388
  53   2.0000      -0.619062       -16.8455
  54   2.0000      -0.609521       -16.5859
  55   2.0000      -0.605644       -16.4804
  56   2.0000      -0.602057       -16.3828
  57   2.0000      -0.589415       -16.0388
  58   2.0000      -0.576975       -15.7003
  59   2.0000      -0.568958       -15.4821
  60   2.0000      -0.565636       -15.3917
  61   2.0000      -0.554897       -15.0995
  62   2.0000      -0.542450       -14.7608
  63   2.0000      -0.531776       -14.4704
  64   2.0000      -0.521949       -14.2029
  65   2.0000      -0.513401       -13.9704
  66   2.0000      -0.501193       -13.6382
  67   2.0000      -0.497338       -13.5333
  68   2.0000      -0.483008       -13.1433
  69   2.0000      -0.468767       -12.7558
  70   2.0000      -0.455704       -12.4003
  71   2.0000      -0.448903       -12.2153
  72   2.0000      -0.357376        -9.7247
  73   2.0000      -0.348633        -9.4868
  74   2.0000      -0.330493        -8.9932
  75   2.0000      -0.322945        -8.7878
  76   2.0000      -0.319296        -8.6885
  77   0.0000       0.079453         2.1620
  78   0.0000       0.107827         2.9341
  79   0.0000       0.114279         3.1097
  80   0.0000       0.130924         3.5626
  81   0.0000       0.131625         3.5817

MULLIKEN ATOMIC CHARGES
-----------------------
   0 C :   -0.339725
   1 C :    0.033806
   2 O :   -0.332466
   3 C :    0.431752
   4 O :   -0.387349
   5 C :   -0.218167
   6 C :    0.153286
   7 C :   -0.340594
   8 N :   -0.135385
   9 C :    0.197551
  10 S :   -0.438695
  11 N :   -0.217821
  12 C :    0.074888
  13 C :    0.021809
  14 C :   -0.206802
  15 C :   -0.134797
  16 C :   -0.278357
  17 C :    0.317685
  18 O :   -0.358502
  19 C :   -0.270956
  20 H :    0.130278
  21 H :    0.119361
  22 H :    0.110682
  23 H :    0.132401
  24 H :    0.085975
  25 H :    0.136765
  26 H :    0.138181
  27 H :    0.121381
  28 H :    0.197489
  29 H :    0.200319
  30 H :    0.166421
  31 H :    0.175780
  32 H :    0.163770
  33 H :    0.131921
  34 H :    0.241062
  35 H :    0.177052
Sum of atomic charges:   -0.0000000

LOEWDIN ATOMIC CHARGES
----------------------
   0 C :    0.103648
   1 C :   -0.016205
   2 O :    0.291754
   3 C :   -0.414757
   4 O :    0.120842
   5 C :   -0.081720
   6 C :   -0.091487
   7 C :    0.124173
   8 N :    0.403237
   9 C :   -0.459100
  10 S :   -0.036111
  11 N :    0.398290
  12 C :   -0.043269
  13 C :   -0.043431
  14 C :    0.019682
  15 C :    0.042775
  16 C :   -0.001704
  17 C :   -0.193906
  18 O :    0.395092
  19 C :    0.029097
  20 H :   -0.018877
  21 H :   -0.022909
  22 H :   -0.035868
  23 H :   -0.017964
  24 H :   -0.039055
  25 H :   -0.007170
  26 H :   -0.009540
  27 H :   -0.018502
  28 H :   -0.057100
  29 H :   -0.063115
  30 H :   -0.001885
  31 H :   -0.021918
  32 H :   -0.018783
  33 H :   -0.035010
  34 H :   -0.153604
  35 H :   -0.025598

  Mayer bond orders larger than 0.100000
B(  0-C ,  1-C ) :   0.9569 B(  0-C , 20-H ) :   0.9672 B(  0-C , 21-H ) :   0.9767
B(  0-C , 22-H ) :   0.9722 B(  1-C ,  2-O ) :   0.9043 B(  1-C , 23-H ) :   0.9805
B(  1-C , 24-H ) :   0.9734 B(  2-O ,  3-C ) :   1.1816 B(  3-C ,  4-O ) :   2.0741
B(  3-C ,  5-C ) :   0.9331 B(  5-C ,  6-C ) :   1.6876 B(  5-C , 12-C ) :   0.9570
B(  6-C ,  7-C ) :   0.9443 B(  6-C ,  8-N ) :   1.1107 B(  7-C , 25-H ) :   0.9778
B(  7-C , 26-H ) :   0.9728 B(  7-C , 27-H ) :   0.9649 B(  8-N ,  9-C ) :   1.1909
B(  8-N , 28-H ) :   0.9516 B(  9-C , 10-S ) :   1.6122 B(  9-C , 11-N ) :   1.2908
B( 11-N , 12-C ) :   0.9897 B( 11-N , 29-H ) :   0.9493 B( 12-C , 13-C ) :   0.9470
B( 12-C , 30-H ) :   0.9960 B( 13-C , 14-C ) :   1.3914 B( 13-C , 19-C ) :   1.3416
B( 14-C , 15-C ) :   1.3984 B( 14-C , 31-H ) :   0.9575 B( 15-C , 16-C ) :   1.3597
B( 15-C , 32-H ) :   0.9704 B( 16-C , 17-C ) :   1.3299 B( 16-C , 33-H ) :   0.9848
B( 17-C , 18-O ) :   1.1104 B( 17-C , 19-C ) :   1.3714 B( 18-O , 34-H ) :   0.9797
B( 19-C , 35-H ) :   0.9569

MP2 TOTAL ENERGY:    -1274.329588282 Eh
FINAL SINGLE POINT ENERGY     -1274.329588282098

DIPOLE MOMENT
-------------
                                X             Y             Z
Electronic contribution:      9.31056       6.04006       6.24155
Nuclear contribution   :    -10.90795      -7.01316      -6.82837
                        -----------------------------------------
Total Dipole Moment    :     -1.59739      -0.97311      -0.58682
                        -----------------------------------------
Magnitude (a.u.)       :      1.96035
Magnitude (Debye)      :      4.98281

Rotational constants in cm-1:     0.011615     0.009683     0.006819
Rotational constants in MHz :   348.202927   290.297284   204.415351

                             ****ORCA TERMINATED NORMALLY****
TOTAL RUN TIME: 0 days 2 hours 13 minutes 18 seconds 19 msec
