                         Program Version 5.0.0 -  RELEASE  -
|  1> ! ri-mp2 cc-pvtz cc-pvtz/c TightSCF NoKeepInts
|  2>
|  3> %scf
|  4>   MaxCore 4096
|  5> end
|  6> *xyz  0  1
|  7>     C       15.0252036   15.6889010   17.4733660
|  8>     C       15.6370109   15.1652739   16.1565023
|  9>     O       17.0379682   14.8277308   16.2700284
| 10>     C       18.1246928   15.6463025   16.4733125
| 11>     O       19.2275594   15.1375924   16.3942280
| 12>     C       17.9463621   16.8098821   17.3880704
| 13>     C       17.4112508   17.9749806   16.9568800
| 14>     C       16.8771946   18.2714903   15.5721436
| 15>     N       17.3777481   19.0830111   17.8062240
| 16>     C       17.9958680   19.1445148   19.0280038
| 17>     S       17.9806987   20.5239868   19.9396158
| 18>     N       18.6305141   18.0042096   19.4563242
| 19>     C       18.5858664   16.6945483   18.7739063
| 20>     C       17.8920148   15.6335633   19.6253622
| 21>     C       18.3265667   14.2965366   19.5641377
| 22>     C       17.6976532   13.3008276   20.3295781
| 23>     C       16.6228434   13.6427833   21.1671430
| 24>     C       16.1840806   14.9718831   21.2309788
| 25>     O       15.1384813   15.3031875   22.0294560
| 26>     C       16.8109082   15.9615200   20.4668346
| 27>     H       15.3150091   15.0404304   18.3086843
| 28>     H       13.9307041   15.6652167   17.4075993
| 29>     H       15.3055547   16.7172104   17.7095808
| 30>     H       15.0965363   14.2520488   15.8750392
| 31>     H       15.4791369   15.8909880   15.3500124
| 32>     H       17.2099134   17.5333083   14.8323219
| 33>     H       17.2297692   19.2482277   15.2164545
| 34>     H       15.7806169   18.2894992   15.5685501
| 35>     H       16.9336666   19.9354131   17.5028101
| 36>     H       19.0684213   18.0750022   20.3661408
| 37>     H       19.6261375   16.3674438   18.6279098
| 38>     H       19.1510419   14.0257754   18.9074560
| 39>     H       18.0424581   12.2700818   20.2671507
| 40>     H       16.1330489   12.8761240   21.7582828
| 41>     H       14.8709226   14.5021274   22.5047014
| 42>     H       16.4435767   16.9803768   20.5292102
| 43> *
| 44>
| 45>                          ****END OF INPUT****

CARTESIAN COORDINATES (ANGSTROEM)
---------------------------------
  C     15.025204   15.688901   17.473366
  C     15.637011   15.165274   16.156502
  O     17.037968   14.827731   16.270028
  C     18.124693   15.646302   16.473312
  O     19.227559   15.137592   16.394228
  C     17.946362   16.809882   17.388070
  C     17.411251   17.974981   16.956880
  C     16.877195   18.271490   15.572144
  N     17.377748   19.083011   17.806224
  C     17.995868   19.144515   19.028004
  S     17.980699   20.523987   19.939616
  N     18.630514   18.004210   19.456324
  C     18.585866   16.694548   18.773906
  C     17.892015   15.633563   19.625362
  C     18.326567   14.296537   19.564138
  C     17.697653   13.300828   20.329578
  C     16.622843   13.642783   21.167143
  C     16.184081   14.971883   21.230979
  O     15.138481   15.303187   22.029456
  C     16.810908   15.961520   20.466835
  H     15.315009   15.040430   18.308684
  H     13.930704   15.665217   17.407599
  H     15.305555   16.717210   17.709581
  H     15.096536   14.252049   15.875039
  H     15.479137   15.890988   15.350012
  H     17.209913   17.533308   14.832322
  H     17.229769   19.248228   15.216454
  H     15.780617   18.289499   15.568550
  H     16.933667   19.935413   17.502810
  H     19.068421   18.075002   20.366141
  H     19.626137   16.367444   18.627910
  H     19.151042   14.025775   18.907456
  H     18.042458   12.270082   20.267151
  H     16.133049   12.876124   21.758283
  H     14.870923   14.502127   22.504701
  H     16.443577   16.980377   20.529210

 Total Charge           Charge          ....    0
 Multiplicity           Mult            ....    1
 Number of Electrons    NEL             ....  154
 Basis Dimension        Dim             ....  828

ORBITAL ENERGIES
----------------

  NO   OCC          E(Eh)            E(eV)
   0   2.0000     -91.889423     -2500.4383
   1   2.0000     -20.599353      -560.5369
   2   2.0000     -20.597142      -560.4767
   3   2.0000     -20.551978      -559.2478
   4   2.0000     -15.626251      -425.2119
   5   2.0000     -15.610938      -424.7952
   6   2.0000     -11.399272      -310.1900
   7   2.0000     -11.386100      -309.8315
   8   2.0000     -11.326427      -308.2077
   9   2.0000     -11.314890      -307.8938
  10   2.0000     -11.313667      -307.8605
  11   2.0000     -11.310417      -307.7721
  12   2.0000     -11.271942      -306.7251
  13   2.0000     -11.265198      -306.5416
  14   2.0000     -11.261556      -306.4425
  15   2.0000     -11.254292      -306.2449
  16   2.0000     -11.243359      -305.9474
  17   2.0000     -11.238893      -305.8258
  18   2.0000     -11.236069      -305.7490
  19   2.0000     -11.230199      -305.5893
  20   2.0000      -8.894534      -242.0326
  21   2.0000      -6.576127      -178.9455
  22   2.0000      -6.574097      -178.8903
  23   2.0000      -6.573525      -178.8747
  24   2.0000      -1.447816       -39.3971
  25   2.0000      -1.416977       -38.5579
  26   2.0000      -1.357627       -36.9429
  27   2.0000      -1.339647       -36.4536
  28   2.0000      -1.239267       -33.7222
  29   2.0000      -1.158619       -31.5276
  30   2.0000      -1.124984       -30.6124
  31   2.0000      -1.047808       -28.5123
  32   2.0000      -1.039315       -28.2812
  33   2.0000      -1.016793       -27.6683
  34   2.0000      -1.004967       -27.3465
  35   2.0000      -0.989720       -26.9317
  36   2.0000      -0.927495       -25.2384
  37   2.0000      -0.897525       -24.4229
  38   2.0000      -0.853767       -23.2322
  39   2.0000      -0.840052       -22.8590
  40   2.0000      -0.833926       -22.6923
  41   2.0000      -0.829530       -22.5727
  42   2.0000      -0.749321       -20.3901
  43   2.0000      -0.738251       -20.0888
  44   2.0000      -0.730278       -19.8719
  45   2.0000      -0.694601       -18.9010
  46   2.0000      -0.687169       -18.6988
  47   2.0000      -0.679270       -18.4839
  48   2.0000      -0.674804       -18.3624
  49   2.0000      -0.664255       -18.0753
  50   2.0000      -0.651854       -17.7379
  51   2.0000      -0.648742       -17.6532
  52   2.0000      -0.640653       -17.4330
  53   2.0000      -0.613830       -16.7032
  54   2.0000      -0.608601       -16.5609
  55   2.0000      -0.604573       -16.4513
  56   2.0000      -0.601759       -16.3747
  57   2.0000      -0.591480       -16.0950
  58   2.0000      -0.582426       -15.8486
  59   2.0000      -0.574140       -15.6231
  60   2.0000      -0.565215       -15.3803
  61   2.0000      -0.557893       -15.1810
  62   2.0000      -0.542270       -14.7559
  63   2.0000      -0.528138       -14.3714
  64   2.0000      -0.516418       -14.0524
  65   2.0000      -0.512825       -13.9547
  66   2.0000      -0.503556       -13.7025
  67   2.0000      -0.500830       -13.6283
  68   2.0000      -0.484867       -13.1939
  69   2.0000      -0.462947       -12.5974
  70   2.0000      -0.455081       -12.3834
  71   2.0000      -0.452104       -12.3024
  72   2.0000      -0.355544        -9.6748
  73   2.0000      -0.348098        -9.4722
  74   2.0000      -0.329108        -8.9555
  75   2.0000      -0.322237        -8.7685
  76   2.0000      -0.317476        -8.6390
  77   0.0000       0.087636         2.3847
  78   0.0000       0.104370         2.8400
  79   0.0000       0.112301         3.0559
  80   0.0000       0.129243         3.5169
  81   0.0000       0.131169         3.5693

MULLIKEN ATOMIC CHARGES
-----------------------
   0 C :   -0.326983
   1 C :    0.018409
   2 O :   -0.321524
   3 C :    0.395770
   4 O :   -0.374096
   5 C :   -0.161630
   6 C :    0.126233
   7 C :   -0.332926
   8 N :   -0.137258
   9 C :    0.206719
  10 S :   -0.442176
  11 N :   -0.228476
  12 C :    0.077885
  13 C :    0.029390
  14 C :   -0.206539
  15 C :   -0.136016
  16 C :   -0.275831
  17 C :    0.314959
  18 O :   -0.358970
  19 C :   -0.272632
  20 H :    0.128874
  21 H :    0.114525
  22 H :    0.105951
  23 H :    0.132533
  24 H :    0.087873
  25 H :    0.123398
  26 H :    0.136620
  27 H :    0.124421
  28 H :    0.195990
  29 H :    0.202564
  30 H :    0.169619
  31 H :    0.170477
  32 H :    0.163312
  33 H :    0.131929
  34 H :    0.240980
  35 H :    0.176622
Sum of atomic charges:   -0.0000000

LOEWDIN ATOMIC CHARGES
----------------------
   0 C :    0.104717
   1 C :   -0.020317
   2 O :    0.304548
   3 C :   -0.418375
   4 O :    0.130357
   5 C :   -0.077086
   6 C :   -0.106823
   7 C :    0.123783
   8 N :    0.401244
   9 C :   -0.456442
  10 S :   -0.038866
  11 N :    0.398605
  12 C :   -0.041596
  13 C :   -0.041428
  14 C :    0.022378
  15 C :    0.044279
  16 C :   -0.002295
  17 C :   -0.194523
  18 O :    0.395310
  19 C :    0.028294
  20 H :   -0.020049
  21 H :   -0.024795
  22 H :   -0.038468
  23 H :   -0.016924
  24 H :   -0.039752
  25 H :   -0.010231
  26 H :   -0.009674
  27 H :   -0.017190
  28 H :   -0.058831
  29 H :   -0.063701
  30 H :   -0.001411
  31 H :   -0.021742
  32 H :   -0.018682
  33 H :   -0.035167
  34 H :   -0.153679
  35 H :   -0.025468

  Mayer bond orders larger than 0.100000
B(  0-C ,  1-C ) :   0.9538 B(  0-C , 20-H ) :   0.9690 B(  0-C , 21-H ) :   0.9775
B(  0-C , 22-H ) :   0.9742 B(  1-C ,  2-O ) :   0.9157 B(  1-C , 23-H ) :   0.9821
B(  1-C , 24-H ) :   0.9775 B(  2-O ,  3-C ) :   1.1362 B(  3-C ,  4-O ) :   2.0839
B(  3-C ,  5-C ) :   0.9169 B(  5-C ,  6-C ) :   1.7105 B(  5-C , 12-C ) :   0.9573
B(  6-C ,  7-C ) :   0.9412 B(  6-C ,  8-N ) :   1.0960 B(  7-C , 25-H ) :   0.9810
B(  7-C , 26-H ) :   0.9743 B(  7-C , 27-H ) :   0.9644 B(  8-N ,  9-C ) :   1.1982
B(  8-N , 28-H ) :   0.9530 B(  9-C , 10-S ) :   1.6069 B(  9-C , 11-N ) :   1.2865
B( 11-N , 12-C ) :   0.9841 B( 11-N , 29-H ) :   0.9472 B( 12-C , 13-C ) :   0.9501
B( 12-C , 30-H ) :   0.9950 B( 13-C , 14-C ) :   1.3871 B( 13-C , 19-C ) :   1.3416
B( 14-C , 15-C ) :   1.4025 B( 14-C , 31-H ) :   0.9608 B( 15-C , 16-C ) :   1.3577
B( 15-C , 32-H ) :   0.9702 B( 16-C , 17-C ) :   1.3310 B( 16-C , 33-H ) :   0.9850
B( 17-C , 18-O ) :   1.1094 B( 17-C , 19-C ) :   1.3686 B( 18-O , 34-H ) :   0.9797
B( 19-C , 35-H ) :   0.9579

MP2 TOTAL ENERGY:    -1274.320018740 Eh
FINAL SINGLE POINT ENERGY     -1274.320018739911

DIPOLE MOMENT
-------------
                                X             Y             Z
Electronic contribution:      9.42727       5.91117       6.56065
Nuclear contribution   :    -11.00406      -7.04890      -7.36621
                        -----------------------------------------
Total Dipole Moment    :     -1.57680      -1.13772      -0.80556
                        -----------------------------------------
Magnitude (a.u.)       :      2.10467
Magnitude (Debye)      :      5.34964

Rotational constants in cm-1:     0.011921     0.009574     0.006856
Rotational constants in MHz :   357.372691   287.027301   205.552568

                             ****ORCA TERMINATED NORMALLY****
TOTAL RUN TIME: 0 days 2 hours 16 minutes 22 seconds 821 msec
