                         Program Version 4.2.0 -  RELEASE  -
|  1> ! ri-mp2 cc-pvtz cc-pvtz/c TightSCF  NoKeepInts
|  2>
|  3> %scf
|  4>   MaxCore 4096
|  5> end
|  6> *xyz  0  1
|  7>     C       15.8097087   14.0639470   14.8103348
|  8>     C       15.4435909   14.2511738   16.2940649
|  9>     O       16.4158632   15.1275608   16.8908594
| 10>     C       16.2111315   16.4805053   16.8873881
| 11>     O       15.2722310   16.9989636   16.3066133
| 12>     C       17.2701042   17.2296014   17.6483169
| 13>     C       17.3140535   18.5854888   17.6930077
| 14>     C       16.3596490   19.5562626   17.0310782
| 15>     N       18.3461180   19.2312333   18.3805579
| 16>     C       19.4201999   18.6029777   18.9521688
| 17>     S       20.6516464   19.4480672   19.6630005
| 18>     N       19.4247515   17.2323477   18.9030592
| 19>     C       18.3163861   16.3963641   18.4063177
| 20>     C       17.6938731   15.6224713   19.5649061
| 21>     C       17.7931535   14.2195244   19.6214651
| 22>     C       17.2208130   13.5045472   20.6870680
| 23>     C       16.5457427   14.1977594   21.7062444
| 24>     C       16.4481486   15.5950598   21.6550081
| 25>     O       15.7977807   16.2672939   22.6379633
| 26>     C       17.0186406   16.3038208   20.5932564
| 27>     H       15.7431756   15.0178357   14.2717834
| 28>     H       15.1229817   13.3550649   14.3321776
| 29>     H       16.8309587   13.6769703   14.7074681
| 30>     H       14.4232691   14.6445578   16.4019437
| 31>     H       15.4846093   13.2749821   16.7939977
| 32>     H       15.3377505   19.4038948   17.4014737
| 33>     H       16.3405798   19.3991452   15.9451280
| 34>     H       16.6226665   20.6055374   17.2088873
| 35>     H       18.3600231   20.2376318   18.4252847
| 36>     H       20.2108383   16.7960988   19.3673680
| 37>     H       18.7464526   15.6749867   17.6973725
| 38>     H       18.3098602   13.6807851   18.8317532
| 39>     H       17.3009470   12.4194666   20.7206328
| 40>     H       16.1021700   13.6501464   22.5312196
| 41>     H       15.4986699   15.6145440   23.2884937
| 42>     H       16.9384615   17.3853825   20.5763372
| 43> *
| 44>
| 45>                          ****END OF INPUT****

CARTESIAN COORDINATES (ANGSTROEM)
---------------------------------
  C     15.809709   14.063947   14.810335
  C     15.443591   14.251174   16.294065
  O     16.415863   15.127561   16.890859
  C     16.211132   16.480505   16.887388
  O     15.272231   16.998964   16.306613
  C     17.270104   17.229601   17.648317
  C     17.314053   18.585489   17.693008
  C     16.359649   19.556263   17.031078
  N     18.346118   19.231233   18.380558
  C     19.420200   18.602978   18.952169
  S     20.651646   19.448067   19.663000
  N     19.424751   17.232348   18.903059
  C     18.316386   16.396364   18.406318
  C     17.693873   15.622471   19.564906
  C     17.793153   14.219524   19.621465
  C     17.220813   13.504547   20.687068
  C     16.545743   14.197759   21.706244
  C     16.448149   15.595060   21.655008
  O     15.797781   16.267294   22.637963
  C     17.018641   16.303821   20.593256
  H     15.743176   15.017836   14.271783
  H     15.122982   13.355065   14.332178
  H     16.830959   13.676970   14.707468
  H     14.423269   14.644558   16.401944
  H     15.484609   13.274982   16.793998
  H     15.337751   19.403895   17.401474
  H     16.340580   19.399145   15.945128
  H     16.622667   20.605537   17.208887
  H     18.360023   20.237632   18.425285
  H     20.210838   16.796099   19.367368
  H     18.746453   15.674987   17.697372
  H     18.309860   13.680785   18.831753
  H     17.300947   12.419467   20.720633
  H     16.102170   13.650146   22.531220
  H     15.498670   15.614544   23.288494
  H     16.938461   17.385382   20.576337

 Total Charge           Charge          ....    0
 Multiplicity           Mult            ....    1
 Number of Electrons    NEL             ....  154
 Basis Dimension        Dim             ....  828

ORBITAL ENERGIES
----------------

  NO   OCC          E(Eh)            E(eV)
   0   2.0000     -91.888620     -2500.4165
   1   2.0000     -20.602629      -560.6260
   2   2.0000     -20.595154      -560.4226
   3   2.0000     -20.542031      -558.9771
   4   2.0000     -15.628873      -425.2832
   5   2.0000     -15.607875      -424.7119
   6   2.0000     -11.395862      -310.0972
   7   2.0000     -11.383696      -309.7661
   8   2.0000     -11.335909      -308.4658
   9   2.0000     -11.312154      -307.8194
  10   2.0000     -11.308342      -307.7156
  11   2.0000     -11.297183      -307.4120
  12   2.0000     -11.258940      -306.3713
  13   2.0000     -11.258207      -306.3514
  14   2.0000     -11.253608      -306.2262
  15   2.0000     -11.251937      -306.1808
  16   2.0000     -11.241582      -305.8990
  17   2.0000     -11.237132      -305.7779
  18   2.0000     -11.236869      -305.7708
  19   2.0000     -11.226207      -305.4806
  20   2.0000      -8.893681      -242.0094
  21   2.0000      -6.575256      -178.9218
  22   2.0000      -6.573252      -178.8673
  23   2.0000      -6.572665      -178.8513
  24   2.0000      -1.451976       -39.5103
  25   2.0000      -1.414806       -38.4988
  26   2.0000      -1.355230       -36.8777
  27   2.0000      -1.339793       -36.4576
  28   2.0000      -1.238136       -33.6914
  29   2.0000      -1.156361       -31.4662
  30   2.0000      -1.120033       -30.4776
  31   2.0000      -1.042226       -28.3604
  32   2.0000      -1.037483       -28.2313
  33   2.0000      -1.013568       -27.5806
  34   2.0000      -0.995192       -27.0806
  35   2.0000      -0.983791       -26.7703
  36   2.0000      -0.921903       -25.0862
  37   2.0000      -0.893678       -24.3182
  38   2.0000      -0.846659       -23.0388
  39   2.0000      -0.836610       -22.7653
  40   2.0000      -0.832649       -22.6575
  41   2.0000      -0.817178       -22.2365
  42   2.0000      -0.759512       -20.6674
  43   2.0000      -0.731330       -19.9005
  44   2.0000      -0.722798       -19.6683
  45   2.0000      -0.694402       -18.8956
  46   2.0000      -0.687467       -18.7069
  47   2.0000      -0.680689       -18.5225
  48   2.0000      -0.671805       -18.2807
  49   2.0000      -0.655094       -17.8260
  50   2.0000      -0.645547       -17.5662
  51   2.0000      -0.645128       -17.5548
  52   2.0000      -0.630413       -17.1544
  53   2.0000      -0.612184       -16.6584
  54   2.0000      -0.605294       -16.4709
  55   2.0000      -0.598677       -16.2908
  56   2.0000      -0.597736       -16.2652
  57   2.0000      -0.578216       -15.7341
  58   2.0000      -0.570537       -15.5251
  59   2.0000      -0.569646       -15.5008
  60   2.0000      -0.563100       -15.3227
  61   2.0000      -0.539393       -14.6776
  62   2.0000      -0.535010       -14.5584
  63   2.0000      -0.532893       -14.5008
  64   2.0000      -0.523786       -14.2530
  65   2.0000      -0.512918       -13.9572
  66   2.0000      -0.500440       -13.6177
  67   2.0000      -0.496981       -13.5235
  68   2.0000      -0.485354       -13.2071
  69   2.0000      -0.463492       -12.6123
  70   2.0000      -0.455072       -12.3831
  71   2.0000      -0.448770       -12.2116
  72   2.0000      -0.354165        -9.6373
  73   2.0000      -0.348158        -9.4739
  74   2.0000      -0.327893        -8.9224
  75   2.0000      -0.319892        -8.7047
  76   2.0000      -0.315570        -8.5871
  77   0.0000       0.076689         2.0868
  78   0.0000       0.108234         2.9452
  79   0.0000       0.124257         3.3812
  80   0.0000       0.133078         3.6212
  81   0.0000       0.136412         3.7120

MULLIKEN ATOMIC CHARGES
-----------------------
   0 C :   -0.282704
   1 C :    0.031174
   2 O :   -0.349559
   3 C :    0.473542
   4 O :   -0.439000
   5 C :   -0.218510
   6 C :    0.148459
   7 C :   -0.274680
   8 N :   -0.119901
   9 C :    0.210331
  10 S :   -0.439946
  11 N :   -0.203003
  12 C :    0.044749
  13 C :    0.067427
  14 C :   -0.175421
  15 C :   -0.133314
  16 C :   -0.277573
  17 C :    0.315133
  18 O :   -0.356953
  19 C :   -0.268466
  20 H :    0.109581
  21 H :    0.093549
  22 H :    0.091875
  23 H :    0.106717
  24 H :    0.106799
  25 H :    0.132128
  26 H :    0.130645
  27 H :    0.095107
  28 H :    0.197251
  29 H :    0.194336
  30 H :    0.151009
  31 H :    0.146211
  32 H :    0.159107
  33 H :    0.129020
  34 H :    0.240496
  35 H :    0.164384
Sum of atomic charges:   -0.0000000

LOEWDIN ATOMIC CHARGES
----------------------
   0 C :    0.104574
   1 C :   -0.015951
   2 O :    0.310067
   3 C :   -0.412552
   4 O :    0.094101
   5 C :   -0.093780
   6 C :   -0.058822
   7 C :    0.131453
   8 N :    0.406527
   9 C :   -0.456748
  10 S :   -0.035545
  11 N :    0.396633
  12 C :   -0.052860
  13 C :   -0.038913
  14 C :    0.014473
  15 C :    0.039121
  16 C :   -0.001309
  17 C :   -0.189551
  18 O :    0.394941
  19 C :    0.031487
  20 H :   -0.024812
  21 H :   -0.026750
  22 H :   -0.029789
  23 H :   -0.027456
  24 H :   -0.026908
  25 H :   -0.004471
  26 H :   -0.004187
  27 H :   -0.023426
  28 H :   -0.057605
  29 H :   -0.064522
  30 H :   -0.011551
  31 H :   -0.030448
  32 H :   -0.021671
  33 H :   -0.035747
  34 H :   -0.154106
  35 H :   -0.023899

  Mayer bond orders larger than 0.100000
B(  0-C ,  1-C ) :   0.9665 B(  0-C , 20-H ) :   0.9768 B(  0-C , 21-H ) :   0.9761
B(  0-C , 22-H ) :   0.9777 B(  1-C ,  2-O ) :   0.8935 B(  1-C , 23-H ) :   0.9760
B(  1-C , 24-H ) :   0.9830 B(  2-O ,  3-C ) :   1.1687 B(  3-C ,  4-O ) :   1.9505
B(  3-C ,  5-C ) :   1.0689 B(  5-C ,  6-C ) :   1.6562 B(  5-C , 12-C ) :   0.9733
B(  6-C ,  7-C ) :   0.9674 B(  6-C ,  8-N ) :   1.1652 B(  7-C , 25-H ) :   0.9608
B(  7-C , 26-H ) :   0.9600 B(  7-C , 27-H ) :   0.9905 B(  8-N ,  9-C ) :   1.1823
B(  8-N , 28-H ) :   0.9479 B(  9-C , 10-S ) :   1.6078 B(  9-C , 11-N ) :   1.3048
B( 11-N , 12-C ) :   0.9884 B( 11-N , 29-H ) :   0.9516 B( 12-C , 13-C ) :   0.9375
B( 12-C , 30-H ) :   1.0032 B( 13-C , 14-C ) :   1.3564 B( 13-C , 19-C ) :   1.3817
B( 14-C , 15-C ) :   1.3937 B( 14-C , 31-H ) :   0.9721 B( 15-C , 16-C ) :   1.3644
B( 15-C , 32-H ) :   0.9710 B( 16-C , 17-C ) :   1.3317 B( 16-C , 33-H ) :   0.9854
B( 17-C , 18-O ) :   1.1096 B( 17-C , 19-C ) :   1.3740 B( 18-O , 34-H ) :   0.9801
B( 19-C , 35-H ) :   0.9583

MP2 TOTAL ENERGY:    -1274.351044327 Eh
FINAL SINGLE POINT ENERGY     -1274.351044326972

DIPOLE MOMENT
-------------
                                X             Y             Z
Electronic contribution:      9.41832       9.10406      10.32675
Nuclear contribution   :    -10.61864     -10.70253     -10.64737
                        -----------------------------------------
Total Dipole Moment    :     -1.20032      -1.59847      -0.32061
                        -----------------------------------------
Magnitude (a.u.)       :      2.02452
Magnitude (Debye)      :      5.14592

Rotational constants in cm-1:     0.010649     0.008891     0.006024
Rotational constants in MHz :   319.256458   266.552923   180.599659

                             ****ORCA TERMINATED NORMALLY****
TOTAL RUN TIME: 0 days 1 hours 37 minutes 50 seconds 138 msec
