                         Program Version 4.2.0 -  RELEASE  -
|  1> ! ri-mp2 cc-pvtz cc-pvtz/c TightSCF  NoKeepInts
|  2>
|  3> %scf
|  4>   MaxCore 4096
|  5> end
|  6> *xyz  0  1
|  7>     C       15.0727250   14.7437139   16.8300534
|  8>     C       16.4591184   14.0661107   16.7239083
|  9>     O       17.5416562   14.9701617   16.3818821
| 10>     C       17.3470728   16.3033442   16.1538238
| 11>     O       16.7332028   16.6857104   15.1733914
| 12>     C       17.7299315   17.1797101   17.3167009
| 13>     C       17.4213799   18.5015763   17.3601501
| 14>     C       16.6151436   19.2917670   16.3516400
| 15>     N       17.8995815   19.2981028   18.4052192
| 16>     C       18.8308398   18.8977903   19.3260816
| 17>     S       19.4721708   19.9429735   20.4360223
| 18>     N       19.2163531   17.5826859   19.2705342
| 19>     C       18.5634754   16.5493839   18.4467101
| 20>     C       17.7535157   15.6327827   19.3572867
| 21>     C       18.2467966   14.3588461   19.6971957
| 22>     C       17.5113044   13.5089290   20.5403739
| 23>     C       16.2762413   13.9389679   21.0545927
| 24>     C       15.7906272   15.2135650   20.7325634
| 25>     O       14.6005167   15.6338230   21.2298003
| 26>     C       16.5253548   16.0576731   19.8945529
| 27>     H       15.0785596   15.5664249   17.5541612
| 28>     H       14.3230590   14.0150673   17.1610696
| 29>     H       14.7477453   15.1328554   15.8568539
| 30>     H       16.6853572   13.5722165   17.6761283
| 31>     H       16.4043961   13.2791998   15.9606527
| 32>     H       15.6279878   18.8357008   16.2033872
| 33>     H       17.1201692   19.3008042   15.3771488
| 34>     H       16.4544578   20.3337737   16.6519288
| 35>     H       17.6368801   20.2697689   18.4503318
| 36>     H       19.8849429   17.3103422   19.9794730
| 37>     H       19.3567372   15.9516864   17.9756608
| 38>     H       19.2016186   14.0234532   19.3006088
| 39>     H       17.8995560   12.5239644   20.7948061
| 40>     H       15.7045315   13.2863121   21.7064017
| 41>     H       14.2771882   14.9480584   21.8335901
| 42>     H       16.1368062   17.0447544   19.6693143
| 43> *
| 44>
| 45>                          ****END OF INPUT****

CARTESIAN COORDINATES (ANGSTROEM)
---------------------------------
  C     15.072725   14.743714   16.830053
  C     16.459118   14.066111   16.723908
  O     17.541656   14.970162   16.381882
  C     17.347073   16.303344   16.153824
  O     16.733203   16.685710   15.173391
  C     17.729931   17.179710   17.316701
  C     17.421380   18.501576   17.360150
  C     16.615144   19.291767   16.351640
  N     17.899582   19.298103   18.405219
  C     18.830840   18.897790   19.326082
  S     19.472171   19.942974   20.436022
  N     19.216353   17.582686   19.270534
  C     18.563475   16.549384   18.446710
  C     17.753516   15.632783   19.357287
  C     18.246797   14.358846   19.697196
  C     17.511304   13.508929   20.540374
  C     16.276241   13.938968   21.054593
  C     15.790627   15.213565   20.732563
  O     14.600517   15.633823   21.229800
  C     16.525355   16.057673   19.894553
  H     15.078560   15.566425   17.554161
  H     14.323059   14.015067   17.161070
  H     14.747745   15.132855   15.856854
  H     16.685357   13.572216   17.676128
  H     16.404396   13.279200   15.960653
  H     15.627988   18.835701   16.203387
  H     17.120169   19.300804   15.377149
  H     16.454458   20.333774   16.651929
  H     17.636880   20.269769   18.450332
  H     19.884943   17.310342   19.979473
  H     19.356737   15.951686   17.975661
  H     19.201619   14.023453   19.300609
  H     17.899556   12.523964   20.794806
  H     15.704531   13.286312   21.706402
  H     14.277188   14.948058   21.833590
  H     16.136806   17.044754   19.669314

 Total Charge           Charge          ....    0
 Multiplicity           Mult            ....    1
 Number of Electrons    NEL             ....  154
 Basis Dimension        Dim             ....  828

ORBITAL ENERGIES
----------------

  NO   OCC          E(Eh)            E(eV)
   0   2.0000     -91.890565     -2500.4694
   1   2.0000     -20.602421      -560.6204
   2   2.0000     -20.580757      -560.0309
   3   2.0000     -20.545340      -559.0671
   4   2.0000     -15.631013      -425.3415
   5   2.0000     -15.609651      -424.7602
   6   2.0000     -11.393270      -310.0266
   7   2.0000     -11.385308      -309.8100
   8   2.0000     -11.337441      -308.5075
   9   2.0000     -11.319827      -308.0282
  10   2.0000     -11.311640      -307.8054
  11   2.0000     -11.297910      -307.4318
  12   2.0000     -11.264632      -306.5262
  13   2.0000     -11.261085      -306.4297
  14   2.0000     -11.259110      -306.3760
  15   2.0000     -11.253420      -306.2211
  16   2.0000     -11.248865      -306.0972
  17   2.0000     -11.243563      -305.9529
  18   2.0000     -11.243360      -305.9474
  19   2.0000     -11.224760      -305.4412
  20   2.0000      -8.895602      -242.0616
  21   2.0000      -6.577169      -178.9739
  22   2.0000      -6.575172      -178.9195
  23   2.0000      -6.574579      -178.9034
  24   2.0000      -1.441582       -39.2274
  25   2.0000      -1.422056       -38.6961
  26   2.0000      -1.349379       -36.7185
  27   2.0000      -1.342130       -36.5212
  28   2.0000      -1.240660       -33.7601
  29   2.0000      -1.162633       -31.6369
  30   2.0000      -1.121464       -30.5166
  31   2.0000      -1.046417       -28.4745
  32   2.0000      -1.030497       -28.0412
  33   2.0000      -1.021090       -27.7853
  34   2.0000      -0.998798       -27.1787
  35   2.0000      -0.986390       -26.8410
  36   2.0000      -0.925534       -25.1851
  37   2.0000      -0.895617       -24.3710
  38   2.0000      -0.849354       -23.1121
  39   2.0000      -0.843526       -22.9535
  40   2.0000      -0.839157       -22.8346
  41   2.0000      -0.820378       -22.3236
  42   2.0000      -0.744652       -20.2630
  43   2.0000      -0.735201       -20.0058
  44   2.0000      -0.718857       -19.5611
  45   2.0000      -0.701097       -19.0778
  46   2.0000      -0.691376       -18.8133
  47   2.0000      -0.672920       -18.3111
  48   2.0000      -0.670739       -18.2517
  49   2.0000      -0.659294       -17.9403
  50   2.0000      -0.655027       -17.8242
  51   2.0000      -0.645367       -17.5613
  52   2.0000      -0.637247       -17.3404
  53   2.0000      -0.625955       -17.0331
  54   2.0000      -0.612877       -16.6772
  55   2.0000      -0.604412       -16.4469
  56   2.0000      -0.601574       -16.3697
  57   2.0000      -0.582168       -15.8416
  58   2.0000      -0.572346       -15.5743
  59   2.0000      -0.566905       -15.4263
  60   2.0000      -0.545490       -14.8435
  61   2.0000      -0.542237       -14.7550
  62   2.0000      -0.535319       -14.5668
  63   2.0000      -0.530466       -14.4347
  64   2.0000      -0.526411       -14.3244
  65   2.0000      -0.515725       -14.0336
  66   2.0000      -0.505142       -13.7456
  67   2.0000      -0.493035       -13.4162
  68   2.0000      -0.486511       -13.2386
  69   2.0000      -0.463639       -12.6163
  70   2.0000      -0.454432       -12.3657
  71   2.0000      -0.441601       -12.0166
  72   2.0000      -0.356597        -9.7035
  73   2.0000      -0.354919        -9.6578
  74   2.0000      -0.330763        -9.0005
  75   2.0000      -0.326739        -8.8910
  76   2.0000      -0.317861        -8.6494
  77   0.0000       0.070242         1.9114
  78   0.0000       0.101261         2.7555
  79   0.0000       0.121160         3.2969
  80   0.0000       0.128188         3.4882
  81   0.0000       0.132148         3.5959

MULLIKEN ATOMIC CHARGES
-----------------------
   0 C :   -0.331609
   1 C :    0.038148
   2 O :   -0.399696
   3 C :    0.516637
   4 O :   -0.413546
   5 C :   -0.286533
   6 C :    0.162218
   7 C :   -0.271335
   8 N :   -0.123678
   9 C :    0.213517
  10 S :   -0.437948
  11 N :   -0.203946
  12 C :    0.059468
  13 C :    0.073117
  14 C :   -0.191283
  15 C :   -0.130146
  16 C :   -0.274153
  17 C :    0.326089
  18 O :   -0.358342
  19 C :   -0.305667
  20 H :    0.101810
  21 H :    0.108755
  22 H :    0.128455
  23 H :    0.110787
  24 H :    0.118051
  25 H :    0.128695
  26 H :    0.135977
  27 H :    0.094994
  28 H :    0.198155
  29 H :    0.193746
  30 H :    0.151092
  31 H :    0.150674
  32 H :    0.164739
  33 H :    0.133623
  34 H :    0.242195
  35 H :    0.176939
Sum of atomic charges:   -0.0000000

LOEWDIN ATOMIC CHARGES
----------------------
   0 C :    0.105172
   1 C :   -0.008001
   2 O :    0.279491
   3 C :   -0.421145
   4 O :    0.116774
   5 C :   -0.099597
   6 C :   -0.058921
   7 C :    0.131251
   8 N :    0.407192
   9 C :   -0.455946
  10 S :   -0.033435
  11 N :    0.396378
  12 C :   -0.052836
  13 C :   -0.036988
  14 C :    0.014212
  15 C :    0.040714
  16 C :   -0.001771
  17 C :   -0.189378
  18 O :    0.396484
  19 C :    0.033168
  20 H :   -0.032605
  21 H :   -0.023162
  22 H :   -0.025386
  23 H :   -0.031039
  24 H :   -0.027383
  25 H :   -0.005790
  26 H :   -0.002765
  27 H :   -0.023278
  28 H :   -0.057384
  29 H :   -0.065351
  30 H :   -0.007414
  31 H :   -0.029150
  32 H :   -0.019945
  33 H :   -0.034415
  34 H :   -0.152401
  35 H :   -0.025352

  Mayer bond orders larger than 0.100000
B(  0-C ,  1-C ) :   0.9637 B(  0-C , 20-H ) :   0.9717 B(  0-C , 21-H ) :   0.9752
B(  0-C , 22-H ) :   0.9714 B(  1-C ,  2-O ) :   0.8845 B(  1-C , 23-H ) :   0.9709
B(  1-C , 24-H ) :   0.9853 B(  2-O ,  3-C ) :   1.0973 B(  3-C ,  4-O ) :   2.0080
B(  3-C ,  5-C ) :   1.0625 B(  5-C ,  6-C ) :   1.6472 B(  5-C , 12-C ) :   0.9725
B(  6-C ,  7-C ) :   0.9685 B(  6-C ,  8-N ) :   1.1601 B(  7-C , 25-H ) :   0.9631
B(  7-C , 26-H ) :   0.9574 B(  7-C , 27-H ) :   0.9891 B(  8-N ,  9-C ) :   1.1804
B(  8-N , 28-H ) :   0.9480 B(  9-C , 10-S ) :   1.6093 B(  9-C , 11-N ) :   1.3056
B( 11-N , 12-C ) :   0.9705 B( 11-N , 29-H ) :   0.9530 B( 12-C , 13-C ) :   0.9443
B( 12-C , 30-H ) :   1.0020 B( 13-C , 14-C ) :   1.3476 B( 13-C , 19-C ) :   1.3568
B( 14-C , 15-C ) :   1.3908 B( 14-C , 31-H ) :   0.9751 B( 15-C , 16-C ) :   1.3619
B( 15-C , 32-H ) :   0.9696 B( 16-C , 17-C ) :   1.3309 B( 16-C , 33-H ) :   0.9837
B( 17-C , 18-O ) :   1.1120 B( 17-C , 19-C ) :   1.3638 B( 18-O , 34-H ) :   0.9792
B( 19-C , 35-H ) :   0.9560

MP2 TOTAL ENERGY:    -1274.331763295 Eh
FINAL SINGLE POINT ENERGY     -1274.331763294785

DIPOLE MOMENT
-------------
                                X             Y             Z
Electronic contribution:      9.78743       8.59642       5.63701
Nuclear contribution   :    -10.82260     -10.21928      -5.43409
                        -----------------------------------------
Total Dipole Moment    :     -1.03516      -1.62285       0.20293
                        -----------------------------------------
Magnitude (a.u.)       :      1.93556
Magnitude (Debye)      :      4.91980

Rotational constants in cm-1:     0.012300     0.009318     0.006673
Rotational constants in MHz :   368.756981   279.355030   200.059272

                             ****ORCA TERMINATED NORMALLY****
TOTAL RUN TIME: 0 days 1 hours 55 minutes 17 seconds 523 msec
