                         Program Version 4.2.0 -  RELEASE  -
|  1> ! ri-mp2 cc-pvtz cc-pvtz/c TightSCF  NoKeepInts
|  2>
|  3> %scf
|  4>   MaxCore 4096
|  5> end
|  6> *xyz  0  1
|  7>     C       14.1919595   15.3249754   16.1902685
|  8>     C       15.5339120   15.2056559   16.9323755
|  9>     O       16.5827049   15.4896684   15.9884460
| 10>     C       17.8376510   15.7225020   16.4718997
| 11>     O       18.6631850   14.8275207   16.4730506
| 12>     C       17.9406891   16.8933241   17.4012544
| 13>     C       17.3146781   18.0764523   17.1885041
| 14>     C       16.4604270   18.4639398   16.0007006
| 15>     N       17.4945710   19.1294779   18.0894970
| 16>     C       18.3782938   19.1182635   19.1370909
| 17>     S       18.6033284   20.4443271   20.0988948
| 18>     N       19.0638912   17.9479440   19.3501114
| 19>     C       18.8213160   16.6805228   18.6338007
| 20>     C       18.1899763   15.6440959   19.5593530
| 21>     C       18.7216697   14.3441038   19.6393942
| 22>     C       18.1290997   13.3772760   20.4686464
| 23>     C       16.9922480   13.7111721   21.2240016
| 24>     C       16.4560634   15.0031829   21.1433989
| 25>     O       15.3502508   15.3258327   21.8599892
| 26>     C       17.0476539   15.9633871   20.3166984
| 27>     H       13.3570978   15.1201765   16.8715647
| 28>     H       14.1450143   14.6025364   15.3656504
| 29>     H       14.0578015   16.3301759   15.7745613
| 30>     H       15.5415945   15.9173532   17.7679536
| 31>     H       15.6580443   14.1936226   17.3412951
| 32>     H       16.7419806   17.9059977   15.0989493
| 33>     H       16.5664883   19.5278099   15.7542018
| 34>     H       15.4008756   18.2699599   16.2019844
| 35>     H       17.0053868   19.9990693   17.9465765
| 36>     H       19.6909782   17.9597304   20.1445638
| 37>     H       19.7936033   16.2955539   18.2925805
| 38>     H       19.5885174   14.0765885   19.0391062
| 39>     H       18.5477905   12.3733994   20.5164903
| 40>     H       16.5299035   12.9659823   21.8629560
| 41>     H       15.1319845   14.5627314   22.4164886
| 42>     H       16.6163702   16.9576883   20.2717017
| 43> *
| 44>
| 45>                          ****END OF INPUT****

CARTESIAN COORDINATES (ANGSTROEM)
---------------------------------
  C     14.191959   15.324975   16.190268
  C     15.533912   15.205656   16.932375
  O     16.582705   15.489668   15.988446
  C     17.837651   15.722502   16.471900
  O     18.663185   14.827521   16.473051
  C     17.940689   16.893324   17.401254
  C     17.314678   18.076452   17.188504
  C     16.460427   18.463940   16.000701
  N     17.494571   19.129478   18.089497
  C     18.378294   19.118264   19.137091
  S     18.603328   20.444327   20.098895
  N     19.063891   17.947944   19.350111
  C     18.821316   16.680523   18.633801
  C     18.189976   15.644096   19.559353
  C     18.721670   14.344104   19.639394
  C     18.129100   13.377276   20.468646
  C     16.992248   13.711172   21.224002
  C     16.456063   15.003183   21.143399
  O     15.350251   15.325833   21.859989
  C     17.047654   15.963387   20.316698
  H     13.357098   15.120176   16.871565
  H     14.145014   14.602536   15.365650
  H     14.057802   16.330176   15.774561
  H     15.541595   15.917353   17.767954
  H     15.658044   14.193623   17.341295
  H     16.741981   17.905998   15.098949
  H     16.566488   19.527810   15.754202
  H     15.400876   18.269960   16.201984
  H     17.005387   19.999069   17.946576
  H     19.690978   17.959730   20.144564
  H     19.793603   16.295554   18.292580
  H     19.588517   14.076588   19.039106
  H     18.547791   12.373399   20.516490
  H     16.529903   12.965982   21.862956
  H     15.131984   14.562731   22.416489
  H     16.616370   16.957688   20.271702

 Total Charge           Charge          ....    0
 Multiplicity           Mult            ....    1
 Number of Electrons    NEL             ....  154
 Basis Dimension        Dim             ....  828

ORBITAL ENERGIES
----------------

  NO   OCC          E(Eh)            E(eV)
   0   2.0000     -91.890837     -2500.4768
   1   2.0000     -20.598211      -560.5058
   2   2.0000     -20.586950      -560.1994
   3   2.0000     -20.555461      -559.3425
   4   2.0000     -15.630199      -425.3193
   5   2.0000     -15.610503      -424.7834
   6   2.0000     -11.394299      -310.0546
   7   2.0000     -11.386678      -309.8473
   8   2.0000     -11.335267      -308.4483
   9   2.0000     -11.314456      -307.8820
  10   2.0000     -11.310937      -307.7863
  11   2.0000     -11.302219      -307.5490
  12   2.0000     -11.264793      -306.5306
  13   2.0000     -11.262416      -306.4659
  14   2.0000     -11.260162      -306.4046
  15   2.0000     -11.254253      -306.2438
  16   2.0000     -11.243990      -305.9645
  17   2.0000     -11.240167      -305.8605
  18   2.0000     -11.236797      -305.7688
  19   2.0000     -11.235192      -305.7251
  20   2.0000      -8.895911      -242.0701
  21   2.0000      -6.577489      -178.9826
  22   2.0000      -6.575477      -178.9278
  23   2.0000      -6.574892      -178.9119
  24   2.0000      -1.450768       -39.4774
  25   2.0000      -1.418008       -38.5860
  26   2.0000      -1.358820       -36.9754
  27   2.0000      -1.341842       -36.5134
  28   2.0000      -1.240124       -33.7455
  29   2.0000      -1.158852       -31.5340
  30   2.0000      -1.123883       -30.5824
  31   2.0000      -1.046713       -28.4825
  32   2.0000      -1.038448       -28.2576
  33   2.0000      -1.016306       -27.6551
  34   2.0000      -1.003119       -27.2963
  35   2.0000      -0.988378       -26.8951
  36   2.0000      -0.926072       -25.1997
  37   2.0000      -0.880182       -23.9510
  38   2.0000      -0.852939       -23.2097
  39   2.0000      -0.842525       -22.9263
  40   2.0000      -0.834772       -22.7153
  41   2.0000      -0.833795       -22.6887
  42   2.0000      -0.757839       -20.6218
  43   2.0000      -0.737643       -20.0723
  44   2.0000      -0.730715       -19.8838
  45   2.0000      -0.696231       -18.9454
  46   2.0000      -0.687828       -18.7168
  47   2.0000      -0.683051       -18.5868
  48   2.0000      -0.675920       -18.3927
  49   2.0000      -0.659382       -17.9427
  50   2.0000      -0.651787       -17.7360
  51   2.0000      -0.642889       -17.4939
  52   2.0000      -0.635171       -17.2839
  53   2.0000      -0.623780       -16.9739
  54   2.0000      -0.606805       -16.5120
  55   2.0000      -0.606696       -16.5090
  56   2.0000      -0.601822       -16.3764
  57   2.0000      -0.582294       -15.8450
  58   2.0000      -0.576683       -15.6923
  59   2.0000      -0.566869       -15.4253
  60   2.0000      -0.560029       -15.2392
  61   2.0000      -0.552289       -15.0286
  62   2.0000      -0.540838       -14.7170
  63   2.0000      -0.527719       -14.3600
  64   2.0000      -0.523686       -14.2502
  65   2.0000      -0.515111       -14.0169
  66   2.0000      -0.502235       -13.6665
  67   2.0000      -0.497521       -13.5382
  68   2.0000      -0.484653       -13.1881
  69   2.0000      -0.467078       -12.7098
  70   2.0000      -0.462583       -12.5875
  71   2.0000      -0.451820       -12.2947
  72   2.0000      -0.357383        -9.7249
  73   2.0000      -0.350047        -9.5253
  74   2.0000      -0.330143        -8.9837
  75   2.0000      -0.321868        -8.7585
  76   2.0000      -0.318580        -8.6690
  77   0.0000       0.072418         1.9706
  78   0.0000       0.103879         2.8267
  79   0.0000       0.117773         3.2048
  80   0.0000       0.130751         3.5579
  81   0.0000       0.134841         3.6692

MULLIKEN ATOMIC CHARGES
-----------------------
   0 C :   -0.266395
   1 C :    0.011390
   2 O :   -0.356947
   3 C :    0.463605
   4 O :   -0.381878
   5 C :   -0.240882
   6 C :    0.153637
   7 C :   -0.310309
   8 N :   -0.127470
   9 C :    0.197911
  10 S :   -0.437372
  11 N :   -0.203251
  12 C :    0.057323
  13 C :    0.050119
  14 C :   -0.174096
  15 C :   -0.132131
  16 C :   -0.279257
  17 C :    0.318496
  18 O :   -0.358800
  19 C :   -0.304340
  20 H :    0.095953
  21 H :    0.108136
  22 H :    0.090985
  23 H :    0.099549
  24 H :    0.120766
  25 H :    0.137906
  26 H :    0.122723
  27 H :    0.119340
  28 H :    0.197787
  29 H :    0.195180
  30 H :    0.159719
  31 H :    0.162332
  32 H :    0.162355
  33 H :    0.131417
  34 H :    0.241567
  35 H :    0.174933
Sum of atomic charges:   -0.0000000

LOEWDIN ATOMIC CHARGES
----------------------
   0 C :    0.110299
   1 C :   -0.019748
   2 O :    0.290865
   3 C :   -0.419075
   4 O :    0.134319
   5 C :   -0.093077
   6 C :   -0.081833
   7 C :    0.127581
   8 N :    0.403895
   9 C :   -0.457938
  10 S :   -0.034660
  11 N :    0.397143
  12 C :   -0.045682
  13 C :   -0.042343
  14 C :    0.022428
  15 C :    0.043512
  16 C :   -0.001280
  17 C :   -0.194977
  18 O :    0.393512
  19 C :    0.027320
  20 H :   -0.023327
  21 H :   -0.023489
  22 H :   -0.032291
  23 H :   -0.038223
  24 H :   -0.024965
  25 H :   -0.006641
  26 H :   -0.015151
  27 H :   -0.015211
  28 H :   -0.057722
  29 H :   -0.063629
  30 H :   -0.003349
  31 H :   -0.023061
  32 H :   -0.019396
  33 H :   -0.035104
  34 H :   -0.153273
  35 H :   -0.025426

  Mayer bond orders larger than 0.100000
B(  0-C ,  1-C ) :   0.9776 B(  0-C , 20-H ) :   0.9759 B(  0-C , 21-H ) :   0.9791
B(  0-C , 22-H ) :   0.9777 B(  1-C ,  2-O ) :   0.8943 B(  1-C , 23-H ) :   0.9622
B(  1-C , 24-H ) :   0.9786 B(  2-O ,  3-C ) :   1.1242 B(  3-C ,  4-O ) :   2.0806
B(  3-C ,  5-C ) :   0.9702 B(  5-C ,  6-C ) :   1.6628 B(  5-C , 12-C ) :   0.9625
B(  6-C ,  7-C ) :   0.9490 B(  6-C ,  8-N ) :   1.1326 B(  7-C , 25-H ) :   0.9707
B(  7-C , 26-H ) :   0.9835 B(  7-C , 27-H ) :   0.9632 B(  8-N ,  9-C ) :   1.1850
B(  8-N , 28-H ) :   0.9505 B(  9-C , 10-S ) :   1.6145 B(  9-C , 11-N ) :   1.2963
B( 11-N , 12-C ) :   0.9957 B( 11-N , 29-H ) :   0.9515 B( 12-C , 13-C ) :   0.9432
B( 12-C , 30-H ) :   0.9985 B( 13-C , 14-C ) :   1.3845 B( 13-C , 19-C ) :   1.3468
B( 14-C , 15-C ) :   1.3956 B( 14-C , 31-H ) :   0.9612 B( 15-C , 16-C ) :   1.3644
B( 15-C , 32-H ) :   0.9704 B( 16-C , 17-C ) :   1.3298 B( 16-C , 33-H ) :   0.9846
B( 17-C , 18-O ) :   1.1114 B( 17-C , 19-C ) :   1.3703 B( 18-O , 34-H ) :   0.9796
B( 19-C , 35-H ) :   0.9578

MP2 TOTAL ENERGY:    -1274.329212718 Eh
FINAL SINGLE POINT ENERGY     -1274.329212718145

DIPOLE MOMENT
-------------
                                X             Y             Z
Electronic contribution:     12.02589       6.89894       7.25595
Nuclear contribution   :    -13.43359      -7.95364      -7.57962
                        -----------------------------------------
Total Dipole Moment    :     -1.40771      -1.05470      -0.32367
                        -----------------------------------------
Magnitude (a.u.)       :      1.78851
Magnitude (Debye)      :      4.54604

Rotational constants in cm-1:     0.011151     0.009398     0.006814
Rotational constants in MHz :   334.309156   281.740494   204.269008

                             ****ORCA TERMINATED NORMALLY****
TOTAL RUN TIME: 0 days 2 hours 3 minutes 53 seconds 476 msec
