                         Program Version 4.2.0 -  RELEASE  -
|  1> ! ri-mp2 cc-pvtz cc-pvtz/c TightSCF  NoKeepInts
|  2>
|  3> %scf
|  4>   MaxCore 4096
|  5> end
|  6> *xyz  0  1
|  7>     C       15.2854639   14.1779677   17.1296015
|  8>     C       15.3045155   15.5648003   16.4548757
|  9>     O       16.5464110   15.7652542   15.7472532
| 10>     C       17.7219766   15.7343818   16.4400254
| 11>     O       18.3657079   14.7051354   16.5427639
| 12>     C       17.9405540   16.9142454   17.3396821
| 13>     C       17.5096267   18.1711416   17.0641613
| 14>     C       16.7930049   18.6494456   15.8182122
| 15>     N       17.7932634   19.2131484   17.9518325
| 16>     C       18.6015781   19.1054289   19.0528487
| 17>     S       18.9624501   20.4135526   19.9979147
| 18>     N       19.0951868   17.8557223   19.3316381
| 19>     C       18.7161131   16.6170490   18.6257423
| 20>     C       17.9068500   15.7056939   19.5426381
| 21>     C       18.3198432   14.3813822   19.7770180
| 22>     C       17.5650855   13.5320526   20.6033626
| 23>     C       16.3854015   14.0095844   21.1993242
| 24>     C       15.9691516   15.3270762   20.9654400
| 25>     O       14.8242437   15.7880536   21.5287460
| 26>     C       16.7229186   16.1707382   20.1437252
| 27>     H       16.0262081   14.1132433   17.9351986
| 28>     H       15.5046272   13.3896633   16.3984137
| 29>     H       14.2995538   13.9769387   17.5653778
| 30>     H       14.4712239   15.6301101   15.7434766
| 31>     H       15.1622097   16.3432368   17.2160476
| 32>     H       17.1782044   18.1454268   14.9226258
| 33>     H       16.9246081   19.7258592   15.6520625
| 34>     H       15.7168005   18.4505023   15.8811987
| 35>     H       17.4469846   20.1402127   17.7614220
| 36>     H       19.6666038   17.7995236   20.1651157
| 37>     H       19.6417932   16.0933885   18.3453560
| 38>     H       19.2199310   14.0027402   19.2983283
| 39>     H       17.8916798   12.5071360   20.7709785
| 40>     H       15.7975928   13.3550537   21.8343579
| 41>     H       14.4843391   15.0889065   22.1077084
| 42>     H       16.3852936   17.1882040   19.9795260
| 43> *
| 44>
| 45>                          ****END OF INPUT****

CARTESIAN COORDINATES (ANGSTROEM)
---------------------------------
  C     15.285464   14.177968   17.129601
  C     15.304515   15.564800   16.454876
  O     16.546411   15.765254   15.747253
  C     17.721977   15.734382   16.440025
  O     18.365708   14.705135   16.542764
  C     17.940554   16.914245   17.339682
  C     17.509627   18.171142   17.064161
  C     16.793005   18.649446   15.818212
  N     17.793263   19.213148   17.951832
  C     18.601578   19.105429   19.052849
  S     18.962450   20.413553   19.997915
  N     19.095187   17.855722   19.331638
  C     18.716113   16.617049   18.625742
  C     17.906850   15.705694   19.542638
  C     18.319843   14.381382   19.777018
  C     17.565085   13.532053   20.603363
  C     16.385402   14.009584   21.199324
  C     15.969152   15.327076   20.965440
  O     14.824244   15.788054   21.528746
  C     16.722919   16.170738   20.143725
  H     16.026208   14.113243   17.935199
  H     15.504627   13.389663   16.398414
  H     14.299554   13.976939   17.565378
  H     14.471224   15.630110   15.743477
  H     15.162210   16.343237   17.216048
  H     17.178204   18.145427   14.922626
  H     16.924608   19.725859   15.652062
  H     15.716800   18.450502   15.881199
  H     17.446985   20.140213   17.761422
  H     19.666604   17.799524   20.165116
  H     19.641793   16.093388   18.345356
  H     19.219931   14.002740   19.298328
  H     17.891680   12.507136   20.770978
  H     15.797593   13.355054   21.834358
  H     14.484339   15.088906   22.107708
  H     16.385294   17.188204   19.979526

 Total Charge           Charge          ....    0
 Multiplicity           Mult            ....    1
 Number of Electrons    NEL             ....  154
 Basis Dimension        Dim             ....  828

ORBITAL ENERGIES
----------------

  NO   OCC          E(Eh)            E(eV)
   0   2.0000     -91.890680     -2500.4725
   1   2.0000     -20.598488      -560.5134
   2   2.0000     -20.585178      -560.1512
   3   2.0000     -20.554214      -559.3086
   4   2.0000     -15.630778      -425.3351
   5   2.0000     -15.610064      -424.7714
   6   2.0000     -11.394669      -310.0647
   7   2.0000     -11.386247      -309.8355
   8   2.0000     -11.337373      -308.5056
   9   2.0000     -11.314902      -307.8941
  10   2.0000     -11.309716      -307.7530
  11   2.0000     -11.305044      -307.6259
  12   2.0000     -11.263378      -306.4921
  13   2.0000     -11.261623      -306.4443
  14   2.0000     -11.260078      -306.4023
  15   2.0000     -11.254805      -306.2588
  16   2.0000     -11.244385      -305.9753
  17   2.0000     -11.240464      -305.8686
  18   2.0000     -11.237431      -305.7860
  19   2.0000     -11.221515      -305.3529
  20   2.0000      -8.895753      -242.0657
  21   2.0000      -6.577328      -178.9782
  22   2.0000      -6.575319      -178.9235
  23   2.0000      -6.574732      -178.9076
  24   2.0000      -1.448257       -39.4091
  25   2.0000      -1.418254       -38.5927
  26   2.0000      -1.357715       -36.9453
  27   2.0000      -1.342042       -36.5188
  28   2.0000      -1.240166       -33.7466
  29   2.0000      -1.159122       -31.5413
  30   2.0000      -1.123197       -30.5637
  31   2.0000      -1.046306       -28.4714
  32   2.0000      -1.030714       -28.0472
  33   2.0000      -1.016496       -27.6603
  34   2.0000      -1.002665       -27.2839
  35   2.0000      -0.987497       -26.8712
  36   2.0000      -0.926088       -25.2001
  37   2.0000      -0.888164       -24.1682
  38   2.0000      -0.852855       -23.2074
  39   2.0000      -0.841347       -22.8942
  40   2.0000      -0.834964       -22.7205
  41   2.0000      -0.829064       -22.5600
  42   2.0000      -0.746272       -20.3071
  43   2.0000      -0.732203       -19.9242
  44   2.0000      -0.729831       -19.8597
  45   2.0000      -0.696571       -18.9546
  46   2.0000      -0.686898       -18.6915
  47   2.0000      -0.680528       -18.5181
  48   2.0000      -0.675955       -18.3937
  49   2.0000      -0.665840       -18.1184
  50   2.0000      -0.651240       -17.7211
  51   2.0000      -0.648806       -17.6549
  52   2.0000      -0.638803       -17.3827
  53   2.0000      -0.614573       -16.7234
  54   2.0000      -0.607503       -16.5310
  55   2.0000      -0.604385       -16.4461
  56   2.0000      -0.600958       -16.3529
  57   2.0000      -0.580485       -15.7958
  58   2.0000      -0.575917       -15.6715
  59   2.0000      -0.568400       -15.4670
  60   2.0000      -0.554996       -15.1022
  61   2.0000      -0.552180       -15.0256
  62   2.0000      -0.538047       -14.6410
  63   2.0000      -0.528117       -14.3708
  64   2.0000      -0.521040       -14.1782
  65   2.0000      -0.512699       -13.9513
  66   2.0000      -0.501575       -13.6485
  67   2.0000      -0.489592       -13.3225
  68   2.0000      -0.486009       -13.2250
  69   2.0000      -0.467688       -12.7264
  70   2.0000      -0.459092       -12.4925
  71   2.0000      -0.448647       -12.2083
  72   2.0000      -0.357403        -9.7254
  73   2.0000      -0.350844        -9.5469
  74   2.0000      -0.330018        -8.9802
  75   2.0000      -0.322314        -8.7706
  76   2.0000      -0.318351        -8.6628
  77   0.0000       0.070720         1.9244
  78   0.0000       0.103107         2.8057
  79   0.0000       0.118475         3.2239
  80   0.0000       0.129602         3.5267
  81   0.0000       0.137421         3.7394

MULLIKEN ATOMIC CHARGES
-----------------------
   0 C :   -0.277657
   1 C :    0.008989
   2 O :   -0.369319
   3 C :    0.459512
   4 O :   -0.386594
   5 C :   -0.244451
   6 C :    0.163490
   7 C :   -0.292324
   8 N :   -0.125796
   9 C :    0.202297
  10 S :   -0.437754
  11 N :   -0.201153
  12 C :    0.059282
  13 C :    0.020778
  14 C :   -0.157297
  15 C :   -0.133003
  16 C :   -0.274881
  17 C :    0.308459
  18 O :   -0.360279
  19 C :   -0.270034
  20 H :    0.110662
  21 H :    0.111807
  22 H :    0.094584
  23 H :    0.120993
  24 H :    0.088692
  25 H :    0.136525
  26 H :    0.111824
  27 H :    0.120766
  28 H :    0.197375
  29 H :    0.194757
  30 H :    0.155894
  31 H :    0.157298
  32 H :    0.161568
  33 H :    0.131675
  34 H :    0.241743
  35 H :    0.171572
Sum of atomic charges:   -0.0000000

LOEWDIN ATOMIC CHARGES
----------------------
   0 C :    0.110451
   1 C :   -0.023248
   2 O :    0.286909
   3 C :   -0.419473
   4 O :    0.131611
   5 C :   -0.094700
   6 C :   -0.075054
   7 C :    0.127466
   8 N :    0.404516
   9 C :   -0.458007
  10 S :   -0.034483
  11 N :    0.397420
  12 C :   -0.046291
  13 C :   -0.043359
  14 C :    0.021610
  15 C :    0.043198
  16 C :   -0.000544
  17 C :   -0.193338
  18 O :    0.394009
  19 C :    0.027883
  20 H :   -0.025674
  21 H :   -0.022221
  22 H :   -0.027093
  23 H :   -0.022581
  24 H :   -0.039853
  25 H :   -0.005750
  26 H :   -0.017661
  27 H :   -0.012978
  28 H :   -0.058167
  29 H :   -0.063575
  30 H :   -0.004150
  31 H :   -0.023884
  32 H :   -0.019541
  33 H :   -0.035004
  34 H :   -0.153244
  35 H :   -0.025200

  Mayer bond orders larger than 0.100000
B(  0-C ,  1-C ) :   0.9818 B(  0-C , 20-H ) :   0.9665 B(  0-C , 21-H ) :   0.9760
B(  0-C , 22-H ) :   0.9760 B(  1-C ,  2-O ) :   0.8978 B(  1-C , 23-H ) :   0.9781
B(  1-C , 24-H ) :   0.9681 B(  2-O ,  3-C ) :   1.1056 B(  3-C ,  4-O ) :   2.0656
B(  3-C ,  5-C ) :   0.9864 B(  5-C ,  6-C ) :   1.6614 B(  5-C , 12-C ) :   0.9671
B(  6-C ,  7-C ) :   0.9483 B(  6-C ,  8-N ) :   1.1434 B(  7-C , 25-H ) :   0.9679
B(  7-C , 26-H ) :   0.9865 B(  7-C , 27-H ) :   0.9652 B(  8-N ,  9-C ) :   1.1827
B(  8-N , 28-H ) :   0.9493 B(  9-C , 10-S ) :   1.6126 B(  9-C , 11-N ) :   1.3006
B( 11-N , 12-C ) :   0.9944 B( 11-N , 29-H ) :   0.9518 B( 12-C , 13-C ) :   0.9417
B( 12-C , 30-H ) :   0.9981 B( 13-C , 14-C ) :   1.3821 B( 13-C , 19-C ) :   1.3653
B( 14-C , 15-C ) :   1.3921 B( 14-C , 31-H ) :   0.9643 B( 15-C , 16-C ) :   1.3636
B( 15-C , 32-H ) :   0.9714 B( 16-C , 17-C ) :   1.3317 B( 16-C , 33-H ) :   0.9846
B( 17-C , 18-O ) :   1.1102 B( 17-C , 19-C ) :   1.3707 B( 18-O , 34-H ) :   0.9794
B( 19-C , 35-H ) :   0.9575

MP2 TOTAL ENERGY:    -1274.333020648 Eh
FINAL SINGLE POINT ENERGY     -1274.333020648034

DIPOLE MOMENT
-------------
                                X             Y             Z
Electronic contribution:     10.03762       8.77720       5.61653
Nuclear contribution   :    -11.51046      -9.70423      -5.99210
                        -----------------------------------------
Total Dipole Moment    :     -1.47284      -0.92703      -0.37557
                        -----------------------------------------
Magnitude (a.u.)       :      1.78036
Magnitude (Debye)      :      4.52533

Rotational constants in cm-1:     0.012307     0.009319     0.006782
Rotational constants in MHz :   368.943210   279.377338   203.331195

                             ****ORCA TERMINATED NORMALLY****
TOTAL RUN TIME: 0 days 1 hours 48 minutes 11 seconds 299 msec
