                         Program Version 4.2.0 -  RELEASE  -
|  1> ! ri-mp2 cc-pvtz cc-pvtz/c TightSCF  NoKeepInts
|  2>
|  3> %scf
|  4>   MaxCore 4096
|  5> end
|  6> *xyz  0  1
|  7>     C       14.7633345   14.1463217   16.3105107
|  8>     C       15.5349937   15.3897181   16.7806922
|  9>     O       16.7007075   15.5099697   15.9445803
| 10>     C       17.9130361   15.6606184   16.5517117
| 11>     O       18.6479537   14.7009952   16.6983247
| 12>     C       18.0200405   16.8834822   17.4115547
| 13>     C       17.5177569   18.0922996   17.0585753
| 14>     C       16.8236304   18.4560161   15.7624756
| 15>     N       17.7029818   19.1933685   17.8992957
| 16>     C       18.4930313   19.1958430   19.0192985
| 17>     S       18.7470353   20.5713723   19.9010649
| 18>     N       19.0600234   17.9966938   19.3737054
| 19>     C       18.7667326   16.6991070   18.7343952
| 20>     C       17.9701846   15.7969230   19.6731432
| 21>     C       18.3603257   14.4603972   19.8748249
| 22>     C       17.6172157   13.6158215   20.7161943
| 23>     C       16.4712699   14.1102095   21.3617315
| 24>     C       16.0758947   15.4392238   21.1601845
| 25>     O       14.9623135   15.9165918   21.7705015
| 26>     C       16.8168655   16.2774205   20.3211544
| 27>     H       15.3894594   13.2494050   16.4013163
| 28>     H       14.4604468   14.2513644   15.2613245
| 29>     H       13.8619617   13.9985844   16.9175180
| 30>     H       14.9029836   16.2823765   16.6975064
| 31>     H       15.8134457   15.2533021   17.8347683
| 32>     H       17.1933124   17.8504303   14.9253598
| 33>     H       16.9957896   19.5041666   15.4875312
| 34>     H       15.7408501   18.3032240   15.8369647
| 35>     H       17.3015787   20.0843512   17.6525303
| 36>     H       19.6189123   18.0220707   20.2172369
| 37>     H       19.7266080   16.2087110   18.5149499
| 38>     H       19.2349345   14.0688391   19.3598598
| 39>     H       17.9276158   12.5819993   20.8583292
| 40>     H       15.8930552   13.4598444   22.0098056
| 41>     H       14.6291771   15.2182799   22.3544188
| 42>     H       16.4915418   17.3026583   20.1806611
| 43> *
| 44>
| 45>                          ****END OF INPUT****

CARTESIAN COORDINATES (ANGSTROEM)
---------------------------------
  C     14.763334   14.146322   16.310511
  C     15.534994   15.389718   16.780692
  O     16.700708   15.509970   15.944580
  C     17.913036   15.660618   16.551712
  O     18.647954   14.700995   16.698325
  C     18.020041   16.883482   17.411555
  C     17.517757   18.092300   17.058575
  C     16.823630   18.456016   15.762476
  N     17.702982   19.193368   17.899296
  C     18.493031   19.195843   19.019298
  S     18.747035   20.571372   19.901065
  N     19.060023   17.996694   19.373705
  C     18.766733   16.699107   18.734395
  C     17.970185   15.796923   19.673143
  C     18.360326   14.460397   19.874825
  C     17.617216   13.615821   20.716194
  C     16.471270   14.110209   21.361731
  C     16.075895   15.439224   21.160184
  O     14.962314   15.916592   21.770502
  C     16.816865   16.277421   20.321154
  H     15.389459   13.249405   16.401316
  H     14.460447   14.251364   15.261325
  H     13.861962   13.998584   16.917518
  H     14.902984   16.282377   16.697506
  H     15.813446   15.253302   17.834768
  H     17.193312   17.850430   14.925360
  H     16.995790   19.504167   15.487531
  H     15.740850   18.303224   15.836965
  H     17.301579   20.084351   17.652530
  H     19.618912   18.022071   20.217237
  H     19.726608   16.208711   18.514950
  H     19.234934   14.068839   19.359860
  H     17.927616   12.581999   20.858329
  H     15.893055   13.459844   22.009806
  H     14.629177   15.218280   22.354419
  H     16.491542   17.302658   20.180661

 Total Charge           Charge          ....    0
 Multiplicity           Mult            ....    1
 Number of Electrons    NEL             ....  154
 Basis Dimension        Dim             ....  828

ORBITAL ENERGIES
----------------

  NO   OCC          E(Eh)            E(eV)
   0   2.0000     -91.890985     -2500.4808
   1   2.0000     -20.598342      -560.5094
   2   2.0000     -20.585335      -560.1555
   3   2.0000     -20.555778      -559.3512
   4   2.0000     -15.630423      -425.3254
   5   2.0000     -15.610516      -424.7837
   6   2.0000     -11.394878      -310.0704
   7   2.0000     -11.386716      -309.8483
   8   2.0000     -11.336061      -308.4699
   9   2.0000     -11.314955      -307.8956
  10   2.0000     -11.310987      -307.7876
  11   2.0000     -11.302467      -307.5558
  12   2.0000     -11.264581      -306.5248
  13   2.0000     -11.262120      -306.4579
  14   2.0000     -11.260673      -306.4185
  15   2.0000     -11.254891      -306.2611
  16   2.0000     -11.244550      -305.9798
  17   2.0000     -11.240495      -305.8694
  18   2.0000     -11.237277      -305.7819
  19   2.0000     -11.227926      -305.5274
  20   2.0000      -8.896056      -242.0740
  21   2.0000      -6.577632      -178.9865
  22   2.0000      -6.575622      -178.9318
  23   2.0000      -6.575035      -178.9158
  24   2.0000      -1.450670       -39.4747
  25   2.0000      -1.418179       -38.5906
  26   2.0000      -1.359069       -36.9821
  27   2.0000      -1.341908       -36.5152
  28   2.0000      -1.240173       -33.7468
  29   2.0000      -1.159263       -31.5451
  30   2.0000      -1.123827       -30.5809
  31   2.0000      -1.046970       -28.4895
  32   2.0000      -1.034956       -28.1626
  33   2.0000      -1.016774       -27.6678
  34   2.0000      -1.002958       -27.2919
  35   2.0000      -0.988021       -26.8854
  36   2.0000      -0.926255       -25.2047
  37   2.0000      -0.878065       -23.8934
  38   2.0000      -0.854110       -23.2415
  39   2.0000      -0.842650       -22.9297
  40   2.0000      -0.835276       -22.7290
  41   2.0000      -0.833935       -22.6925
  42   2.0000      -0.755310       -20.5530
  43   2.0000      -0.736592       -20.0437
  44   2.0000      -0.730760       -19.8850
  45   2.0000      -0.696398       -18.9500
  46   2.0000      -0.688246       -18.7281
  47   2.0000      -0.680181       -18.5087
  48   2.0000      -0.676432       -18.4067
  49   2.0000      -0.663094       -18.0437
  50   2.0000      -0.651529       -17.7290
  51   2.0000      -0.648696       -17.6519
  52   2.0000      -0.641037       -17.4435
  53   2.0000      -0.609317       -16.5804
  54   2.0000      -0.606607       -16.5066
  55   2.0000      -0.602318       -16.3899
  56   2.0000      -0.596538       -16.2326
  57   2.0000      -0.583511       -15.8782
  58   2.0000      -0.577801       -15.7228
  59   2.0000      -0.566922       -15.4267
  60   2.0000      -0.564003       -15.3473
  61   2.0000      -0.556382       -15.1399
  62   2.0000      -0.541963       -14.7476
  63   2.0000      -0.524450       -14.2710
  64   2.0000      -0.515149       -14.0179
  65   2.0000      -0.513267       -13.9667
  66   2.0000      -0.502367       -13.6701
  67   2.0000      -0.498382       -13.5617
  68   2.0000      -0.486111       -13.2277
  69   2.0000      -0.469414       -12.7734
  70   2.0000      -0.456956       -12.4344
  71   2.0000      -0.452784       -12.3209
  72   2.0000      -0.357830        -9.7371
  73   2.0000      -0.350370        -9.5340
  74   2.0000      -0.330280        -8.9874
  75   2.0000      -0.322515        -8.7761
  76   2.0000      -0.318791        -8.6748
  77   0.0000       0.072085         1.9615
  78   0.0000       0.104318         2.8386
  79   0.0000       0.117830         3.2063
  80   0.0000       0.130347         3.5469
  81   0.0000       0.134598         3.6626

MULLIKEN ATOMIC CHARGES
-----------------------
   0 C :   -0.255295
   1 C :    0.028197
   2 O :   -0.358660
   3 C :    0.451747
   4 O :   -0.383276
   5 C :   -0.216776
   6 C :    0.140907
   7 C :   -0.299762
   8 N :   -0.128689
   9 C :    0.197237
  10 S :   -0.436692
  11 N :   -0.203613
  12 C :    0.061713
  13 C :    0.020229
  14 C :   -0.167807
  15 C :   -0.136019
  16 C :   -0.276448
  17 C :    0.318106
  18 O :   -0.358963
  19 C :   -0.279368
  20 H :    0.108544
  21 H :    0.096924
  22 H :    0.087443
  23 H :    0.087911
  24 H :    0.107149
  25 H :    0.134343
  26 H :    0.116049
  27 H :    0.120645
  28 H :    0.197601
  29 H :    0.195187
  30 H :    0.159405
  31 H :    0.164485
  32 H :    0.162661
  33 H :    0.132268
  34 H :    0.241370
  35 H :    0.171249
Sum of atomic charges:   -0.0000000

LOEWDIN ATOMIC CHARGES
----------------------
   0 C :    0.110266
   1 C :   -0.018951
   2 O :    0.290674
   3 C :   -0.422494
   4 O :    0.132419
   5 C :   -0.092915
   6 C :   -0.078431
   7 C :    0.128015
   8 N :    0.404044
   9 C :   -0.458190
  10 S :   -0.034276
  11 N :    0.397051
  12 C :   -0.045445
  13 C :   -0.044018
  14 C :    0.021340
  15 C :    0.043416
  16 C :   -0.001201
  17 C :   -0.195357
  18 O :    0.394122
  19 C :    0.026769
  20 H :   -0.020794
  21 H :   -0.027232
  22 H :   -0.027059
  23 H :   -0.037154
  24 H :   -0.027125
  25 H :   -0.006490
  26 H :   -0.016003
  27 H :   -0.015215
  28 H :   -0.057872
  29 H :   -0.063738
  30 H :   -0.003312
  31 H :   -0.022870
  32 H :   -0.019221
  33 H :   -0.034933
  34 H :   -0.153307
  35 H :   -0.024510

  Mayer bond orders larger than 0.100000
B(  0-C ,  1-C ) :   0.9882 B(  0-C , 20-H ) :   0.9769 B(  0-C , 21-H ) :   0.9798
B(  0-C , 22-H ) :   0.9759 B(  1-C ,  2-O ) :   0.8867 B(  1-C , 23-H ) :   0.9748
B(  1-C , 24-H ) :   0.9663 B(  2-O ,  3-C ) :   1.1256 B(  3-C ,  4-O ) :   2.0680
B(  3-C ,  5-C ) :   0.9844 B(  5-C ,  6-C ) :   1.6611 B(  5-C , 12-C ) :   0.9586
B(  6-C ,  7-C ) :   0.9497 B(  6-C ,  8-N ) :   1.1354 B(  7-C , 25-H ) :   0.9701
B(  7-C , 26-H ) :   0.9838 B(  7-C , 27-H ) :   0.9652 B(  8-N ,  9-C ) :   1.1845
B(  8-N , 28-H ) :   0.9504 B(  9-C , 10-S ) :   1.6147 B(  9-C , 11-N ) :   1.2963
B( 11-N , 12-C ) :   0.9935 B( 11-N , 29-H ) :   0.9515 B( 12-C , 13-C ) :   0.9424
B( 12-C , 30-H ) :   0.9982 B( 13-C , 14-C ) :   1.3855 B( 13-C , 19-C ) :   1.3551
B( 14-C , 15-C ) :   1.3963 B( 14-C , 31-H ) :   0.9602 B( 15-C , 16-C ) :   1.3643
B( 15-C , 32-H ) :   0.9705 B( 16-C , 17-C ) :   1.3297 B( 16-C , 33-H ) :   0.9843
B( 17-C , 18-O ) :   1.1109 B( 17-C , 19-C ) :   1.3700 B( 18-O , 34-H ) :   0.9793
B( 19-C , 35-H ) :   0.9596

MP2 TOTAL ENERGY:    -1274.328322468 Eh
FINAL SINGLE POINT ENERGY     -1274.328322468443

DIPOLE MOMENT
-------------
                                X             Y             Z
Electronic contribution:     10.92099       9.32384       7.24293
Nuclear contribution   :    -12.33585     -10.32549      -7.60665
                        -----------------------------------------
Total Dipole Moment    :     -1.41486      -1.00165      -0.36372
                        -----------------------------------------
Magnitude (a.u.)       :      1.77128
Magnitude (Debye)      :      4.50224

Rotational constants in cm-1:     0.011662     0.009247     0.006625
Rotational constants in MHz :   349.631064   277.208652   198.608232

                             ****ORCA TERMINATED NORMALLY****
TOTAL RUN TIME: 0 days 1 hours 45 minutes 20 seconds 428 msec
