                         Program Version 4.2.0 -  RELEASE  -
|  1> ! ri-mp2 cc-pvtz cc-pvtz/c TightSCF  NoKeepInts
|  2>
|  3> %scf
|  4>   MaxCore 4096
|  5> end
|  6> *xyz  0  1
|  7>     C       14.9025262   15.6317993   17.4964104
|  8>     C       15.6632493   15.1290373   16.2534327
|  9>     O       17.0206168   14.8006364   16.5975481
| 10>     C       18.0660278   15.6748870   16.4654413
| 11>     O       19.1708161   15.2000765   16.2793669
| 12>     C       17.9559256   16.8513180   17.3733702
| 13>     C       17.4060066   18.0170770   16.9670573
| 14>     C       16.8161603   18.3128187   15.6055370
| 15>     N       17.3974502   19.1189571   17.8250611
| 16>     C       18.0281473   19.1625073   19.0414283
| 17>     S       18.0273677   20.5309439   19.9697945
| 18>     N       18.6582670   18.0129832   19.4521181
| 19>     C       18.6121514   16.7147980   18.7483840
| 20>     C       17.9315727   15.6403013   19.5925740
| 21>     C       18.4212820   14.3213398   19.5735811
| 22>     C       17.8021269   13.3149160   20.3330865
| 23>     C       16.6814344   13.6282194   21.1204274
| 24>     C       16.1874989   14.9393242   21.1399935
| 25>     O       15.0972086   15.2421736   21.8885547
| 26>     C       16.8055832   15.9396782   20.3830070
| 27>     H       14.9894551   14.9052097   18.3141602
| 28>     H       13.8368878   15.7524055   17.2672773
| 29>     H       15.2776604   16.5955730   17.8533859
| 30>     H       15.1678259   14.2148306   15.9011478
| 31>     H       15.6212243   15.8591519   15.4368979
| 32>     H       17.1853536   17.6212075   14.8383519
| 33>     H       17.0862344   19.3220618   15.2689821
| 34>     H       15.7214475   18.2498797   15.6291935
| 35>     H       16.9519294   19.9762270   17.5380942
| 36>     H       19.0996727   18.0690751   20.3612112
| 37>     H       19.6515550   16.3953884   18.5817246
| 38>     H       19.2775022   14.0723441   18.9500694
| 39>     H       18.1880541   12.2975054   20.3025162
| 40>     H       16.1982089   12.8528834   21.7054969
| 41>     H       14.8434263   14.4394608   22.3685036
| 42>     H       16.3991435   16.9450037   20.4108132
| 43> *
| 44>
| 45>                          ****END OF INPUT****

CARTESIAN COORDINATES (ANGSTROEM)
---------------------------------
  C     14.902526   15.631799   17.496410
  C     15.663249   15.129037   16.253433
  O     17.020617   14.800636   16.597548
  C     18.066028   15.674887   16.465441
  O     19.170816   15.200076   16.279367
  C     17.955926   16.851318   17.373370
  C     17.406007   18.017077   16.967057
  C     16.816160   18.312819   15.605537
  N     17.397450   19.118957   17.825061
  C     18.028147   19.162507   19.041428
  S     18.027368   20.530944   19.969794
  N     18.658267   18.012983   19.452118
  C     18.612151   16.714798   18.748384
  C     17.931573   15.640301   19.592574
  C     18.421282   14.321340   19.573581
  C     17.802127   13.314916   20.333087
  C     16.681434   13.628219   21.120427
  C     16.187499   14.939324   21.139993
  O     15.097209   15.242174   21.888555
  C     16.805583   15.939678   20.383007
  H     14.989455   14.905210   18.314160
  H     13.836888   15.752406   17.267277
  H     15.277660   16.595573   17.853386
  H     15.167826   14.214831   15.901148
  H     15.621224   15.859152   15.436898
  H     17.185354   17.621208   14.838352
  H     17.086234   19.322062   15.268982
  H     15.721447   18.249880   15.629193
  H     16.951929   19.976227   17.538094
  H     19.099673   18.069075   20.361211
  H     19.651555   16.395388   18.581725
  H     19.277502   14.072344   18.950069
  H     18.188054   12.297505   20.302516
  H     16.198209   12.852883   21.705497
  H     14.843426   14.439461   22.368504
  H     16.399144   16.945004   20.410813

 Total Charge           Charge          ....    0
 Multiplicity           Mult            ....    1
 Number of Electrons    NEL             ....  154
 Basis Dimension        Dim             ....  828

ORBITAL ENERGIES
----------------

  NO   OCC          E(Eh)            E(eV)
   0   2.0000     -91.887538     -2500.3870
   1   2.0000     -20.597630      -560.4900
   2   2.0000     -20.596355      -560.4553
   3   2.0000     -20.561216      -559.4991
   4   2.0000     -15.623179      -425.1283
   5   2.0000     -15.609981      -424.7692
   6   2.0000     -11.397054      -310.1296
   7   2.0000     -11.384347      -309.7838
   8   2.0000     -11.321841      -308.0830
   9   2.0000     -11.315256      -307.9038
  10   2.0000     -11.312328      -307.8241
  11   2.0000     -11.308214      -307.7121
  12   2.0000     -11.270647      -306.6899
  13   2.0000     -11.264489      -306.5223
  14   2.0000     -11.260020      -306.4007
  15   2.0000     -11.252876      -306.2063
  16   2.0000     -11.242287      -305.9182
  17   2.0000     -11.237895      -305.7987
  18   2.0000     -11.235488      -305.7332
  19   2.0000     -11.229647      -305.5742
  20   2.0000      -8.892674      -241.9820
  21   2.0000      -6.574272      -178.8950
  22   2.0000      -6.572237      -178.8397
  23   2.0000      -6.571671      -178.8243
  24   2.0000      -1.455353       -39.6022
  25   2.0000      -1.416172       -38.5360
  26   2.0000      -1.363256       -37.0961
  27   2.0000      -1.337347       -36.3911
  28   2.0000      -1.237587       -33.6764
  29   2.0000      -1.157365       -31.4935
  30   2.0000      -1.123540       -30.5731
  31   2.0000      -1.046854       -28.4863
  32   2.0000      -1.039104       -28.2755
  33   2.0000      -1.015224       -27.6257
  34   2.0000      -1.003546       -27.3079
  35   2.0000      -0.987886       -26.8818
  36   2.0000      -0.926079       -25.1999
  37   2.0000      -0.893285       -24.3075
  38   2.0000      -0.851794       -23.1785
  39   2.0000      -0.838395       -22.8139
  40   2.0000      -0.833131       -22.6706
  41   2.0000      -0.830375       -22.5957
  42   2.0000      -0.756063       -20.5735
  43   2.0000      -0.737074       -20.0568
  44   2.0000      -0.729474       -19.8500
  45   2.0000      -0.694206       -18.8903
  46   2.0000      -0.688199       -18.7268
  47   2.0000      -0.682087       -18.5605
  48   2.0000      -0.675877       -18.3916
  49   2.0000      -0.665364       -18.1055
  50   2.0000      -0.650773       -17.7084
  51   2.0000      -0.642729       -17.4896
  52   2.0000      -0.639027       -17.3888
  53   2.0000      -0.613303       -16.6888
  54   2.0000      -0.607579       -16.5331
  55   2.0000      -0.604560       -16.4509
  56   2.0000      -0.600895       -16.3512
  57   2.0000      -0.589199       -16.0329
  58   2.0000      -0.584717       -15.9110
  59   2.0000      -0.573893       -15.6164
  60   2.0000      -0.564403       -15.3582
  61   2.0000      -0.556521       -15.1437
  62   2.0000      -0.542967       -14.7749
  63   2.0000      -0.525519       -14.3001
  64   2.0000      -0.517100       -14.0710
  65   2.0000      -0.511526       -13.9193
  66   2.0000      -0.500508       -13.6195
  67   2.0000      -0.499686       -13.5971
  68   2.0000      -0.487878       -13.2758
  69   2.0000      -0.464201       -12.6316
  70   2.0000      -0.457842       -12.4585
  71   2.0000      -0.453647       -12.3444
  72   2.0000      -0.354055        -9.6343
  73   2.0000      -0.346723        -9.4348
  74   2.0000      -0.327362        -8.9080
  75   2.0000      -0.320314        -8.7162
  76   2.0000      -0.315552        -8.5866
  77   0.0000       0.088966         2.4209
  78   0.0000       0.099204         2.6995
  79   0.0000       0.111934         3.0459
  80   0.0000       0.127461         3.4684
  81   0.0000       0.130968         3.5638

MULLIKEN ATOMIC CHARGES
-----------------------
   0 C :   -0.305739
   1 C :    0.000674
   2 O :   -0.316140
   3 C :    0.383458
   4 O :   -0.357506
   5 C :   -0.144717
   6 C :    0.119549
   7 C :   -0.333775
   8 N :   -0.134131
   9 C :    0.208132
  10 S :   -0.445206
  11 N :   -0.222814
  12 C :    0.063168
  13 C :    0.059706
  14 C :   -0.198133
  15 C :   -0.133886
  16 C :   -0.275450
  17 C :    0.313138
  18 O :   -0.360928
  19 C :   -0.287516
  20 H :    0.123377
  21 H :    0.110428
  22 H :    0.100657
  23 H :    0.129951
  24 H :    0.088213
  25 H :    0.120778
  26 H :    0.132037
  27 H :    0.124918
  28 H :    0.194853
  29 H :    0.200954
  30 H :    0.168495
  31 H :    0.162190
  32 H :    0.161720
  33 H :    0.131451
  34 H :    0.240982
  35 H :    0.177111
Sum of atomic charges:   -0.0000000

LOEWDIN ATOMIC CHARGES
----------------------
   0 C :    0.104389
   1 C :   -0.026211
   2 O :    0.316370
   3 C :   -0.422293
   4 O :    0.145831
   5 C :   -0.076853
   6 C :   -0.113285
   7 C :    0.121719
   8 N :    0.399723
   9 C :   -0.455937
  10 S :   -0.041471
  11 N :    0.398430
  12 C :   -0.041229
  13 C :   -0.040463
  14 C :    0.024671
  15 C :    0.044318
  16 C :   -0.002233
  17 C :   -0.194469
  18 O :    0.394642
  19 C :    0.030385
  20 H :   -0.019760
  21 H :   -0.027031
  22 H :   -0.036488
  23 H :   -0.020198
  24 H :   -0.039387
  25 H :   -0.011961
  26 H :   -0.010908
  27 H :   -0.017296
  28 H :   -0.060075
  29 H :   -0.063662
  30 H :   -0.002205
  31 H :   -0.023059
  32 H :   -0.019353
  33 H :   -0.035452
  34 H :   -0.153884
  35 H :   -0.025313

  Mayer bond orders larger than 0.100000
B(  0-C ,  1-C ) :   0.9630 B(  0-C , 20-H ) :   0.9721 B(  0-C , 21-H ) :   0.9771
B(  0-C , 22-H ) :   0.9734 B(  1-C ,  2-O ) :   0.9120 B(  1-C , 23-H ) :   0.9842
B(  1-C , 24-H ) :   0.9786 B(  2-O ,  3-C ) :   1.1007 B(  3-C ,  4-O ) :   2.0997
B(  3-C ,  5-C ) :   0.9216 B(  5-C ,  6-C ) :   1.7232 B(  5-C , 12-C ) :   0.9586
B(  6-C ,  7-C ) :   0.9348 B(  6-C ,  8-N ) :   1.0956 B(  7-C , 25-H ) :   0.9821
B(  7-C , 26-H ) :   0.9770 B(  7-C , 27-H ) :   0.9652 B(  8-N ,  9-C ) :   1.2009
B(  8-N , 28-H ) :   0.9537 B(  9-C , 10-S ) :   1.6050 B(  9-C , 11-N ) :   1.2842
B( 11-N , 12-C ) :   0.9892 B( 11-N , 29-H ) :   0.9473 B( 12-C , 13-C ) :   0.9497
B( 12-C , 30-H ) :   0.9976 B( 13-C , 14-C ) :   1.3822 B( 13-C , 19-C ) :   1.3377
B( 14-C , 15-C ) :   1.4018 B( 14-C , 31-H ) :   0.9646 B( 15-C , 16-C ) :   1.3593
B( 15-C , 32-H ) :   0.9707 B( 16-C , 17-C ) :   1.3312 B( 16-C , 33-H ) :   0.9850
B( 17-C , 18-O ) :   1.1058 B( 17-C , 19-C ) :   1.3682 B( 18-O , 34-H ) :   0.9798
B( 19-C , 35-H ) :   0.9576

MP2 TOTAL ENERGY:    -1274.312539115 Eh
FINAL SINGLE POINT ENERGY     -1274.312539114679

DIPOLE MOMENT
-------------
                                X             Y             Z
Electronic contribution:      9.70052       5.94584       6.49634
Nuclear contribution   :    -11.21809      -7.20776      -7.41942
                        -----------------------------------------
Total Dipole Moment    :     -1.51757      -1.26192      -0.92307
                        -----------------------------------------
Magnitude (a.u.)       :      2.17888
Magnitude (Debye)      :      5.53827

Rotational constants in cm-1:     0.012217     0.009440     0.006958
Rotational constants in MHz :   366.251253   282.995503   208.597658

                             ****ORCA TERMINATED NORMALLY****
TOTAL RUN TIME: 0 days 1 hours 56 minutes 37 seconds 6 msec
