                         Program Version 4.2.0 -  RELEASE  -
|  1> ! ri-mp2 cc-pvtz cc-pvtz/c TightSCF  NoKeepInts
|  2>
|  3> %scf
|  4>   MaxCore 4096
|  5> end
|  6> *xyz  0  1
|  7>     C       15.3178266   13.9531411   14.9501419
|  8>     C       15.1230631   14.8513016   16.1862426
|  9>     O       16.1169404   15.8917517   16.1575940
| 10>     C       17.3153212   15.6901556   16.7814801
| 11>     O       17.7613503   14.5710026   16.9756838
| 12>     C       17.7755229   16.8730236   17.5829224
| 13>     C       17.4496543   18.1629498   17.3091744
| 14>     C       16.6050595   18.6850556   16.1650129
| 15>     N       17.9811897   19.1943530   18.0901953
| 16>     C       18.9478380   19.0333099   19.0475917
| 17>     S       19.6146722   20.3237199   19.8386410
| 18>     N       19.3345933   17.7445191   19.3152037
| 19>     C       18.6819869   16.5380080   18.7726051
| 20>     C       17.9018801   15.8147093   19.8675104
| 21>     C       18.1463917   14.4554895   20.1373432
| 22>     C       17.4281696   13.7834025   21.1405170
| 23>     C       16.4556339   14.4756501   21.8818453
| 24>     C       16.2060325   15.8283976   21.6138236
| 25>     O       15.2628355   16.4979386   22.3233533
| 26>     C       16.9220188   16.4944201   20.6141997
| 27>     H       15.2645489   14.5448137   14.0280272
| 28>     H       14.5392273   13.1819450   14.9096987
| 29>     H       16.2923990   13.4498487   14.9830272
| 30>     H       14.1242103   15.3036532   16.1403235
| 31>     H       15.1888526   14.2623000   17.1118976
| 32>     H       16.8906110   18.2085369   15.2188393
| 33>     H       16.7105355   19.7673838   16.0223265
| 34>     H       15.5427805   18.4747011   16.3410818
| 35>     H       17.7103901   20.1475690   17.9082878
| 36>     H       20.0264157   17.6507889   20.0476889
| 37>     H       19.4736019   15.8653203   18.4119785
| 38>     H       18.8857243   13.9132145   19.5528489
| 39>     H       17.6232024   12.7303105   21.3349594
| 40>     H       15.8975432   13.9600162   22.6561772
| 41>     H       14.9137829   15.8870237   22.9895000
| 42>     H       16.7151939   17.5422750   20.4262560
| 43> *
| 44>
| 45>                          ****END OF INPUT****

CARTESIAN COORDINATES (ANGSTROEM)
---------------------------------
  C     15.317827   13.953141   14.950142
  C     15.123063   14.851302   16.186243
  O     16.116940   15.891752   16.157594
  C     17.315321   15.690156   16.781480
  O     17.761350   14.571003   16.975684
  C     17.775523   16.873024   17.582922
  C     17.449654   18.162950   17.309174
  C     16.605059   18.685056   16.165013
  N     17.981190   19.194353   18.090195
  C     18.947838   19.033310   19.047592
  S     19.614672   20.323720   19.838641
  N     19.334593   17.744519   19.315204
  C     18.681987   16.538008   18.772605
  C     17.901880   15.814709   19.867510
  C     18.146392   14.455489   20.137343
  C     17.428170   13.783402   21.140517
  C     16.455634   14.475650   21.881845
  C     16.206032   15.828398   21.613824
  O     15.262835   16.497939   22.323353
  C     16.922019   16.494420   20.614200
  H     15.264549   14.544814   14.028027
  H     14.539227   13.181945   14.909699
  H     16.292399   13.449849   14.983027
  H     14.124210   15.303653   16.140324
  H     15.188853   14.262300   17.111898
  H     16.890611   18.208537   15.218839
  H     16.710535   19.767384   16.022326
  H     15.542780   18.474701   16.341082
  H     17.710390   20.147569   17.908288
  H     20.026416   17.650789   20.047689
  H     19.473602   15.865320   18.411978
  H     18.885724   13.913215   19.552849
  H     17.623202   12.730310   21.334959
  H     15.897543   13.960016   22.656177
  H     14.913783   15.887024   22.989500
  H     16.715194   17.542275   20.426256

 Total Charge           Charge          ....    0
 Multiplicity           Mult            ....    1
 Number of Electrons    NEL             ....  154
 Basis Dimension        Dim             ....  828

ORBITAL ENERGIES
----------------

  NO   OCC          E(Eh)            E(eV)
   0   2.0000     -91.888074     -2500.4016
   1   2.0000     -20.597253      -560.4797
   2   2.0000     -20.592671      -560.3551
   3   2.0000     -20.550051      -559.1953
   4   2.0000     -15.628050      -425.2609
   5   2.0000     -15.607046      -424.6893
   6   2.0000     -11.396769      -310.1219
   7   2.0000     -11.383163      -309.7516
   8   2.0000     -11.334700      -308.4329
   9   2.0000     -11.308647      -307.7239
  10   2.0000     -11.306604      -307.6683
  11   2.0000     -11.300488      -307.5019
  12   2.0000     -11.260248      -306.4069
  13   2.0000     -11.259004      -306.3731
  14   2.0000     -11.254562      -306.2522
  15   2.0000     -11.248886      -306.0977
  16   2.0000     -11.238483      -305.8147
  17   2.0000     -11.234484      -305.7059
  18   2.0000     -11.231657      -305.6289
  19   2.0000     -11.223394      -305.4041
  20   2.0000      -8.893142      -241.9947
  21   2.0000      -6.574720      -178.9072
  22   2.0000      -6.572712      -178.8526
  23   2.0000      -6.572127      -178.8367
  24   2.0000      -1.453896       -39.5625
  25   2.0000      -1.412413       -38.4337
  26   2.0000      -1.357872       -36.9496
  27   2.0000      -1.339121       -36.4393
  28   2.0000      -1.236994       -33.6603
  29   2.0000      -1.153128       -31.3782
  30   2.0000      -1.119967       -30.4759
  31   2.0000      -1.042579       -28.3700
  32   2.0000      -1.033635       -28.1266
  33   2.0000      -1.010498       -27.4971
  34   2.0000      -0.997385       -27.1402
  35   2.0000      -0.982773       -26.7426
  36   2.0000      -0.921678       -25.0801
  37   2.0000      -0.888940       -24.1893
  38   2.0000      -0.847721       -23.0677
  39   2.0000      -0.836311       -22.7572
  40   2.0000      -0.829015       -22.5586
  41   2.0000      -0.820415       -22.3246
  42   2.0000      -0.754149       -20.5215
  43   2.0000      -0.734407       -19.9842
  44   2.0000      -0.725824       -19.7507
  45   2.0000      -0.691544       -18.8179
  46   2.0000      -0.685533       -18.6543
  47   2.0000      -0.680475       -18.5167
  48   2.0000      -0.671796       -18.2805
  49   2.0000      -0.660278       -17.9671
  50   2.0000      -0.646100       -17.5813
  51   2.0000      -0.641211       -17.4482
  52   2.0000      -0.630895       -17.1675
  53   2.0000      -0.609223       -16.5778
  54   2.0000      -0.600742       -16.3470
  55   2.0000      -0.600152       -16.3310
  56   2.0000      -0.595821       -16.2131
  57   2.0000      -0.585229       -15.9249
  58   2.0000      -0.573936       -15.6176
  59   2.0000      -0.566880       -15.4256
  60   2.0000      -0.560922       -15.2635
  61   2.0000      -0.546660       -14.8754
  62   2.0000      -0.534787       -14.5523
  63   2.0000      -0.520271       -14.1573
  64   2.0000      -0.517851       -14.0915
  65   2.0000      -0.510767       -13.8987
  66   2.0000      -0.501850       -13.6560
  67   2.0000      -0.496071       -13.4988
  68   2.0000      -0.480552       -13.0765
  69   2.0000      -0.462079       -12.5738
  70   2.0000      -0.455893       -12.4055
  71   2.0000      -0.455376       -12.3914
  72   2.0000      -0.353807        -9.6276
  73   2.0000      -0.344935        -9.3862
  74   2.0000      -0.327262        -8.9053
  75   2.0000      -0.316101        -8.6016
  76   2.0000      -0.314599        -8.5607
  77   0.0000       0.074890         2.0379
  78   0.0000       0.110981         3.0199
  79   0.0000       0.121427         3.3042
  80   0.0000       0.135167         3.6781
  81   0.0000       0.140148         3.8136

MULLIKEN ATOMIC CHARGES
-----------------------
   0 C :   -0.283592
   1 C :    0.043085
   2 O :   -0.355005
   3 C :    0.426953
   4 O :   -0.421460
   5 C :   -0.151641
   6 C :    0.140932
   7 C :   -0.283755
   8 N :   -0.123083
   9 C :    0.202075
  10 S :   -0.439818
  11 N :   -0.198207
  12 C :    0.040144
  13 C :    0.053382
  14 C :   -0.163766
  15 C :   -0.134216
  16 C :   -0.279670
  17 C :    0.311332
  18 O :   -0.358723
  19 C :   -0.271562
  20 H :    0.090223
  21 H :    0.091333
  22 H :    0.116046
  23 H :    0.100483
  24 H :    0.101471
  25 H :    0.124746
  26 H :    0.102050
  27 H :    0.127369
  28 H :    0.196936
  29 H :    0.193738
  30 H :    0.154030
  31 H :    0.154335
  32 H :    0.159706
  33 H :    0.128655
  34 H :    0.240150
  35 H :    0.165323
Sum of atomic charges:   -0.0000000

LOEWDIN ATOMIC CHARGES
----------------------
   0 C :    0.104296
   1 C :   -0.015283
   2 O :    0.300363
   3 C :   -0.413057
   4 O :    0.112423
   5 C :   -0.091247
   6 C :   -0.068887
   7 C :    0.125374
   8 N :    0.404483
   9 C :   -0.458425
  10 S :   -0.036413
  11 N :    0.397513
  12 C :   -0.045892
  13 C :   -0.039281
  14 C :    0.021272
  15 C :    0.040476
  16 C :   -0.002419
  17 C :   -0.192743
  18 O :    0.393172
  19 C :    0.028635
  20 H :   -0.030171
  21 H :   -0.028602
  22 H :   -0.024159
  23 H :   -0.026938
  24 H :   -0.026026
  25 H :   -0.008608
  26 H :   -0.020476
  27 H :   -0.009517
  28 H :   -0.058979
  29 H :   -0.063842
  30 H :   -0.004949
  31 H :   -0.025256
  32 H :   -0.021094
  33 H :   -0.036259
  34 H :   -0.154765
  35 H :   -0.024718

  Mayer bond orders larger than 0.100000
B(  0-C ,  1-C ) :   0.9700 B(  0-C , 20-H ) :   0.9769 B(  0-C , 21-H ) :   0.9766
B(  0-C , 22-H ) :   0.9745 B(  1-C ,  2-O ) :   0.8981 B(  1-C , 23-H ) :   0.9840
B(  1-C , 24-H ) :   0.9742 B(  2-O ,  3-C ) :   1.1175 B(  3-C ,  4-O ) :   1.9764
B(  3-C ,  5-C ) :   1.0501 B(  5-C ,  6-C ) :   1.6551 B(  5-C , 12-C ) :   0.9644
B(  6-C ,  7-C ) :   0.9542 B(  6-C ,  8-N ) :   1.1412 B(  7-C , 25-H ) :   0.9680
B(  7-C , 26-H ) :   0.9903 B(  7-C , 27-H ) :   0.9630 B(  8-N ,  9-C ) :   1.1813
B(  8-N , 28-H ) :   0.9492 B(  9-C , 10-S ) :   1.6103 B(  9-C , 11-N ) :   1.3022
B( 11-N , 12-C ) :   0.9923 B( 11-N , 29-H ) :   0.9518 B( 12-C , 13-C ) :   0.9461
B( 12-C , 30-H ) :   0.9991 B( 13-C , 14-C ) :   1.3758 B( 13-C , 19-C ) :   1.3700
B( 14-C , 15-C ) :   1.3945 B( 14-C , 31-H ) :   0.9647 B( 15-C , 16-C ) :   1.3628
B( 15-C , 32-H ) :   0.9712 B( 16-C , 17-C ) :   1.3312 B( 16-C , 33-H ) :   0.9858
B( 17-C , 18-O ) :   1.1084 B( 17-C , 19-C ) :   1.3782 B( 18-O , 34-H ) :   0.9805
B( 19-C , 35-H ) :   0.9583

MP2 TOTAL ENERGY:    -1274.338665048 Eh
FINAL SINGLE POINT ENERGY     -1274.338665048429

DIPOLE MOMENT
-------------
                                X             Y             Z
Electronic contribution:     10.54210      10.15646      10.65031
Nuclear contribution   :    -12.15818     -11.32506     -11.40264
                        -----------------------------------------
Total Dipole Moment    :     -1.61608      -1.16860      -0.75232
                        -----------------------------------------
Magnitude (a.u.)       :      2.13151
Magnitude (Debye)      :      5.41787

Rotational constants in cm-1:     0.010774     0.008967     0.005931
Rotational constants in MHz :   322.991116   268.816501   177.801642

                             ****ORCA TERMINATED NORMALLY****
TOTAL RUN TIME: 0 days 1 hours 38 minutes 32 seconds 661 msec
