                         Program Version 5.0.0 -  RELEASE  -
|  1> ! ri-mp2 cc-pvtz cc-pvtz/c TightSCF NoKeepInts
|  2>
|  3> %scf
|  4>   MaxCore 4096
|  5> end
|  6> *xyz  0  1
|  7>     C       14.9187293   13.9808382   16.2592144
|  8>     C       15.4672431   15.3269205   16.7599888
|  9>     O       16.5871468   15.6734724   15.9259721
| 10>     C       17.8139535   15.7218273   16.5166589
| 11>     O       18.4463878   14.6957705   16.6925817
| 12>     C       17.9915573   16.9182185   17.4024657
| 13>     C       17.5183231   18.1522341   17.0988137
| 14>     C       16.7817979   18.5684892   15.8427686
| 15>     N       17.7716119   19.2243966   17.9594353
| 16>     C       18.6032136   19.1718414   19.0476608
| 17>     S       18.9430980   20.5161482   19.9486355
| 18>     N       19.1372026   17.9445308   19.3531623
| 19>     C       18.7645832   16.6741898   18.7010001
| 20>     C       17.9506599   15.7973945   19.6491959
| 21>     C       18.3065299   14.4521433   19.8565319
| 22>     C       17.5474760   13.6328694   20.7086707
| 23>     C       16.4203185   14.1618336   21.3598699
| 24>     C       16.0594121   15.4998694   21.1532109
| 25>     O       14.9643122   16.0109033   21.7697692
| 26>     C       16.8161321   16.3126821   20.3033983
| 27>     H       15.6861266   13.2003040   16.3419786
| 28>     H       14.6114180   14.0532150   15.2085907
| 29>     H       14.0502248   13.6723682   16.8534874
| 30>     H       14.6875204   16.0949468   16.6801718
| 31>     H       15.7601984   15.2365626   17.8153025
| 32>     H       17.1875832   18.0590455   14.9594891
| 33>     H       16.8627227   19.6456032   15.6511350
| 34>     H       15.7162526   18.3194637   15.9134198
| 35>     H       17.3928966   20.1344417   17.7495988
| 36>     H       19.7265476   17.9289655   20.1758516
| 37>     H       19.6929789   16.1418705   18.4471034
| 38>     H       19.1659584   14.0342140   19.3370932
| 39>     H       17.8309677   12.5919482   20.8548125
| 40>     H       15.8299038   13.5312886   22.0164345
| 41>     H       14.6176313   15.3254752   22.3609442
| 42>     H       16.5183804   17.3457144   20.1595821
| 43> *
| 44>
| 45>                          ****END OF INPUT****

CARTESIAN COORDINATES (ANGSTROEM)
---------------------------------
  C     14.918729   13.980838   16.259214
  C     15.467243   15.326920   16.759989
  O     16.587147   15.673472   15.925972
  C     17.813953   15.721827   16.516659
  O     18.446388   14.695771   16.692582
  C     17.991557   16.918218   17.402466
  C     17.518323   18.152234   17.098814
  C     16.781798   18.568489   15.842769
  N     17.771612   19.224397   17.959435
  C     18.603214   19.171841   19.047661
  S     18.943098   20.516148   19.948636
  N     19.137203   17.944531   19.353162
  C     18.764583   16.674190   18.701000
  C     17.950660   15.797394   19.649196
  C     18.306530   14.452143   19.856532
  C     17.547476   13.632869   20.708671
  C     16.420319   14.161834   21.359870
  C     16.059412   15.499869   21.153211
  O     14.964312   16.010903   21.769769
  C     16.816132   16.312682   20.303398
  H     15.686127   13.200304   16.341979
  H     14.611418   14.053215   15.208591
  H     14.050225   13.672368   16.853487
  H     14.687520   16.094947   16.680172
  H     15.760198   15.236563   17.815303
  H     17.187583   18.059045   14.959489
  H     16.862723   19.645603   15.651135
  H     15.716253   18.319464   15.913420
  H     17.392897   20.134442   17.749599
  H     19.726548   17.928965   20.175852
  H     19.692979   16.141870   18.447103
  H     19.165958   14.034214   19.337093
  H     17.830968   12.591948   20.854813
  H     15.829904   13.531289   22.016434
  H     14.617631   15.325475   22.360944
  H     16.518380   17.345714   20.159582

 Total Charge           Charge          ....    0
 Multiplicity           Mult            ....    1
 Number of Electrons    NEL             ....  154
 Basis Dimension        Dim             ....  828

ORBITAL ENERGIES
----------------

  NO   OCC          E(Eh)            E(eV)
   0   2.0000     -91.890713     -2500.4734
   1   2.0000     -20.597694      -560.4917
   2   2.0000     -20.581192      -560.0427
   3   2.0000     -20.557152      -559.3886
   4   2.0000     -15.630587      -425.3299
   5   2.0000     -15.610009      -424.7700
   6   2.0000     -11.394678      -310.0650
   7   2.0000     -11.386233      -309.8351
   8   2.0000     -11.336082      -308.4705
   9   2.0000     -11.314220      -307.8756
  10   2.0000     -11.310183      -307.7657
  11   2.0000     -11.301163      -307.5203
  12   2.0000     -11.263136      -306.4855
  13   2.0000     -11.260953      -306.4261
  14   2.0000     -11.259810      -306.3950
  15   2.0000     -11.254185      -306.2419
  16   2.0000     -11.243865      -305.9611
  17   2.0000     -11.239798      -305.8505
  18   2.0000     -11.236673      -305.7654
  19   2.0000     -11.224229      -305.4268
  20   2.0000      -8.895778      -242.0664
  21   2.0000      -6.577353      -178.9789
  22   2.0000      -6.575345      -178.9242
  23   2.0000      -6.574757      -178.9082
  24   2.0000      -1.451796       -39.5054
  25   2.0000      -1.417526       -38.5728
  26   2.0000      -1.357990       -36.9528
  27   2.0000      -1.341640       -36.5079
  28   2.0000      -1.239721       -33.7345
  29   2.0000      -1.158419       -31.5222
  30   2.0000      -1.123059       -30.5600
  31   2.0000      -1.046203       -28.4686
  32   2.0000      -1.032452       -28.0945
  33   2.0000      -1.015932       -27.6449
  34   2.0000      -1.001634       -27.2558
  35   2.0000      -0.986991       -26.8574
  36   2.0000      -0.925424       -25.1821
  37   2.0000      -0.878738       -23.9117
  38   2.0000      -0.852487       -23.1974
  39   2.0000      -0.841858       -22.9081
  40   2.0000      -0.834392       -22.7050
  41   2.0000      -0.832054       -22.6413
  42   2.0000      -0.753914       -20.5151
  43   2.0000      -0.734899       -19.9976
  44   2.0000      -0.730191       -19.8695
  45   2.0000      -0.695947       -18.9377
  46   2.0000      -0.688010       -18.7217
  47   2.0000      -0.679839       -18.4994
  48   2.0000      -0.675197       -18.3730
  49   2.0000      -0.663710       -18.0605
  50   2.0000      -0.649281       -17.6678
  51   2.0000      -0.647744       -17.6260
  52   2.0000      -0.639447       -17.4002
  53   2.0000      -0.607687       -16.5360
  54   2.0000      -0.605763       -16.4837
  55   2.0000      -0.601643       -16.3715
  56   2.0000      -0.593068       -16.1382
  57   2.0000      -0.584212       -15.8972
  58   2.0000      -0.578126       -15.7316
  59   2.0000      -0.569032       -15.4842
  60   2.0000      -0.563761       -15.3407
  61   2.0000      -0.553888       -15.0721
  62   2.0000      -0.538523       -14.6540
  63   2.0000      -0.523727       -14.2513
  64   2.0000      -0.514667       -14.0048
  65   2.0000      -0.511417       -13.9164
  66   2.0000      -0.502813       -13.6822
  67   2.0000      -0.498737       -13.5713
  68   2.0000      -0.482931       -13.1412
  69   2.0000      -0.468237       -12.7414
  70   2.0000      -0.455261       -12.3883
  71   2.0000      -0.452236       -12.3060
  72   2.0000      -0.357077        -9.7166
  73   2.0000      -0.349776        -9.5179
  74   2.0000      -0.329955        -8.9785
  75   2.0000      -0.321628        -8.7519
  76   2.0000      -0.318118        -8.6564
  77   0.0000       0.069667         1.8957
  78   0.0000       0.104034         2.8309
  79   0.0000       0.118613         3.2276
  80   0.0000       0.130860         3.5609
  81   0.0000       0.134582         3.6622

MULLIKEN ATOMIC CHARGES
-----------------------
   0 C :   -0.256202
   1 C :    0.033741
   2 O :   -0.374028
   3 C :    0.464852
   4 O :   -0.389577
   5 C :   -0.216524
   6 C :    0.136947
   7 C :   -0.286368
   8 N :   -0.124455
   9 C :    0.197771
  10 S :   -0.436463
  11 N :   -0.201591
  12 C :    0.058808
  13 C :    0.021868
  14 C :   -0.160302
  15 C :   -0.136468
  16 C :   -0.276753
  17 C :    0.316253
  18 O :   -0.359186
  19 C :   -0.278405
  20 H :    0.109835
  21 H :    0.095301
  22 H :    0.086038
  23 H :    0.092088
  24 H :    0.105006
  25 H :    0.129609
  26 H :    0.109589
  27 H :    0.121541
  28 H :    0.197492
  29 H :    0.194501
  30 H :    0.157542
  31 H :    0.161870
  32 H :    0.162105
  33 H :    0.132059
  34 H :    0.241243
  35 H :    0.170265
Sum of atomic charges:    0.0000000

LOEWDIN ATOMIC CHARGES
----------------------
   0 C :    0.108466
   1 C :   -0.016602
   2 O :    0.287712
   3 C :   -0.422956
   4 O :    0.133820
   5 C :   -0.095249
   6 C :   -0.074694
   7 C :    0.127610
   8 N :    0.404512
   9 C :   -0.458245
  10 S :   -0.034083
  11 N :    0.397053
  12 C :   -0.045639
  13 C :   -0.043240
  14 C :    0.021247
  15 C :    0.042898
  16 C :   -0.001500
  17 C :   -0.195296
  18 O :    0.393996
  19 C :    0.026889
  20 H :   -0.021350
  21 H :   -0.027419
  22 H :   -0.028581
  23 H :   -0.033749
  24 H :   -0.027027
  25 H :   -0.006410
  26 H :   -0.018026
  27 H :   -0.012039
  28 H :   -0.058273
  29 H :   -0.063883
  30 H :   -0.003744
  31 H :   -0.023472
  32 H :   -0.019534
  33 H :   -0.035085
  34 H :   -0.153485
  35 H :   -0.024621

  Mayer bond orders larger than 0.100000
B(  0-C ,  1-C ) :   0.9881 B(  0-C , 20-H ) :   0.9756 B(  0-C , 21-H ) :   0.9792
B(  0-C , 22-H ) :   0.9758 B(  1-C ,  2-O ) :   0.8815 B(  1-C , 23-H ) :   0.9780
B(  1-C , 24-H ) :   0.9653 B(  2-O ,  3-C ) :   1.0999 B(  3-C ,  4-O ) :   2.0453
B(  3-C ,  5-C ) :   1.0086 B(  5-C ,  6-C ) :   1.6645 B(  5-C , 12-C ) :   0.9590
B(  6-C ,  7-C ) :   0.9518 B(  6-C ,  8-N ) :   1.1377 B(  7-C , 25-H ) :   0.9693
B(  7-C , 26-H ) :   0.9868 B(  7-C , 27-H ) :   0.9648 B(  8-N ,  9-C ) :   1.1823
B(  8-N , 28-H ) :   0.9497 B(  9-C , 10-S ) :   1.6150 B(  9-C , 11-N ) :   1.2981
B( 11-N , 12-C ) :   0.9927 B( 11-N , 29-H ) :   0.9518 B( 12-C , 13-C ) :   0.9431
B( 12-C , 30-H ) :   0.9986 B( 13-C , 14-C ) :   1.3836 B( 13-C , 19-C ) :   1.3588
B( 14-C , 15-C ) :   1.3958 B( 14-C , 31-H ) :   0.9611 B( 15-C , 16-C ) :   1.3642
B( 15-C , 32-H ) :   0.9707 B( 16-C , 17-C ) :   1.3300 B( 16-C , 33-H ) :   0.9843
B( 17-C , 18-O ) :   1.1109 B( 17-C , 19-C ) :   1.3718 B( 18-O , 34-H ) :   0.9795
B( 19-C , 35-H ) :   0.9593

MP2 TOTAL ENERGY:    -1274.324164174 Eh
FINAL SINGLE POINT ENERGY     -1274.324164173523

DIPOLE MOMENT
-------------
                                X             Y             Z
Electronic contribution:     10.87228       9.78552       7.23615
Nuclear contribution   :    -12.26418     -10.80058      -7.63372
                        -----------------------------------------
Total Dipole Moment    :     -1.39191      -1.01505      -0.39757
                        -----------------------------------------
Magnitude (a.u.)       :      1.76799
Magnitude (Debye)      :      4.49388

Rotational constants in cm-1:     0.011817     0.009215     0.006565
Rotational constants in MHz :   354.262899   276.243944   196.801883

                             ****ORCA TERMINATED NORMALLY****
TOTAL RUN TIME: 0 days 1 hours 39 minutes 27 seconds 534 msec
