                         Program Version 5.0.0 -  RELEASE  -
|  1> ! ri-mp2 cc-pvtz cc-pvtz/c TightSCF NoKeepInts
|  2>
|  3> %scf
|  4>   MaxCore 4096
|  5> end
|  6> *xyz  0  1
|  7>     C       15.0896001   13.8791687   15.7862145
|  8>     C       15.6151887   15.0850207   14.9741260
|  9>     O       16.2927594   16.0663932   15.7938676
| 10>     C       17.1941092   15.7573919   16.7753295
| 11>     O       17.7017934   14.6536727   16.8829071
| 12>     C       17.6568671   16.9264142   17.6028938
| 13>     C       17.2750104   18.2215462   17.4347458
| 14>     C       16.3073123   18.7960765   16.4197949
| 15>     N       17.8367367   19.2204100   18.2379981
| 16>     C       18.8726743   19.0346774   19.1143680
| 17>     S       19.5670443   20.2983223   19.9248083
| 18>     N       19.3018868   17.7438552   19.2852356
| 19>     C       18.6320938   16.5546305   18.7273543
| 20>     C       17.9254528   15.7719284   19.8315630
| 21>     C       18.1950023   14.4035153   20.0185915
| 22>     C       17.5457355   13.6766342   21.0305067
| 23>     C       16.6177186   14.3228119   21.8646286
| 24>     C       16.3434396   15.6846582   21.6798003
| 25>     O       15.4432158   16.3101529   22.4796517
| 26>     C       16.9908138   16.4053310   20.6713034
| 27>     H       15.8945861   13.1805402   16.0440076
| 28>     H       14.3524879   13.3205401   15.1970563
| 29>     H       14.6026751   14.2115234   16.7114632
| 30>     H       16.3033608   14.7148256   14.2027488
| 31>     H       14.7747584   15.5719743   14.4631846
| 32>     H       16.6569620   18.6033923   15.3978832
| 33>     H       16.1803244   19.8807772   16.5199358
| 34>     H       15.3143752   18.3429728   16.5313033
| 35>     H       17.5356864   20.1753273   18.1273143
| 36>     H       20.0454911   17.6272460   19.9614589
| 37>     H       19.4118802   15.9108559   18.2951530
| 38>     H       18.8993618   13.8972042   19.3629293
| 39>     H       17.7587703   12.6170817   21.1598532
| 40>     H       16.1125461   13.7647899   22.6458332
| 41>     H       15.1333377   15.6612257   23.1289619
| 42>     H       16.7659419   17.4591119   20.5492248
| 43> *
| 44>
| 45>                          ****END OF INPUT****

CARTESIAN COORDINATES (ANGSTROEM)
---------------------------------
  C     15.089600   13.879169   15.786214
  C     15.615189   15.085021   14.974126
  O     16.292759   16.066393   15.793868
  C     17.194109   15.757392   16.775330
  O     17.701793   14.653673   16.882907
  C     17.656867   16.926414   17.602894
  C     17.275010   18.221546   17.434746
  C     16.307312   18.796076   16.419795
  N     17.836737   19.220410   18.237998
  C     18.872674   19.034677   19.114368
  S     19.567044   20.298322   19.924808
  N     19.301887   17.743855   19.285236
  C     18.632094   16.554630   18.727354
  C     17.925453   15.771928   19.831563
  C     18.195002   14.403515   20.018591
  C     17.545735   13.676634   21.030507
  C     16.617719   14.322812   21.864629
  C     16.343440   15.684658   21.679800
  O     15.443216   16.310153   22.479652
  C     16.990814   16.405331   20.671303
  H     15.894586   13.180540   16.044008
  H     14.352488   13.320540   15.197056
  H     14.602675   14.211523   16.711463
  H     16.303361   14.714826   14.202749
  H     14.774758   15.571974   14.463185
  H     16.656962   18.603392   15.397883
  H     16.180324   19.880777   16.519936
  H     15.314375   18.342973   16.531303
  H     17.535686   20.175327   18.127314
  H     20.045491   17.627246   19.961459
  H     19.411880   15.910856   18.295153
  H     18.899362   13.897204   19.362929
  H     17.758770   12.617082   21.159853
  H     16.112546   13.764790   22.645833
  H     15.133338   15.661226   23.128962
  H     16.765942   17.459112   20.549225

 Total Charge           Charge          ....    0
 Multiplicity           Mult            ....    1
 Number of Electrons    NEL             ....  154
 Basis Dimension        Dim             ....  828

ORBITAL ENERGIES
----------------

  NO   OCC          E(Eh)            E(eV)
   0   2.0000     -91.887707     -2500.3916
   1   2.0000     -20.602236      -560.6153
   2   2.0000     -20.590868      -560.3060
   3   2.0000     -20.543637      -559.0208
   4   2.0000     -15.628164      -425.2640
   5   2.0000     -15.606140      -424.6647
   6   2.0000     -11.397492      -310.1415
   7   2.0000     -11.382288      -309.7278
   8   2.0000     -11.336860      -308.4916
   9   2.0000     -11.306588      -307.6679
  10   2.0000     -11.305247      -307.6314
  11   2.0000     -11.304285      -307.6052
  12   2.0000     -11.260654      -306.4180
  13   2.0000     -11.258238      -306.3522
  14   2.0000     -11.252477      -306.1955
  15   2.0000     -11.246666      -306.0373
  16   2.0000     -11.236366      -305.7571
  17   2.0000     -11.232551      -305.6532
  18   2.0000     -11.229308      -305.5650
  19   2.0000     -11.225546      -305.4626
  20   2.0000      -8.892768      -241.9845
  21   2.0000      -6.574346      -178.8970
  22   2.0000      -6.572340      -178.8425
  23   2.0000      -6.571754      -178.8265
  24   2.0000      -1.449638       -39.4467
  25   2.0000      -1.410607       -38.3846
  26   2.0000      -1.356270       -36.9060
  27   2.0000      -1.339097       -36.4387
  28   2.0000      -1.236531       -33.6477
  29   2.0000      -1.151131       -31.3239
  30   2.0000      -1.118281       -30.4300
  31   2.0000      -1.041317       -28.3357
  32   2.0000      -1.033998       -28.1365
  33   2.0000      -1.008572       -27.4446
  34   2.0000      -0.996651       -27.1202
  35   2.0000      -0.982037       -26.7226
  36   2.0000      -0.920821       -25.0568
  37   2.0000      -0.897055       -24.4101
  38   2.0000      -0.847607       -23.0646
  39   2.0000      -0.835026       -22.7222
  40   2.0000      -0.826930       -22.5019
  41   2.0000      -0.816245       -22.2112
  42   2.0000      -0.746159       -20.3040
  43   2.0000      -0.732044       -19.9199
  44   2.0000      -0.723908       -19.6985
  45   2.0000      -0.689576       -18.7643
  46   2.0000      -0.684719       -18.6322
  47   2.0000      -0.678519       -18.4634
  48   2.0000      -0.671170       -18.2635
  49   2.0000      -0.658675       -17.9235
  50   2.0000      -0.649062       -17.6619
  51   2.0000      -0.643521       -17.5111
  52   2.0000      -0.631709       -17.1897
  53   2.0000      -0.612778       -16.6745
  54   2.0000      -0.599779       -16.3208
  55   2.0000      -0.598664       -16.2905
  56   2.0000      -0.594368       -16.1736
  57   2.0000      -0.581358       -15.8196
  58   2.0000      -0.572593       -15.5810
  59   2.0000      -0.565745       -15.3947
  60   2.0000      -0.557988       -15.1836
  61   2.0000      -0.541361       -14.7312
  62   2.0000      -0.538564       -14.6551
  63   2.0000      -0.523713       -14.2509
  64   2.0000      -0.515782       -14.0351
  65   2.0000      -0.510669       -13.8960
  66   2.0000      -0.501416       -13.6442
  67   2.0000      -0.494765       -13.4633
  68   2.0000      -0.479024       -13.0349
  69   2.0000      -0.463612       -12.6155
  70   2.0000      -0.455481       -12.3943
  71   2.0000      -0.449201       -12.2234
  72   2.0000      -0.353761        -9.6263
  73   2.0000      -0.343218        -9.3394
  74   2.0000      -0.326804        -8.8928
  75   2.0000      -0.315160        -8.5759
  76   2.0000      -0.312663        -8.5080
  77   0.0000       0.075781         2.0621
  78   0.0000       0.114400         3.1130
  79   0.0000       0.122146         3.3238
  80   0.0000       0.136708         3.7200
  81   0.0000       0.140690         3.8284

MULLIKEN ATOMIC CHARGES
-----------------------
   0 C :   -0.306569
   1 C :    0.044952
   2 O :   -0.348901
   3 C :    0.460906
   4 O :   -0.437546
   5 C :   -0.179343
   6 C :    0.142170
   7 C :   -0.280982
   8 N :   -0.119970
   9 C :    0.200971
  10 S :   -0.439322
  11 N :   -0.196655
  12 C :    0.034405
  13 C :    0.059955
  14 C :   -0.161550
  15 C :   -0.134070
  16 C :   -0.278881
  17 C :    0.311559
  18 O :   -0.359333
  19 C :   -0.274826
  20 H :    0.129933
  21 H :    0.095997
  22 H :    0.097052
  23 H :    0.094301
  24 H :    0.102967
  25 H :    0.128451
  26 H :    0.101177
  27 H :    0.124742
  28 H :    0.196571
  29 H :    0.193456
  30 H :    0.154086
  31 H :    0.153345
  32 H :    0.158686
  33 H :    0.127728
  34 H :    0.239984
  35 H :    0.164554
Sum of atomic charges:   -0.0000000

LOEWDIN ATOMIC CHARGES
----------------------
   0 C :    0.104791
   1 C :   -0.011231
   2 O :    0.298446
   3 C :   -0.414172
   4 O :    0.106862
   5 C :   -0.090562
   6 C :   -0.063294
   7 C :    0.124579
   8 N :    0.404979
   9 C :   -0.459496
  10 S :   -0.036100
  11 N :    0.398290
  12 C :   -0.046943
  13 C :   -0.038681
  14 C :    0.022379
  15 C :    0.040612
  16 C :   -0.002490
  17 C :   -0.192810
  18 O :    0.392835
  19 C :    0.027974
  20 H :   -0.024553
  21 H :   -0.027767
  22 H :   -0.027454
  23 H :   -0.028674
  24 H :   -0.025366
  25 H :   -0.008229
  26 H :   -0.021683
  27 H :   -0.010045
  28 H :   -0.059424
  29 H :   -0.063530
  30 H :   -0.005652
  31 H :   -0.025359
  32 H :   -0.021395
  33 H :   -0.036526
  34 H :   -0.154989
  35 H :   -0.025325

  Mayer bond orders larger than 0.100000
B(  0-C ,  1-C ) :   0.9639 B(  0-C , 20-H ) :   0.9713 B(  0-C , 21-H ) :   0.9767
B(  0-C , 22-H ) :   0.9754 B(  1-C ,  2-O ) :   0.9023 B(  1-C , 23-H ) :   0.9807
B(  1-C , 24-H ) :   0.9838 B(  2-O ,  3-C ) :   1.1640 B(  3-C ,  4-O ) :   1.9567
B(  3-C ,  5-C ) :   1.0663 B(  5-C ,  6-C ) :   1.6385 B(  5-C , 12-C ) :   0.9676
B(  6-C ,  7-C ) :   0.9579 B(  6-C ,  8-N ) :   1.1538 B(  7-C , 25-H ) :   0.9629
B(  7-C , 26-H ) :   0.9919 B(  7-C , 27-H ) :   0.9653 B(  8-N ,  9-C ) :   1.1764
B(  8-N , 28-H ) :   0.9486 B(  9-C , 10-S ) :   1.6108 B(  9-C , 11-N ) :   1.3058
B( 11-N , 12-C ) :   0.9926 B( 11-N , 29-H ) :   0.9520 B( 12-C , 13-C ) :   0.9453
B( 12-C , 30-H ) :   1.0016 B( 13-C , 14-C ) :   1.3751 B( 13-C , 19-C ) :   1.3688
B( 14-C , 15-C ) :   1.3948 B( 14-C , 31-H ) :   0.9649 B( 15-C , 16-C ) :   1.3620
B( 15-C , 32-H ) :   0.9715 B( 16-C , 17-C ) :   1.3319 B( 16-C , 33-H ) :   0.9861
B( 17-C , 18-O ) :   1.1078 B( 17-C , 19-C ) :   1.3793 B( 18-O , 34-H ) :   0.9807
B( 19-C , 35-H ) :   0.9583

MP2 TOTAL ENERGY:    -1274.343197033 Eh
FINAL SINGLE POINT ENERGY     -1274.343197032986

DIPOLE MOMENT
-------------
                                X             Y             Z
Electronic contribution:     10.60212      10.06272      10.05032
Nuclear contribution   :    -12.23188     -11.23910     -11.12432
                        -----------------------------------------
Total Dipole Moment    :     -1.62976      -1.17638      -1.07401
                        -----------------------------------------
Magnitude (a.u.)       :      2.27892
Magnitude (Debye)      :      5.79254

Rotational constants in cm-1:     0.010570     0.009037     0.005852
Rotational constants in MHz :   316.887494   270.918317   175.424657

                             ****ORCA TERMINATED NORMALLY****
TOTAL RUN TIME: 0 days 2 hours 5 minutes 46 seconds 516 msec
