                         Program Version 4.2.0 -  RELEASE  -
|  1> ! ri-mp2 cc-pvtz cc-pvtz/c TightSCF  NoKeepInts
|  2>
|  3> %scf
|  4>   MaxCore 4096
|  5> end
|  6> *xyz  0  1
|  7>     C       14.3540170   15.7928273   16.4710641
|  8>     C       15.6374560   15.0707156   16.9162457
|  9>     O       16.6942291   15.3549378   15.9758254
| 10>     C       17.9245391   15.7652849   16.4141464
| 11>     O       18.8687615   14.9998371   16.3459203
| 12>     C       17.9087969   16.8933297   17.3973672
| 13>     C       17.2753460   18.0679086   17.1630364
| 14>     C       16.5543728   18.4987407   15.9028201
| 15>     N       17.3699293   19.1049250   18.0942999
| 16>     C       18.1827235   19.0924758   19.1976715
| 17>     S       18.3107131   20.4027831   20.1980204
| 18>     N       18.8876214   17.9373522   19.4293242
| 19>     C       18.7322672   16.6806265   18.6705924
| 20>     C       18.1185954   15.5847755   19.5383958
| 21>     C       18.6300947   14.2750406   19.4889796
| 22>     C       18.0581438   13.2517845   20.2629292
| 23>     C       16.9625854   13.5384348   21.0946105
| 24>     C       16.4467079   14.8401621   21.1448103
| 25>     O       15.3806370   15.1180376   21.9363386
| 26>     C       17.0170140   15.8566643   20.3719494
| 27>     H       14.4262521   16.8713143   16.6394869
| 28>     H       13.4946962   15.4240306   17.0444819
| 29>     H       14.1557196   15.6130966   15.4068972
| 30>     H       15.8923280   15.3795779   17.9364788
| 31>     H       15.4613754   13.9871498   16.9345946
| 32>     H       16.4480313   17.6919740   15.1697158
| 33>     H       17.1077044   19.3043614   15.4036998
| 34>     H       15.5495961   18.8757676   16.1278700
| 35>     H       16.8777651   19.9692016   17.9304869
| 36>     H       19.4661771   17.9498819   20.2598439
| 37>     H       19.7370565   16.3509123   18.3672918
| 38>     H       19.4678322   14.0458834   18.8334207
| 39>     H       18.4623246   12.2420806   20.2112852
| 40>     H       16.5168560   12.7501396   21.6923974
| 41>     H       15.1716728   14.3143030   22.4362298
| 42>     H       16.5970615   16.8556817   20.4254719
| 43> *
| 44>
| 45>                          ****END OF INPUT****

CARTESIAN COORDINATES (ANGSTROEM)
---------------------------------
  C     14.354017   15.792827   16.471064
  C     15.637456   15.070716   16.916246
  O     16.694229   15.354938   15.975825
  C     17.924539   15.765285   16.414146
  O     18.868762   14.999837   16.345920
  C     17.908797   16.893330   17.397367
  C     17.275346   18.067909   17.163036
  C     16.554373   18.498741   15.902820
  N     17.369929   19.104925   18.094300
  C     18.182724   19.092476   19.197671
  S     18.310713   20.402783   20.198020
  N     18.887621   17.937352   19.429324
  C     18.732267   16.680626   18.670592
  C     18.118595   15.584775   19.538396
  C     18.630095   14.275041   19.488980
  C     18.058144   13.251784   20.262929
  C     16.962585   13.538435   21.094611
  C     16.446708   14.840162   21.144810
  O     15.380637   15.118038   21.936339
  C     17.017014   15.856664   20.371949
  H     14.426252   16.871314   16.639487
  H     13.494696   15.424031   17.044482
  H     14.155720   15.613097   15.406897
  H     15.892328   15.379578   17.936479
  H     15.461375   13.987150   16.934595
  H     16.448031   17.691974   15.169716
  H     17.107704   19.304361   15.403700
  H     15.549596   18.875768   16.127870
  H     16.877765   19.969202   17.930487
  H     19.466177   17.949882   20.259844
  H     19.737057   16.350912   18.367292
  H     19.467832   14.045883   18.833421
  H     18.462325   12.242081   20.211285
  H     16.516856   12.750140   21.692397
  H     15.171673   14.314303   22.436230
  H     16.597061   16.855682   20.425472

 Total Charge           Charge          ....    0
 Multiplicity           Mult            ....    1
 Number of Electrons    NEL             ....  154
 Basis Dimension        Dim             ....  828

ORBITAL ENERGIES
----------------

  NO   OCC          E(Eh)            E(eV)
   0   2.0000     -91.890928     -2500.4793
   1   2.0000     -20.599678      -560.5457
   2   2.0000     -20.586797      -560.1952
   3   2.0000     -20.555395      -559.3407
   4   2.0000     -15.628821      -425.2818
   5   2.0000     -15.611388      -424.8075
   6   2.0000     -11.396344      -310.1103
   7   2.0000     -11.387119      -309.8593
   8   2.0000     -11.334059      -308.4154
   9   2.0000     -11.316752      -307.9445
  10   2.0000     -11.313586      -307.8583
  11   2.0000     -11.300812      -307.5107
  12   2.0000     -11.265258      -306.5433
  13   2.0000     -11.264383      -306.5194
  14   2.0000     -11.263033      -306.4827
  15   2.0000     -11.256705      -306.3105
  16   2.0000     -11.246045      -306.0204
  17   2.0000     -11.241978      -305.9098
  18   2.0000     -11.238646      -305.8191
  19   2.0000     -11.234078      -305.6948
  20   2.0000      -8.896018      -242.0729
  21   2.0000      -6.577599      -178.9856
  22   2.0000      -6.575582      -178.9307
  23   2.0000      -6.574999      -178.9148
  24   2.0000      -1.448227       -39.4083
  25   2.0000      -1.419512       -38.6269
  26   2.0000      -1.357687       -36.9445
  27   2.0000      -1.341818       -36.5127
  28   2.0000      -1.240790       -33.7636
  29   2.0000      -1.160845       -31.5882
  30   2.0000      -1.124768       -30.6065
  31   2.0000      -1.047974       -28.5168
  32   2.0000      -1.037687       -28.2369
  33   2.0000      -1.018561       -27.7165
  34   2.0000      -1.004426       -27.3318
  35   2.0000      -0.989368       -26.9221
  36   2.0000      -0.927468       -25.2377
  37   2.0000      -0.884288       -24.0627
  38   2.0000      -0.852797       -23.2058
  39   2.0000      -0.842692       -22.9308
  40   2.0000      -0.836659       -22.7666
  41   2.0000      -0.834620       -22.7112
  42   2.0000      -0.757276       -20.6065
  43   2.0000      -0.736626       -20.0446
  44   2.0000      -0.731816       -19.9137
  45   2.0000      -0.697781       -18.9876
  46   2.0000      -0.688341       -18.7307
  47   2.0000      -0.681792       -18.5525
  48   2.0000      -0.675961       -18.3938
  49   2.0000      -0.662039       -18.0150
  50   2.0000      -0.653528       -17.7834
  51   2.0000      -0.640841       -17.4382
  52   2.0000      -0.631084       -17.1727
  53   2.0000      -0.624124       -16.9833
  54   2.0000      -0.609493       -16.5852
  55   2.0000      -0.607223       -16.5234
  56   2.0000      -0.603369       -16.4185
  57   2.0000      -0.583724       -15.8839
  58   2.0000      -0.576902       -15.6983
  59   2.0000      -0.571104       -15.5405
  60   2.0000      -0.564445       -15.3593
  61   2.0000      -0.556397       -15.1403
  62   2.0000      -0.542753       -14.7691
  63   2.0000      -0.528087       -14.3700
  64   2.0000      -0.522783       -14.2256
  65   2.0000      -0.515713       -14.0333
  66   2.0000      -0.502609       -13.6767
  67   2.0000      -0.495866       -13.4932
  68   2.0000      -0.485066       -13.1993
  69   2.0000      -0.468383       -12.7454
  70   2.0000      -0.459994       -12.5171
  71   2.0000      -0.449402       -12.2288
  72   2.0000      -0.358651        -9.7594
  73   2.0000      -0.351581        -9.5670
  74   2.0000      -0.330405        -8.9908
  75   2.0000      -0.324399        -8.8273
  76   2.0000      -0.319794        -8.7020
  77   0.0000       0.077779         2.1165
  78   0.0000       0.102655         2.7934
  79   0.0000       0.117179         3.1886
  80   0.0000       0.129423         3.5218
  81   0.0000       0.130242         3.5441

MULLIKEN ATOMIC CHARGES
-----------------------
   0 C :   -0.289129
   1 C :    0.024737
   2 O :   -0.355585
   3 C :    0.442264
   4 O :   -0.376109
   5 C :   -0.221090
   6 C :    0.158302
   7 C :   -0.346077
   8 N :   -0.130401
   9 C :    0.195372
  10 S :   -0.437973
  11 N :   -0.211368
  12 C :    0.069072
  13 C :    0.013872
  14 C :   -0.187271
  15 C :   -0.135816
  16 C :   -0.273976
  17 C :    0.314472
  18 O :   -0.357276
  19 C :   -0.269692
  20 H :    0.086524
  21 H :    0.109406
  22 H :    0.109172
  23 H :    0.101096
  24 H :    0.121214
  25 H :    0.138008
  26 H :    0.149142
  27 H :    0.115049
  28 H :    0.197200
  29 H :    0.197485
  30 H :    0.163733
  31 H :    0.170736
  32 H :    0.164054
  33 H :    0.132856
  34 H :    0.241317
  35 H :    0.176678
Sum of atomic charges:   -0.0000000

LOEWDIN ATOMIC CHARGES
----------------------
   0 C :    0.106894
   1 C :   -0.013130
   2 O :    0.287151
   3 C :   -0.416652
   4 O :    0.133578
   5 C :   -0.087260
   6 C :   -0.088147
   7 C :    0.123867
   8 N :    0.403727
   9 C :   -0.457988
  10 S :   -0.035525
  11 N :    0.397094
  12 C :   -0.044363
  13 C :   -0.044417
  14 C :    0.021118
  15 C :    0.044681
  16 C :   -0.000465
  17 C :   -0.194474
  18 O :    0.395000
  19 C :    0.025632
  20 H :   -0.033985
  21 H :   -0.022555
  22 H :   -0.024475
  23 H :   -0.034750
  24 H :   -0.024839
  25 H :   -0.011351
  26 H :   -0.009783
  27 H :   -0.019089
  28 H :   -0.056606
  29 H :   -0.063573
  30 H :   -0.002670
  31 H :   -0.022067
  32 H :   -0.018575
  33 H :   -0.034640
  34 H :   -0.153033
  35 H :   -0.024329

  Mayer bond orders larger than 0.100000
B(  0-C ,  1-C ) :   0.9757 B(  0-C , 20-H ) :   0.9773 B(  0-C , 21-H ) :   0.9785
B(  0-C , 22-H ) :   0.9758 B(  1-C ,  2-O ) :   0.8964 B(  1-C , 23-H ) :   0.9591
B(  1-C , 24-H ) :   0.9851 B(  2-O ,  3-C ) :   1.1336 B(  3-C ,  4-O ) :   2.0851
B(  3-C ,  5-C ) :   0.9503 B(  5-C ,  6-C ) :   1.6624 B(  5-C , 12-C ) :   0.9567
B(  6-C ,  7-C ) :   0.9528 B(  6-C ,  8-N ) :   1.1241 B(  7-C , 25-H ) :   0.9740
B(  7-C , 26-H ) :   0.9649 B(  7-C , 27-H ) :   0.9689 B(  8-N ,  9-C ) :   1.1905
B(  8-N , 28-H ) :   0.9514 B(  9-C , 10-S ) :   1.6144 B(  9-C , 11-N ) :   1.2918
B( 11-N , 12-C ) :   0.9934 B( 11-N , 29-H ) :   0.9502 B( 12-C , 13-C ) :   0.9479
B( 12-C , 30-H ) :   0.9983 B( 13-C , 14-C ) :   1.3890 B( 13-C , 19-C ) :   1.3422
B( 14-C , 15-C ) :   1.3979 B( 14-C , 31-H ) :   0.9587 B( 15-C , 16-C ) :   1.3637
B( 15-C , 32-H ) :   0.9699 B( 16-C , 17-C ) :   1.3298 B( 16-C , 33-H ) :   0.9841
B( 17-C , 18-O ) :   1.1120 B( 17-C , 19-C ) :   1.3694 B( 18-O , 34-H ) :   0.9794
B( 19-C , 35-H ) :   0.9594

MP2 TOTAL ENERGY:    -1274.327021064 Eh
FINAL SINGLE POINT ENERGY     -1274.327021063916

DIPOLE MOMENT
-------------
                                X             Y             Z
Electronic contribution:     11.12287       5.89089       7.13106
Nuclear contribution   :    -12.46986      -7.02098      -7.45063
                        -----------------------------------------
Total Dipole Moment    :     -1.34698      -1.13009      -0.31957
                        -----------------------------------------
Magnitude (a.u.)       :      1.78706
Magnitude (Debye)      :      4.54235

Rotational constants in cm-1:     0.011375     0.009431     0.006897
Rotational constants in MHz :   341.013232   282.734439   206.768612

                             ****ORCA TERMINATED NORMALLY****
TOTAL RUN TIME: 0 days 1 hours 50 minutes 51 seconds 956 msec
