                         Program Version 4.2.0 -  RELEASE  -
|  1> ! ri-mp2 cc-pvtz cc-pvtz/c TightSCF  NoKeepInts
|  2>
|  3> %scf
|  4>   MaxCore 4096
|  5> end
|  6> *xyz  0  1
|  7>     C       14.1789516   15.0570939   16.1045865
|  8>     C       15.6423113   14.7098842   16.4245467
|  9>     O       16.4500454   15.8264379   16.0207924
| 10>     C       17.7233793   15.8778427   16.5028906
| 11>     O       18.4034077   14.8677934   16.5773814
| 12>     C       17.9106436   17.0155196   17.4598729
| 13>     C       17.3270574   18.2310332   17.3100659
| 14>     C       16.4375284   18.6898286   16.1734259
| 15>     N       17.5886422   19.2463319   18.2350278
| 16>     C       18.5113445   19.1652318   19.2449646
| 17>     S       18.8389700   20.4523751   20.2305188
| 18>     N       19.1501094   17.9599042   19.3969453
| 19>     C       18.8158152   16.7259106   18.6604974
| 20>     C       18.1631151   15.7069682   19.5908076
| 21>     C       18.7031323   14.4146829   19.7250919
| 22>     C       18.0961943   13.4687215   20.5680992
| 23>     C       16.9376339   13.8165026   21.2832727
| 24>     C       16.3940585   15.1011927   21.1490880
| 25>     O       15.2701444   15.4373972   21.8308666
| 26>     C       17.0000742   16.0403366   20.3088590
| 27>     H       13.8653876   15.9543495   16.6522885
| 28>     H       13.5170695   14.2310211   16.3918111
| 29>     H       14.0515756   15.2420324   15.0306955
| 30>     H       15.7472138   14.5326279   17.5043247
| 31>     H       15.9507459   13.8011782   15.8901571
| 32>     H       16.8166929   18.3313450   15.2082437
| 33>     H       16.3732051   19.7826622   16.1059264
| 34>     H       15.4194267   18.3004768   16.2981379
| 35>     H       17.1303441   20.1386116   18.1399335
| 36>     H       19.8030871   17.9186367   20.1689150
| 37>     H       19.7540663   16.2975138   18.2791960
| 38>     H       19.5879798   14.1371566   19.1573377
| 39>     H       18.5210834   12.4705817   20.6586994
| 40>     H       16.4646874   13.0881762   21.9336173
| 41>     H       15.0374817   14.6849286   22.3954269
| 42>     H       16.5643945   17.0297130   20.2216880
| 43> *
| 44>
| 45>                          ****END OF INPUT****

CARTESIAN COORDINATES (ANGSTROEM)
---------------------------------
  C     14.178952   15.057094   16.104586
  C     15.642311   14.709884   16.424547
  O     16.450045   15.826438   16.020792
  C     17.723379   15.877843   16.502891
  O     18.403408   14.867793   16.577381
  C     17.910644   17.015520   17.459873
  C     17.327057   18.231033   17.310066
  C     16.437528   18.689829   16.173426
  N     17.588642   19.246332   18.235028
  C     18.511344   19.165232   19.244965
  S     18.838970   20.452375   20.230519
  N     19.150109   17.959904   19.396945
  C     18.815815   16.725911   18.660497
  C     18.163115   15.706968   19.590808
  C     18.703132   14.414683   19.725092
  C     18.096194   13.468721   20.568099
  C     16.937634   13.816503   21.283273
  C     16.394058   15.101193   21.149088
  O     15.270144   15.437397   21.830867
  C     17.000074   16.040337   20.308859
  H     13.865388   15.954349   16.652289
  H     13.517069   14.231021   16.391811
  H     14.051576   15.242032   15.030695
  H     15.747214   14.532628   17.504325
  H     15.950746   13.801178   15.890157
  H     16.816693   18.331345   15.208244
  H     16.373205   19.782662   16.105926
  H     15.419427   18.300477   16.298138
  H     17.130344   20.138612   18.139934
  H     19.803087   17.918637   20.168915
  H     19.754066   16.297514   18.279196
  H     19.587980   14.137157   19.157338
  H     18.521083   12.470582   20.658699
  H     16.464687   13.088176   21.933617
  H     15.037482   14.684929   22.395427
  H     16.564394   17.029713   20.221688

 Total Charge           Charge          ....    0
 Multiplicity           Mult            ....    1
 Number of Electrons    NEL             ....  154
 Basis Dimension        Dim             ....  828

ORBITAL ENERGIES
----------------

  NO   OCC          E(Eh)            E(eV)
   0   2.0000     -91.888552     -2500.4146
   1   2.0000     -20.595473      -560.4313
   2   2.0000     -20.588800      -560.2497
   3   2.0000     -20.553517      -559.2896
   4   2.0000     -15.628163      -425.2639
   5   2.0000     -15.608053      -424.7167
   6   2.0000     -11.393913      -310.0441
   7   2.0000     -11.384023      -309.7750
   8   2.0000     -11.333088      -308.3890
   9   2.0000     -11.311619      -307.8048
  10   2.0000     -11.308313      -307.7148
  11   2.0000     -11.297990      -307.4339
  12   2.0000     -11.259902      -306.3975
  13   2.0000     -11.259679      -306.3914
  14   2.0000     -11.257063      -306.3203
  15   2.0000     -11.251623      -306.1722
  16   2.0000     -11.241328      -305.8921
  17   2.0000     -11.237245      -305.7810
  18   2.0000     -11.234389      -305.7033
  19   2.0000     -11.233133      -305.6691
  20   2.0000      -8.893630      -242.0080
  21   2.0000      -6.575209      -178.9205
  22   2.0000      -6.573199      -178.8658
  23   2.0000      -6.572615      -178.8500
  24   2.0000      -1.454439       -39.5773
  25   2.0000      -1.415254       -38.5110
  26   2.0000      -1.356835       -36.9213
  27   2.0000      -1.339310       -36.4445
  28   2.0000      -1.237587       -33.6765
  29   2.0000      -1.155732       -31.4491
  30   2.0000      -1.121107       -30.5069
  31   2.0000      -1.044807       -28.4307
  32   2.0000      -1.036284       -28.1987
  33   2.0000      -1.013145       -27.5691
  34   2.0000      -0.999009       -27.1844
  35   2.0000      -0.984675       -26.7944
  36   2.0000      -0.922945       -25.1146
  37   2.0000      -0.883760       -24.0483
  38   2.0000      -0.847622       -23.0650
  39   2.0000      -0.837801       -22.7977
  40   2.0000      -0.831676       -22.6311
  41   2.0000      -0.823294       -22.4030
  42   2.0000      -0.758349       -20.6357
  43   2.0000      -0.735987       -20.0272
  44   2.0000      -0.727748       -19.8030
  45   2.0000      -0.693556       -18.8726
  46   2.0000      -0.684745       -18.6329
  47   2.0000      -0.681632       -18.5481
  48   2.0000      -0.676207       -18.4005
  49   2.0000      -0.655879       -17.8474
  50   2.0000      -0.652919       -17.7668
  51   2.0000      -0.643688       -17.5156
  52   2.0000      -0.635710       -17.2985
  53   2.0000      -0.608625       -16.5615
  54   2.0000      -0.603971       -16.4349
  55   2.0000      -0.602392       -16.3919
  56   2.0000      -0.598947       -16.2982
  57   2.0000      -0.576796       -15.6954
  58   2.0000      -0.575282       -15.6542
  59   2.0000      -0.564882       -15.3712
  60   2.0000      -0.558458       -15.1964
  61   2.0000      -0.548516       -14.9259
  62   2.0000      -0.544648       -14.8206
  63   2.0000      -0.521106       -14.1800
  64   2.0000      -0.516023       -14.0417
  65   2.0000      -0.510567       -13.8932
  66   2.0000      -0.506884       -13.7930
  67   2.0000      -0.497780       -13.5453
  68   2.0000      -0.482508       -13.1297
  69   2.0000      -0.464971       -12.6525
  70   2.0000      -0.458791       -12.4843
  71   2.0000      -0.452806       -12.3215
  72   2.0000      -0.353955        -9.6316
  73   2.0000      -0.347480        -9.4554
  74   2.0000      -0.327875        -8.9219
  75   2.0000      -0.318677        -8.6717
  76   2.0000      -0.315412        -8.5828
  77   0.0000       0.072261         1.9663
  78   0.0000       0.106083         2.8867
  79   0.0000       0.119013         3.2385
  80   0.0000       0.132688         3.6106
  81   0.0000       0.137225         3.7341

MULLIKEN ATOMIC CHARGES
-----------------------
   0 C :   -0.279391
   1 C :    0.053116
   2 O :   -0.361766
   3 C :    0.435844
   4 O :   -0.401641
   5 C :   -0.183219
   6 C :    0.136502
   7 C :   -0.282903
   8 N :   -0.124908
   9 C :    0.203852
  10 S :   -0.440134
  11 N :   -0.200868
  12 C :    0.055508
  13 C :    0.042871
  14 C :   -0.157302
  15 C :   -0.133463
  16 C :   -0.280866
  17 C :    0.312738
  18 O :   -0.359128
  19 C :   -0.279887
  20 H :    0.091602
  21 H :    0.100602
  22 H :    0.099093
  23 H :    0.093180
  24 H :    0.105489
  25 H :    0.123875
  26 H :    0.105010
  27 H :    0.125424
  28 H :    0.197202
  29 H :    0.194241
  30 H :    0.154682
  31 H :    0.155310
  32 H :    0.160605
  33 H :    0.130453
  34 H :    0.240748
  35 H :    0.167534
Sum of atomic charges:   -0.0000000

LOEWDIN ATOMIC CHARGES
----------------------
   0 C :    0.108257
   1 C :   -0.017932
   2 O :    0.294515
   3 C :   -0.416745
   4 O :    0.124296
   5 C :   -0.093310
   6 C :   -0.074017
   7 C :    0.126214
   8 N :    0.404041
   9 C :   -0.457390
  10 S :   -0.036596
  11 N :    0.397128
  12 C :   -0.045323
  13 C :   -0.040565
  14 C :    0.021813
  15 C :    0.041762
  16 C :   -0.002392
  17 C :   -0.194299
  18 O :    0.393406
  19 C :    0.027534
  20 H :   -0.029501
  21 H :   -0.023024
  22 H :   -0.026495
  23 H :   -0.027485
  24 H :   -0.028222
  25 H :   -0.008063
  26 H :   -0.019634
  27 H :   -0.010694
  28 H :   -0.058799
  29 H :   -0.064056
  30 H :   -0.004725
  31 H :   -0.024732
  32 H :   -0.020416
  33 H :   -0.035747
  34 H :   -0.154226
  35 H :   -0.024576

  Mayer bond orders larger than 0.100000
B(  0-C ,  1-C ) :   0.9718 B(  0-C , 20-H ) :   0.9782 B(  0-C , 21-H ) :   0.9779
B(  0-C , 22-H ) :   0.9771 B(  1-C ,  2-O ) :   0.9007 B(  1-C , 23-H ) :   0.9682
B(  1-C , 24-H ) :   0.9819 B(  2-O ,  3-C ) :   1.1012 B(  3-C ,  4-O ) :   2.0186
B(  3-C ,  5-C ) :   1.0305 B(  5-C ,  6-C ) :   1.6672 B(  5-C , 12-C ) :   0.9641
B(  6-C ,  7-C ) :   0.9519 B(  6-C ,  8-N ) :   1.1380 B(  7-C , 25-H ) :   0.9703
B(  7-C , 26-H ) :   0.9887 B(  7-C , 27-H ) :   0.9626 B(  8-N ,  9-C ) :   1.1844
B(  8-N , 28-H ) :   0.9498 B(  9-C , 10-S ) :   1.6102 B(  9-C , 11-N ) :   1.3004
B( 11-N , 12-C ) :   0.9926 B( 11-N , 29-H ) :   0.9517 B( 12-C , 13-C ) :   0.9446
B( 12-C , 30-H ) :   0.9984 B( 13-C , 14-C ) :   1.3775 B( 13-C , 19-C ) :   1.3686
B( 14-C , 15-C ) :   1.3946 B( 14-C , 31-H ) :   0.9641 B( 15-C , 16-C ) :   1.3635
B( 15-C , 32-H ) :   0.9711 B( 16-C , 17-C ) :   1.3303 B( 16-C , 33-H ) :   0.9851
B( 17-C , 18-O ) :   1.1095 B( 17-C , 19-C ) :   1.3750 B( 18-O , 34-H ) :   0.9799
B( 19-C , 35-H ) :   0.9582

MP2 TOTAL ENERGY:    -1274.329570120 Eh
FINAL SINGLE POINT ENERGY     -1274.329570119523

DIPOLE MOMENT
-------------
                                X             Y             Z
Electronic contribution:     11.92079       8.43136       8.03470
Nuclear contribution   :    -13.26352      -9.74834      -8.70626
                        -----------------------------------------
Total Dipole Moment    :     -1.34273      -1.31697      -0.67156
                        -----------------------------------------
Magnitude (a.u.)       :      1.99708
Magnitude (Debye)      :      5.07618

Rotational constants in cm-1:     0.011162     0.009170     0.006536
Rotational constants in MHz :   334.638096   274.917007   195.944352

                             ****ORCA TERMINATED NORMALLY****
TOTAL RUN TIME: 0 days 1 hours 48 minutes 8 seconds 520 msec
