                         Program Version 4.2.0 -  RELEASE  -
|  1> ! ri-mp2 cc-pvtz cc-pvtz/c TightSCF  NoKeepInts
|  2>
|  3> %scf
|  4>   MaxCore 4096
|  5> end
|  6> *xyz  0  1
|  7>     C       15.1399542   14.8273149   16.9924314
|  8>     C       16.4076056   14.0391337   16.5870017
|  9>     O       17.5891689   14.8648424   16.4388000
| 10>     C       17.5035341   16.1893676   16.1203018
| 11>     O       16.9441190   16.5424453   15.0970170
| 12>     C       17.7815161   17.0963730   17.2897455
| 13>     C       17.4538093   18.4140802   17.2831004
| 14>     C       16.6947546   19.1681415   16.2123910
| 15>     N       17.8770384   19.2442357   18.3261256
| 16>     C       18.7965586   18.8879646   19.2772325
| 17>     S       19.3931585   19.9756148   20.3709976
| 18>     N       19.2035657   17.5776075   19.2697107
| 19>     C       18.5691014   16.5093828   18.4750990
| 20>     C       17.7181438   15.6370526   19.3939045
| 21>     C       18.0262926   14.2743556   19.5667090
| 22>     C       17.2518544   13.4672536   20.4168963
| 23>     C       16.1647726   14.0285561   21.1080005
| 24>     C       15.8635870   15.3881979   20.9507654
| 25>     O       14.8154024   15.9337244   21.6171524
| 26>     C       16.6358987   16.1887125   20.1035726
| 27>     H       15.3075267   15.4272529   17.8915854
| 28>     H       14.3187680   14.1322967   17.2046614
| 29>     H       14.8070073   15.4912975   16.1850621
| 30>     H       16.6056814   13.2561224   17.3298409
| 31>     H       16.2055622   13.5393472   15.6305760
| 32>     H       17.2605404   19.1753710   15.2719114
| 33>     H       16.4891822   20.2097596   16.4853384
| 34>     H       15.7305777   18.6846920   16.0098884
| 35>     H       17.5970299   20.2120714   18.3361371
| 36>     H       19.8618494   17.3362292   19.9993623
| 37>     H       19.3744483   15.8865077   18.0608705
| 38>     H       18.8654419   13.8367619   19.0320816
| 39>     H       17.4965517   12.4135628   20.5403077
| 40>     H       15.5638433   13.4096007   21.7662523
| 41>     H       14.4440816   15.2468347   22.1910612
| 42>     H       16.3890722   17.2399361   20.0021081
| 43> *
| 44>
| 45>                          ****END OF INPUT****

CARTESIAN COORDINATES (ANGSTROEM)
---------------------------------
  C     15.139954   14.827315   16.992431
  C     16.407606   14.039134   16.587002
  O     17.589169   14.864842   16.438800
  C     17.503534   16.189368   16.120302
  O     16.944119   16.542445   15.097017
  C     17.781516   17.096373   17.289745
  C     17.453809   18.414080   17.283100
  C     16.694755   19.168141   16.212391
  N     17.877038   19.244236   18.326126
  C     18.796559   18.887965   19.277233
  S     19.393158   19.975615   20.370998
  N     19.203566   17.577607   19.269711
  C     18.569101   16.509383   18.475099
  C     17.718144   15.637053   19.393905
  C     18.026293   14.274356   19.566709
  C     17.251854   13.467254   20.416896
  C     16.164773   14.028556   21.108000
  C     15.863587   15.388198   20.950765
  O     14.815402   15.933724   21.617152
  C     16.635899   16.188713   20.103573
  H     15.307527   15.427253   17.891585
  H     14.318768   14.132297   17.204661
  H     14.807007   15.491297   16.185062
  H     16.605681   13.256122   17.329841
  H     16.205562   13.539347   15.630576
  H     17.260540   19.175371   15.271911
  H     16.489182   20.209760   16.485338
  H     15.730578   18.684692   16.009888
  H     17.597030   20.212071   18.336137
  H     19.861849   17.336229   19.999362
  H     19.374448   15.886508   18.060871
  H     18.865442   13.836762   19.032082
  H     17.496552   12.413563   20.540308
  H     15.563843   13.409601   21.766252
  H     14.444082   15.246835   22.191061
  H     16.389072   17.239936   20.002108

 Total Charge           Charge          ....    0
 Multiplicity           Mult            ....    1
 Number of Electrons    NEL             ....  154
 Basis Dimension        Dim             ....  828

ORBITAL ENERGIES
----------------

  NO   OCC          E(Eh)            E(eV)
   0   2.0000     -91.890944     -2500.4797
   1   2.0000     -20.599936      -560.5528
   2   2.0000     -20.581969      -560.0638
   3   2.0000     -20.546895      -559.1094
   4   2.0000     -15.631132      -425.3447
   5   2.0000     -15.609539      -424.7571
   6   2.0000     -11.393986      -310.0461
   7   2.0000     -11.385464      -309.8142
   8   2.0000     -11.337239      -308.5020
   9   2.0000     -11.317385      -307.9617
  10   2.0000     -11.311758      -307.8086
  11   2.0000     -11.299478      -307.4744
  12   2.0000     -11.262942      -306.4802
  13   2.0000     -11.259784      -306.3943
  14   2.0000     -11.259044      -306.3742
  15   2.0000     -11.253491      -306.2231
  16   2.0000     -11.247003      -306.0465
  17   2.0000     -11.241650      -305.9008
  18   2.0000     -11.241505      -305.8969
  19   2.0000     -11.223705      -305.4125
  20   2.0000      -8.895965      -242.0715
  21   2.0000      -6.577529      -178.9837
  22   2.0000      -6.575537      -178.9294
  23   2.0000      -6.574939      -178.9132
  24   2.0000      -1.444809       -39.3152
  25   2.0000      -1.419671       -38.6312
  26   2.0000      -1.350359       -36.7451
  27   2.0000      -1.342114       -36.5208
  28   2.0000      -1.240299       -33.7503
  29   2.0000      -1.160562       -31.5805
  30   2.0000      -1.121114       -30.5071
  31   2.0000      -1.045084       -28.4382
  32   2.0000      -1.031107       -28.0579
  33   2.0000      -1.019052       -27.7298
  34   2.0000      -0.998524       -27.1712
  35   2.0000      -0.986502       -26.8441
  36   2.0000      -0.924841       -25.1662
  37   2.0000      -0.896712       -24.4008
  38   2.0000      -0.848597       -23.0915
  39   2.0000      -0.842529       -22.9264
  40   2.0000      -0.837796       -22.7976
  41   2.0000      -0.817904       -22.2563
  42   2.0000      -0.745520       -20.2866
  43   2.0000      -0.734390       -19.9838
  44   2.0000      -0.721827       -19.6419
  45   2.0000      -0.699155       -19.0250
  46   2.0000      -0.691450       -18.8153
  47   2.0000      -0.673392       -18.3239
  48   2.0000      -0.670278       -18.2392
  49   2.0000      -0.661933       -18.0121
  50   2.0000      -0.652241       -17.7484
  51   2.0000      -0.644201       -17.5296
  52   2.0000      -0.636478       -17.3194
  53   2.0000      -0.625164       -17.0116
  54   2.0000      -0.610211       -16.6047
  55   2.0000      -0.602769       -16.4022
  56   2.0000      -0.600647       -16.3444
  57   2.0000      -0.580481       -15.7957
  58   2.0000      -0.571982       -15.5644
  59   2.0000      -0.565476       -15.3874
  60   2.0000      -0.547495       -14.8981
  61   2.0000      -0.544373       -14.8131
  62   2.0000      -0.533876       -14.5275
  63   2.0000      -0.530851       -14.4452
  64   2.0000      -0.527728       -14.3602
  65   2.0000      -0.515826       -14.0363
  66   2.0000      -0.503924       -13.7125
  67   2.0000      -0.497334       -13.5332
  68   2.0000      -0.482022       -13.1165
  69   2.0000      -0.463465       -12.6115
  70   2.0000      -0.455005       -12.3813
  71   2.0000      -0.443173       -12.0594
  72   2.0000      -0.356859        -9.7106
  73   2.0000      -0.351846        -9.5742
  74   2.0000      -0.330223        -8.9858
  75   2.0000      -0.325490        -8.8570
  76   2.0000      -0.317875        -8.6498
  77   0.0000       0.068627         1.8674
  78   0.0000       0.102493         2.7890
  79   0.0000       0.121796         3.3142
  80   0.0000       0.129187         3.5154
  81   0.0000       0.134083         3.6486

MULLIKEN ATOMIC CHARGES
-----------------------
   0 C :   -0.336418
   1 C :    0.036980
   2 O :   -0.397906
   3 C :    0.513645
   4 O :   -0.417413
   5 C :   -0.250116
   6 C :    0.148880
   7 C :   -0.271557
   8 N :   -0.123242
   9 C :    0.200985
  10 S :   -0.434000
  11 N :   -0.195142
  12 C :    0.041579
  13 C :    0.062370
  14 C :   -0.201273
  15 C :   -0.127768
  16 C :   -0.276269
  17 C :    0.316512
  18 O :   -0.358161
  19 C :   -0.277911
  20 H :    0.110952
  21 H :    0.108609
  22 H :    0.121346
  23 H :    0.112450
  24 H :    0.120648
  25 H :    0.135570
  26 H :    0.094841
  27 H :    0.128717
  28 H :    0.198360
  29 H :    0.191804
  30 H :    0.151982
  31 H :    0.160000
  32 H :    0.165747
  33 H :    0.133092
  34 H :    0.240996
  35 H :    0.171108
Sum of atomic charges:   -0.0000000

LOEWDIN ATOMIC CHARGES
----------------------
   0 C :    0.107042
   1 C :   -0.010217
   2 O :    0.280609
   3 C :   -0.420777
   4 O :    0.116014
   5 C :   -0.097909
   6 C :   -0.058756
   7 C :    0.131145
   8 N :    0.406761
   9 C :   -0.458512
  10 S :   -0.031804
  11 N :    0.396562
  12 C :   -0.052295
  13 C :   -0.039176
  14 C :    0.017870
  15 C :    0.039597
  16 C :   -0.001577
  17 C :   -0.190795
  18 O :    0.396454
  19 C :    0.032169
  20 H :   -0.032906
  21 H :   -0.023151
  22 H :   -0.027436
  23 H :   -0.027762
  24 H :   -0.028340
  25 H :   -0.003021
  26 H :   -0.023218
  27 H :   -0.006031
  28 H :   -0.057630
  29 H :   -0.064911
  30 H :   -0.006836
  31 H :   -0.028174
  32 H :   -0.020644
  33 H :   -0.034786
  34 H :   -0.153192
  35 H :   -0.024366

  Mayer bond orders larger than 0.100000
B(  0-C ,  1-C ) :   0.9556 B(  0-C , 20-H ) :   0.9689 B(  0-C , 21-H ) :   0.9773
B(  0-C , 22-H ) :   0.9728 B(  1-C ,  2-O ) :   0.8806 B(  1-C , 23-H ) :   0.9766
B(  1-C , 24-H ) :   0.9866 B(  2-O ,  3-C ) :   1.1023 B(  3-C ,  4-O ) :   2.0044
B(  3-C ,  5-C ) :   1.0568 B(  5-C ,  6-C ) :   1.6556 B(  5-C , 12-C ) :   0.9673
B(  6-C ,  7-C ) :   0.9690 B(  6-C ,  8-N ) :   1.1493 B(  7-C , 25-H ) :   0.9574
B(  7-C , 26-H ) :   0.9890 B(  7-C , 27-H ) :   0.9642 B(  8-N ,  9-C ) :   1.1783
B(  8-N , 28-H ) :   0.9484 B(  9-C , 10-S ) :   1.6184 B(  9-C , 11-N ) :   1.2997
B( 11-N , 12-C ) :   0.9868 B( 11-N , 29-H ) :   0.9536 B( 12-C , 13-C ) :   0.9404
B( 12-C , 30-H ) :   1.0031 B( 13-C , 14-C ) :   1.3511 B( 13-C , 19-C ) :   1.3681
B( 14-C , 15-C ) :   1.3815 B( 14-C , 31-H ) :   0.9700 B( 15-C , 16-C ) :   1.3668
B( 15-C , 32-H ) :   0.9692 B( 16-C , 17-C ) :   1.3285 B( 16-C , 33-H ) :   0.9836
B( 17-C , 18-O ) :   1.1122 B( 17-C , 19-C ) :   1.3743 B( 18-O , 34-H ) :   0.9797
B( 19-C , 35-H ) :   0.9588

MP2 TOTAL ENERGY:    -1274.330493745 Eh
FINAL SINGLE POINT ENERGY     -1274.330493745372

DIPOLE MOMENT
-------------
                                X             Y             Z
Electronic contribution:     10.06011       8.48510       5.81552
Nuclear contribution   :    -11.16065     -10.10260      -5.75000
                        -----------------------------------------
Total Dipole Moment    :     -1.10053      -1.61750       0.06552
                        -----------------------------------------
Magnitude (a.u.)       :      1.95749
Magnitude (Debye)      :      4.97555

Rotational constants in cm-1:     0.012041     0.009622     0.006631
Rotational constants in MHz :   360.967418   288.461734   198.802779

                             ****ORCA TERMINATED NORMALLY****
TOTAL RUN TIME: 0 days 2 hours 41 minutes 35 seconds 150 msec
