                         Program Version 5.0.0 -  RELEASE  -
|  1> ! ri-mp2 cc-pvtz cc-pvtz/c TightSCF NoKeepInts
|  2>
|  3> %scf
|  4>   MaxCore 4096
|  5> end
|  6> *xyz  0  1
|  7>     C       14.5173320   14.6049647   15.3455121
|  8>     C       15.6915507   14.4356256   16.3238856
|  9>     O       16.6086096   15.5153758   16.0870130
| 10>     C       17.7807411   15.5225917   16.7836367
| 11>     O       18.3359515   14.4835598   17.1011490
| 12>     C       17.9931866   16.7942985   17.5503961
| 13>     C       17.5411394   18.0111826   17.1524304
| 14>     C       16.7824534   18.3475614   15.8851578
| 15>     N       17.8360203   19.1453920   17.9155536
| 16>     C       18.6855850   19.1664175   18.9903156
| 17>     S       19.0757844   20.5745752   19.7651292
| 18>     N       19.1967969   17.9574657   19.3902397
| 19>     C       18.7820837   16.6465907   18.8555482
| 20>     C       17.9720726   15.8773811   19.8959435
| 21>     C       18.3629362   14.5845269   20.2905189
| 22>     C       17.6164044   13.8692473   21.2418236
| 23>     C       16.4675531   14.4507649   21.8045120
| 24>     C       16.0723783   15.7365815   21.4114140
| 25>     O       14.9593086   16.2980102   21.9472380
| 26>     C       16.8170734   16.4457434   20.4638317
| 27>     H       14.8722544   14.5768341   14.3077200
| 28>     H       14.0085071   15.5622198   15.5131770
| 29>     H       13.7860046   13.7987160   15.4801048
| 30>     H       15.3317745   14.4595740   17.3614809
| 31>     H       16.1808509   13.4681770   16.1449538
| 32>     H       17.2227539   17.8392302   15.0182123
| 33>     H       16.7884087   19.4216142   15.6631411
| 34>     H       15.7356593   18.0288069   15.9651898
| 35>     H       17.4709941   20.0423522   17.6374477
| 36>     H       19.7961090   17.9970449   20.2046326
| 37>     H       19.6935671   16.0727814   18.6338438
| 38>     H       19.2410321   14.1253691   19.8428495
| 39>     H       17.9267074   12.8676253   21.5340226
| 40>     H       15.8872436   13.9011067   22.5380713
| 41>     H       14.6149077   15.6818323   22.6110298
| 42>     H       16.4952648   17.4408593   20.1768744
| 43> *
| 44>
| 45>                          ****END OF INPUT****

CARTESIAN COORDINATES (ANGSTROEM)
---------------------------------
  C     14.517332   14.604965   15.345512
  C     15.691551   14.435626   16.323886
  O     16.608610   15.515376   16.087013
  C     17.780741   15.522592   16.783637
  O     18.335952   14.483560   17.101149
  C     17.993187   16.794299   17.550396
  C     17.541139   18.011183   17.152430
  C     16.782453   18.347561   15.885158
  N     17.836020   19.145392   17.915554
  C     18.685585   19.166417   18.990316
  S     19.075784   20.574575   19.765129
  N     19.196797   17.957466   19.390240
  C     18.782084   16.646591   18.855548
  C     17.972073   15.877381   19.895943
  C     18.362936   14.584527   20.290519
  C     17.616404   13.869247   21.241824
  C     16.467553   14.450765   21.804512
  C     16.072378   15.736581   21.411414
  O     14.959309   16.298010   21.947238
  C     16.817073   16.445743   20.463832
  H     14.872254   14.576834   14.307720
  H     14.008507   15.562220   15.513177
  H     13.786005   13.798716   15.480105
  H     15.331774   14.459574   17.361481
  H     16.180851   13.468177   16.144954
  H     17.222754   17.839230   15.018212
  H     16.788409   19.421614   15.663141
  H     15.735659   18.028807   15.965190
  H     17.470994   20.042352   17.637448
  H     19.796109   17.997045   20.204633
  H     19.693567   16.072781   18.633844
  H     19.241032   14.125369   19.842849
  H     17.926707   12.867625   21.534023
  H     15.887244   13.901107   22.538071
  H     14.614908   15.681832   22.611030
  H     16.495265   17.440859   20.176874

 Total Charge           Charge          ....    0
 Multiplicity           Mult            ....    1
 Number of Electrons    NEL             ....  154
 Basis Dimension        Dim             ....  828

ORBITAL ENERGIES
----------------

  NO   OCC          E(Eh)            E(eV)
   0   2.0000     -91.888293     -2500.4076
   1   2.0000     -20.593903      -560.3886
   2   2.0000     -20.593641      -560.3815
   3   2.0000     -20.550897      -559.2183
   4   2.0000     -15.628242      -425.2661
   5   2.0000     -15.607364      -424.6980
   6   2.0000     -11.394614      -310.0632
   7   2.0000     -11.383504      -309.7609
   8   2.0000     -11.334346      -308.4232
   9   2.0000     -11.309598      -307.7498
  10   2.0000     -11.307071      -307.6810
  11   2.0000     -11.298300      -307.4424
  12   2.0000     -11.259989      -306.3999
  13   2.0000     -11.259535      -306.3875
  14   2.0000     -11.255294      -306.2721
  15   2.0000     -11.249637      -306.1182
  16   2.0000     -11.239321      -305.8375
  17   2.0000     -11.235360      -305.7297
  18   2.0000     -11.233531      -305.6799
  19   2.0000     -11.232412      -305.6495
  20   2.0000      -8.893362      -242.0007
  21   2.0000      -6.574940      -178.9132
  22   2.0000      -6.572932      -178.8586
  23   2.0000      -6.572347      -178.8427
  24   2.0000      -1.454509       -39.5792
  25   2.0000      -1.413395       -38.4604
  26   2.0000      -1.357208       -36.9315
  27   2.0000      -1.339260       -36.4431
  28   2.0000      -1.237226       -33.6666
  29   2.0000      -1.153890       -31.3989
  30   2.0000      -1.120349       -30.4863
  31   2.0000      -1.044323       -28.4175
  32   2.0000      -1.036750       -28.2114
  33   2.0000      -1.011301       -27.5189
  34   2.0000      -0.998268       -27.1643
  35   2.0000      -0.983897       -26.7732
  36   2.0000      -0.921988       -25.0886
  37   2.0000      -0.885016       -24.0825
  38   2.0000      -0.847314       -23.0566
  39   2.0000      -0.836501       -22.7624
  40   2.0000      -0.829781       -22.5795
  41   2.0000      -0.821511       -22.3545
  42   2.0000      -0.759545       -20.6683
  43   2.0000      -0.735948       -20.0262
  44   2.0000      -0.726404       -19.7664
  45   2.0000      -0.691884       -18.8271
  46   2.0000      -0.684560       -18.6278
  47   2.0000      -0.681105       -18.5338
  48   2.0000      -0.675702       -18.3868
  49   2.0000      -0.654780       -17.8175
  50   2.0000      -0.652020       -17.7424
  51   2.0000      -0.643144       -17.5008
  52   2.0000      -0.634615       -17.2687
  53   2.0000      -0.610365       -16.6089
  54   2.0000      -0.602114       -16.3844
  55   2.0000      -0.601533       -16.3685
  56   2.0000      -0.597033       -16.2461
  57   2.0000      -0.576664       -15.6918
  58   2.0000      -0.574772       -15.6403
  59   2.0000      -0.563284       -15.3277
  60   2.0000      -0.560071       -15.2403
  61   2.0000      -0.545818       -14.8525
  62   2.0000      -0.542709       -14.7679
  63   2.0000      -0.522517       -14.2184
  64   2.0000      -0.518823       -14.1179
  65   2.0000      -0.510275       -13.8853
  66   2.0000      -0.504388       -13.7251
  67   2.0000      -0.496562       -13.5121
  68   2.0000      -0.481813       -13.1108
  69   2.0000      -0.464160       -12.6304
  70   2.0000      -0.460736       -12.5373
  71   2.0000      -0.451843       -12.2953
  72   2.0000      -0.353954        -9.6316
  73   2.0000      -0.345703        -9.4071
  74   2.0000      -0.327511        -8.9120
  75   2.0000      -0.316729        -8.6186
  76   2.0000      -0.315047        -8.5729
  77   0.0000       0.073435         1.9983
  78   0.0000       0.109010         2.9663
  79   0.0000       0.119792         3.2597
  80   0.0000       0.134312         3.6548
  81   0.0000       0.137848         3.7510

MULLIKEN ATOMIC CHARGES
-----------------------
   0 C :   -0.272014
   1 C :    0.045379
   2 O :   -0.355828
   3 C :    0.444522
   4 O :   -0.409859
   5 C :   -0.182562
   6 C :    0.139668
   7 C :   -0.285100
   8 N :   -0.124038
   9 C :    0.202729
  10 S :   -0.439839
  11 N :   -0.199403
  12 C :    0.046162
  13 C :    0.052340
  14 C :   -0.161570
  15 C :   -0.132958
  16 C :   -0.280592
  17 C :    0.311655
  18 O :   -0.358879
  19 C :   -0.276455
  20 H :    0.098921
  21 H :    0.090348
  22 H :    0.096682
  23 H :    0.091555
  24 H :    0.108787
  25 H :    0.125098
  26 H :    0.104053
  27 H :    0.125958
  28 H :    0.197101
  29 H :    0.193980
  30 H :    0.154349
  31 H :    0.154321
  32 H :    0.159834
  33 H :    0.129132
  34 H :    0.240396
  35 H :    0.166126
Sum of atomic charges:   -0.0000000

LOEWDIN ATOMIC CHARGES
----------------------
   0 C :    0.107846
   1 C :   -0.017442
   2 O :    0.298288
   3 C :   -0.414447
   4 O :    0.117407
   5 C :   -0.092596
   6 C :   -0.070804
   7 C :    0.125599
   8 N :    0.404359
   9 C :   -0.458029
  10 S :   -0.036395
  11 N :    0.397370
  12 C :   -0.045756
  13 C :   -0.039505
  14 C :    0.021848
  15 C :    0.041285
  16 C :   -0.002450
  17 C :   -0.193531
  18 O :    0.393099
  19 C :    0.027862
  20 H :   -0.025614
  21 H :   -0.030147
  22 H :   -0.023534
  23 H :   -0.029499
  24 H :   -0.027368
  25 H :   -0.008169
  26 H :   -0.020136
  27 H :   -0.010558
  28 H :   -0.058900
  29 H :   -0.063921
  30 H :   -0.004763
  31 H :   -0.025044
  32 H :   -0.020857
  33 H :   -0.036124
  34 H :   -0.154595
  35 H :   -0.024779

  Mayer bond orders larger than 0.100000
B(  0-C ,  1-C ) :   0.9728 B(  0-C , 20-H ) :   0.9772 B(  0-C , 21-H ) :   0.9789
B(  0-C , 22-H ) :   0.9775 B(  1-C ,  2-O ) :   0.9003 B(  1-C , 23-H ) :   0.9714
B(  1-C , 24-H ) :   0.9788 B(  2-O ,  3-C ) :   1.1148 B(  3-C ,  4-O ) :   2.0088
B(  3-C ,  5-C ) :   1.0377 B(  5-C ,  6-C ) :   1.6600 B(  5-C , 12-C ) :   0.9652
B(  6-C ,  7-C ) :   0.9525 B(  6-C ,  8-N ) :   1.1402 B(  7-C , 25-H ) :   0.9688
B(  7-C , 26-H ) :   0.9899 B(  7-C , 27-H ) :   0.9627 B(  8-N ,  9-C ) :   1.1823
B(  8-N , 28-H ) :   0.9495 B(  9-C , 10-S ) :   1.6103 B(  9-C , 11-N ) :   1.3019
B( 11-N , 12-C ) :   0.9914 B( 11-N , 29-H ) :   0.9518 B( 12-C , 13-C ) :   0.9464
B( 12-C , 30-H ) :   0.9989 B( 13-C , 14-C ) :   1.3771 B( 13-C , 19-C ) :   1.3681
B( 14-C , 15-C ) :   1.3948 B( 14-C , 31-H ) :   0.9645 B( 15-C , 16-C ) :   1.3631
B( 15-C , 32-H ) :   0.9712 B( 16-C , 17-C ) :   1.3311 B( 16-C , 33-H ) :   0.9856
B( 17-C , 18-O ) :   1.1087 B( 17-C , 19-C ) :   1.3773 B( 18-O , 34-H ) :   0.9803
B( 19-C , 35-H ) :   0.9582

MP2 TOTAL ENERGY:    -1274.335336911 Eh
FINAL SINGLE POINT ENERGY     -1274.335336910515

DIPOLE MOMENT
-------------
                                X             Y             Z
Electronic contribution:     11.40921       9.53422       9.68241
Nuclear contribution   :    -12.82810     -10.88732     -10.42687
                        -----------------------------------------
Total Dipole Moment    :     -1.41889      -1.35310      -0.74445
                        -----------------------------------------
Magnitude (a.u.)       :      2.09722
Magnitude (Debye)      :      5.33072

Rotational constants in cm-1:     0.010622     0.009139     0.006197
Rotational constants in MHz :   318.436436   273.989178   185.791537

                             ****ORCA TERMINATED NORMALLY****
TOTAL RUN TIME: 0 days 2 hours 2 minutes 46 seconds 157 msec
