                         Program Version 4.2.0 -  RELEASE  -
|  1> ! ri-mp2 cc-pvtz cc-pvtz/c TightSCF  NoKeepInts
|  2>
|  3> %scf
|  4>   MaxCore 4096
|  5> end
|  6> *xyz  0  1
|  7>     C       14.1709741   14.9777072   15.9215882
|  8>     C       15.5911760   14.7319321   16.4573019
|  9>     O       16.4055662   15.8414317   16.0478059
| 10>     C       17.6832922   15.8826307   16.5194776
| 11>     O       18.3580903   14.8685156   16.5854224
| 12>     C       17.8903435   17.0195927   17.4736253
| 13>     C       17.3090941   18.2376552   17.3345598
| 14>     C       16.4009006   18.7010756   16.2146207
| 15>     N       17.5920283   19.2518546   18.2544912
| 16>     C       18.5346415   19.1678686   19.2455962
| 17>     S       18.8870296   20.4542920   20.2235138
| 18>     N       19.1717522   17.9602254   19.3852339
| 19>     C       18.8165333   16.7269059   18.6575342
| 20>     C       18.1768590   15.7130126   19.6023573
| 21>     C       18.7111895   14.4173284   19.7263796
| 22>     C       18.1168976   13.4763620   20.5838634
| 23>     C       16.9768682   13.8326456   21.3241788
| 24>     C       16.4389381   15.1207499   21.2004033
| 25>     O       15.3328291   15.4652438   21.9067224
| 26>     C       17.0322552   16.0548838   20.3456263
| 27>     H       13.7578335   15.9074434   16.3317090
| 28>     H       13.5060848   14.1523874   16.2039800
| 29>     H       14.1788493   15.0533288   14.8270725
| 30>     H       15.5695593   14.6577549   17.5534893
| 31>     H       15.9908908   13.7926177   16.0511700
| 32>     H       16.7637850   18.3459213   15.2419662
| 33>     H       16.3359034   19.7941645   16.1520655
| 34>     H       15.3847796   18.3118110   16.3549739
| 35>     H       17.1353316   20.1458414   18.1681468
| 36>     H       19.8401689   17.9168274   20.1437587
| 37>     H       19.7450593   16.2928307   18.2592181
| 38>     H       19.5814992   14.1333473   19.1396538
| 39>     H       18.5371298   12.4755518   20.6663187
| 40>     H       16.5137293   13.1082411   21.9858604
| 41>     H       15.1077426   14.7149256   22.4771839
| 42>     H       16.6013948   17.0470922   20.2671309
| 43> *
| 44>
| 45>                          ****END OF INPUT****

CARTESIAN COORDINATES (ANGSTROEM)
---------------------------------
  C     14.170974   14.977707   15.921588
  C     15.591176   14.731932   16.457302
  O     16.405566   15.841432   16.047806
  C     17.683292   15.882631   16.519478
  O     18.358090   14.868516   16.585422
  C     17.890344   17.019593   17.473625
  C     17.309094   18.237655   17.334560
  C     16.400901   18.701076   16.214621
  N     17.592028   19.251855   18.254491
  C     18.534641   19.167869   19.245596
  S     18.887030   20.454292   20.223514
  N     19.171752   17.960225   19.385234
  C     18.816533   16.726906   18.657534
  C     18.176859   15.713013   19.602357
  C     18.711189   14.417328   19.726380
  C     18.116898   13.476362   20.583863
  C     16.976868   13.832646   21.324179
  C     16.438938   15.120750   21.200403
  O     15.332829   15.465244   21.906722
  C     17.032255   16.054884   20.345626
  H     13.757833   15.907443   16.331709
  H     13.506085   14.152387   16.203980
  H     14.178849   15.053329   14.827072
  H     15.569559   14.657755   17.553489
  H     15.990891   13.792618   16.051170
  H     16.763785   18.345921   15.241966
  H     16.335903   19.794165   16.152065
  H     15.384780   18.311811   16.354974
  H     17.135332   20.145841   18.168147
  H     19.840169   17.916827   20.143759
  H     19.745059   16.292831   18.259218
  H     19.581499   14.133347   19.139654
  H     18.537130   12.475552   20.666319
  H     16.513729   13.108241   21.985860
  H     15.107743   14.714926   22.477184
  H     16.601395   17.047092   20.267131

 Total Charge           Charge          ....    0
 Multiplicity           Mult            ....    1
 Number of Electrons    NEL             ....  154
 Basis Dimension        Dim             ....  828

ORBITAL ENERGIES
----------------

  NO   OCC          E(Eh)            E(eV)
   0   2.0000     -91.888549     -2500.4145
   1   2.0000     -20.595214      -560.4243
   2   2.0000     -20.588993      -560.2550
   3   2.0000     -20.553490      -559.2889
   4   2.0000     -15.628236      -425.2659
   5   2.0000     -15.607969      -424.7144
   6   2.0000     -11.394041      -310.0476
   7   2.0000     -11.383985      -309.7740
   8   2.0000     -11.333335      -308.3957
   9   2.0000     -11.311320      -307.7967
  10   2.0000     -11.308129      -307.7098
  11   2.0000     -11.297821      -307.4293
  12   2.0000     -11.259947      -306.3987
  13   2.0000     -11.259680      -306.3915
  14   2.0000     -11.256801      -306.3131
  15   2.0000     -11.251313      -306.1638
  16   2.0000     -11.241008      -305.8834
  17   2.0000     -11.236956      -305.7731
  18   2.0000     -11.234087      -305.6950
  19   2.0000     -11.233011      -305.6658
  20   2.0000      -8.893625      -242.0078
  21   2.0000      -6.575204      -178.9204
  22   2.0000      -6.573194      -178.8657
  23   2.0000      -6.572610      -178.8498
  24   2.0000      -1.454401       -39.5763
  25   2.0000      -1.414995       -38.5040
  26   2.0000      -1.356979       -36.9253
  27   2.0000      -1.339341       -36.4453
  28   2.0000      -1.237559       -33.6757
  29   2.0000      -1.155443       -31.4412
  30   2.0000      -1.121002       -30.5040
  31   2.0000      -1.044676       -28.4271
  32   2.0000      -1.036256       -28.1980
  33   2.0000      -1.012868       -27.5615
  34   2.0000      -0.998897       -27.1814
  35   2.0000      -0.984530       -26.7904
  36   2.0000      -0.922813       -25.1110
  37   2.0000      -0.883347       -24.0371
  38   2.0000      -0.847668       -23.0662
  39   2.0000      -0.837691       -22.7947
  40   2.0000      -0.831395       -22.6234
  41   2.0000      -0.823540       -22.4097
  42   2.0000      -0.758371       -20.6363
  43   2.0000      -0.735986       -20.0272
  44   2.0000      -0.727593       -19.7988
  45   2.0000      -0.693269       -18.8648
  46   2.0000      -0.684978       -18.6392
  47   2.0000      -0.681439       -18.5429
  48   2.0000      -0.675871       -18.3914
  49   2.0000      -0.655165       -17.8280
  50   2.0000      -0.652347       -17.7513
  51   2.0000      -0.643175       -17.5017
  52   2.0000      -0.635106       -17.2821
  53   2.0000      -0.611802       -16.6480
  54   2.0000      -0.603714       -16.4279
  55   2.0000      -0.602370       -16.3913
  56   2.0000      -0.598679       -16.2909
  57   2.0000      -0.576887       -15.6979
  58   2.0000      -0.575369       -15.6566
  59   2.0000      -0.564161       -15.3516
  60   2.0000      -0.558616       -15.2007
  61   2.0000      -0.546199       -14.8628
  62   2.0000      -0.543470       -14.7886
  63   2.0000      -0.521113       -14.1802
  64   2.0000      -0.518794       -14.1171
  65   2.0000      -0.510914       -13.9027
  66   2.0000      -0.505547       -13.7566
  67   2.0000      -0.497514       -13.5380
  68   2.0000      -0.482431       -13.1276
  69   2.0000      -0.464899       -12.6506
  70   2.0000      -0.459531       -12.5045
  71   2.0000      -0.451669       -12.2905
  72   2.0000      -0.354017        -9.6333
  73   2.0000      -0.347199        -9.4478
  74   2.0000      -0.327853        -8.9213
  75   2.0000      -0.318363        -8.6631
  76   2.0000      -0.315421        -8.5830
  77   0.0000       0.072114         1.9623
  78   0.0000       0.106456         2.8968
  79   0.0000       0.119275         3.2456
  80   0.0000       0.132874         3.6157
  81   0.0000       0.136958         3.7268

MULLIKEN ATOMIC CHARGES
-----------------------
   0 C :   -0.274443
   1 C :    0.048910
   2 O :   -0.361721
   3 C :    0.443181
   4 O :   -0.402750
   5 C :   -0.186637
   6 C :    0.135860
   7 C :   -0.282825
   8 N :   -0.124416
   9 C :    0.203532
  10 S :   -0.440014
  11 N :   -0.200695
  12 C :    0.053655
  13 C :    0.047154
  14 C :   -0.159223
  15 C :   -0.132929
  16 C :   -0.280804
  17 C :    0.313345
  18 O :   -0.359284
  19 C :   -0.281657
  20 H :    0.090229
  21 H :    0.097843
  22 H :    0.099618
  23 H :    0.092373
  24 H :    0.107463
  25 H :    0.123993
  26 H :    0.104674
  27 H :    0.125461
  28 H :    0.197199
  29 H :    0.194205
  30 H :    0.154703
  31 H :    0.155221
  32 H :    0.160458
  33 H :    0.130220
  34 H :    0.240706
  35 H :    0.167394
Sum of atomic charges:   -0.0000000

LOEWDIN ATOMIC CHARGES
----------------------
   0 C :    0.108578
   1 C :   -0.018282
   2 O :    0.294482
   3 C :   -0.415913
   4 O :    0.124202
   5 C :   -0.093359
   6 C :   -0.073563
   7 C :    0.126098
   8 N :    0.404109
   9 C :   -0.457495
  10 S :   -0.036509
  11 N :    0.397151
  12 C :   -0.045402
  13 C :   -0.040318
  14 C :    0.021864
  15 C :    0.041816
  16 C :   -0.002359
  17 C :   -0.194292
  18 O :    0.393351
  19 C :    0.027593
  20 H :   -0.030056
  21 H :   -0.023330
  22 H :   -0.025744
  23 H :   -0.029033
  24 H :   -0.027669
  25 H :   -0.008029
  26 H :   -0.019694
  27 H :   -0.010666
  28 H :   -0.058791
  29 H :   -0.064041
  30 H :   -0.004723
  31 H :   -0.024775
  32 H :   -0.020487
  33 H :   -0.035811
  34 H :   -0.154259
  35 H :   -0.024642

  Mayer bond orders larger than 0.100000
B(  0-C ,  1-C ) :   0.9732 B(  0-C , 20-H ) :   0.9786 B(  0-C , 21-H ) :   0.9774
B(  0-C , 22-H ) :   0.9773 B(  1-C ,  2-O ) :   0.8997 B(  1-C , 23-H ) :   0.9681
B(  1-C , 24-H ) :   0.9805 B(  2-O ,  3-C ) :   1.1017 B(  3-C ,  4-O ) :   2.0168
B(  3-C ,  5-C ) :   1.0318 B(  5-C ,  6-C ) :   1.6665 B(  5-C , 12-C ) :   0.9638
B(  6-C ,  7-C ) :   0.9518 B(  6-C ,  8-N ) :   1.1386 B(  7-C , 25-H ) :   0.9702
B(  7-C , 26-H ) :   0.9887 B(  7-C , 27-H ) :   0.9625 B(  8-N ,  9-C ) :   1.1840
B(  8-N , 28-H ) :   0.9498 B(  9-C , 10-S ) :   1.6103 B(  9-C , 11-N ) :   1.3006
B( 11-N , 12-C ) :   0.9925 B( 11-N , 29-H ) :   0.9517 B( 12-C , 13-C ) :   0.9453
B( 12-C , 30-H ) :   0.9986 B( 13-C , 14-C ) :   1.3775 B( 13-C , 19-C ) :   1.3674
B( 14-C , 15-C ) :   1.3946 B( 14-C , 31-H ) :   0.9641 B( 15-C , 16-C ) :   1.3635
B( 15-C , 32-H ) :   0.9711 B( 16-C , 17-C ) :   1.3306 B( 16-C , 33-H ) :   0.9851
B( 17-C , 18-O ) :   1.1093 B( 17-C , 19-C ) :   1.3747 B( 18-O , 34-H ) :   0.9800
B( 19-C , 35-H ) :   0.9584

MP2 TOTAL ENERGY:    -1274.329771395 Eh
FINAL SINGLE POINT ENERGY     -1274.329771395047

DIPOLE MOMENT
-------------
                                X             Y             Z
Electronic contribution:     12.03230       8.58335       8.37176
Nuclear contribution   :    -13.39402      -9.89599      -9.04062
                        -----------------------------------------
Total Dipole Moment    :     -1.36173      -1.31264      -0.66886
                        -----------------------------------------
Magnitude (a.u.)       :      2.00617
Magnitude (Debye)      :      5.09927

Rotational constants in cm-1:     0.011049     0.009162     0.006454
Rotational constants in MHz :   331.244981   274.667250   193.477860

                             ****ORCA TERMINATED NORMALLY****
TOTAL RUN TIME: 0 days 1 hours 50 minutes 54 seconds 75 msec
