                         Program Version 4.2.0 -  RELEASE  -
|  1> ! ri-mp2 cc-pvtz cc-pvtz/c TightSCF  NoKeepInts
|  2>
|  3> %scf
|  4>   MaxCore 4096
|  5> end
|  6> *xyz  0  1
|  7>     C       14.1776898   15.0270135   15.7320950
|  8>     C       15.6519204   14.6194260   15.8916583
|  9>     O       16.4261129   15.8273591   15.9659765
| 10>     C       17.6218004   15.7901125   16.6203617
| 11>     O       18.2636900   14.7569546   16.7188508
| 12>     C       17.8438338   16.9577863   17.5371092
| 13>     C       17.2757173   18.1817599   17.3802982
| 14>     C       16.3455695   18.6408644   16.2760936
| 15>     N       17.5969548   19.2149173   18.2667390
| 16>     C       18.5729114   19.1491130   19.2259614
| 17>     S       18.9764699   20.4600293   20.1501958
| 18>     N       19.1989371   17.9380256   19.3791548
| 19>     C       18.7926227   16.6878640   18.7100199
| 20>     C       18.1603443   15.7267596   19.7134285
| 21>     C       18.6664644   14.4229083   19.8678802
| 22>     C       18.0847087   13.5324168   20.7857683
| 23>     C       16.9860973   13.9480581   21.5570838
| 24>     C       16.4763274   15.2444604   21.4036648
| 25>     O       15.4112511   15.6466514   22.1420380
| 26>     C       17.0572193   16.1283535   20.4889504
| 27>     H       13.8488235   15.6312466   16.5867642
| 28>     H       13.5378150   14.1380717   15.6740133
| 29>     H       14.0354736   15.6132809   14.8157864
| 30>     H       15.7600296   14.0346741   16.8161545
| 31>     H       15.9838917   14.0016244   15.0467767
| 32>     H       16.7254728   18.3359770   15.2929765
| 33>     H       16.2270003   19.7308491   16.2493883
| 34>     H       15.3483878   18.2011478   16.4027840
| 35>     H       17.1488463   20.1120476   18.1698604
| 36>     H       19.8928674   17.9073527   20.1149997
| 37>     H       19.7000623   16.2164403   18.3056461
| 38>     H       19.5049098   14.0931733   19.2591700
| 39>     H       18.4823649   12.5246385   20.8911566
| 40>     H       16.5326930   13.2629538   22.2655982
| 41>     H       15.1826705   14.9195675   22.7403005
| 42>     H       16.6490492   17.1281211   20.3892965
| 43> *
| 44>
| 45>                          ****END OF INPUT****

CARTESIAN COORDINATES (ANGSTROEM)
---------------------------------
  C     14.177690   15.027014   15.732095
  C     15.651920   14.619426   15.891658
  O     16.426113   15.827359   15.965977
  C     17.621800   15.790112   16.620362
  O     18.263690   14.756955   16.718851
  C     17.843834   16.957786   17.537109
  C     17.275717   18.181760   17.380298
  C     16.345569   18.640864   16.276094
  N     17.596955   19.214917   18.266739
  C     18.572911   19.149113   19.225961
  S     18.976470   20.460029   20.150196
  N     19.198937   17.938026   19.379155
  C     18.792623   16.687864   18.710020
  C     18.160344   15.726760   19.713428
  C     18.666464   14.422908   19.867880
  C     18.084709   13.532417   20.785768
  C     16.986097   13.948058   21.557084
  C     16.476327   15.244460   21.403665
  O     15.411251   15.646651   22.142038
  C     17.057219   16.128353   20.488950
  H     13.848823   15.631247   16.586764
  H     13.537815   14.138072   15.674013
  H     14.035474   15.613281   14.815786
  H     15.760030   14.034674   16.816154
  H     15.983892   14.001624   15.046777
  H     16.725473   18.335977   15.292976
  H     16.227000   19.730849   16.249388
  H     15.348388   18.201148   16.402784
  H     17.148846   20.112048   18.169860
  H     19.892867   17.907353   20.115000
  H     19.700062   16.216440   18.305646
  H     19.504910   14.093173   19.259170
  H     18.482365   12.524639   20.891157
  H     16.532693   13.262954   22.265598
  H     15.182671   14.919567   22.740300
  H     16.649049   17.128121   20.389296

 Total Charge           Charge          ....    0
 Multiplicity           Mult            ....    1
 Number of Electrons    NEL             ....  154
 Basis Dimension        Dim             ....  828

ORBITAL ENERGIES
----------------

  NO   OCC          E(Eh)            E(eV)
   0   2.0000     -91.888230     -2500.4058
   1   2.0000     -20.598035      -560.5010
   2   2.0000     -20.592951      -560.3627
   3   2.0000     -20.548529      -559.1539
   4   2.0000     -15.628348      -425.2690
   5   2.0000     -15.607129      -424.6916
   6   2.0000     -11.394664      -310.0646
   7   2.0000     -11.383300      -309.7553
   8   2.0000     -11.335208      -308.4467
   9   2.0000     -11.308825      -307.7288
  10   2.0000     -11.306512      -307.6658
  11   2.0000     -11.299409      -307.4726
  12   2.0000     -11.260375      -306.4104
  13   2.0000     -11.259238      -306.3795
  14   2.0000     -11.254615      -306.2536
  15   2.0000     -11.248926      -306.0989
  16   2.0000     -11.238582      -305.8174
  17   2.0000     -11.234658      -305.7106
  18   2.0000     -11.234639      -305.7101
  19   2.0000     -11.231668      -305.6292
  20   2.0000      -8.893295      -241.9989
  21   2.0000      -6.574873      -178.9114
  22   2.0000      -6.572865      -178.8568
  23   2.0000      -6.572280      -178.8408
  24   2.0000      -1.454942       -39.5910
  25   2.0000      -1.412694       -38.4414
  26   2.0000      -1.357081       -36.9280
  27   2.0000      -1.339342       -36.4454
  28   2.0000      -1.237166       -33.6650
  29   2.0000      -1.153251       -31.3816
  30   2.0000      -1.120083       -30.4790
  31   2.0000      -1.044536       -28.4233
  32   2.0000      -1.037200       -28.2236
  33   2.0000      -1.010645       -27.5010
  34   2.0000      -0.998189       -27.1621
  35   2.0000      -0.983856       -26.7721
  36   2.0000      -0.921678       -25.0801
  37   2.0000      -0.887650       -24.1542
  38   2.0000      -0.847134       -23.0517
  39   2.0000      -0.835851       -22.7446
  40   2.0000      -0.829063       -22.5599
  41   2.0000      -0.819285       -22.2939
  42   2.0000      -0.760838       -20.7035
  43   2.0000      -0.735936       -20.0258
  44   2.0000      -0.725783       -19.7495
  45   2.0000      -0.691657       -18.8209
  46   2.0000      -0.683643       -18.6029
  47   2.0000      -0.682033       -18.5591
  48   2.0000      -0.676414       -18.4062
  49   2.0000      -0.659280       -17.9399
  50   2.0000      -0.650670       -17.7056
  51   2.0000      -0.643937       -17.5224
  52   2.0000      -0.635405       -17.2902
  53   2.0000      -0.601993       -16.3811
  54   2.0000      -0.601016       -16.3545
  55   2.0000      -0.598303       -16.2807
  56   2.0000      -0.596247       -16.2247
  57   2.0000      -0.577200       -15.7064
  58   2.0000      -0.574264       -15.6265
  59   2.0000      -0.565608       -15.3910
  60   2.0000      -0.560589       -15.2544
  61   2.0000      -0.555675       -15.1207
  62   2.0000      -0.541784       -14.7427
  63   2.0000      -0.518621       -14.1124
  64   2.0000      -0.516814       -14.0632
  65   2.0000      -0.511660       -13.9230
  66   2.0000      -0.504668       -13.7327
  67   2.0000      -0.496419       -13.5083
  68   2.0000      -0.481277       -13.0962
  69   2.0000      -0.462319       -12.5803
  70   2.0000      -0.460772       -12.5382
  71   2.0000      -0.456032       -12.4093
  72   2.0000      -0.354058        -9.6344
  73   2.0000      -0.345088        -9.3903
  74   2.0000      -0.327408        -8.9092
  75   2.0000      -0.316216        -8.6047
  76   2.0000      -0.314707        -8.5636
  77   0.0000       0.074848         2.0367
  78   0.0000       0.110384         3.0037
  79   0.0000       0.119785         3.2595
  80   0.0000       0.135034         3.6745
  81   0.0000       0.139147         3.7864

MULLIKEN ATOMIC CHARGES
-----------------------
   0 C :   -0.282229
   1 C :    0.054324
   2 O :   -0.347221
   3 C :    0.428742
   4 O :   -0.414293
   5 C :   -0.172220
   6 C :    0.142785
   7 C :   -0.286842
   8 N :   -0.123916
   9 C :    0.202191
  10 S :   -0.439616
  11 N :   -0.198578
  12 C :    0.042863
  13 C :    0.053941
  14 C :   -0.161337
  15 C :   -0.133840
  16 C :   -0.280000
  17 C :    0.311328
  18 O :   -0.359031
  19 C :   -0.274374
  20 H :    0.096307
  21 H :    0.103801
  22 H :    0.096060
  23 H :    0.093246
  24 H :    0.097693
  25 H :    0.126594
  26 H :    0.104825
  27 H :    0.126004
  28 H :    0.197024
  29 H :    0.193867
  30 H :    0.153885
  31 H :    0.154018
  32 H :    0.159756
  33 H :    0.128701
  34 H :    0.240281
  35 H :    0.165262
Sum of atomic charges:    0.0000000

LOEWDIN ATOMIC CHARGES
----------------------
   0 C :    0.106349
   1 C :   -0.016500
   2 O :    0.302549
   3 C :   -0.416041
   4 O :    0.111393
   5 C :   -0.092276
   6 C :   -0.068896
   7 C :    0.125364
   8 N :    0.404518
   9 C :   -0.458377
  10 S :   -0.036231
  11 N :    0.397561
  12 C :   -0.046018
  13 C :   -0.039208
  14 C :    0.021957
  15 C :    0.040873
  16 C :   -0.002497
  17 C :   -0.193068
  18 O :    0.392972
  19 C :    0.027940
  20 H :   -0.027721
  21 H :   -0.022814
  22 H :   -0.028281
  23 H :   -0.025697
  24 H :   -0.029230
  25 H :   -0.008207
  26 H :   -0.020464
  27 H :   -0.010343
  28 H :   -0.059020
  29 H :   -0.063814
  30 H :   -0.004762
  31 H :   -0.025088
  32 H :   -0.020989
  33 H :   -0.036260
  34 H :   -0.154743
  35 H :   -0.024932

  Mayer bond orders larger than 0.100000
B(  0-C ,  1-C ) :   0.9698 B(  0-C , 20-H ) :   0.9772 B(  0-C , 21-H ) :   0.9787
B(  0-C , 22-H ) :   0.9771 B(  1-C ,  2-O ) :   0.9055 B(  1-C , 23-H ) :   0.9723
B(  1-C , 24-H ) :   0.9821 B(  2-O ,  3-C ) :   1.1353 B(  3-C ,  4-O ) :   2.0075
B(  3-C ,  5-C ) :   1.0406 B(  5-C ,  6-C ) :   1.6554 B(  5-C , 12-C ) :   0.9663
B(  6-C ,  7-C ) :   0.9534 B(  6-C ,  8-N ) :   1.1417 B(  7-C , 25-H ) :   0.9675
B(  7-C , 26-H ) :   0.9906 B(  7-C , 27-H ) :   0.9634 B(  8-N ,  9-C ) :   1.1812
B(  8-N , 28-H ) :   0.9491 B(  9-C , 10-S ) :   1.6104 B(  9-C , 11-N ) :   1.3028
B( 11-N , 12-C ) :   0.9912 B( 11-N , 29-H ) :   0.9519 B( 12-C , 13-C ) :   0.9462
B( 12-C , 30-H ) :   0.9990 B( 13-C , 14-C ) :   1.3763 B( 13-C , 19-C ) :   1.3694
B( 14-C , 15-C ) :   1.3945 B( 14-C , 31-H ) :   0.9646 B( 15-C , 16-C ) :   1.3627
B( 15-C , 32-H ) :   0.9712 B( 16-C , 17-C ) :   1.3312 B( 16-C , 33-H ) :   0.9858
B( 17-C , 18-O ) :   1.1083 B( 17-C , 19-C ) :   1.3782 B( 18-O , 34-H ) :   0.9804
B( 19-C , 35-H ) :   0.9585

MP2 TOTAL ENERGY:    -1274.340784122 Eh
FINAL SINGLE POINT ENERGY     -1274.340784122306

DIPOLE MOMENT
-------------
                                X             Y             Z
Electronic contribution:     12.03350       8.56962       9.36432
Nuclear contribution   :    -13.47687      -9.90532     -10.22595
                        -----------------------------------------
Total Dipole Moment    :     -1.44337      -1.33569      -0.86163
                        -----------------------------------------
Magnitude (a.u.)       :      2.14704
Magnitude (Debye)      :      5.45735

Rotational constants in cm-1:     0.010498     0.009186     0.006218
Rotational constants in MHz :   314.731769   275.379834   186.402498

                             ****ORCA TERMINATED NORMALLY****
TOTAL RUN TIME: 0 days 1 hours 41 minutes 39 seconds 451 msec
