                         Program Version 4.2.0 -  RELEASE  -
|  1> ! ri-mp2 cc-pvtz cc-pvtz/c TightSCF  NoKeepInts
|  2>
|  3> %scf
|  4>   MaxCore 4096
|  5> end
|  6> *xyz  0  1
|  7>     C       14.9538884   14.6498681   16.2746145
|  8>     C       16.3149702   14.1877295   16.8374144
|  9>     O       17.4188118   14.9791507   16.3304093
| 10>     C       17.3122402   16.3307265   16.1509106
| 11>     O       16.7830773   16.7809498   15.1504457
| 12>     C       17.7012427   17.1577699   17.3477177
| 13>     C       17.3995661   18.4790772   17.4406181
| 14>     C       16.5633143   19.3024622   16.4844873
| 15>     N       17.9223490   19.2435471   18.4886582
| 16>     C       18.9173092   18.8242669   19.3317465
| 17>     S       19.6317247   19.8426020   20.4217823
| 18>     N       19.3041615   17.5136891   19.2102129
| 19>     C       18.5744230   16.4982270   18.4299092
| 20>     C       17.7904081   15.6175453   19.3950083
| 21>     C       18.2671395   14.3344145   19.7245418
| 22>     C       17.5530662   13.5130670   20.6131274
| 23>     C       16.3564806   13.9804203   21.1828654
| 24>     C       15.8857872   15.2623194   20.8677500
| 25>     O       14.7321525   15.7176220   21.4172928
| 26>     C       16.5969621   16.0770137   19.9814915
| 27>     H       14.6891775   15.6496065   16.6409391
| 28>     H       14.1600309   13.9595723   16.5842175
| 29>     H       14.9744506   14.6732185   15.1773985
| 30>     H       16.2636548   14.2378183   17.9284017
| 31>     H       16.4805751   13.1365001   16.5690753
| 32>     H       15.5953472   18.8191937   16.3007874
| 33>     H       17.0697000   19.3975977   15.5152237
| 34>     H       16.3595175   20.3138026   16.8552248
| 35>     H       17.6618859   20.2130279   18.5754469
| 36>     H       20.0256716   17.2263984   19.8588140
| 37>     H       19.3186502   15.8715349   17.9180598
| 38>     H       19.1927202   13.9701065   19.2861405
| 39>     H       17.9288695   12.5214423   20.8605393
| 40>     H       15.8025957   13.3501694   21.8711907
| 41>     H       14.4258506   15.0502109   22.0499559
| 42>     H       16.2192278   17.0693319   19.7615810
| 43> *
| 44>
| 45>                          ****END OF INPUT****

CARTESIAN COORDINATES (ANGSTROEM)
---------------------------------
  C     14.953888   14.649868   16.274614
  C     16.314970   14.187729   16.837414
  O     17.418812   14.979151   16.330409
  C     17.312240   16.330727   16.150911
  O     16.783077   16.780950   15.150446
  C     17.701243   17.157770   17.347718
  C     17.399566   18.479077   17.440618
  C     16.563314   19.302462   16.484487
  N     17.922349   19.243547   18.488658
  C     18.917309   18.824267   19.331747
  S     19.631725   19.842602   20.421782
  N     19.304161   17.513689   19.210213
  C     18.574423   16.498227   18.429909
  C     17.790408   15.617545   19.395008
  C     18.267139   14.334414   19.724542
  C     17.553066   13.513067   20.613127
  C     16.356481   13.980420   21.182865
  C     15.885787   15.262319   20.867750
  O     14.732152   15.717622   21.417293
  C     16.596962   16.077014   19.981491
  H     14.689177   15.649607   16.640939
  H     14.160031   13.959572   16.584218
  H     14.974451   14.673219   15.177398
  H     16.263655   14.237818   17.928402
  H     16.480575   13.136500   16.569075
  H     15.595347   18.819194   16.300787
  H     17.069700   19.397598   15.515224
  H     16.359517   20.313803   16.855225
  H     17.661886   20.213028   18.575447
  H     20.025672   17.226398   19.858814
  H     19.318650   15.871535   17.918060
  H     19.192720   13.970106   19.286140
  H     17.928870   12.521442   20.860539
  H     15.802596   13.350169   21.871191
  H     14.425851   15.050211   22.049956
  H     16.219228   17.069332   19.761581

 Total Charge           Charge          ....    0
 Multiplicity           Mult            ....    1
 Number of Electrons    NEL             ....  154
 Basis Dimension        Dim             ....  828

ORBITAL ENERGIES
----------------

  NO   OCC          E(Eh)            E(eV)
   0   2.0000     -91.891017     -2500.4817
   1   2.0000     -20.603005      -560.6363
   2   2.0000     -20.581017      -560.0380
   3   2.0000     -20.546431      -559.0968
   4   2.0000     -15.631509      -425.3550
   5   2.0000     -15.609946      -424.7682
   6   2.0000     -11.393027      -310.0200
   7   2.0000     -11.385558      -309.8168
   8   2.0000     -11.337715      -308.5149
   9   2.0000     -11.321018      -308.0606
  10   2.0000     -11.312436      -307.8270
  11   2.0000     -11.296582      -307.3956
  12   2.0000     -11.265183      -306.5412
  13   2.0000     -11.262226      -306.4607
  14   2.0000     -11.259233      -306.3793
  15   2.0000     -11.253896      -306.2341
  16   2.0000     -11.249773      -306.1219
  17   2.0000     -11.244179      -305.9697
  18   2.0000     -11.244037      -305.9658
  19   2.0000     -11.223101      -305.3961
  20   2.0000      -8.896036      -242.0735
  21   2.0000      -6.577601      -178.9856
  22   2.0000      -6.575608      -178.9314
  23   2.0000      -6.575012      -178.9152
  24   2.0000      -1.441793       -39.2332
  25   2.0000      -1.422656       -38.7124
  26   2.0000      -1.350308       -36.7438
  27   2.0000      -1.342691       -36.5365
  28   2.0000      -1.241124       -33.7727
  29   2.0000      -1.163444       -31.6589
  30   2.0000      -1.121735       -30.5240
  31   2.0000      -1.047128       -28.4938
  32   2.0000      -1.030208       -28.0334
  33   2.0000      -1.021784       -27.8042
  34   2.0000      -0.999146       -27.1882
  35   2.0000      -0.986418       -26.8418
  36   2.0000      -0.926151       -25.2019
  37   2.0000      -0.890698       -24.2371
  38   2.0000      -0.849984       -23.1292
  39   2.0000      -0.844632       -22.9836
  40   2.0000      -0.839642       -22.8478
  41   2.0000      -0.825160       -22.4537
  42   2.0000      -0.748081       -20.3563
  43   2.0000      -0.735946       -20.0261
  44   2.0000      -0.715561       -19.4714
  45   2.0000      -0.701700       -19.0942
  46   2.0000      -0.691691       -18.8219
  47   2.0000      -0.676324       -18.4037
  48   2.0000      -0.668181       -18.1821
  49   2.0000      -0.664854       -18.0916
  50   2.0000      -0.652964       -17.7681
  51   2.0000      -0.648409       -17.6441
  52   2.0000      -0.638769       -17.3818
  53   2.0000      -0.617101       -16.7922
  54   2.0000      -0.613463       -16.6932
  55   2.0000      -0.604577       -16.4514
  56   2.0000      -0.601977       -16.3806
  57   2.0000      -0.582797       -15.8587
  58   2.0000      -0.573128       -15.5956
  59   2.0000      -0.567510       -15.4427
  60   2.0000      -0.550596       -14.9825
  61   2.0000      -0.540998       -14.7213
  62   2.0000      -0.536561       -14.6006
  63   2.0000      -0.531093       -14.4518
  64   2.0000      -0.524784       -14.2801
  65   2.0000      -0.517104       -14.0711
  66   2.0000      -0.506248       -13.7757
  67   2.0000      -0.495271       -13.4770
  68   2.0000      -0.481560       -13.1039
  69   2.0000      -0.464264       -12.6333
  70   2.0000      -0.452819       -12.3218
  71   2.0000      -0.441886       -12.0243
  72   2.0000      -0.358732        -9.7616
  73   2.0000      -0.355477        -9.6730
  74   2.0000      -0.331724        -9.0267
  75   2.0000      -0.327583        -8.9140
  76   2.0000      -0.317899        -8.6505
  77   0.0000       0.069487         1.8908
  78   0.0000       0.100814         2.7433
  79   0.0000       0.121205         3.2982
  80   0.0000       0.127273         3.4633
  81   0.0000       0.131645         3.5822

MULLIKEN ATOMIC CHARGES
-----------------------
   0 C :   -0.290262
   1 C :    0.034242
   2 O :   -0.387500
   3 C :    0.477579
   4 O :   -0.398249
   5 C :   -0.258811
   6 C :    0.152498
   7 C :   -0.270482
   8 N :   -0.124319
   9 C :    0.214517
  10 S :   -0.436652
  11 N :   -0.200829
  12 C :    0.051308
  13 C :    0.039200
  14 C :   -0.188085
  15 C :   -0.129064
  16 C :   -0.275434
  17 C :    0.304338
  18 O :   -0.356339
  19 C :   -0.241489
  20 H :    0.090178
  21 H :    0.102426
  22 H :    0.118840
  23 H :    0.101057
  24 H :    0.111297
  25 H :    0.126576
  26 H :    0.137918
  27 H :    0.094665
  28 H :    0.198738
  29 H :    0.192201
  30 H :    0.151364
  31 H :    0.152108
  32 H :    0.163026
  33 H :    0.133583
  34 H :    0.242297
  35 H :    0.167557
Sum of atomic charges:   -0.0000000

LOEWDIN ATOMIC CHARGES
----------------------
   0 C :    0.105117
   1 C :   -0.012557
   2 O :    0.277985
   3 C :   -0.420079
   4 O :    0.122663
   5 C :   -0.099053
   6 C :   -0.058560
   7 C :    0.130732
   8 N :    0.407281
   9 C :   -0.455739
  10 S :   -0.032378
  11 N :    0.396378
  12 C :   -0.053040
  13 C :   -0.038970
  14 C :    0.012617
  15 C :    0.042758
  16 C :   -0.000967
  17 C :   -0.190405
  18 O :    0.396767
  19 C :    0.029684
  20 H :   -0.030933
  21 H :   -0.025901
  22 H :   -0.022205
  23 H :   -0.036260
  24 H :   -0.023332
  25 H :   -0.006547
  26 H :   -0.002453
  27 H :   -0.023138
  28 H :   -0.057327
  29 H :   -0.065713
  30 H :   -0.006210
  31 H :   -0.029183
  32 H :   -0.019312
  33 H :   -0.034076
  34 H :   -0.152280
  35 H :   -0.025364

  Mayer bond orders larger than 0.100000
B(  0-C ,  1-C ) :   0.9770 B(  0-C , 20-H ) :   0.9738 B(  0-C , 21-H ) :   0.9748
B(  0-C , 22-H ) :   0.9736 B(  1-C ,  2-O ) :   0.8947 B(  1-C , 23-H ) :   0.9657
B(  1-C , 24-H ) :   0.9815 B(  2-O ,  3-C ) :   1.0956 B(  3-C ,  4-O ) :   2.0322
B(  3-C ,  5-C ) :   1.0483 B(  5-C ,  6-C ) :   1.6515 B(  5-C , 12-C ) :   0.9694
B(  6-C ,  7-C ) :   0.9715 B(  6-C ,  8-N ) :   1.1568 B(  7-C , 25-H ) :   0.9651
B(  7-C , 26-H ) :   0.9557 B(  7-C , 27-H ) :   0.9881 B(  8-N ,  9-C ) :   1.1793
B(  8-N , 28-H ) :   0.9481 B(  9-C , 10-S ) :   1.6117 B(  9-C , 11-N ) :   1.3030
B( 11-N , 12-C ) :   0.9658 B( 11-N , 29-H ) :   0.9542 B( 12-C , 13-C ) :   0.9483
B( 12-C , 30-H ) :   1.0013 B( 13-C , 14-C ) :   1.3512 B( 13-C , 19-C ) :   1.3722
B( 14-C , 15-C ) :   1.3920 B( 14-C , 31-H ) :   0.9727 B( 15-C , 16-C ) :   1.3650
B( 15-C , 32-H ) :   0.9702 B( 16-C , 17-C ) :   1.3278 B( 16-C , 33-H ) :   0.9839
B( 17-C , 18-O ) :   1.1157 B( 17-C , 19-C ) :   1.3765 B( 18-O , 34-H ) :   0.9786
B( 19-C , 35-H ) :   0.9568

MP2 TOTAL ENERGY:    -1274.330519766 Eh
FINAL SINGLE POINT ENERGY     -1274.330519765582

DIPOLE MOMENT
-------------
                                X             Y             Z
Electronic contribution:     10.45371       8.44743       6.39022
Nuclear contribution   :    -11.57329     -10.03866      -6.04218
                        -----------------------------------------
Total Dipole Moment    :     -1.11958      -1.59122       0.34804
                        -----------------------------------------
Magnitude (a.u.)       :      1.97651
Magnitude (Debye)      :      5.02389

Rotational constants in cm-1:     0.011735     0.009441     0.006558
Rotational constants in MHz :   351.805918   283.030607   196.600428

                             ****ORCA TERMINATED NORMALLY****
TOTAL RUN TIME: 0 days 1 hours 46 minutes 50 seconds 166 msec
