                         Program Version 4.2.0 -  RELEASE  -
|  1> ! ri-mp2 cc-pvtz cc-pvtz/c TightSCF  NoKeepInts
|  2>
|  3> %scf
|  4>   MaxCore 4096
|  5> end
|  6> *xyz  0  1
|  7>     C       15.0743374   15.6112368   17.5070452
|  8>     C       15.5842600   15.2856689   16.0873360
|  9>     O       16.9873972   14.9328639   16.0465460
| 10>     C       18.1077908   15.6098390   16.4763854
| 11>     O       19.1722789   15.0197067   16.4575179
| 12>     C       17.9400385   16.7857523   17.3822859
| 13>     C       17.4096978   17.9568428   16.9570738
| 14>     C       16.9021729   18.2822576   15.5691993
| 15>     N       17.3894867   19.0634423   17.8089238
| 16>     C       18.0227328   19.1234226   19.0225476
| 17>     S       18.0282994   20.5044956   19.9317319
| 18>     N       18.6563619   17.9803807   19.4431352
| 19>     C       18.5891541   16.6698099   18.7652563
| 20>     C       17.8877358   15.6242266   19.6297166
| 21>     C       18.3213149   14.2858034   19.5983266
| 22>     C       17.6830958   13.3053396   20.3757051
| 23>     C       16.5998671   13.6640116   21.1952394
| 24>     C       16.1626044   14.9946525   21.2301545
| 25>     O       15.1094871   15.3422886   22.0115912
| 26>     C       16.7990703   15.9690372   20.4545491
| 27>     H       15.4506624   14.8727132   18.2254123
| 28>     H       13.9790565   15.5590633   17.5284906
| 29>     H       15.3496741   16.6129728   17.8465666
| 30>     H       15.0158513   14.4243322   15.7127422
| 31>     H       15.3697149   16.1194922   15.4107815
| 32>     H       17.1766429   17.5149743   14.8351186
| 33>     H       17.3343433   19.2242770   15.2075618
| 34>     H       15.8109597   18.3916879   15.5628937
| 35>     H       16.9491757   19.9190617   17.5089765
| 36>     H       19.1061453   18.0491964   20.3473373
| 37>     H       19.6241905   16.3286441   18.6142541
| 38>     H       19.1529927   14.0015694   18.9566568
| 39>     H       18.0274996   12.2732661   20.3366601
| 40>     H       16.1028928   12.9090721   21.7954497
| 41>     H       14.8362322   14.5508596   22.4996063
| 42>     H       16.4337822   16.9897390   20.4952253
| 43> *
| 44>
| 45>                          ****END OF INPUT****

CARTESIAN COORDINATES (ANGSTROEM)
---------------------------------
  C     15.074337   15.611237   17.507045
  C     15.584260   15.285669   16.087336
  O     16.987397   14.932864   16.046546
  C     18.107791   15.609839   16.476385
  O     19.172279   15.019707   16.457518
  C     17.940038   16.785752   17.382286
  C     17.409698   17.956843   16.957074
  C     16.902173   18.282258   15.569199
  N     17.389487   19.063442   17.808924
  C     18.022733   19.123423   19.022548
  S     18.028299   20.504496   19.931732
  N     18.656362   17.980381   19.443135
  C     18.589154   16.669810   18.765256
  C     17.887736   15.624227   19.629717
  C     18.321315   14.285803   19.598327
  C     17.683096   13.305340   20.375705
  C     16.599867   13.664012   21.195239
  C     16.162604   14.994653   21.230155
  O     15.109487   15.342289   22.011591
  C     16.799070   15.969037   20.454549
  H     15.450662   14.872713   18.225412
  H     13.979056   15.559063   17.528491
  H     15.349674   16.612973   17.846567
  H     15.015851   14.424332   15.712742
  H     15.369715   16.119492   15.410782
  H     17.176643   17.514974   14.835119
  H     17.334343   19.224277   15.207562
  H     15.810960   18.391688   15.562894
  H     16.949176   19.919062   17.508976
  H     19.106145   18.049196   20.347337
  H     19.624191   16.328644   18.614254
  H     19.152993   14.001569   18.956657
  H     18.027500   12.273266   20.336660
  H     16.102893   12.909072   21.795450
  H     14.836232   14.550860   22.499606
  H     16.433782   16.989739   20.495225

 Total Charge           Charge          ....    0
 Multiplicity           Mult            ....    1
 Number of Electrons    NEL             ....  154
 Basis Dimension        Dim             ....  828

ORBITAL ENERGIES
----------------

  NO   OCC          E(Eh)            E(eV)
   0   2.0000     -91.890433     -2500.4658
   1   2.0000     -20.599151      -560.5314
   2   2.0000     -20.597418      -560.4842
   3   2.0000     -20.548327      -559.1484
   4   2.0000     -15.628079      -425.2616
   5   2.0000     -15.611289      -424.8048
   6   2.0000     -11.400508      -310.2236
   7   2.0000     -11.386895      -309.8532
   8   2.0000     -11.330311      -308.3134
   9   2.0000     -11.314258      -307.8766
  10   2.0000     -11.313980      -307.8690
  11   2.0000     -11.310567      -307.7762
  12   2.0000     -11.271913      -306.7244
  13   2.0000     -11.266577      -306.5791
  14   2.0000     -11.261608      -306.4439
  15   2.0000     -11.254584      -306.2528
  16   2.0000     -11.243755      -305.9581
  17   2.0000     -11.239160      -305.8331
  18   2.0000     -11.236176      -305.7519
  19   2.0000     -11.230471      -305.5967
  20   2.0000      -8.895535      -242.0598
  21   2.0000      -6.577124      -178.9726
  22   2.0000      -6.575097      -178.9175
  23   2.0000      -6.574522      -178.9018
  24   2.0000      -1.444565       -39.3086
  25   2.0000      -1.417239       -38.5650
  26   2.0000      -1.356050       -36.9000
  27   2.0000      -1.341272       -36.4979
  28   2.0000      -1.240380       -33.7525
  29   2.0000      -1.158965       -31.5370
  30   2.0000      -1.125457       -30.6252
  31   2.0000      -1.047991       -28.5173
  32   2.0000      -1.039311       -28.2811
  33   2.0000      -1.017147       -27.6780
  34   2.0000      -1.005845       -27.3704
  35   2.0000      -0.990322       -26.9480
  36   2.0000      -0.928110       -25.2552
  37   2.0000      -0.898117       -24.4390
  38   2.0000      -0.855017       -23.2662
  39   2.0000      -0.840770       -22.8785
  40   2.0000      -0.834328       -22.7032
  41   2.0000      -0.829268       -22.5655
  42   2.0000      -0.747075       -20.3289
  43   2.0000      -0.739078       -20.1113
  44   2.0000      -0.730499       -19.8779
  45   2.0000      -0.695088       -18.9143
  46   2.0000      -0.687274       -18.7017
  47   2.0000      -0.678817       -18.4716
  48   2.0000      -0.674721       -18.3601
  49   2.0000      -0.663148       -18.0452
  50   2.0000      -0.652180       -17.7467
  51   2.0000      -0.650908       -17.7121
  52   2.0000      -0.640756       -17.4359
  53   2.0000      -0.615607       -16.7515
  54   2.0000      -0.609842       -16.5946
  55   2.0000      -0.605610       -16.4795
  56   2.0000      -0.602058       -16.3828
  57   2.0000      -0.591199       -16.0873
  58   2.0000      -0.579355       -15.7650
  59   2.0000      -0.573170       -15.5967
  60   2.0000      -0.565620       -15.3913
  61   2.0000      -0.556971       -15.1559
  62   2.0000      -0.541689       -14.7401
  63   2.0000      -0.529421       -14.4063
  64   2.0000      -0.519227       -14.1289
  65   2.0000      -0.513239       -13.9659
  66   2.0000      -0.502377       -13.6704
  67   2.0000      -0.501197       -13.6383
  68   2.0000      -0.483474       -13.1560
  69   2.0000      -0.464470       -12.6389
  70   2.0000      -0.454010       -12.3542
  71   2.0000      -0.450895       -12.2695
  72   2.0000      -0.356788        -9.7087
  73   2.0000      -0.348448        -9.4818
  74   2.0000      -0.330027        -8.9805
  75   2.0000      -0.322877        -8.7859
  76   2.0000      -0.318651        -8.6709
  77   0.0000       0.084319         2.2944
  78   0.0000       0.107156         2.9159
  79   0.0000       0.112847         3.0707
  80   0.0000       0.130168         3.5420
  81   0.0000       0.131050         3.5661

MULLIKEN ATOMIC CHARGES
-----------------------
   0 C :   -0.329193
   1 C :    0.022903
   2 O :   -0.323137
   3 C :    0.413392
   4 O :   -0.383447
   5 C :   -0.191584
   6 C :    0.137795
   7 C :   -0.335401
   8 N :   -0.136632
   9 C :    0.202846
  10 S :   -0.440235
  11 N :   -0.224752
  12 C :    0.081634
  13 C :    0.022674
  14 C :   -0.210063
  15 C :   -0.135598
  16 C :   -0.277182
  17 C :    0.315905
  18 O :   -0.358486
  19 C :   -0.270659
  20 H :    0.128409
  21 H :    0.115611
  22 H :    0.108158
  23 H :    0.134332
  24 H :    0.086741
  25 H :    0.127012
  26 H :    0.139574
  27 H :    0.122727
  28 H :    0.196718
  29 H :    0.201931
  30 H :    0.168741
  31 H :    0.175121
  32 H :    0.163719
  33 H :    0.131990
  34 H :    0.241063
  35 H :    0.177373
Sum of atomic charges:   -0.0000000

LOEWDIN ATOMIC CHARGES
----------------------
   0 C :    0.103977
   1 C :   -0.018505
   2 O :    0.299458
   3 C :   -0.415672
   4 O :    0.123159
   5 C :   -0.078292
   6 C :   -0.100679
   7 C :    0.123462
   8 N :    0.402175
   9 C :   -0.457771
  10 S :   -0.037355
  11 N :    0.398537
  12 C :   -0.042195
  13 C :   -0.042370
  14 C :    0.020758
  15 C :    0.043764
  16 C :   -0.001988
  17 C :   -0.194146
  18 O :    0.395350
  19 C :    0.028670
  20 H :   -0.019128
  21 H :   -0.024390
  22 H :   -0.037401
  23 H :   -0.016792
  24 H :   -0.040289
  25 H :   -0.008636
  26 H :   -0.008909
  27 H :   -0.017602
  28 H :   -0.057858
  29 H :   -0.063370
  30 H :   -0.001378
  31 H :   -0.021701
  32 H :   -0.018592
  33 H :   -0.035035
  34 H :   -0.153612
  35 H :   -0.025646

  Mayer bond orders larger than 0.100000
B(  0-C ,  1-C ) :   0.9537 B(  0-C , 20-H ) :   0.9684 B(  0-C , 21-H ) :   0.9770
B(  0-C , 22-H ) :   0.9731 B(  1-C ,  2-O ) :   0.9103 B(  1-C , 23-H ) :   0.9813
B(  1-C , 24-H ) :   0.9745 B(  2-O ,  3-C ) :   1.1714 B(  3-C ,  4-O ) :   2.0766
B(  3-C ,  5-C ) :   0.9220 B(  5-C ,  6-C ) :   1.6977 B(  5-C , 12-C ) :   0.9554
B(  6-C ,  7-C ) :   0.9446 B(  6-C ,  8-N ) :   1.1015 B(  7-C , 25-H ) :   0.9808
B(  7-C , 26-H ) :   0.9718 B(  7-C , 27-H ) :   0.9650 B(  8-N ,  9-C ) :   1.1949
B(  8-N , 28-H ) :   0.9525 B(  9-C , 10-S ) :   1.6097 B(  9-C , 11-N ) :   1.2881
B( 11-N , 12-C ) :   0.9869 B( 11-N , 29-H ) :   0.9481 B( 12-C , 13-C ) :   0.9490
B( 12-C , 30-H ) :   0.9948 B( 13-C , 14-C ) :   1.3899 B( 13-C , 19-C ) :   1.3408
B( 14-C , 15-C ) :   1.4011 B( 14-C , 31-H ) :   0.9583 B( 15-C , 16-C ) :   1.3586
B( 15-C , 32-H ) :   0.9702 B( 16-C , 17-C ) :   1.3304 B( 16-C , 33-H ) :   0.9849
B( 17-C , 18-O ) :   1.1103 B( 17-C , 19-C ) :   1.3707 B( 18-O , 34-H ) :   0.9797
B( 19-C , 35-H ) :   0.9570

MP2 TOTAL ENERGY:    -1274.325236555 Eh
FINAL SINGLE POINT ENERGY     -1274.325236554611

DIPOLE MOMENT
-------------
                                X             Y             Z
Electronic contribution:      9.29887       5.90278       6.38339
Nuclear contribution   :    -10.87714      -6.92127      -7.09457
                        -----------------------------------------
Total Dipole Moment    :     -1.57827      -1.01849      -0.71118
                        -----------------------------------------
Magnitude (a.u.)       :      2.00849
Magnitude (Debye)      :      5.10517

Rotational constants in cm-1:     0.011795     0.009618     0.006843
Rotational constants in MHz :   353.599878   288.343882   205.135962

                             ****ORCA TERMINATED NORMALLY****
TOTAL RUN TIME: 0 days 1 hours 50 minutes 2 seconds 974 msec
