                         Program Version 4.2.0 -  RELEASE  -
|  1> ! ri-mp2 cc-pvtz cc-pvtz/c TightSCF  NoKeepInts
|  2>
|  3> %scf
|  4>   MaxCore 4096
|  5> end
|  6> *xyz  0  1
|  7>     C       14.2114340   15.1391611   16.3187297
|  8>     C       15.6828469   14.6989661   16.3930305
|  9>     O       16.4892543   15.8190692   15.9948375
| 10>     C       17.7595748   15.8776390   16.4840522
| 11>     O       18.4446324   14.8713120   16.5629820
| 12>     C       17.9305428   17.0141870   17.4449064
| 13>     C       17.3471727   18.2285564   17.2867161
| 14>     C       16.4770970   18.6864491   16.1348207
| 15>     N       17.5891086   19.2425082   18.2183962
| 16>     C       18.4899660   19.1598020   19.2477717
| 17>     S       18.7940551   20.4445549   20.2439401
| 18>     N       19.1273381   17.9550393   19.4101697
| 19>     C       18.8135039   16.7231120   18.6613568
| 20>     C       18.1461735   15.6970887   19.5731947
| 21>     C       18.6927862   14.4087964   19.7184800
| 22>     C       18.0712747   13.4558563   20.5428109
| 23>     C       16.8912834   13.7924985   21.2276623
| 24>     C       16.3411704   15.0731787   21.0822145
| 25>     O       15.1965761   15.3985004   21.7342210
| 26>     C       16.9619181   16.0193846   20.2609286
| 27>     H       14.0259265   15.9833893   16.9943304
| 28>     H       13.5493595   14.3148940   16.6106556
| 29>     H       13.9501960   15.4450800   15.2980659
| 30>     H       15.9154995   14.4048746   17.4266755
| 31>     H       15.8700900   13.8394680   15.7357390
| 32>     H       16.8708172   18.3247406   15.1767067
| 33>     H       16.4165150   19.7792708   16.0637795
| 34>     H       15.4562692   18.2995899   16.2440332
| 35>     H       17.1314440   20.1343112   18.1160360
| 36>     H       19.7633802   17.9126139   20.1960849
| 37>     H       19.7608752   16.3005339   18.2964838
| 38>     H       19.5943722   14.1397262   19.1734760
| 39>     H       18.5015172   12.4608473   20.6421944
| 40>     H       16.4069741   13.0586504   21.8632714
| 41>     H       14.9552828   14.6429015   22.2909350
| 42>     H       16.5207723   17.0054482   20.1643110
| 43> *
| 44>
| 45>                          ****END OF INPUT****

CARTESIAN COORDINATES (ANGSTROEM)
---------------------------------
  C     14.211434   15.139161   16.318730
  C     15.682847   14.698966   16.393030
  O     16.489254   15.819069   15.994837
  C     17.759575   15.877639   16.484052
  O     18.444632   14.871312   16.562982
  C     17.930543   17.014187   17.444906
  C     17.347173   18.228556   17.286716
  C     16.477097   18.686449   16.134821
  N     17.589109   19.242508   18.218396
  C     18.489966   19.159802   19.247772
  S     18.794055   20.444555   20.243940
  N     19.127338   17.955039   19.410170
  C     18.813504   16.723112   18.661357
  C     18.146173   15.697089   19.573195
  C     18.692786   14.408796   19.718480
  C     18.071275   13.455856   20.542811
  C     16.891283   13.792498   21.227662
  C     16.341170   15.073179   21.082214
  O     15.196576   15.398500   21.734221
  C     16.961918   16.019385   20.260929
  H     14.025927   15.983389   16.994330
  H     13.549359   14.314894   16.610656
  H     13.950196   15.445080   15.298066
  H     15.915499   14.404875   17.426676
  H     15.870090   13.839468   15.735739
  H     16.870817   18.324741   15.176707
  H     16.416515   19.779271   16.063779
  H     15.456269   18.299590   16.244033
  H     17.131444   20.134311   18.116036
  H     19.763380   17.912614   20.196085
  H     19.760875   16.300534   18.296484
  H     19.594372   14.139726   19.173476
  H     18.501517   12.460847   20.642194
  H     16.406974   13.058650   21.863271
  H     14.955283   14.642902   22.290935
  H     16.520772   17.005448   20.164311

 Total Charge           Charge          ....    0
 Multiplicity           Mult            ....    1
 Number of Electrons    NEL             ....  154
 Basis Dimension        Dim             ....  828

ORBITAL ENERGIES
----------------

  NO   OCC          E(Eh)            E(eV)
   0   2.0000     -91.888531     -2500.4141
   1   2.0000     -20.595847      -560.4415
   2   2.0000     -20.588580      -560.2438
   3   2.0000     -20.553522      -559.2898
   4   2.0000     -15.628033      -425.2604
   5   2.0000     -15.608147      -424.7193
   6   2.0000     -11.393883      -310.0433
   7   2.0000     -11.384050      -309.7757
   8   2.0000     -11.332725      -308.3791
   9   2.0000     -11.312025      -307.8159
  10   2.0000     -11.308530      -307.7207
  11   2.0000     -11.298089      -307.4366
  12   2.0000     -11.259815      -306.3951
  13   2.0000     -11.259636      -306.3903
  14   2.0000     -11.257417      -306.3299
  15   2.0000     -11.252056      -306.1840
  16   2.0000     -11.241747      -305.9035
  17   2.0000     -11.237630      -305.7915
  18   2.0000     -11.234822      -305.7151
  19   2.0000     -11.232800      -305.6600
  20   2.0000      -8.893611      -242.0074
  21   2.0000      -6.575190      -178.9200
  22   2.0000      -6.573179      -178.8653
  23   2.0000      -6.572596      -178.8494
  24   2.0000      -1.454261       -39.5724
  25   2.0000      -1.415623       -38.5211
  26   2.0000      -1.356690       -36.9174
  27   2.0000      -1.339243       -36.4427
  28   2.0000      -1.237607       -33.6770
  29   2.0000      -1.156122       -31.4597
  30   2.0000      -1.121225       -30.5101
  31   2.0000      -1.044953       -28.4346
  32   2.0000      -1.036200       -28.1964
  33   2.0000      -1.013518       -27.5792
  34   2.0000      -0.999128       -27.1876
  35   2.0000      -0.984807       -26.7980
  36   2.0000      -0.923113       -25.1192
  37   2.0000      -0.884263       -24.0620
  38   2.0000      -0.847573       -23.0636
  39   2.0000      -0.837959       -22.8020
  40   2.0000      -0.832066       -22.6417
  41   2.0000      -0.822865       -22.3913
  42   2.0000      -0.758317       -20.6349
  43   2.0000      -0.736014       -20.0280
  44   2.0000      -0.727959       -19.8088
  45   2.0000      -0.693954       -18.8834
  46   2.0000      -0.684704       -18.6318
  47   2.0000      -0.681618       -18.5478
  48   2.0000      -0.676444       -18.4070
  49   2.0000      -0.657142       -17.8817
  50   2.0000      -0.652955       -17.7678
  51   2.0000      -0.644153       -17.5283
  52   2.0000      -0.636125       -17.3098
  53   2.0000      -0.605521       -16.4771
  54   2.0000      -0.604136       -16.4394
  55   2.0000      -0.602162       -16.3857
  56   2.0000      -0.599301       -16.3078
  57   2.0000      -0.576840       -15.6966
  58   2.0000      -0.575178       -15.6514
  59   2.0000      -0.566019       -15.4022
  60   2.0000      -0.558453       -15.1963
  61   2.0000      -0.551653       -15.0112
  62   2.0000      -0.544369       -14.8130
  63   2.0000      -0.521369       -14.1872
  64   2.0000      -0.513970       -13.9858
  65   2.0000      -0.510135       -13.8815
  66   2.0000      -0.507186       -13.8012
  67   2.0000      -0.498054       -13.5527
  68   2.0000      -0.482688       -13.1346
  69   2.0000      -0.464971       -12.6525
  70   2.0000      -0.457940       -12.4612
  71   2.0000      -0.454166       -12.3585
  72   2.0000      -0.353833        -9.6283
  73   2.0000      -0.347850        -9.4655
  74   2.0000      -0.327882        -8.9221
  75   2.0000      -0.319105        -8.6833
  76   2.0000      -0.315377        -8.5818
  77   0.0000       0.072466         1.9719
  78   0.0000       0.105366         2.8672
  79   0.0000       0.118710         3.2303
  80   0.0000       0.132379         3.6022
  81   0.0000       0.137555         3.7431

MULLIKEN ATOMIC CHARGES
-----------------------
   0 C :   -0.283091
   1 C :    0.053927
   2 O :   -0.363593
   3 C :    0.432270
   4 O :   -0.400889
   5 C :   -0.181487
   6 C :    0.137180
   7 C :   -0.283193
   8 N :   -0.125479
   9 C :    0.204452
  10 S :   -0.440364
  11 N :   -0.201188
  12 C :    0.057425
  13 C :    0.039513
  14 C :   -0.155713
  15 C :   -0.133738
  16 C :   -0.281053
  17 C :    0.312350
  18 O :   -0.358988
  19 C :   -0.279256
  20 H :    0.093943
  21 H :    0.102850
  22 H :    0.097995
  23 H :    0.095459
  24 H :    0.104620
  25 H :    0.123749
  26 H :    0.105393
  27 H :    0.125382
  28 H :    0.197163
  29 H :    0.194291
  30 H :    0.154591
  31 H :    0.155230
  32 H :    0.160781
  33 H :    0.130655
  34 H :    0.240866
  35 H :    0.167946
Sum of atomic charges:   -0.0000000

LOEWDIN ATOMIC CHARGES
----------------------
   0 C :    0.107392
   1 C :   -0.016684
   2 O :    0.294763
   3 C :   -0.417545
   4 O :    0.124255
   5 C :   -0.093284
   6 C :   -0.074712
   7 C :    0.126284
   8 N :    0.403954
   9 C :   -0.457221
  10 S :   -0.036752
  11 N :    0.397088
  12 C :   -0.045264
  13 C :   -0.040748
  14 C :    0.021732
  15 C :    0.041708
  16 C :   -0.002373
  17 C :   -0.194257
  18 O :    0.393438
  19 C :    0.027618
  20 H :   -0.028799
  21 H :   -0.022927
  22 H :   -0.027518
  23 H :   -0.026033
  24 H :   -0.028738
  25 H :   -0.008109
  26 H :   -0.019575
  27 H :   -0.010610
  28 H :   -0.058816
  29 H :   -0.064082
  30 H :   -0.004752
  31 H :   -0.024713
  32 H :   -0.020338
  33 H :   -0.035673
  34 H :   -0.154162
  35 H :   -0.024548

  Mayer bond orders larger than 0.100000
B(  0-C ,  1-C ) :   0.9708 B(  0-C , 20-H ) :   0.9775 B(  0-C , 21-H ) :   0.9783
B(  0-C , 22-H ) :   0.9768 B(  1-C ,  2-O ) :   0.8994 B(  1-C , 23-H ) :   0.9684
B(  1-C , 24-H ) :   0.9835 B(  2-O ,  3-C ) :   1.1001 B(  3-C ,  4-O ) :   2.0218
B(  3-C ,  5-C ) :   1.0292 B(  5-C ,  6-C ) :   1.6677 B(  5-C , 12-C ) :   0.9647
B(  6-C ,  7-C ) :   0.9523 B(  6-C ,  8-N ) :   1.1378 B(  7-C , 25-H ) :   0.9704
B(  7-C , 26-H ) :   0.9885 B(  7-C , 27-H ) :   0.9628 B(  8-N ,  9-C ) :   1.1850
B(  8-N , 28-H ) :   0.9499 B(  9-C , 10-S ) :   1.6099 B(  9-C , 11-N ) :   1.3001
B( 11-N , 12-C ) :   0.9927 B( 11-N , 29-H ) :   0.9516 B( 12-C , 13-C ) :   0.9438
B( 12-C , 30-H ) :   0.9983 B( 13-C , 14-C ) :   1.3774 B( 13-C , 19-C ) :   1.3696
B( 14-C , 15-C ) :   1.3944 B( 14-C , 31-H ) :   0.9643 B( 15-C , 16-C ) :   1.3636
B( 15-C , 32-H ) :   0.9711 B( 16-C , 17-C ) :   1.3301 B( 16-C , 33-H ) :   0.9851
B( 17-C , 18-O ) :   1.1097 B( 17-C , 19-C ) :   1.3749 B( 18-O , 34-H ) :   0.9799
B( 19-C , 35-H ) :   0.9580

MP2 TOTAL ENERGY:    -1274.329177078 Eh
FINAL SINGLE POINT ENERGY     -1274.329177078288

DIPOLE MOMENT
-------------
                                X             Y             Z
Electronic contribution:     11.76510       8.25175       7.63787
Nuclear contribution   :    -13.08742      -9.57264      -8.30845
                        -----------------------------------------
Total Dipole Moment    :     -1.32232      -1.32089      -0.67058
                        -----------------------------------------
Magnitude (a.u.)       :      1.98569
Magnitude (Debye)      :      5.04721

Rotational constants in cm-1:     0.011333     0.009171     0.006631
Rotational constants in MHz :   339.743505   274.936442   198.805964

                             ****ORCA TERMINATED NORMALLY****
TOTAL RUN TIME: 0 days 1 hours 49 minutes 11 seconds 883 msec
