                         Program Version 5.0.0 -  RELEASE  -
|  1> ! ri-mp2 cc-pvtz cc-pvtz/c TightSCF NoKeepInts
|  2>
|  3> %scf
|  4>   MaxCore 4096
|  5> end
|  6> *xyz  0  1
|  7>     C       14.7703128   16.1232885   16.9029306
|  8>     C       15.6446509   14.8693931   17.0937386
|  9>     O       16.8610301   14.8940304   16.3117258
| 10>     C       17.9106731   15.7792533   16.3799836
| 11>     O       18.9685338   15.5070924   15.8454263
| 12>     C       17.8467228   16.8808270   17.3796624
| 13>     C       17.3940680   18.1068494   17.0332816
| 14>     C       16.8259900   18.5183760   15.6921141
| 15>     N       17.4854397   19.1666619   17.9372989
| 16>     C       18.1262094   19.1039631   19.1471042
| 17>     S       18.2260242   20.4164954   20.1478103
| 18>     N       18.6817516   17.8953862   19.4895685
| 19>     C       18.5708678   16.6474134   18.7070633
| 20>     C       17.9327653   15.5302845   19.5242393
| 21>     C       18.4094068   14.2122379   19.3991627
| 22>     C       17.8216879   13.1661970   20.1296132
| 23>     C       16.7476766   13.4390107   20.9936865
| 24>     C       16.2681017   14.7496100   21.1201114
| 25>     O       15.2230382   15.0140752   21.9433472
| 26>     C       16.8524662   15.7892702   20.3894811
| 27>     H       15.0912589   16.9426901   17.5536154
| 28>     H       13.7323476   15.8935984   17.1735181
| 29>     H       14.7759404   16.4532934   15.8573265
| 30>     H       15.8609226   14.7189202   18.1558663
| 31>     H       15.0615540   13.9985853   16.7672022
| 32>     H       16.7848543   17.6854717   14.9796901
| 33>     H       17.4476163   19.2974967   15.2327524
| 34>     H       15.8083967   18.9140159   15.7971339
| 35>     H       17.1075939   20.0683489   17.6918307
| 36>     H       19.1372398   17.8772279   20.3934507
| 37>     H       19.5939323   16.3276113   18.4586637
| 38>     H       19.2331854   13.9959187   18.7218415
| 39>     H       18.1982036   12.1500492   20.0220986
| 40>     H       16.2908296   12.6332134   21.5591034
| 41>     H       14.9983486   14.1915859   22.4045488
| 42>     H       16.4573592   16.7942574   20.4980082
| 43> *
| 44>
| 45>                          ****END OF INPUT****

CARTESIAN COORDINATES (ANGSTROEM)
---------------------------------
  C     14.770313   16.123289   16.902931
  C     15.644651   14.869393   17.093739
  O     16.861030   14.894030   16.311726
  C     17.910673   15.779253   16.379984
  O     18.968534   15.507092   15.845426
  C     17.846723   16.880827   17.379662
  C     17.394068   18.106849   17.033282
  C     16.825990   18.518376   15.692114
  N     17.485440   19.166662   17.937299
  C     18.126209   19.103963   19.147104
  S     18.226024   20.416495   20.147810
  N     18.681752   17.895386   19.489569
  C     18.570868   16.647413   18.707063
  C     17.932765   15.530285   19.524239
  C     18.409407   14.212238   19.399163
  C     17.821688   13.166197   20.129613
  C     16.747677   13.439011   20.993686
  C     16.268102   14.749610   21.120111
  O     15.223038   15.014075   21.943347
  C     16.852466   15.789270   20.389481
  H     15.091259   16.942690   17.553615
  H     13.732348   15.893598   17.173518
  H     14.775940   16.453293   15.857326
  H     15.860923   14.718920   18.155866
  H     15.061554   13.998585   16.767202
  H     16.784854   17.685472   14.979690
  H     17.447616   19.297497   15.232752
  H     15.808397   18.914016   15.797134
  H     17.107594   20.068349   17.691831
  H     19.137240   17.877228   20.393451
  H     19.593932   16.327611   18.458664
  H     19.233185   13.995919   18.721842
  H     18.198204   12.150049   20.022099
  H     16.290830   12.633213   21.559103
  H     14.998349   14.191586   22.404549
  H     16.457359   16.794257   20.498008

 Total Charge           Charge          ....    0
 Multiplicity           Mult            ....    1
 Number of Electrons    NEL             ....  154
 Basis Dimension        Dim             ....  828

ORBITAL ENERGIES
----------------

  NO   OCC          E(Eh)            E(eV)
   0   2.0000     -91.889248     -2500.4336
   1   2.0000     -20.604247      -560.6701
   2   2.0000     -20.597945      -560.4986
   3   2.0000     -20.550992      -559.2209
   4   2.0000     -15.624353      -425.1602
   5   2.0000     -15.612297      -424.8322
   6   2.0000     -11.398701      -310.1744
   7   2.0000     -11.386200      -309.8343
   8   2.0000     -11.324059      -308.1433
   9   2.0000     -11.322436      -308.0991
  10   2.0000     -11.318811      -308.0005
  11   2.0000     -11.302787      -307.5645
  12   2.0000     -11.269228      -306.6513
  13   2.0000     -11.264699      -306.5281
  14   2.0000     -11.263284      -306.4895
  15   2.0000     -11.262597      -306.4709
  16   2.0000     -11.251645      -306.1728
  17   2.0000     -11.246733      -306.0392
  18   2.0000     -11.245477      -306.0050
  19   2.0000     -11.234951      -305.7185
  20   2.0000      -8.894373      -242.0282
  21   2.0000      -6.575966      -178.9411
  22   2.0000      -6.573934      -178.8858
  23   2.0000      -6.573365      -178.8704
  24   2.0000      -1.444382       -39.3036
  25   2.0000      -1.424062       -38.7507
  26   2.0000      -1.357839       -36.9487
  27   2.0000      -1.338991       -36.4358
  28   2.0000      -1.239940       -33.7405
  29   2.0000      -1.166128       -31.7320
  30   2.0000      -1.126035       -30.6410
  31   2.0000      -1.051636       -28.6165
  32   2.0000      -1.038937       -28.2709
  33   2.0000      -1.024103       -27.8673
  34   2.0000      -1.005623       -27.3644
  35   2.0000      -0.990123       -26.9426
  36   2.0000      -0.929315       -25.2880
  37   2.0000      -0.898042       -24.4370
  38   2.0000      -0.852604       -23.2005
  39   2.0000      -0.843750       -22.9596
  40   2.0000      -0.841542       -22.8995
  41   2.0000      -0.833079       -22.6692
  42   2.0000      -0.752212       -20.4687
  43   2.0000      -0.737313       -20.0633
  44   2.0000      -0.727640       -19.8001
  45   2.0000      -0.702056       -19.1039
  46   2.0000      -0.691729       -18.8229
  47   2.0000      -0.679697       -18.4955
  48   2.0000      -0.676780       -18.4161
  49   2.0000      -0.664443       -18.0804
  50   2.0000      -0.655636       -17.8408
  51   2.0000      -0.643999       -17.5241
  52   2.0000      -0.640673       -17.4336
  53   2.0000      -0.618193       -16.8219
  54   2.0000      -0.612079       -16.6555
  55   2.0000      -0.609755       -16.5923
  56   2.0000      -0.607243       -16.5239
  57   2.0000      -0.585998       -15.9458
  58   2.0000      -0.581752       -15.8303
  59   2.0000      -0.577594       -15.7171
  60   2.0000      -0.567765       -15.4497
  61   2.0000      -0.555706       -15.1215
  62   2.0000      -0.538413       -14.6510
  63   2.0000      -0.536733       -14.6052
  64   2.0000      -0.526102       -14.3160
  65   2.0000      -0.516315       -14.0497
  66   2.0000      -0.505010       -13.7420
  67   2.0000      -0.502038       -13.6611
  68   2.0000      -0.490356       -13.3433
  69   2.0000      -0.465337       -12.6625
  70   2.0000      -0.452645       -12.3171
  71   2.0000      -0.449713       -12.2373
  72   2.0000      -0.356531        -9.7017
  73   2.0000      -0.354888        -9.6570
  74   2.0000      -0.331190        -9.0121
  75   2.0000      -0.328714        -8.9448
  76   2.0000      -0.317879        -8.6499
  77   0.0000       0.091822         2.4986
  78   0.0000       0.101647         2.7660
  79   0.0000       0.118907         3.2356
  80   0.0000       0.126221         3.4347
  81   0.0000       0.128127         3.4865

MULLIKEN ATOMIC CHARGES
-----------------------
   0 C :   -0.332082
   1 C :    0.039157
   2 O :   -0.320328
   3 C :    0.388222
   4 O :   -0.377163
   5 C :   -0.160868
   6 C :    0.118589
   7 C :   -0.329084
   8 N :   -0.137923
   9 C :    0.209971
  10 S :   -0.444022
  11 N :   -0.225687
  12 C :    0.077007
  13 C :   -0.006529
  14 C :   -0.196455
  15 C :   -0.136805
  16 C :   -0.270061
  17 C :    0.306594
  18 O :   -0.355819
  19 C :   -0.248919
  20 H :    0.105996
  21 H :    0.120954
  22 H :    0.106496
  23 H :    0.102599
  24 H :    0.125005
  25 H :    0.120831
  26 H :    0.146904
  27 H :    0.121471
  28 H :    0.196972
  29 H :    0.201934
  30 H :    0.166152
  31 H :    0.165474
  32 H :    0.165621
  33 H :    0.134932
  34 H :    0.242004
  35 H :    0.178861
Sum of atomic charges:   -0.0000000

LOEWDIN ATOMIC CHARGES
----------------------
   0 C :    0.102730
   1 C :   -0.014964
   2 O :    0.299627
   3 C :   -0.418574
   4 O :    0.125928
   5 C :   -0.078959
   6 C :   -0.105150
   7 C :    0.125530
   8 N :    0.401778
   9 C :   -0.455339
  10 S :   -0.039731
  11 N :    0.397534
  12 C :   -0.045818
  13 C :   -0.045620
  14 C :    0.019398
  15 C :    0.046425
  16 C :    0.000147
  17 C :   -0.193604
  18 O :    0.397176
  19 C :    0.026997
  20 H :   -0.034013
  21 H :   -0.022016
  22 H :   -0.028595
  23 H :   -0.033119
  24 H :   -0.019436
  25 H :   -0.009425
  26 H :   -0.008907
  27 H :   -0.016782
  28 H :   -0.057507
  29 H :   -0.064300
  30 H :   -0.002839
  31 H :   -0.022264
  32 H :   -0.017306
  33 H :   -0.033565
  34 H :   -0.152132
  35 H :   -0.023306

  Mayer bond orders larger than 0.100000
B(  0-C ,  1-C ) :   0.9533 B(  0-C , 20-H ) :   0.9762 B(  0-C , 21-H ) :   0.9786
B(  0-C , 22-H ) :   0.9735 B(  1-C ,  2-O ) :   0.9040 B(  1-C , 23-H ) :   0.9647
B(  1-C , 24-H ) :   0.9857 B(  2-O ,  3-C ) :   1.1906 B(  3-C ,  4-O ) :   2.1112
B(  3-C ,  5-C ) :   0.8926 B(  5-C ,  6-C ) :   1.7317 B(  5-C , 12-C ) :   0.9499
B(  6-C ,  7-C ) :   0.9539 B(  6-C ,  8-N ) :   1.0946 B(  7-C , 25-H ) :   0.9804
B(  7-C , 26-H ) :   0.9681 B(  7-C , 27-H ) :   0.9656 B(  8-N ,  9-C ) :   1.2055
B(  8-N , 28-H ) :   0.9521 B(  9-C , 10-S ) :   1.6071 B(  9-C , 11-N ) :   1.2822
B( 11-N , 12-C ) :   0.9917 B( 11-N , 29-H ) :   0.9464 B( 12-C , 13-C ) :   0.9441
B( 12-C , 30-H ) :   0.9969 B( 13-C , 14-C ) :   1.3898 B( 13-C , 19-C ) :   1.3459
B( 14-C , 15-C ) :   1.3970 B( 14-C , 31-H ) :   0.9647 B( 15-C , 16-C ) :   1.3616
B( 15-C , 32-H ) :   0.9693 B( 16-C , 17-C ) :   1.3281 B( 16-C , 33-H ) :   0.9838
B( 17-C , 18-O ) :   1.1131 B( 17-C , 19-C ) :   1.3663 B( 18-O , 34-H ) :   0.9784
B( 19-C , 35-H ) :   0.9573

MP2 TOTAL ENERGY:    -1274.328165198 Eh
FINAL SINGLE POINT ENERGY     -1274.328165197756

DIPOLE MOMENT
-------------
                                X             Y             Z
Electronic contribution:      9.72380       5.13057       6.61135
Nuclear contribution   :    -11.26826      -6.54977      -6.68567
                        -----------------------------------------
Total Dipole Moment    :     -1.54445      -1.41921      -0.07432
                        -----------------------------------------
Magnitude (a.u.)       :      2.09881
Magnitude (Debye)      :      5.33476

Rotational constants in cm-1:     0.012198     0.009289     0.006797
Rotational constants in MHz :   365.699642   278.479849   203.779975

                             ****ORCA TERMINATED NORMALLY****
TOTAL RUN TIME: 0 days 1 hours 38 minutes 12 seconds 818 msec
