                         Program Version 4.2.0 -  RELEASE  -
|  1> ! ri-mp2 cc-pvtz cc-pvtz/c TightSCF  NoKeepInts
|  2>
|  3> %scf
|  4>   MaxCore 4096
|  5> end
|  6> *xyz  0  1
|  7>     C       14.9740161   14.7664088   17.1061697
|  8>     C       15.7330662   14.7867874   15.7654404
|  9>     O       16.5891417   15.9434197   15.7413001
| 10>     C       17.7677359   15.9067408   16.4288766
| 11>     O       18.4067258   14.8735149   16.5422489
| 12>     C       17.9021753   17.0284885   17.4161287
| 13>     C       17.3595944   18.2619903   17.2507037
| 14>     C       16.5580107   18.7698586   16.0700840
| 15>     N       17.5900100   19.2559262   18.2072754
| 16>     C       18.4627520   19.1432467   19.2576204
| 17>     S       18.7756020   20.4125062   20.2708051
| 18>     N       19.0637018   17.9210468   19.4252871
| 19>     C       18.7180568   16.7012291   18.6709078
| 20>     C       17.9660906   15.7148981   19.5609711
| 21>     C       18.4092060   14.3851019   19.6838757
| 22>     C       17.7110276   13.4682703   20.4874515
| 23>     C       16.5579600   13.8832886   21.1749826
| 24>     C       16.1110043   15.2058381   21.0529999
| 25>     O       14.9920295   15.6071472   21.7070715
| 26>     C       16.8078828   16.1159858   20.2522555
| 27>     H       15.6642316   14.5902726   17.9406841
| 28>     H       14.2280920   13.9626126   17.1119993
| 29>     H       14.4559918   15.7179741   17.2778967
| 30>     H       16.3049584   13.8588547   15.6266615
| 31>     H       15.0053818   14.8617504   14.9473334
| 32>     H       15.5387495   18.3644389   16.0920506
| 33>     H       17.0204795   18.4656001   15.1228026
| 34>     H       16.4817479   19.8638294   16.0519282
| 35>     H       17.1584593   20.1601032   18.1008718
| 36>     H       19.6800306   17.8554194   20.2251497
| 37>     H       19.6578878   16.2298346   18.3487958
| 38>     H       19.2894559   14.0563390   19.1365478
| 39>     H       18.0614147   12.4408539   20.5685729
| 40>     H       16.0143365   13.1776782   21.7943296
| 41>     H       14.6861662   14.8603222   22.2433772
| 42>     H       16.4438271   17.1344230   20.1725430
| 43> *
| 44>
| 45>                          ****END OF INPUT****

CARTESIAN COORDINATES (ANGSTROEM)
---------------------------------
  C     14.974016   14.766409   17.106170
  C     15.733066   14.786787   15.765440
  O     16.589142   15.943420   15.741300
  C     17.767736   15.906741   16.428877
  O     18.406726   14.873515   16.542249
  C     17.902175   17.028489   17.416129
  C     17.359594   18.261990   17.250704
  C     16.558011   18.769859   16.070084
  N     17.590010   19.255926   18.207275
  C     18.462752   19.143247   19.257620
  S     18.775602   20.412506   20.270805
  N     19.063702   17.921047   19.425287
  C     18.718057   16.701229   18.670908
  C     17.966091   15.714898   19.560971
  C     18.409206   14.385102   19.683876
  C     17.711028   13.468270   20.487451
  C     16.557960   13.883289   21.174983
  C     16.111004   15.205838   21.053000
  O     14.992029   15.607147   21.707071
  C     16.807883   16.115986   20.252256
  H     15.664232   14.590273   17.940684
  H     14.228092   13.962613   17.111999
  H     14.455992   15.717974   17.277897
  H     16.304958   13.858855   15.626662
  H     15.005382   14.861750   14.947333
  H     15.538749   18.364439   16.092051
  H     17.020479   18.465600   15.122803
  H     16.481748   19.863829   16.051928
  H     17.158459   20.160103   18.100872
  H     19.680031   17.855419   20.225150
  H     19.657888   16.229835   18.348796
  H     19.289456   14.056339   19.136548
  H     18.061415   12.440854   20.568573
  H     16.014336   13.177678   21.794330
  H     14.686166   14.860322   22.243377
  H     16.443827   17.134423   20.172543

 Total Charge           Charge          ....    0
 Multiplicity           Mult            ....    1
 Number of Electrons    NEL             ....  154
 Basis Dimension        Dim             ....  828

ORBITAL ENERGIES
----------------

  NO   OCC          E(Eh)            E(eV)
   0   2.0000     -91.888770     -2500.4205
   1   2.0000     -20.594568      -560.4067
   2   2.0000     -20.592629      -560.3539
   3   2.0000     -20.550803      -559.2158
   4   2.0000     -15.628611      -425.2761
   5   2.0000     -15.607847      -424.7111
   6   2.0000     -11.395708      -310.0930
   7   2.0000     -11.383927      -309.7724
   8   2.0000     -11.334579      -308.4296
   9   2.0000     -11.310704      -307.7799
  10   2.0000     -11.307788      -307.7005
  11   2.0000     -11.298107      -307.4371
  12   2.0000     -11.260299      -306.4083
  13   2.0000     -11.259407      -306.3840
  14   2.0000     -11.256419      -306.3027
  15   2.0000     -11.251188      -306.1604
  16   2.0000     -11.240801      -305.8777
  17   2.0000     -11.236322      -305.7559
  18   2.0000     -11.233755      -305.6860
  19   2.0000     -11.225165      -305.4523
  20   2.0000      -8.893831      -242.0135
  21   2.0000      -6.575408      -178.9260
  22   2.0000      -6.573401      -178.8713
  23   2.0000      -6.572815      -178.8554
  24   2.0000      -1.452799       -39.5327
  25   2.0000      -1.414364       -38.4868
  26   2.0000      -1.356610       -36.9152
  27   2.0000      -1.339696       -36.4550
  28   2.0000      -1.237664       -33.6786
  29   2.0000      -1.155224       -31.4352
  30   2.0000      -1.120829       -30.4993
  31   2.0000      -1.043591       -28.3976
  32   2.0000      -1.032276       -28.0897
  33   2.0000      -1.012604       -27.5544
  34   2.0000      -0.998932       -27.1823
  35   2.0000      -0.984716       -26.7955
  36   2.0000      -0.923028       -25.1169
  37   2.0000      -0.892107       -24.2755
  38   2.0000      -0.847798       -23.0698
  39   2.0000      -0.837378       -22.7862
  40   2.0000      -0.831062       -22.6144
  41   2.0000      -0.815118       -22.1805
  42   2.0000      -0.753563       -20.5055
  43   2.0000      -0.735920       -20.0254
  44   2.0000      -0.727177       -19.7875
  45   2.0000      -0.693215       -18.8633
  46   2.0000      -0.686142       -18.6709
  47   2.0000      -0.678054       -18.4508
  48   2.0000      -0.673140       -18.3171
  49   2.0000      -0.659745       -17.9526
  50   2.0000      -0.652391       -17.7525
  51   2.0000      -0.645423       -17.5629
  52   2.0000      -0.635052       -17.2806
  53   2.0000      -0.607413       -16.5285
  54   2.0000      -0.601936       -16.3795
  55   2.0000      -0.600045       -16.3280
  56   2.0000      -0.598228       -16.2786
  57   2.0000      -0.580788       -15.8041
  58   2.0000      -0.575372       -15.6567
  59   2.0000      -0.562444       -15.3049
  60   2.0000      -0.555933       -15.1277
  61   2.0000      -0.551685       -15.0121
  62   2.0000      -0.539100       -14.6697
  63   2.0000      -0.527723       -14.3601
  64   2.0000      -0.520049       -14.1512
  65   2.0000      -0.511259       -13.9121
  66   2.0000      -0.498680       -13.5698
  67   2.0000      -0.493375       -13.4254
  68   2.0000      -0.481305       -13.0970
  69   2.0000      -0.464004       -12.6262
  70   2.0000      -0.460155       -12.5215
  71   2.0000      -0.449507       -12.2317
  72   2.0000      -0.354464        -9.6455
  73   2.0000      -0.346800        -9.4369
  74   2.0000      -0.327976        -8.9247
  75   2.0000      -0.318369        -8.6633
  76   2.0000      -0.315637        -8.5889
  77   0.0000       0.073124         1.9898
  78   0.0000       0.108464         2.9514
  79   0.0000       0.119303         3.2464
  80   0.0000       0.133220         3.6251
  81   0.0000       0.141119         3.8400

MULLIKEN ATOMIC CHARGES
-----------------------
   0 C :   -0.303699
   1 C :    0.031992
   2 O :   -0.367093
   3 C :    0.440382
   4 O :   -0.413475
   5 C :   -0.167056
   6 C :    0.136018
   7 C :   -0.283124
   8 N :   -0.123579
   9 C :    0.199788
  10 S :   -0.438704
  11 N :   -0.199419
  12 C :    0.050041
  13 C :    0.028232
  14 C :   -0.155318
  15 C :   -0.138112
  16 C :   -0.276410
  17 C :    0.309945
  18 O :   -0.360292
  19 C :   -0.264603
  20 H :    0.119994
  21 H :    0.103719
  22 H :    0.094548
  23 H :    0.114137
  24 H :    0.105663
  25 H :    0.124900
  26 H :    0.125791
  27 H :    0.102804
  28 H :    0.197183
  29 H :    0.193670
  30 H :    0.155315
  31 H :    0.158021
  32 H :    0.160414
  33 H :    0.130271
  34 H :    0.240554
  35 H :    0.167502
Sum of atomic charges:    0.0000000

LOEWDIN ATOMIC CHARGES
----------------------
   0 C :    0.105626
   1 C :   -0.018487
   2 O :    0.296939
   3 C :   -0.414324
   4 O :    0.114889
   5 C :   -0.092448
   6 C :   -0.070351
   7 C :    0.125833
   8 N :    0.404618
   9 C :   -0.458424
  10 S :   -0.035776
  11 N :    0.397506
  12 C :   -0.045412
  13 C :   -0.041744
  14 C :    0.020833
  15 C :    0.040721
  16 C :   -0.002495
  17 C :   -0.193876
  18 O :    0.394187
  19 C :    0.029715
  20 H :   -0.023158
  21 H :   -0.025848
  22 H :   -0.029381
  23 H :   -0.027130
  24 H :   -0.026125
  25 H :   -0.010851
  26 H :   -0.007780
  27 H :   -0.020220
  28 H :   -0.058875
  29 H :   -0.063991
  30 H :   -0.004320
  31 H :   -0.024474
  32 H :   -0.020508
  33 H :   -0.035787
  34 H :   -0.154350
  35 H :   -0.024734

  Mayer bond orders larger than 0.100000
B(  0-C ,  1-C ) :   0.9626 B(  0-C , 20-H ) :   0.9680 B(  0-C , 21-H ) :   0.9777
B(  0-C , 22-H ) :   0.9767 B(  1-C ,  2-O ) :   0.8907 B(  1-C , 23-H ) :   0.9773
B(  1-C , 24-H ) :   0.9848 B(  2-O ,  3-C ) :   1.1123 B(  3-C ,  4-O ) :   2.0026
B(  3-C ,  5-C ) :   1.0350 B(  5-C ,  6-C ) :   1.6629 B(  5-C , 12-C ) :   0.9629
B(  6-C ,  7-C ) :   0.9541 B(  6-C ,  8-N ) :   1.1393 B(  7-C , 25-H ) :   0.9632
B(  7-C , 26-H ) :   0.9684 B(  7-C , 27-H ) :   0.9895 B(  8-N ,  9-C ) :   1.1818
B(  8-N , 28-H ) :   0.9494 B(  9-C , 10-S ) :   1.6122 B(  9-C , 11-N ) :   1.3007
B( 11-N , 12-C ) :   0.9911 B( 11-N , 29-H ) :   0.9520 B( 12-C , 13-C ) :   0.9433
B( 12-C , 30-H ) :   0.9990 B( 13-C , 14-C ) :   1.3817 B( 13-C , 19-C ) :   1.3690
B( 14-C , 15-C ) :   1.3938 B( 14-C , 31-H ) :   0.9627 B( 15-C , 16-C ) :   1.3623
B( 15-C , 32-H ) :   0.9715 B( 16-C , 17-C ) :   1.3313 B( 16-C , 33-H ) :   0.9853
B( 17-C , 18-O ) :   1.1095 B( 17-C , 19-C ) :   1.3755 B( 18-O , 34-H ) :   0.9802
B( 19-C , 35-H ) :   0.9581

MP2 TOTAL ENERGY:    -1274.337556475 Eh
FINAL SINGLE POINT ENERGY     -1274.337556475293

DIPOLE MOMENT
-------------
                                X             Y             Z
Electronic contribution:     10.17318       8.96730       6.72669
Nuclear contribution   :    -11.52762     -10.27135      -7.57487
                        -----------------------------------------
Total Dipole Moment    :     -1.35444      -1.30404      -0.84819
                        -----------------------------------------
Magnitude (a.u.)       :      2.06263
Magnitude (Debye)      :      5.24280

Rotational constants in cm-1:     0.011714     0.009443     0.006654
Rotational constants in MHz :   351.191273   283.108440   199.470777

                             ****ORCA TERMINATED NORMALLY****
TOTAL RUN TIME: 0 days 1 hours 49 minutes 45 seconds 329 msec
