                         Program Version 4.2.0 -  RELEASE  -
|  1> ! ri-mp2 cc-pvtz cc-pvtz/c TightSCF  NoKeepInts
|  2>
|  3> %scf
|  4>   MaxCore 4096
|  5> end
|  6> *xyz  0  1
|  7>     C       15.5223730   14.3911081   14.2904083
|  8>     C       15.1137433   14.7047994   15.7402587
|  9>     O       15.9470948   15.7809756   16.2087546
| 10>     C       17.0191117   15.5158157   17.0123097
| 11>     O       17.4109101   14.3799395   17.2265066
| 12>     C       17.6092795   16.7151728   17.7005799
| 13>     C       17.3382296   18.0121263   17.3943472
| 14>     C       16.4121456   18.5500774   16.3223793
| 15>     N       18.0068114   19.0387293   18.0702597
| 16>     C       19.0520233   18.8574622   18.9367611
| 17>     S       19.8763840   20.1347281   19.5884474
| 18>     N       19.3786697   17.5594520   19.2351600
| 19>     C       18.5937077   16.3794422   18.8275273
| 20>     C       17.8699102   15.7786583   20.0299968
| 21>     C       18.0384985   14.4203940   20.3569300
| 22>     C       17.3740330   13.8610779   21.4612782
| 23>     C       16.5325606   14.6663205   22.2474540
| 24>     C       16.3587866   16.0186724   21.9234246
| 25>     O       15.5422384   16.7975155   22.6771281
| 26>     C       17.0211023   16.5723975   20.8233117
| 27>     H       15.4338109   15.2838161   13.6590596
| 28>     H       14.8801826   13.6071334   13.8711019
| 29>     H       16.5609916   14.0387659   14.2514956
| 30>     H       14.0655176   15.0298941   15.7491527
| 31>     H       15.1947770   13.8106494   16.3737993
| 32>     H       16.6576351   18.1187859   15.3438543
| 33>     H       16.4717057   19.6401158   16.2174299
| 34>     H       15.3686912   18.2997931   16.5510911
| 35>     H       17.7818001   19.9988998   17.8645901
| 36>     H       20.1320632   17.4519031   19.9020374
| 37>     H       19.3002163   15.6298493   18.4425437
| 38>     H       18.6753240   13.7911552   19.7398366
| 39>     H       17.5083307   12.8074515   21.6992120
| 40>     H       16.0159906   14.2379722   23.0998324
| 41>     H       15.2072699   16.2488122   23.4020006
| 42>     H       16.8750802   17.6221383   20.5937397
| 43> *
| 44>
| 45>                          ****END OF INPUT****

CARTESIAN COORDINATES (ANGSTROEM)
---------------------------------
  C     15.522373   14.391108   14.290408
  C     15.113743   14.704799   15.740259
  O     15.947095   15.780976   16.208755
  C     17.019112   15.515816   17.012310
  O     17.410910   14.379940   17.226507
  C     17.609279   16.715173   17.700580
  C     17.338230   18.012126   17.394347
  C     16.412146   18.550077   16.322379
  N     18.006811   19.038729   18.070260
  C     19.052023   18.857462   18.936761
  S     19.876384   20.134728   19.588447
  N     19.378670   17.559452   19.235160
  C     18.593708   16.379442   18.827527
  C     17.869910   15.778658   20.029997
  C     18.038498   14.420394   20.356930
  C     17.374033   13.861078   21.461278
  C     16.532561   14.666320   22.247454
  C     16.358787   16.018672   21.923425
  O     15.542238   16.797515   22.677128
  C     17.021102   16.572398   20.823312
  H     15.433811   15.283816   13.659060
  H     14.880183   13.607133   13.871102
  H     16.560992   14.038766   14.251496
  H     14.065518   15.029894   15.749153
  H     15.194777   13.810649   16.373799
  H     16.657635   18.118786   15.343854
  H     16.471706   19.640116   16.217430
  H     15.368691   18.299793   16.551091
  H     17.781800   19.998900   17.864590
  H     20.132063   17.451903   19.902037
  H     19.300216   15.629849   18.442544
  H     18.675324   13.791155   19.739837
  H     17.508331   12.807452   21.699212
  H     16.015991   14.237972   23.099832
  H     15.207270   16.248812   23.402001
  H     16.875080   17.622138   20.593740

 Total Charge           Charge          ....    0
 Multiplicity           Mult            ....    1
 Number of Electrons    NEL             ....  154
 Basis Dimension        Dim             ....  828

ORBITAL ENERGIES
----------------

  NO   OCC          E(Eh)            E(eV)
   0   2.0000     -91.888065     -2500.4014
   1   2.0000     -20.604356      -560.6730
   2   2.0000     -20.590876      -560.3062
   3   2.0000     -20.545221      -559.0639
   4   2.0000     -15.628595      -425.2757
   5   2.0000     -15.606540      -424.6756
   6   2.0000     -11.396819      -310.1232
   7   2.0000     -11.382831      -309.7426
   8   2.0000     -11.337099      -308.4982
   9   2.0000     -11.306664      -307.6700
  10   2.0000     -11.305080      -307.6269
  11   2.0000     -11.299612      -307.4781
  12   2.0000     -11.260891      -306.4244
  13   2.0000     -11.258958      -306.3718
  14   2.0000     -11.252672      -306.2008
  15   2.0000     -11.246793      -306.0408
  16   2.0000     -11.236458      -305.7596
  17   2.0000     -11.232636      -305.6556
  18   2.0000     -11.229547      -305.5715
  19   2.0000     -11.229496      -305.5701
  20   2.0000      -8.893125      -241.9942
  21   2.0000      -6.574701      -178.9067
  22   2.0000      -6.572696      -178.8521
  23   2.0000      -6.572109      -178.8362
  24   2.0000      -1.454372       -39.5755
  25   2.0000      -1.410608       -38.3846
  26   2.0000      -1.357494       -36.9393
  27   2.0000      -1.339464       -36.4487
  28   2.0000      -1.236929       -33.6586
  29   2.0000      -1.151431       -31.3320
  30   2.0000      -1.119264       -30.4567
  31   2.0000      -1.042955       -28.3802
  32   2.0000      -1.035682       -28.1823
  33   2.0000      -1.008753       -27.4496
  34   2.0000      -0.997243       -27.1364
  35   2.0000      -0.982757       -26.7422
  36   2.0000      -0.920891       -25.0587
  37   2.0000      -0.891962       -24.2715
  38   2.0000      -0.847500       -23.0617
  39   2.0000      -0.834745       -22.7146
  40   2.0000      -0.827050       -22.5052
  41   2.0000      -0.817203       -22.2372
  42   2.0000      -0.758701       -20.6453
  43   2.0000      -0.735695       -20.0193
  44   2.0000      -0.724383       -19.7115
  45   2.0000      -0.689979       -18.7753
  46   2.0000      -0.684897       -18.6370
  47   2.0000      -0.679936       -18.5020
  48   2.0000      -0.671993       -18.2859
  49   2.0000      -0.655767       -17.8443
  50   2.0000      -0.647808       -17.6277
  51   2.0000      -0.641973       -17.4690
  52   2.0000      -0.629379       -17.1263
  53   2.0000      -0.613671       -16.6988
  54   2.0000      -0.599945       -16.3253
  55   2.0000      -0.598884       -16.2965
  56   2.0000      -0.594158       -16.1679
  57   2.0000      -0.584233       -15.8978
  58   2.0000      -0.572396       -15.5757
  59   2.0000      -0.564429       -15.3589
  60   2.0000      -0.560967       -15.2647
  61   2.0000      -0.545345       -14.8396
  62   2.0000      -0.534383       -14.5413
  63   2.0000      -0.532399       -14.4873
  64   2.0000      -0.516486       -14.0543
  65   2.0000      -0.509516       -13.8646
  66   2.0000      -0.500041       -13.6068
  67   2.0000      -0.494955       -13.4684
  68   2.0000      -0.480278       -13.0690
  69   2.0000      -0.463515       -12.6129
  70   2.0000      -0.456927       -12.4336
  71   2.0000      -0.455097       -12.3838
  72   2.0000      -0.354353        -9.6424
  73   2.0000      -0.343339        -9.3427
  74   2.0000      -0.327143        -8.9020
  75   2.0000      -0.315460        -8.5841
  76   2.0000      -0.313013        -8.5175
  77   0.0000       0.075974         2.0674
  78   0.0000       0.114260         3.1092
  79   0.0000       0.121357         3.3023
  80   0.0000       0.136400         3.7116
  81   0.0000       0.140373         3.8197

MULLIKEN ATOMIC CHARGES
-----------------------
   0 C :   -0.280142
   1 C :    0.027251
   2 O :   -0.344368
   3 C :    0.454805
   4 O :   -0.437029
   5 C :   -0.180329
   6 C :    0.145223
   7 C :   -0.284378
   8 N :   -0.120446
   9 C :    0.200748
  10 S :   -0.438997
  11 N :   -0.196333
  12 C :    0.033117
  13 C :    0.058398
  14 C :   -0.160632
  15 C :   -0.133976
  16 C :   -0.278669
  17 C :    0.311710
  18 O :   -0.359217
  19 C :   -0.272302
  20 H :    0.090860
  21 H :    0.095572
  22 H :    0.106541
  23 H :    0.103830
  24 H :    0.114561
  25 H :    0.126856
  26 H :    0.101921
  27 H :    0.128305
  28 H :    0.196633
  29 H :    0.193486
  30 H :    0.153345
  31 H :    0.153075
  32 H :    0.158720
  33 H :    0.127720
  34 H :    0.239957
  35 H :    0.164187
Sum of atomic charges:   -0.0000000

LOEWDIN ATOMIC CHARGES
----------------------
   0 C :    0.104036
   1 C :   -0.014770
   2 O :    0.308389
   3 C :   -0.414409
   4 O :    0.100411
   5 C :   -0.090779
   6 C :   -0.064424
   7 C :    0.124862
   8 N :    0.404983
   9 C :   -0.459172
  10 S :   -0.035763
  11 N :    0.398024
  12 C :   -0.046660
  13 C :   -0.038779
  14 C :    0.022258
  15 C :    0.040829
  16 C :   -0.002257
  17 C :   -0.192495
  18 O :    0.392954
  19 C :    0.028459
  20 H :   -0.029911
  21 H :   -0.026114
  22 H :   -0.024287
  23 H :   -0.028133
  24 H :   -0.026340
  25 H :   -0.008934
  26 H :   -0.021229
  27 H :   -0.009313
  28 H :   -0.059225
  29 H :   -0.063572
  30 H :   -0.005203
  31 H :   -0.025389
  32 H :   -0.021344
  33 H :   -0.036477
  34 H :   -0.154981
  35 H :   -0.025243

  Mayer bond orders larger than 0.100000
B(  0-C ,  1-C ) :   0.9672 B(  0-C , 20-H ) :   0.9786 B(  0-C , 21-H ) :   0.9759
B(  0-C , 22-H ) :   0.9775 B(  1-C ,  2-O ) :   0.8889 B(  1-C , 23-H ) :   0.9842
B(  1-C , 24-H ) :   0.9735 B(  2-O ,  3-C ) :   1.1652 B(  3-C ,  4-O ) :   1.9590
B(  3-C ,  5-C ) :   1.0693 B(  5-C ,  6-C ) :   1.6437 B(  5-C , 12-C ) :   0.9663
B(  6-C ,  7-C ) :   0.9553 B(  6-C ,  8-N ) :   1.1521 B(  7-C , 25-H ) :   0.9652
B(  7-C , 26-H ) :   0.9914 B(  7-C , 27-H ) :   0.9640 B(  8-N ,  9-C ) :   1.1770
B(  8-N , 28-H ) :   0.9487 B(  9-C , 10-S ) :   1.6110 B(  9-C , 11-N ) :   1.3050
B( 11-N , 12-C ) :   0.9932 B( 11-N , 29-H ) :   0.9520 B( 12-C , 13-C ) :   0.9477
B( 12-C , 30-H ) :   1.0006 B( 13-C , 14-C ) :   1.3750 B( 13-C , 19-C ) :   1.3693
B( 14-C , 15-C ) :   1.3945 B( 14-C , 31-H ) :   0.9651 B( 15-C , 16-C ) :   1.3625
B( 15-C , 32-H ) :   0.9715 B( 16-C , 17-C ) :   1.3316 B( 16-C , 33-H ) :   0.9861
B( 17-C , 18-O ) :   1.1078 B( 17-C , 19-C ) :   1.3794 B( 18-O , 34-H ) :   0.9807
B( 19-C , 35-H ) :   0.9585

MP2 TOTAL ENERGY:    -1274.348547504 Eh
FINAL SINGLE POINT ENERGY     -1274.348547503664

DIPOLE MOMENT
-------------
                                X             Y             Z
Electronic contribution:     10.18832       8.89369      12.37141
Nuclear contribution   :    -11.89965      -9.99701     -13.24115
                        -----------------------------------------
Total Dipole Moment    :     -1.71133      -1.10333      -0.86973
                        -----------------------------------------
Magnitude (a.u.)       :      2.21414
Magnitude (Debye)      :      5.62790

Rotational constants in cm-1:     0.010564     0.008663     0.005683
Rotational constants in MHz :   316.711984   259.705645   170.359991

                             ****ORCA TERMINATED NORMALLY****
TOTAL RUN TIME: 0 days 1 hours 42 minutes 7 seconds 860 msec
