                         Program Version 5.0.0 -  RELEASE  -
|  1> ! ri-mp2 cc-pvtz cc-pvtz/c TightSCF NoKeepInts
|  2>
|  3> %scf
|  4>   MaxCore 4096
|  5> end
|  6> *xyz  0  1
|  7>     C       15.0743973   15.6110939   17.5070123
|  8>     C       15.5843793   15.2854994   16.0873305
|  9>     O       16.9875373   14.9327710   16.0465950
| 10>     C       18.1078808   15.6098251   16.4764408
| 11>     O       19.1724022   15.0197510   16.4576271
| 12>     C       17.9400370   16.7857640   17.3822909
| 13>     C       17.4096431   17.9568086   16.9570185
| 14>     C       16.9021396   18.2821416   15.5691170
| 15>     N       17.3893461   19.0634399   17.8088253
| 16>     C       18.0225547   19.1235025   19.0224645
| 17>     S       18.0280189   20.5046110   19.9315955
| 18>     N       18.6562355   17.9805121   19.4431142
| 19>     C       18.5891194   16.6699113   18.7652844
| 20>     C       17.8877336   15.6243230   19.6297651
| 21>     C       18.3213877   14.2859226   19.5984402
| 22>     C       17.6831999   13.3054540   20.3758383
| 23>     C       16.5999272   13.6640981   21.1953266
| 24>     C       16.1625899   14.9947163   21.2301768
| 25>     O       15.1094304   15.3423247   22.0115688
| 26>     C       16.7990248   15.9691057   20.4545520
| 27>     H       15.4507425   14.8726191   18.2254190
| 28>     H       13.9791187   15.5588604   17.5284279
| 29>     H       15.3496685   16.6128583   17.8465029
| 30>     H       15.0160295   14.4241164   15.7127537
| 31>     H       15.3698074   16.1192845   15.4107375
| 32>     H       17.1766732   17.5148452   14.8350738
| 33>     H       17.3342679   19.2241711   15.2074555
| 34>     H       15.8109205   18.3915109   15.5627762
| 35>     H       16.9489958   19.9190231   17.5088324
| 36>     H       19.1059896   18.0493878   20.3473264
| 37>     H       19.6241789   16.3287966   18.6143251
| 38>     H       19.1531001   14.0017095   18.9568060
| 39>     H       18.0276619   12.2733980   20.3368439
| 40>     H       16.1029770   12.9091547   21.7955518
| 41>     H       14.8362047   14.5508997   22.4996067
| 42>     H       16.4336791   16.9897889   20.4951774
| 43> *
| 44>
| 45>                          ****END OF INPUT****

CARTESIAN COORDINATES (ANGSTROEM)
---------------------------------
  C     15.074397   15.611094   17.507012
  C     15.584379   15.285499   16.087331
  O     16.987537   14.932771   16.046595
  C     18.107881   15.609825   16.476441
  O     19.172402   15.019751   16.457627
  C     17.940037   16.785764   17.382291
  C     17.409643   17.956809   16.957019
  C     16.902140   18.282142   15.569117
  N     17.389346   19.063440   17.808825
  C     18.022555   19.123503   19.022464
  S     18.028019   20.504611   19.931596
  N     18.656236   17.980512   19.443114
  C     18.589119   16.669911   18.765284
  C     17.887734   15.624323   19.629765
  C     18.321388   14.285923   19.598440
  C     17.683200   13.305454   20.375838
  C     16.599927   13.664098   21.195327
  C     16.162590   14.994716   21.230177
  O     15.109430   15.342325   22.011569
  C     16.799025   15.969106   20.454552
  H     15.450743   14.872619   18.225419
  H     13.979119   15.558860   17.528428
  H     15.349668   16.612858   17.846503
  H     15.016030   14.424116   15.712754
  H     15.369807   16.119284   15.410737
  H     17.176673   17.514845   14.835074
  H     17.334268   19.224171   15.207455
  H     15.810920   18.391511   15.562776
  H     16.948996   19.919023   17.508832
  H     19.105990   18.049388   20.347326
  H     19.624179   16.328797   18.614325
  H     19.153100   14.001710   18.956806
  H     18.027662   12.273398   20.336844
  H     16.102977   12.909155   21.795552
  H     14.836205   14.550900   22.499607
  H     16.433679   16.989789   20.495177

 Total Charge           Charge          ....    0
 Multiplicity           Mult            ....    1
 Number of Electrons    NEL             ....  154
 Basis Dimension        Dim             ....  828

ORBITAL ENERGIES
----------------

  NO   OCC          E(Eh)            E(eV)
   0   2.0000     -91.890433     -2500.4658
   1   2.0000     -20.599151      -560.5314
   2   2.0000     -20.597418      -560.4842
   3   2.0000     -20.548327      -559.1484
   4   2.0000     -15.628079      -425.2617
   5   2.0000     -15.611289      -424.8048
   6   2.0000     -11.400508      -310.2236
   7   2.0000     -11.386895      -309.8532
   8   2.0000     -11.330311      -308.3134
   9   2.0000     -11.314258      -307.8766
  10   2.0000     -11.313980      -307.8690
  11   2.0000     -11.310567      -307.7762
  12   2.0000     -11.271913      -306.7244
  13   2.0000     -11.266577      -306.5791
  14   2.0000     -11.261608      -306.4439
  15   2.0000     -11.254584      -306.2528
  16   2.0000     -11.243755      -305.9581
  17   2.0000     -11.239160      -305.8331
  18   2.0000     -11.236176      -305.7519
  19   2.0000     -11.230471      -305.5967
  20   2.0000      -8.895535      -242.0598
  21   2.0000      -6.577124      -178.9726
  22   2.0000      -6.575097      -178.9175
  23   2.0000      -6.574522      -178.9018
  24   2.0000      -1.444564       -39.3086
  25   2.0000      -1.417240       -38.5650
  26   2.0000      -1.356050       -36.9000
  27   2.0000      -1.341272       -36.4979
  28   2.0000      -1.240380       -33.7525
  29   2.0000      -1.158965       -31.5370
  30   2.0000      -1.125457       -30.6252
  31   2.0000      -1.047991       -28.5173
  32   2.0000      -1.039311       -28.2811
  33   2.0000      -1.017147       -27.6780
  34   2.0000      -1.005845       -27.3704
  35   2.0000      -0.990322       -26.9480
  36   2.0000      -0.928110       -25.2552
  37   2.0000      -0.898117       -24.4390
  38   2.0000      -0.855017       -23.2662
  39   2.0000      -0.840770       -22.8785
  40   2.0000      -0.834328       -22.7032
  41   2.0000      -0.829268       -22.5655
  42   2.0000      -0.747075       -20.3289
  43   2.0000      -0.739078       -20.1113
  44   2.0000      -0.730499       -19.8779
  45   2.0000      -0.695088       -18.9143
  46   2.0000      -0.687274       -18.7017
  47   2.0000      -0.678817       -18.4716
  48   2.0000      -0.674721       -18.3601
  49   2.0000      -0.663148       -18.0452
  50   2.0000      -0.652180       -17.7467
  51   2.0000      -0.650908       -17.7121
  52   2.0000      -0.640756       -17.4359
  53   2.0000      -0.615607       -16.7515
  54   2.0000      -0.609842       -16.5946
  55   2.0000      -0.605610       -16.4795
  56   2.0000      -0.602058       -16.3828
  57   2.0000      -0.591199       -16.0873
  58   2.0000      -0.579355       -15.7650
  59   2.0000      -0.573170       -15.5967
  60   2.0000      -0.565620       -15.3913
  61   2.0000      -0.556971       -15.1559
  62   2.0000      -0.541689       -14.7401
  63   2.0000      -0.529421       -14.4063
  64   2.0000      -0.519228       -14.1289
  65   2.0000      -0.513239       -13.9659
  66   2.0000      -0.502377       -13.6704
  67   2.0000      -0.501197       -13.6383
  68   2.0000      -0.483474       -13.1560
  69   2.0000      -0.464470       -12.6389
  70   2.0000      -0.454010       -12.3542
  71   2.0000      -0.450895       -12.2695
  72   2.0000      -0.356788        -9.7087
  73   2.0000      -0.348449        -9.4818
  74   2.0000      -0.330027        -8.9805
  75   2.0000      -0.322877        -8.7859
  76   2.0000      -0.318651        -8.6709
  77   0.0000       0.084319         2.2944
  78   0.0000       0.107156         2.9159
  79   0.0000       0.112847         3.0707
  80   0.0000       0.130168         3.5420
  81   0.0000       0.131050         3.5661

MULLIKEN ATOMIC CHARGES
-----------------------
   0 C :   -0.329193
   1 C :    0.022903
   2 O :   -0.323137
   3 C :    0.413392
   4 O :   -0.383447
   5 C :   -0.191585
   6 C :    0.137795
   7 C :   -0.335400
   8 N :   -0.136632
   9 C :    0.202845
  10 S :   -0.440235
  11 N :   -0.224752
  12 C :    0.081634
  13 C :    0.022674
  14 C :   -0.210062
  15 C :   -0.135598
  16 C :   -0.277182
  17 C :    0.315904
  18 O :   -0.358486
  19 C :   -0.270658
  20 H :    0.128409
  21 H :    0.115611
  22 H :    0.108158
  23 H :    0.134332
  24 H :    0.086742
  25 H :    0.127012
  26 H :    0.139574
  27 H :    0.122727
  28 H :    0.196718
  29 H :    0.201931
  30 H :    0.168740
  31 H :    0.175121
  32 H :    0.163719
  33 H :    0.131990
  34 H :    0.241063
  35 H :    0.177373
Sum of atomic charges:   -0.0000000

LOEWDIN ATOMIC CHARGES
----------------------
   0 C :    0.103977
   1 C :   -0.018505
   2 O :    0.299458
   3 C :   -0.415672
   4 O :    0.123159
   5 C :   -0.078292
   6 C :   -0.100679
   7 C :    0.123462
   8 N :    0.402175
   9 C :   -0.457771
  10 S :   -0.037355
  11 N :    0.398537
  12 C :   -0.042195
  13 C :   -0.042370
  14 C :    0.020758
  15 C :    0.043764
  16 C :   -0.001988
  17 C :   -0.194146
  18 O :    0.395350
  19 C :    0.028670
  20 H :   -0.019128
  21 H :   -0.024390
  22 H :   -0.037401
  23 H :   -0.016792
  24 H :   -0.040289
  25 H :   -0.008636
  26 H :   -0.008909
  27 H :   -0.017601
  28 H :   -0.057858
  29 H :   -0.063370
  30 H :   -0.001378
  31 H :   -0.021701
  32 H :   -0.018592
  33 H :   -0.035035
  34 H :   -0.153612
  35 H :   -0.025646

  Mayer bond orders larger than 0.100000
B(  0-C ,  1-C ) :   0.9537 B(  0-C , 20-H ) :   0.9684 B(  0-C , 21-H ) :   0.9770
B(  0-C , 22-H ) :   0.9731 B(  1-C ,  2-O ) :   0.9103 B(  1-C , 23-H ) :   0.9813
B(  1-C , 24-H ) :   0.9745 B(  2-O ,  3-C ) :   1.1714 B(  3-C ,  4-O ) :   2.0766
B(  3-C ,  5-C ) :   0.9220 B(  5-C ,  6-C ) :   1.6977 B(  5-C , 12-C ) :   0.9554
B(  6-C ,  7-C ) :   0.9446 B(  6-C ,  8-N ) :   1.1015 B(  7-C , 25-H ) :   0.9808
B(  7-C , 26-H ) :   0.9718 B(  7-C , 27-H ) :   0.9650 B(  8-N ,  9-C ) :   1.1949
B(  8-N , 28-H ) :   0.9525 B(  9-C , 10-S ) :   1.6097 B(  9-C , 11-N ) :   1.2881
B( 11-N , 12-C ) :   0.9869 B( 11-N , 29-H ) :   0.9481 B( 12-C , 13-C ) :   0.9490
B( 12-C , 30-H ) :   0.9948 B( 13-C , 14-C ) :   1.3899 B( 13-C , 19-C ) :   1.3408
B( 14-C , 15-C ) :   1.4011 B( 14-C , 31-H ) :   0.9583 B( 15-C , 16-C ) :   1.3586
B( 15-C , 32-H ) :   0.9702 B( 16-C , 17-C ) :   1.3304 B( 16-C , 33-H ) :   0.9849
B( 17-C , 18-O ) :   1.1103 B( 17-C , 19-C ) :   1.3707 B( 18-O , 34-H ) :   0.9797
B( 19-C , 35-H ) :   0.9570

MP2 TOTAL ENERGY:    -1274.325236621 Eh
FINAL SINGLE POINT ENERGY     -1274.325236621333

DIPOLE MOMENT
-------------
                                X             Y             Z
Electronic contribution:      9.29836       5.90355       6.38343
Nuclear contribution   :    -10.87655      -6.92215      -7.09462
                        -----------------------------------------
Total Dipole Moment    :     -1.57820      -1.01860      -0.71119
                        -----------------------------------------
Magnitude (a.u.)       :      2.00849
Magnitude (Debye)      :      5.10518

Rotational constants in cm-1:     0.011795     0.009618     0.006843
Rotational constants in MHz :   353.599833   288.343932   205.136003

                             ****ORCA TERMINATED NORMALLY****
TOTAL RUN TIME: 0 days 2 hours 14 minutes 22 seconds 656 msec
