                         Program Version 5.0.0 -  RELEASE  -
|  1> ! ri-mp2 cc-pvtz cc-pvtz/c TightSCF NoKeepInts
|  2>
|  3> %scf
|  4>   MaxCore 4096
|  5> end
|  6> *xyz  0  1
|  7>     C       14.8354638   16.1519093   17.2638600
|  8>     C       15.6593876   14.8972792   16.9109637
|  9>     O       16.7898184   15.1353877   16.0355836
| 10>     C       17.9744062   15.7311346   16.3965497
| 11>     O       19.0092410   15.1037111   16.2654992
| 12>     C       17.9076779   16.8740756   17.3504966
| 13>     C       17.3674190   18.0640711   17.0011905
| 14>     C       16.7679015   18.4342934   15.6614042
| 15>     N       17.4158837   19.1380102   17.8923455
| 16>     C       18.0697489   19.1224846   19.0970754
| 17>     S       18.1163818   20.4534792   20.0770354
| 18>     N       18.6840045   17.9462166   19.4521927
| 19>     C       18.6219064   16.6833134   18.6890216
| 20>     C       17.9707405   15.5667905   19.5003492
| 21>     C       18.4836266   14.2582712   19.4326665
| 22>     C       17.8776182   13.2124638   20.1483054
| 23>     C       16.7463117   13.4751751   20.9390700
| 24>     C       16.2299698   14.7759012   21.0079964
| 25>     O       15.1299580   15.0310801   21.7596032
| 26>     C       16.8348498   15.8150421   20.2939298
| 27>     H       15.3215806   16.7665779   18.0269895
| 28>     H       13.8672087   15.8472918   17.6797902
| 29>     H       14.6332156   16.7553880   16.3721587
| 30>     H       15.9949709   14.4017832   17.8314895
| 31>     H       14.9892150   14.1940817   16.3998382
| 32>     H       16.6030847   17.5623989   15.0174898
| 33>     H       17.4350426   19.1147135   15.1171552
| 34>     H       15.8001258   18.9359395   15.7835868
| 35>     H       16.9917708   20.0170590   17.6405099
| 36>     H       19.1446353   17.9607493   20.3534677
| 37>     H       19.6560792   16.3788270   18.4694637
| 38>     H       19.3493566   14.0483190   18.8074278
| 39>     H       18.2834738   12.2041131   20.0834760
| 40>     H       16.2741067   12.6694709   21.4916995
| 41>     H       14.8978823   14.2126698   22.2243136
| 42>     H       16.4129363   16.8125275   20.3600053
| 43> *
| 44>
| 45>                          ****END OF INPUT****

CARTESIAN COORDINATES (ANGSTROEM)
---------------------------------
  C     14.835464   16.151909   17.263860
  C     15.659388   14.897279   16.910964
  O     16.789818   15.135388   16.035584
  C     17.974406   15.731135   16.396550
  O     19.009241   15.103711   16.265499
  C     17.907678   16.874076   17.350497
  C     17.367419   18.064071   17.001190
  C     16.767902   18.434293   15.661404
  N     17.415884   19.138010   17.892346
  C     18.069749   19.122485   19.097075
  S     18.116382   20.453479   20.077035
  N     18.684005   17.946217   19.452193
  C     18.621906   16.683313   18.689022
  C     17.970741   15.566790   19.500349
  C     18.483627   14.258271   19.432666
  C     17.877618   13.212464   20.148305
  C     16.746312   13.475175   20.939070
  C     16.229970   14.775901   21.007996
  O     15.129958   15.031080   21.759603
  C     16.834850   15.815042   20.293930
  H     15.321581   16.766578   18.026989
  H     13.867209   15.847292   17.679790
  H     14.633216   16.755388   16.372159
  H     15.994971   14.401783   17.831489
  H     14.989215   14.194082   16.399838
  H     16.603085   17.562399   15.017490
  H     17.435043   19.114713   15.117155
  H     15.800126   18.935939   15.783587
  H     16.991771   20.017059   17.640510
  H     19.144635   17.960749   20.353468
  H     19.656079   16.378827   18.469464
  H     19.349357   14.048319   18.807428
  H     18.283474   12.204113   20.083476
  H     16.274107   12.669471   21.491699
  H     14.897882   14.212670   22.224314
  H     16.412936   16.812528   20.360005

 Total Charge           Charge          ....    0
 Multiplicity           Mult            ....    1
 Number of Electrons    NEL             ....  154
 Basis Dimension        Dim             ....  828

ORBITAL ENERGIES
----------------

  NO   OCC          E(Eh)            E(eV)
   0   2.0000     -91.890747     -2500.4743
   1   2.0000     -20.601836      -560.6045
   2   2.0000     -20.587737      -560.2208
   3   2.0000     -20.553140      -559.2794
   4   2.0000     -15.627678      -425.2507
   5   2.0000     -15.612302      -424.8323
   6   2.0000     -11.396648      -310.1185
   7   2.0000     -11.387466      -309.8687
   8   2.0000     -11.329121      -308.2811
   9   2.0000     -11.319171      -308.0103
  10   2.0000     -11.315403      -307.9078
  11   2.0000     -11.304129      -307.6010
  12   2.0000     -11.265756      -306.5568
  13   2.0000     -11.265110      -306.5392
  14   2.0000     -11.261800      -306.4492
  15   2.0000     -11.259239      -306.3795
  16   2.0000     -11.248669      -306.0919
  17   2.0000     -11.244280      -305.9724
  18   2.0000     -11.241125      -305.8866
  19   2.0000     -11.232134      -305.6419
  20   2.0000      -8.895845      -242.0683
  21   2.0000      -6.577430      -178.9810
  22   2.0000      -6.575408      -178.9260
  23   2.0000      -6.574829      -178.9102
  24   2.0000      -1.443547       -39.2809
  25   2.0000      -1.421657       -38.6853
  26   2.0000      -1.354169       -36.8488
  27   2.0000      -1.340733       -36.4832
  28   2.0000      -1.240586       -33.7580
  29   2.0000      -1.163305       -31.6551
  30   2.0000      -1.125728       -30.6326
  31   2.0000      -1.049848       -28.5678
  32   2.0000      -1.036228       -28.1972
  33   2.0000      -1.020918       -27.7806
  34   2.0000      -1.005036       -27.3484
  35   2.0000      -0.990678       -26.9577
  36   2.0000      -0.928626       -25.2692
  37   2.0000      -0.892943       -24.2982
  38   2.0000      -0.852679       -23.2026
  39   2.0000      -0.842510       -22.9259
  40   2.0000      -0.839010       -22.8306
  41   2.0000      -0.831028       -22.6134
  42   2.0000      -0.751687       -20.4544
  43   2.0000      -0.735584       -20.0163
  44   2.0000      -0.730384       -19.8748
  45   2.0000      -0.699722       -19.0404
  46   2.0000      -0.689180       -18.7536
  47   2.0000      -0.678297       -18.4574
  48   2.0000      -0.675137       -18.3714
  49   2.0000      -0.662531       -18.0284
  50   2.0000      -0.655229       -17.8297
  51   2.0000      -0.644347       -17.5336
  52   2.0000      -0.640525       -17.4296
  53   2.0000      -0.614132       -16.7114
  54   2.0000      -0.608373       -16.5547
  55   2.0000      -0.606051       -16.4915
  56   2.0000      -0.601964       -16.3803
  57   2.0000      -0.591503       -16.0956
  58   2.0000      -0.580877       -15.8065
  59   2.0000      -0.578181       -15.7331
  60   2.0000      -0.566905       -15.4263
  61   2.0000      -0.556462       -15.1421
  62   2.0000      -0.539990       -14.6939
  63   2.0000      -0.530973       -14.4485
  64   2.0000      -0.522612       -14.2210
  65   2.0000      -0.514071       -13.9886
  66   2.0000      -0.503865       -13.7109
  67   2.0000      -0.493266       -13.4225
  68   2.0000      -0.489199       -13.3118
  69   2.0000      -0.464056       -12.6276
  70   2.0000      -0.457282       -12.4433
  71   2.0000      -0.448233       -12.1971
  72   2.0000      -0.355696        -9.6790
  73   2.0000      -0.354020        -9.6334
  74   2.0000      -0.330378        -8.9900
  75   2.0000      -0.327137        -8.9019
  76   2.0000      -0.319329        -8.6894
  77   0.0000       0.083963         2.2848
  78   0.0000       0.101697         2.7673
  79   0.0000       0.118224         3.2170
  80   0.0000       0.125322         3.4102
  81   0.0000       0.128674         3.5014

MULLIKEN ATOMIC CHARGES
-----------------------
   0 C :   -0.338632
   1 C :    0.038555
   2 O :   -0.353434
   3 C :    0.405245
   4 O :   -0.373174
   5 C :   -0.180622
   6 C :    0.129657
   7 C :   -0.330849
   8 N :   -0.132998
   9 C :    0.205226
  10 S :   -0.439568
  11 N :   -0.221698
  12 C :    0.087955
  13 C :    0.006717
  14 C :   -0.200353
  15 C :   -0.132727
  16 C :   -0.277627
  17 C :    0.319067
  18 O :   -0.356866
  19 C :   -0.278344
  20 H :    0.110817
  21 H :    0.125710
  22 H :    0.106022
  23 H :    0.104950
  24 H :    0.126130
  25 H :    0.127129
  26 H :    0.149618
  27 H :    0.113603
  28 H :    0.197242
  29 H :    0.200232
  30 H :    0.165290
  31 H :    0.172383
  32 H :    0.165174
  33 H :    0.133711
  34 H :    0.241936
  35 H :    0.184523
Sum of atomic charges:    0.0000000

LOEWDIN ATOMIC CHARGES
----------------------
   0 C :    0.103095
   1 C :   -0.011471
   2 O :    0.280666
   3 C :   -0.415916
   4 O :    0.132610
   5 C :   -0.084996
   6 C :   -0.094200
   7 C :    0.124969
   8 N :    0.403543
   9 C :   -0.456016
  10 S :   -0.036623
  11 N :    0.397641
  12 C :   -0.044353
  13 C :   -0.044781
  14 C :    0.020423
  15 C :    0.043806
  16 C :   -0.001010
  17 C :   -0.194373
  18 O :    0.395936
  19 C :    0.027929
  20 H :   -0.036344
  21 H :   -0.020867
  22 H :   -0.030229
  23 H :   -0.028160
  24 H :   -0.019241
  25 H :   -0.010734
  26 H :   -0.008854
  27 H :   -0.017485
  28 H :   -0.057094
  29 H :   -0.063894
  30 H :   -0.002964
  31 H :   -0.021480
  32 H :   -0.018035
  33 H :   -0.034124
  34 H :   -0.152622
  35 H :   -0.024751

  Mayer bond orders larger than 0.100000
B(  0-C ,  1-C ) :   0.9571 B(  0-C , 20-H ) :   0.9704 B(  0-C , 21-H ) :   0.9782
B(  0-C , 22-H ) :   0.9760 B(  1-C ,  2-O ) :   0.8981 B(  1-C , 23-H ) :   0.9717
B(  1-C , 24-H ) :   0.9841 B(  2-O ,  3-C ) :   1.1495 B(  3-C ,  4-O ) :   2.1005
B(  3-C ,  5-C ) :   0.9289 B(  5-C ,  6-C ) :   1.6866 B(  5-C , 12-C ) :   0.9497
B(  6-C ,  7-C ) :   0.9510 B(  6-C ,  8-N ) :   1.1166 B(  7-C , 25-H ) :   0.9769
B(  7-C , 26-H ) :   0.9652 B(  7-C , 27-H ) :   0.9699 B(  8-N ,  9-C ) :   1.1944
B(  8-N , 28-H ) :   0.9513 B(  9-C , 10-S ) :   1.6125 B(  9-C , 11-N ) :   1.2853
B( 11-N , 12-C ) :   0.9950 B( 11-N , 29-H ) :   0.9485 B( 12-C , 13-C ) :   0.9402
B( 12-C , 30-H ) :   0.9983 B( 13-C , 14-C ) :   1.3895 B( 13-C , 19-C ) :   1.3415
B( 14-C , 15-C ) :   1.4001 B( 14-C , 31-H ) :   0.9600 B( 15-C , 16-C ) :   1.3590
B( 15-C , 32-H ) :   0.9699 B( 16-C , 17-C ) :   1.3304 B( 16-C , 33-H ) :   0.9842
B( 17-C , 18-O ) :   1.1123 B( 17-C , 19-C ) :   1.3663 B( 18-O , 34-H ) :   0.9789
B( 19-C , 35-H ) :   0.9511

MP2 TOTAL ENERGY:    -1274.324145720 Eh
FINAL SINGLE POINT ENERGY     -1274.324145720457

DIPOLE MOMENT
-------------
                                X             Y             Z
Electronic contribution:      9.62453       5.43058       5.72891
Nuclear contribution   :    -11.00899      -6.65435      -6.00512
                        -----------------------------------------
Total Dipole Moment    :     -1.38446      -1.22376      -0.27621
                        -----------------------------------------
Magnitude (a.u.)       :      1.86832
Magnitude (Debye)      :      4.74890

Rotational constants in cm-1:     0.012443     0.009339     0.007019
Rotational constants in MHz :   373.031693   279.983573   210.409483

                             ****ORCA TERMINATED NORMALLY****
TOTAL RUN TIME: 0 days 1 hours 46 minutes 23 seconds 990 msec
