                         Program Version 4.2.0 -  RELEASE  -
|  1> ! ri-mp2 cc-pvtz cc-pvtz/c TightSCF  NoKeepInts
|  2>
|  3> %scf
|  4>   MaxCore 4096
|  5> end
|  6> *xyz  0  1
|  7>     C       15.1896364   14.5983958   17.0767941
|  8>     C       16.4309250   14.0180271   16.3629554
|  9>     O       17.5797548   14.8911362   16.4513082
| 10>     C       17.4613177   16.2158984   16.1423374
| 11>     O       16.8475396   16.5673268   15.1495512
| 12>     C       17.7719877   17.1201875   17.3050559
| 13>     C       17.4659852   18.4432719   17.3019262
| 14>     C       16.7115521   19.2112905   16.2377468
| 15>     N       17.9143610   19.2662327   18.3402711
| 16>     C       18.8359510   18.8939834   19.2832311
| 17>     S       19.4620062   19.9713805   20.3707330
| 18>     N       19.2188869   17.5764438   19.2729951
| 19>     C       18.5591611   16.5200770   18.4830394
| 20>     C       17.6939892   15.6655280   19.4047334
| 21>     C       17.9663453   14.2937845   19.5666490
| 22>     C       17.1817213   13.5045197   20.4243185
| 23>     C       16.1196777   14.0922292   21.1324533
| 24>     C       15.8506273   15.4594114   20.9813387
| 25>     O       14.8251683   16.0295246   21.6624293
| 26>     C       16.6313154   16.2417804   20.1247279
| 27>     H       15.3848651   14.7586668   18.1409399
| 28>     H       14.3502930   13.8973394   16.9969023
| 29>     H       14.8691872   15.5475699   16.6303425
| 30>     H       16.6815291   13.0433877   16.8007939
| 31>     H       16.1837956   13.8553981   15.3052236
| 32>     H       17.2569951   19.1877536   15.2856504
| 33>     H       16.5488657   20.2627859   16.5016230
| 34>     H       15.7268795   18.7598175   16.0617088
| 35>     H       17.6505866   20.2385507   18.3532947
| 36>     H       19.8781343   17.3229063   19.9975847
| 37>     H       19.3498261   15.8815877   18.0644237
| 38>     H       18.7861826   13.8360762   19.0192621
| 39>     H       17.3992941   12.4441198   20.5401466
| 40>     H       15.5117281   13.4871351   21.7970516
| 41>     H       14.4416527   15.3496067   22.2365228
| 42>     H       16.4092761   17.2988692   20.0279343
| 43> *
| 44>
| 45>                          ****END OF INPUT****

CARTESIAN COORDINATES (ANGSTROEM)
---------------------------------
  C     15.189636   14.598396   17.076794
  C     16.430925   14.018027   16.362955
  O     17.579755   14.891136   16.451308
  C     17.461318   16.215898   16.142337
  O     16.847540   16.567327   15.149551
  C     17.771988   17.120188   17.305056
  C     17.465985   18.443272   17.301926
  C     16.711552   19.211290   16.237747
  N     17.914361   19.266233   18.340271
  C     18.835951   18.893983   19.283231
  S     19.462006   19.971380   20.370733
  N     19.218887   17.576444   19.272995
  C     18.559161   16.520077   18.483039
  C     17.693989   15.665528   19.404733
  C     17.966345   14.293784   19.566649
  C     17.181721   13.504520   20.424318
  C     16.119678   14.092229   21.132453
  C     15.850627   15.459411   20.981339
  O     14.825168   16.029525   21.662429
  C     16.631315   16.241780   20.124728
  H     15.384865   14.758667   18.140940
  H     14.350293   13.897339   16.996902
  H     14.869187   15.547570   16.630343
  H     16.681529   13.043388   16.800794
  H     16.183796   13.855398   15.305224
  H     17.256995   19.187754   15.285650
  H     16.548866   20.262786   16.501623
  H     15.726880   18.759817   16.061709
  H     17.650587   20.238551   18.353295
  H     19.878134   17.322906   19.997585
  H     19.349826   15.881588   18.064424
  H     18.786183   13.836076   19.019262
  H     17.399294   12.444120   20.540147
  H     15.511728   13.487135   21.797052
  H     14.441653   15.349607   22.236523
  H     16.409276   17.298869   20.027934

 Total Charge           Charge          ....    0
 Multiplicity           Mult            ....    1
 Number of Electrons    NEL             ....  154
 Basis Dimension        Dim             ....  828

ORBITAL ENERGIES
----------------

  NO   OCC          E(Eh)            E(eV)
   0   2.0000     -91.890624     -2500.4710
   1   2.0000     -20.598787      -560.5215
   2   2.0000     -20.587034      -560.2017
   3   2.0000     -20.545469      -559.0706
   4   2.0000     -15.630952      -425.3398
   5   2.0000     -15.609150      -424.7466
   6   2.0000     -11.394310      -310.0549
   7   2.0000     -11.385153      -309.8058
   8   2.0000     -11.337304      -308.5037
   9   2.0000     -11.316315      -307.9326
  10   2.0000     -11.310956      -307.7867
  11   2.0000     -11.298637      -307.4515
  12   2.0000     -11.261689      -306.4461
  13   2.0000     -11.260091      -306.4026
  14   2.0000     -11.257951      -306.3444
  15   2.0000     -11.253284      -306.2174
  16   2.0000     -11.245892      -306.0163
  17   2.0000     -11.240576      -305.8716
  18   2.0000     -11.240254      -305.8629
  19   2.0000     -11.221844      -305.3619
  20   2.0000      -8.895646      -242.0628
  21   2.0000      -6.577211      -178.9750
  22   2.0000      -6.575217      -178.9208
  23   2.0000      -6.574621      -178.9045
  24   2.0000      -1.447508       -39.3887
  25   2.0000      -1.418537       -38.6003
  26   2.0000      -1.351219       -36.7685
  27   2.0000      -1.341823       -36.5129
  28   2.0000      -1.239884       -33.7390
  29   2.0000      -1.159544       -31.5528
  30   2.0000      -1.120996       -30.5038
  31   2.0000      -1.044206       -28.4143
  32   2.0000      -1.031676       -28.0733
  33   2.0000      -1.017702       -27.6931
  34   2.0000      -0.997651       -27.1475
  35   2.0000      -0.985959       -26.8293
  36   2.0000      -0.924225       -25.1494
  37   2.0000      -0.895839       -24.3770
  38   2.0000      -0.848105       -23.0781
  39   2.0000      -0.841201       -22.8903
  40   2.0000      -0.836443       -22.7608
  41   2.0000      -0.816162       -22.2089
  42   2.0000      -0.748868       -20.3777
  43   2.0000      -0.734014       -19.9735
  44   2.0000      -0.722702       -19.6657
  45   2.0000      -0.698072       -18.9955
  46   2.0000      -0.691094       -18.8056
  47   2.0000      -0.675428       -18.3793
  48   2.0000      -0.669001       -18.2044
  49   2.0000      -0.664405       -18.0794
  50   2.0000      -0.650045       -17.6886
  51   2.0000      -0.643546       -17.5118
  52   2.0000      -0.636304       -17.3147
  53   2.0000      -0.618078       -16.8188
  54   2.0000      -0.609001       -16.5718
  55   2.0000      -0.601822       -16.3764
  56   2.0000      -0.600104       -16.3297
  57   2.0000      -0.579665       -15.7735
  58   2.0000      -0.571501       -15.5513
  59   2.0000      -0.565390       -15.3851
  60   2.0000      -0.550511       -14.9802
  61   2.0000      -0.543908       -14.8005
  62   2.0000      -0.534116       -14.5340
  63   2.0000      -0.531792       -14.4708
  64   2.0000      -0.526784       -14.3345
  65   2.0000      -0.515221       -14.0199
  66   2.0000      -0.503182       -13.6923
  67   2.0000      -0.501175       -13.6377
  68   2.0000      -0.477167       -12.9844
  69   2.0000      -0.464848       -12.6492
  70   2.0000      -0.453312       -12.3352
  71   2.0000      -0.444006       -12.0820
  72   2.0000      -0.356911        -9.7120
  73   2.0000      -0.351233        -9.5575
  74   2.0000      -0.329842        -8.9754
  75   2.0000      -0.324712        -8.8359
  76   2.0000      -0.317403        -8.6370
  77   0.0000       0.069366         1.8875
  78   0.0000       0.105017         2.8577
  79   0.0000       0.122564         3.3351
  80   0.0000       0.129836         3.5330
  81   0.0000       0.135343         3.6829

MULLIKEN ATOMIC CHARGES
-----------------------
   0 C :   -0.328784
   1 C :    0.032996
   2 O :   -0.388152
   3 C :    0.472193
   4 O :   -0.420114
   5 C :   -0.210000
   6 C :    0.147188
   7 C :   -0.270777
   8 N :   -0.123334
   9 C :    0.200985
  10 S :   -0.434323
  11 N :   -0.195257
  12 C :    0.034321
  13 C :    0.038933
  14 C :   -0.173697
  15 C :   -0.138513
  16 C :   -0.269466
  17 C :    0.299526
  18 O :   -0.359159
  19 C :   -0.246428
  20 H :    0.114122
  21 H :    0.109331
  22 H :    0.113353
  23 H :    0.113647
  24 H :    0.120874
  25 H :    0.134402
  26 H :    0.094954
  27 H :    0.129338
  28 H :    0.198546
  29 H :    0.191521
  30 H :    0.152185
  31 H :    0.157625
  32 H :    0.162017
  33 H :    0.132244
  34 H :    0.240841
  35 H :    0.166860
Sum of atomic charges:    0.0000000

LOEWDIN ATOMIC CHARGES
----------------------
   0 C :    0.107808
   1 C :   -0.013969
   2 O :    0.286281
   3 C :   -0.419127
   4 O :    0.109976
   5 C :   -0.096380
   6 C :   -0.057560
   7 C :    0.131170
   8 N :    0.406808
   9 C :   -0.458529
  10 S :   -0.032023
  11 N :    0.396699
  12 C :   -0.052262
  13 C :   -0.039917
  14 C :    0.016075
  15 C :    0.039119
  16 C :   -0.002039
  17 C :   -0.191795
  18 O :    0.396557
  19 C :    0.031599
  20 H :   -0.029162
  21 H :   -0.024293
  22 H :   -0.027989
  23 H :   -0.024586
  24 H :   -0.028381
  25 H :   -0.003159
  26 H :   -0.023244
  27 H :   -0.005997
  28 H :   -0.057640
  29 H :   -0.064931
  30 H :   -0.007086
  31 H :   -0.028659
  32 H :   -0.020766
  33 H :   -0.035020
  34 H :   -0.153411
  35 H :   -0.024165

  Mayer bond orders larger than 0.100000
B(  0-C ,  1-C ) :   0.9562 B(  0-C , 20-H ) :   0.9687 B(  0-C , 21-H ) :   0.9780
B(  0-C , 22-H ) :   0.9732 B(  1-C ,  2-O ) :   0.8836 B(  1-C , 23-H ) :   0.9814
B(  1-C , 24-H ) :   0.9855 B(  2-O ,  3-C ) :   1.1115 B(  3-C ,  4-O ) :   1.9941
B(  3-C ,  5-C ) :   1.0651 B(  5-C ,  6-C ) :   1.6532 B(  5-C , 12-C ) :   0.9693
B(  6-C ,  7-C ) :   0.9698 B(  6-C ,  8-N ) :   1.1497 B(  7-C , 25-H ) :   0.9576
B(  7-C , 26-H ) :   0.9893 B(  7-C , 27-H ) :   0.9636 B(  8-N ,  9-C ) :   1.1783
B(  8-N , 28-H ) :   0.9483 B(  9-C , 10-S ) :   1.6180 B(  9-C , 11-N ) :   1.3001
B( 11-N , 12-C ) :   0.9860 B( 11-N , 29-H ) :   0.9537 B( 12-C , 13-C ) :   0.9360
B( 12-C , 30-H ) :   1.0036 B( 13-C , 14-C ) :   1.3659 B( 13-C , 19-C ) :   1.3776
B( 14-C , 15-C ) :   1.3843 B( 14-C , 31-H ) :   0.9683 B( 15-C , 16-C ) :   1.3636
B( 15-C , 32-H ) :   0.9710 B( 16-C , 17-C ) :   1.3312 B( 16-C , 33-H ) :   0.9844
B( 17-C , 18-O ) :   1.1133 B( 17-C , 19-C ) :   1.3775 B( 18-O , 34-H ) :   0.9796
B( 19-C , 35-H ) :   0.9572

MP2 TOTAL ENERGY:    -1274.336519292 Eh
FINAL SINGLE POINT ENERGY     -1274.336519292013

DIPOLE MOMENT
-------------
                                X             Y             Z
Electronic contribution:      9.99466       8.97152       5.97542
Nuclear contribution   :    -11.05208     -10.61857      -6.03960
                        -----------------------------------------
Total Dipole Moment    :     -1.05742      -1.64704      -0.06418
                        -----------------------------------------
Magnitude (a.u.)       :      1.95832
Magnitude (Debye)      :      4.97765

Rotational constants in cm-1:     0.012024     0.009540     0.006561
Rotational constants in MHz :   360.480474   286.005061   196.698542

                             ****ORCA TERMINATED NORMALLY****
TOTAL RUN TIME: 0 days 1 hours 46 minutes 17 seconds 81 msec
