                         Program Version 4.2.0 -  RELEASE  -
|  1> ! ri-mp2 cc-pvtz cc-pvtz/c TightSCF  NoKeepInts
|  2>
|  3> %scf
|  4>   MaxCore 4096
|  5> end
|  6> *xyz  0  1
|  7>     C       15.5079510   14.1778098   14.5227485
|  8>     C       15.0733510   14.7823333   15.8707545
|  9>     O       15.9723928   15.8583087   16.1955572
| 10>     C       17.1008719   15.6025445   16.9216703
| 11>     O       17.5080200   14.4684442   17.1160284
| 12>     C       17.6518992   16.7902350   17.6591635
| 13>     C       17.3612872   18.0885481   17.3800369
| 14>     C       16.4570669   18.6322891   16.2926095
| 15>     N       17.9893123   19.1104738   18.1001639
| 16>     C       19.0157621   18.9274656   18.9885925
| 17>     S       19.7937614   20.2034818   19.6972230
| 18>     N       19.3646756   17.6289040   19.2589061
| 19>     C       18.6186067   16.4432519   18.7976512
| 20>     C       17.8821424   15.7892722   19.9641110
| 21>     C       18.0776257   14.4265755   20.2556875
| 22>     C       17.4012835   13.8184573   21.3265205
| 23>     C       16.5206460   14.5788599   22.1144552
| 24>     C       16.3200167   15.9354234   21.8254093
| 25>     O       15.4656603   16.6709828   22.5806825
| 26>     C       16.9942294   16.5377595   20.7585757
| 27>     H       15.5275350   14.9462528   13.7402101
| 28>     H       14.8114939   13.3891257   14.2135042
| 29>     H       16.5092950   13.7354842   14.6004559
| 30>     H       14.0559114   15.1804994   15.7670241
| 31>     H       15.0600924   14.0165364   16.6589142
| 32>     H       16.7081055   18.1908087   15.3200512
| 33>     H       16.5356650   19.7204422   16.1805863
| 34>     H       15.4072976   18.3985335   16.5095845
| 35>     H       17.7474035   20.0708395   17.9155259
| 36>     H       20.1031398   17.5193577   19.9419693
| 37>     H       19.3513859   15.7225289   18.4067254
| 38>     H       18.7450527   13.8319642   19.6366099
| 39>     H       17.5569309   12.7619690   21.5372142
| 40>     H       15.9948941   14.1127756   22.9410342
| 41>     H       15.1293861   16.0936408   23.2823400
| 42>     H       16.8268491   17.5898210   20.5557035
| 43> *
| 44>
| 45>                          ****END OF INPUT****

CARTESIAN COORDINATES (ANGSTROEM)
---------------------------------
  C     15.507951   14.177810   14.522749
  C     15.073351   14.782333   15.870755
  O     15.972393   15.858309   16.195557
  C     17.100872   15.602544   16.921670
  O     17.508020   14.468444   17.116028
  C     17.651899   16.790235   17.659163
  C     17.361287   18.088548   17.380037
  C     16.457067   18.632289   16.292610
  N     17.989312   19.110474   18.100164
  C     19.015762   18.927466   18.988592
  S     19.793761   20.203482   19.697223
  N     19.364676   17.628904   19.258906
  C     18.618607   16.443252   18.797651
  C     17.882142   15.789272   19.964111
  C     18.077626   14.426576   20.255687
  C     17.401284   13.818457   21.326521
  C     16.520646   14.578860   22.114455
  C     16.320017   15.935423   21.825409
  O     15.465660   16.670983   22.580683
  C     16.994229   16.537759   20.758576
  H     15.527535   14.946253   13.740210
  H     14.811494   13.389126   14.213504
  H     16.509295   13.735484   14.600456
  H     14.055911   15.180499   15.767024
  H     15.060092   14.016536   16.658914
  H     16.708105   18.190809   15.320051
  H     16.535665   19.720442   16.180586
  H     15.407298   18.398533   16.509584
  H     17.747403   20.070839   17.915526
  H     20.103140   17.519358   19.941969
  H     19.351386   15.722529   18.406725
  H     18.745053   13.831964   19.636610
  H     17.556931   12.761969   21.537214
  H     15.994894   14.112776   22.941034
  H     15.129386   16.093641   23.282340
  H     16.826849   17.589821   20.555703

 Total Charge           Charge          ....    0
 Multiplicity           Mult            ....    1
 Number of Electrons    NEL             ....  154
 Basis Dimension        Dim             ....  828

ORBITAL ENERGIES
----------------

  NO   OCC          E(Eh)            E(eV)
   0   2.0000     -91.888036     -2500.4006
   1   2.0000     -20.602773      -560.6300
   2   2.0000     -20.591324      -560.3184
   3   2.0000     -20.546681      -559.1036
   4   2.0000     -15.628397      -425.2703
   5   2.0000     -15.606666      -424.6790
   6   2.0000     -11.396869      -310.1246
   7   2.0000     -11.382910      -309.7447
   8   2.0000     -11.336364      -308.4782
   9   2.0000     -11.307164      -307.6836
  10   2.0000     -11.305552      -307.6397
  11   2.0000     -11.300322      -307.4974
  12   2.0000     -11.260698      -306.4192
  13   2.0000     -11.258872      -306.3695
  14   2.0000     -11.253163      -306.2141
  15   2.0000     -11.247339      -306.0557
  16   2.0000     -11.236971      -305.7735
  17   2.0000     -11.233094      -305.6680
  18   2.0000     -11.230107      -305.5868
  19   2.0000     -11.226368      -305.4850
  20   2.0000      -8.893099      -241.9935
  21   2.0000      -6.574676      -178.9060
  22   2.0000      -6.572670      -178.8514
  23   2.0000      -6.572084      -178.8355
  24   2.0000      -1.454390       -39.5760
  25   2.0000      -1.411057       -38.3968
  26   2.0000      -1.357696       -36.9448
  27   2.0000      -1.339338       -36.4452
  28   2.0000      -1.236923       -33.6584
  29   2.0000      -1.151864       -31.3438
  30   2.0000      -1.119481       -30.4626
  31   2.0000      -1.042332       -28.3633
  32   2.0000      -1.034759       -28.1572
  33   2.0000      -1.009179       -27.4611
  34   2.0000      -0.997153       -27.1339
  35   2.0000      -0.982635       -26.7388
  36   2.0000      -0.921123       -25.0650
  37   2.0000      -0.891614       -24.2621
  38   2.0000      -0.847586       -23.0640
  39   2.0000      -0.835223       -22.7276
  40   2.0000      -0.827564       -22.5192
  41   2.0000      -0.818039       -22.2600
  42   2.0000      -0.756017       -20.5723
  43   2.0000      -0.735116       -20.0035
  44   2.0000      -0.724757       -19.7217
  45   2.0000      -0.690466       -18.7885
  46   2.0000      -0.685197       -18.6452
  47   2.0000      -0.680037       -18.5048
  48   2.0000      -0.671503       -18.2725
  49   2.0000      -0.658214       -17.9109
  50   2.0000      -0.646489       -17.5919
  51   2.0000      -0.641598       -17.4588
  52   2.0000      -0.629432       -17.1277
  53   2.0000      -0.613016       -16.6810
  54   2.0000      -0.600005       -16.3270
  55   2.0000      -0.599324       -16.3084
  56   2.0000      -0.594555       -16.1787
  57   2.0000      -0.585026       -15.9194
  58   2.0000      -0.572816       -15.5871
  59   2.0000      -0.565526       -15.3888
  60   2.0000      -0.560644       -15.2559
  61   2.0000      -0.545851       -14.8534
  62   2.0000      -0.534384       -14.5413
  63   2.0000      -0.526880       -14.3371
  64   2.0000      -0.516834       -14.0638
  65   2.0000      -0.510080       -13.8800
  66   2.0000      -0.500421       -13.6172
  67   2.0000      -0.495259       -13.4767
  68   2.0000      -0.480134       -13.0651
  69   2.0000      -0.462628       -12.5887
  70   2.0000      -0.456463       -12.4210
  71   2.0000      -0.455942       -12.4068
  72   2.0000      -0.354189        -9.6380
  73   2.0000      -0.343721        -9.3531
  74   2.0000      -0.327148        -8.9021
  75   2.0000      -0.315525        -8.5859
  76   2.0000      -0.313519        -8.5313
  77   0.0000       0.075919         2.0659
  78   0.0000       0.113486         3.0881
  79   0.0000       0.121612         3.3092
  80   0.0000       0.136167         3.7053
  81   0.0000       0.140802         3.8314

MULLIKEN ATOMIC CHARGES
-----------------------
   0 C :   -0.286648
   1 C :    0.035288
   2 O :   -0.346525
   3 C :    0.441164
   4 O :   -0.433674
   5 C :   -0.164244
   6 C :    0.144795
   7 C :   -0.284429
   8 N :   -0.121520
   9 C :    0.201201
  10 S :   -0.439262
  11 N :   -0.196595
  12 C :    0.034663
  13 C :    0.056900
  14 C :   -0.161392
  15 C :   -0.134141
  16 C :   -0.278918
  17 C :    0.311590
  18 O :   -0.359068
  19 C :   -0.271741
  20 H :    0.090707
  21 H :    0.094314
  22 H :    0.113364
  23 H :    0.104001
  24 H :    0.105910
  25 H :    0.126055
  26 H :    0.101734
  27 H :    0.128229
  28 H :    0.196755
  29 H :    0.193501
  30 H :    0.153383
  31 H :    0.153332
  32 H :    0.158962
  33 H :    0.127926
  34 H :    0.239984
  35 H :    0.164400
Sum of atomic charges:    0.0000000

LOEWDIN ATOMIC CHARGES
----------------------
   0 C :    0.104241
   1 C :   -0.015896
   2 O :    0.305733
   3 C :   -0.413532
   4 O :    0.103718
   5 C :   -0.090650
   6 C :   -0.065676
   7 C :    0.125030
   8 N :    0.404838
   9 C :   -0.458953
  10 S :   -0.035961
  11 N :    0.397853
  12 C :   -0.046352
  13 C :   -0.038867
  14 C :    0.021892
  15 C :    0.040694
  16 C :   -0.002313
  17 C :   -0.192508
  18 O :    0.393027
  19 C :    0.028631
  20 H :   -0.030309
  21 H :   -0.027215
  22 H :   -0.024007
  23 H :   -0.026993
  24 H :   -0.026170
  25 H :   -0.008832
  26 H :   -0.021019
  27 H :   -0.009362
  28 H :   -0.059138
  29 H :   -0.063658
  30 H :   -0.005083
  31 H :   -0.025394
  32 H :   -0.021303
  33 H :   -0.036437
  34 H :   -0.154944
  35 H :   -0.025084

  Mayer bond orders larger than 0.100000
B(  0-C ,  1-C ) :   0.9670 B(  0-C , 20-H ) :   0.9776 B(  0-C , 21-H ) :   0.9764
B(  0-C , 22-H ) :   0.9752 B(  1-C ,  2-O ) :   0.8964 B(  1-C , 23-H ) :   0.9847
B(  1-C , 24-H ) :   0.9747 B(  2-O ,  3-C ) :   1.1500 B(  3-C ,  4-O ) :   1.9579
B(  3-C ,  5-C ) :   1.0664 B(  5-C ,  6-C ) :   1.6475 B(  5-C , 12-C ) :   0.9653
B(  6-C ,  7-C ) :   0.9549 B(  6-C ,  8-N ) :   1.1478 B(  7-C , 25-H ) :   0.9661
B(  7-C , 26-H ) :   0.9912 B(  7-C , 27-H ) :   0.9634 B(  8-N ,  9-C ) :   1.1784
B(  8-N , 28-H ) :   0.9488 B(  9-C , 10-S ) :   1.6108 B(  9-C , 11-N ) :   1.3041
B( 11-N , 12-C ) :   0.9931 B( 11-N , 29-H ) :   0.9519 B( 12-C , 13-C ) :   0.9473
B( 12-C , 30-H ) :   1.0000 B( 13-C , 14-C ) :   1.3751 B( 13-C , 19-C ) :   1.3698
B( 14-C , 15-C ) :   1.3945 B( 14-C , 31-H ) :   0.9651 B( 15-C , 16-C ) :   1.3626
B( 15-C , 32-H ) :   0.9715 B( 16-C , 17-C ) :   1.3314 B( 16-C , 33-H ) :   0.9860
B( 17-C , 18-O ) :   1.1080 B( 17-C , 19-C ) :   1.3791 B( 18-O , 34-H ) :   0.9807
B( 19-C , 35-H ) :   0.9585

MP2 TOTAL ENERGY:    -1274.346547977 Eh
FINAL SINGLE POINT ENERGY     -1274.346547977111

DIPOLE MOMENT
-------------
                                X             Y             Z
Electronic contribution:     10.21802       9.47191      11.80563
Nuclear contribution   :    -11.90639     -10.59732     -12.64793
                        -----------------------------------------
Total Dipole Moment    :     -1.68837      -1.12542      -0.84230
                        -----------------------------------------
Magnitude (a.u.)       :      2.19696
Magnitude (Debye)      :      5.58422

Rotational constants in cm-1:     0.010559     0.008811     0.005761
Rotational constants in MHz :   316.543030   264.159923   172.702614

                             ****ORCA TERMINATED NORMALLY****
TOTAL RUN TIME: 0 days 1 hours 40 minutes 5 seconds 617 msec
