                         Program Version 4.2.0 -  RELEASE  -
|  1> ! ri-mp2 cc-pvtz cc-pvtz/c TightSCF  NoKeepInts
|  2>
|  3> %scf
|  4>   MaxCore 4096
|  5> end
|  6> *xyz  0  1
|  7>     C       15.0413137   15.7034968   17.4638316
|  8>     C       15.5975467   15.2211870   16.1070417
|  9>     O       17.0043407   14.8816241   16.1354566
| 10>     C       18.1136170   15.6244842   16.4738023
| 11>     O       19.1964534   15.0705374   16.4267009
| 12>     C       17.9418003   16.7885741   17.3911252
| 13>     C       17.4159454   17.9600943   16.9638803
| 14>     C       16.8909249   18.2718254   15.5789713
| 15>     N       17.3962824   19.0672879   17.8148221
| 16>     C       18.0256514   19.1245005   19.0308416
| 17>     S       18.0302194   20.5044725   19.9417669
| 18>     N       18.6555206   17.9795797   19.4530916
| 19>     C       18.5909675   16.6697576   18.7728958
| 20>     C       17.8910360   15.6194568   19.6325250
| 21>     C       18.3153217   14.2787495   19.5800740
| 22>     C       17.6793530   13.2931159   20.3527133
| 23>     C       16.6076554   13.6489030   21.1885086
| 24>     C       16.1792017   14.9817375   21.2438203
| 25>     O       15.1368454   15.3265004   22.0408248
| 26>     C       16.8132261   15.9613474   20.4727451
| 27>     H       15.3967445   15.0533851   18.2718330
| 28>     H       13.9463764   15.6408941   17.4557354
| 29>     H       15.2938699   16.7392281   17.6994937
| 30>     H       15.0443426   14.3188823   15.8152581
| 31>     H       15.4014421   15.9752703   15.3359915
| 32>     H       17.1948432   17.5200977   14.8404245
| 33>     H       17.2795919   19.2336973   15.2203639
| 34>     H       15.7958516   18.3314008   15.5765858
| 35>     H       16.9573979   19.9235045   17.5145598
| 36>     H       19.1024898   18.0470206   20.3587650
| 37>     H       19.6264599   16.3304620   18.6208135
| 38>     H       19.1378495   13.9971521   18.9255210
| 39>     H       18.0165043   12.2594059   20.2974590
| 40>     H       16.1124674   12.8900341   21.7852110
| 41>     H       14.8635161   14.5308394   22.5218395
| 42>     H       16.4540301   16.9834936   20.5287063
| 43> *
| 44>
| 45>                          ****END OF INPUT****

CARTESIAN COORDINATES (ANGSTROEM)
---------------------------------
  C     15.041314   15.703497   17.463832
  C     15.597547   15.221187   16.107042
  O     17.004341   14.881624   16.135457
  C     18.113617   15.624484   16.473802
  O     19.196453   15.070537   16.426701
  C     17.941800   16.788574   17.391125
  C     17.415945   17.960094   16.963880
  C     16.890925   18.271825   15.578971
  N     17.396282   19.067288   17.814822
  C     18.025651   19.124500   19.030842
  S     18.030219   20.504472   19.941767
  N     18.655521   17.979580   19.453092
  C     18.590968   16.669758   18.772896
  C     17.891036   15.619457   19.632525
  C     18.315322   14.278749   19.580074
  C     17.679353   13.293116   20.352713
  C     16.607655   13.648903   21.188509
  C     16.179202   14.981737   21.243820
  O     15.136845   15.326500   22.040825
  C     16.813226   15.961347   20.472745
  H     15.396745   15.053385   18.271833
  H     13.946376   15.640894   17.455735
  H     15.293870   16.739228   17.699494
  H     15.044343   14.318882   15.815258
  H     15.401442   15.975270   15.335992
  H     17.194843   17.520098   14.840424
  H     17.279592   19.233697   15.220364
  H     15.795852   18.331401   15.576586
  H     16.957398   19.923504   17.514560
  H     19.102490   18.047021   20.358765
  H     19.626460   16.330462   18.620814
  H     19.137850   13.997152   18.925521
  H     18.016504   12.259406   20.297459
  H     16.112467   12.890034   21.785211
  H     14.863516   14.530839   22.521839
  H     16.454030   16.983494   20.528706

 Total Charge           Charge          ....    0
 Multiplicity           Mult            ....    1
 Number of Electrons    NEL             ....  154
 Basis Dimension        Dim             ....  828

ORBITAL ENERGIES
----------------

  NO   OCC          E(Eh)            E(eV)
   0   2.0000     -91.890019     -2500.4545
   1   2.0000     -20.599010      -560.5275
   2   2.0000     -20.597371      -560.4830
   3   2.0000     -20.549240      -559.1732
   4   2.0000     -15.627365      -425.2422
   5   2.0000     -15.611125      -424.8003
   6   2.0000     -11.399993      -310.2096
   7   2.0000     -11.386587      -309.8448
   8   2.0000     -11.328531      -308.2650
   9   2.0000     -11.314431      -307.8813
  10   2.0000     -11.313989      -307.8693
  11   2.0000     -11.311142      -307.7918
  12   2.0000     -11.272008      -306.7269
  13   2.0000     -11.265579      -306.5520
  14   2.0000     -11.261731      -306.4473
  15   2.0000     -11.254580      -306.2527
  16   2.0000     -11.243614      -305.9543
  17   2.0000     -11.239119      -305.8320
  18   2.0000     -11.236165      -305.7516
  19   2.0000     -11.230928      -305.6091
  20   2.0000      -8.895123      -242.0486
  21   2.0000      -6.576713      -178.9615
  22   2.0000      -6.574686      -178.9063
  23   2.0000      -6.574111      -178.8907
  24   2.0000      -1.445329       -39.3294
  25   2.0000      -1.417197       -38.5639
  26   2.0000      -1.356043       -36.8998
  27   2.0000      -1.340522       -36.4775
  28   2.0000      -1.239848       -33.7380
  29   2.0000      -1.158883       -31.5348
  30   2.0000      -1.125305       -30.6211
  31   2.0000      -1.047975       -28.5168
  32   2.0000      -1.039676       -28.2910
  33   2.0000      -1.017089       -27.6764
  34   2.0000      -1.005399       -27.3583
  35   2.0000      -0.990153       -26.9434
  36   2.0000      -0.927865       -25.2485
  37   2.0000      -0.898578       -24.4516
  38   2.0000      -0.854410       -23.2497
  39   2.0000      -0.840477       -22.8705
  40   2.0000      -0.834177       -22.6991
  41   2.0000      -0.829201       -22.5637
  42   2.0000      -0.747461       -20.3394
  43   2.0000      -0.738354       -20.0916
  44   2.0000      -0.730442       -19.8763
  45   2.0000      -0.694813       -18.9068
  46   2.0000      -0.687158       -18.6985
  47   2.0000      -0.678626       -18.4663
  48   2.0000      -0.674559       -18.3557
  49   2.0000      -0.663629       -18.0583
  50   2.0000      -0.652018       -17.7423
  51   2.0000      -0.650990       -17.7143
  52   2.0000      -0.640992       -17.4423
  53   2.0000      -0.614374       -16.7180
  54   2.0000      -0.608892       -16.5688
  55   2.0000      -0.604980       -16.4623
  56   2.0000      -0.601960       -16.3802
  57   2.0000      -0.591744       -16.1022
  58   2.0000      -0.580755       -15.8031
  59   2.0000      -0.574020       -15.6199
  60   2.0000      -0.565458       -15.3869
  61   2.0000      -0.557697       -15.1757
  62   2.0000      -0.542176       -14.7534
  63   2.0000      -0.528717       -14.3871
  64   2.0000      -0.517739       -14.0884
  65   2.0000      -0.513239       -13.9659
  66   2.0000      -0.502845       -13.6831
  67   2.0000      -0.501059       -13.6345
  68   2.0000      -0.484051       -13.1717
  69   2.0000      -0.463802       -12.6207
  70   2.0000      -0.454043       -12.3551
  71   2.0000      -0.451250       -12.2791
  72   2.0000      -0.356088        -9.6896
  73   2.0000      -0.348411        -9.4807
  74   2.0000      -0.329647        -8.9702
  75   2.0000      -0.322698        -8.7811
  76   2.0000      -0.318122        -8.6565
  77   0.0000       0.085950         2.3388
  78   0.0000       0.106306         2.8927
  79   0.0000       0.112661         3.0657
  80   0.0000       0.129556         3.5254
  81   0.0000       0.131166         3.5692

MULLIKEN ATOMIC CHARGES
-----------------------
   0 C :   -0.331486
   1 C :    0.025221
   2 O :   -0.323704
   3 C :    0.404831
   4 O :   -0.379817
   5 C :   -0.174224
   6 C :    0.130085
   7 C :   -0.333831
   8 N :   -0.137488
   9 C :    0.204698
  10 S :   -0.441076
  11 N :   -0.226981
  12 C :    0.080226
  13 C :    0.023090
  14 C :   -0.209256
  15 C :   -0.136123
  16 C :   -0.276010
  17 C :    0.315732
  18 O :   -0.358511
  19 C :   -0.270209
  20 H :    0.129819
  21 H :    0.115654
  22 H :    0.107121
  23 H :    0.133500
  24 H :    0.086319
  25 H :    0.125474
  26 H :    0.138287
  27 H :    0.123830
  28 H :    0.196452
  29 H :    0.202365
  30 H :    0.169246
  31 H :    0.173497
  32 H :    0.163619
  33 H :    0.131995
  34 H :    0.241026
  35 H :    0.176633
Sum of atomic charges:   -0.0000000

LOEWDIN ATOMIC CHARGES
----------------------
   0 C :    0.104611
   1 C :   -0.018611
   2 O :    0.300801
   3 C :   -0.417206
   4 O :    0.125525
   5 C :   -0.077822
   6 C :   -0.103475
   7 C :    0.124272
   8 N :    0.401843
   9 C :   -0.456963
  10 S :   -0.037953
  11 N :    0.398547
  12 C :   -0.041869
  13 C :   -0.042081
  14 C :    0.021269
  15 C :    0.044205
  16 C :   -0.002103
  17 C :   -0.194306
  18 O :    0.395370
  19 C :    0.028109
  20 H :   -0.020131
  21 H :   -0.024160
  22 H :   -0.038039
  23 H :   -0.016464
  24 H :   -0.039721
  25 H :   -0.009260
  26 H :   -0.009338
  27 H :   -0.017309
  28 H :   -0.058343
  29 H :   -0.063579
  30 H :   -0.001422
  31 H :   -0.021636
  32 H :   -0.018579
  33 H :   -0.035094
  34 H :   -0.153630
  35 H :   -0.025458

  Mayer bond orders larger than 0.100000
B(  0-C ,  1-C ) :   0.9530 B(  0-C , 20-H ) :   0.9678 B(  0-C , 21-H ) :   0.9777
B(  0-C , 22-H ) :   0.9743 B(  1-C ,  2-O ) :   0.9137 B(  1-C , 23-H ) :   0.9811
B(  1-C , 24-H ) :   0.9759 B(  2-O ,  3-C ) :   1.1548 B(  3-C ,  4-O ) :   2.0787
B(  3-C ,  5-C ) :   0.9199 B(  5-C ,  6-C ) :   1.7045 B(  5-C , 12-C ) :   0.9569
B(  6-C ,  7-C ) :   0.9428 B(  6-C ,  8-N ) :   1.0969 B(  7-C , 25-H ) :   0.9806
B(  7-C , 26-H ) :   0.9734 B(  7-C , 27-H ) :   0.9644 B(  8-N ,  9-C ) :   1.1965
B(  8-N , 28-H ) :   0.9526 B(  9-C , 10-S ) :   1.6084 B(  9-C , 11-N ) :   1.2875
B( 11-N , 12-C ) :   0.9849 B( 11-N , 29-H ) :   0.9476 B( 12-C , 13-C ) :   0.9492
B( 12-C , 30-H ) :   0.9945 B( 13-C , 14-C ) :   1.3890 B( 13-C , 19-C ) :   1.3427
B( 14-C , 15-C ) :   1.4018 B( 14-C , 31-H ) :   0.9593 B( 15-C , 16-C ) :   1.3585
B( 15-C , 32-H ) :   0.9701 B( 16-C , 17-C ) :   1.3305 B( 16-C , 33-H ) :   0.9849
B( 17-C , 18-O ) :   1.1101 B( 17-C , 19-C ) :   1.3691 B( 18-O , 34-H ) :   0.9796
B( 19-C , 35-H ) :   0.9576

MP2 TOTAL ENERGY:    -1274.322357636 Eh
FINAL SINGLE POINT ENERGY     -1274.322357636160

DIPOLE MOMENT
-------------
                                X             Y             Z
Electronic contribution:      9.43873       5.79893       6.54803
Nuclear contribution   :    -11.03724      -6.86755      -7.29661
                        -----------------------------------------
Total Dipole Moment    :     -1.59851      -1.06862      -0.74858
                        -----------------------------------------
Magnitude (a.u.)       :      2.06338
Magnitude (Debye)      :      5.24469

Rotational constants in cm-1:     0.011797     0.009603     0.006838
Rotational constants in MHz :   353.679563   287.881424   204.996669

                             ****ORCA TERMINATED NORMALLY****
TOTAL RUN TIME: 0 days 1 hours 49 minutes 22 seconds 264 msec
