                         Program Version 4.2.0 -  RELEASE  -
|  1> ! ri-mp2 cc-pvtz cc-pvtz/c TightSCF  NoKeepInts
|  2>
|  3> %scf
|  4>   MaxCore 4096
|  5> end
|  6> *xyz  0  1
|  7>     C       15.4675480   14.0211836   17.3105267
|  8>     C       16.4121536   14.1145587   16.0999551
|  9>     O       17.4919737   15.0247998   16.3960223
| 10>     C       17.3216971   16.3551645   16.1296596
| 11>     O       16.6594443   16.7270537   15.1759811
| 12>     C       17.6723044   17.2375871   17.2973734
| 13>     C       17.3503661   18.5568147   17.3375425
| 14>     C       16.5490635   19.3421566   16.3210856
| 15>     N       17.8186871   19.3588962   18.3831832
| 16>     C       18.7672259   18.9737770   19.2931167
| 17>     S       19.4100639   20.0310897   20.3907964
| 18>     N       19.1703014   17.6639935   19.2339782
| 19>     C       18.5066955   16.6195709   18.4328693
| 20>     C       17.6960399   15.7271662   19.3667040
| 21>     C       18.1874344   14.4604100   19.7351769
| 22>     C       17.4702753   13.6468985   20.6288983
| 23>     C       16.2519216   14.1038600   21.1598510
| 24>     C       15.7634842   15.3677319   20.8011257
| 25>     O       14.5890350   15.8130655   21.3139458
| 26>     C       16.4814136   16.1770126   19.9152784
| 27>     H       15.9885144   13.6017288   18.1775268
| 28>     H       14.6166080   13.3688253   17.0809788
| 29>     H       15.0749800   15.0097526   17.5787899
| 30>     H       16.8277191   13.1175150   15.9059813
| 31>     H       15.8585178   14.4219332   15.2022195
| 32>     H       15.5599869   18.8891345   16.1763470
| 33>     H       17.0550387   19.3412050   15.3471755
| 34>     H       16.3927350   20.3873551   16.6124778
| 35>     H       17.5421074   20.3265418   18.4302580
| 36>     H       19.8502649   17.4009506   19.9354625
| 37>     H       19.2931199   16.0066993   17.9701976
| 38>     H       19.1302306   14.1052862   19.3278160
| 39>     H       17.8589068   12.6688219   20.9073942
| 40>     H       15.6939544   13.4791838   21.8496366
| 41>     H       14.2735346   15.1457707   21.9418283
| 42>     H       16.0936530   17.1585056   19.6668399
| 43> *
| 44>
| 45>                          ****END OF INPUT****

CARTESIAN COORDINATES (ANGSTROEM)
---------------------------------
  C     15.467548   14.021184   17.310527
  C     16.412154   14.114559   16.099955
  O     17.491974   15.024800   16.396022
  C     17.321697   16.355165   16.129660
  O     16.659444   16.727054   15.175981
  C     17.672304   17.237587   17.297373
  C     17.350366   18.556815   17.337543
  C     16.549063   19.342157   16.321086
  N     17.818687   19.358896   18.383183
  C     18.767226   18.973777   19.293117
  S     19.410064   20.031090   20.390796
  N     19.170301   17.663994   19.233978
  C     18.506695   16.619571   18.432869
  C     17.696040   15.727166   19.366704
  C     18.187434   14.460410   19.735177
  C     17.470275   13.646898   20.628898
  C     16.251922   14.103860   21.159851
  C     15.763484   15.367732   20.801126
  O     14.589035   15.813065   21.313946
  C     16.481414   16.177013   19.915278
  H     15.988514   13.601729   18.177527
  H     14.616608   13.368825   17.080979
  H     15.074980   15.009753   17.578790
  H     16.827719   13.117515   15.905981
  H     15.858518   14.421933   15.202219
  H     15.559987   18.889134   16.176347
  H     17.055039   19.341205   15.347175
  H     16.392735   20.387355   16.612478
  H     17.542107   20.326542   18.430258
  H     19.850265   17.400951   19.935462
  H     19.293120   16.006699   17.970198
  H     19.130231   14.105286   19.327816
  H     17.858907   12.668822   20.907394
  H     15.693954   13.479184   21.849637
  H     14.273535   15.145771   21.941828
  H     16.093653   17.158506   19.666840

 Total Charge           Charge          ....    0
 Multiplicity           Mult            ....    1
 Number of Electrons    NEL             ....  154
 Basis Dimension        Dim             ....  828

ORBITAL ENERGIES
----------------

  NO   OCC          E(Eh)            E(eV)
   0   2.0000     -91.889693     -2500.4457
   1   2.0000     -20.599007      -560.5275
   2   2.0000     -20.592752      -560.3573
   3   2.0000     -20.544232      -559.0370
   4   2.0000     -15.630350      -425.3234
   5   2.0000     -15.608451      -424.7275
   6   2.0000     -11.394619      -310.0634
   7   2.0000     -11.384335      -309.7835
   8   2.0000     -11.337142      -308.4993
   9   2.0000     -11.316002      -307.9241
  10   2.0000     -11.310207      -307.7664
  11   2.0000     -11.293693      -307.3170
  12   2.0000     -11.261357      -306.4371
  13   2.0000     -11.260043      -306.4013
  14   2.0000     -11.257533      -306.3331
  15   2.0000     -11.252834      -306.2052
  16   2.0000     -11.245076      -305.9941
  17   2.0000     -11.239859      -305.8521
  18   2.0000     -11.239420      -305.8402
  19   2.0000     -11.220075      -305.3138
  20   2.0000      -8.894724      -242.0377
  21   2.0000      -6.576292      -178.9500
  22   2.0000      -6.574296      -178.8957
  23   2.0000      -6.573703      -178.8796
  24   2.0000      -1.449082       -39.4315
  25   2.0000      -1.418632       -38.6029
  26   2.0000      -1.352507       -36.8036
  27   2.0000      -1.341336       -36.4996
  28   2.0000      -1.239558       -33.7301
  29   2.0000      -1.159107       -31.5409
  30   2.0000      -1.120691       -30.4955
  31   2.0000      -1.043672       -28.3998
  32   2.0000      -1.033153       -28.1135
  33   2.0000      -1.017210       -27.6797
  34   2.0000      -0.997016       -27.1302
  35   2.0000      -0.984881       -26.8000
  36   2.0000      -0.923804       -25.1380
  37   2.0000      -0.890877       -24.2420
  38   2.0000      -0.847726       -23.0678
  39   2.0000      -0.840244       -22.8642
  40   2.0000      -0.835437       -22.7334
  41   2.0000      -0.814662       -22.1681
  42   2.0000      -0.756900       -20.5963
  43   2.0000      -0.733765       -19.9668
  44   2.0000      -0.722133       -19.6502
  45   2.0000      -0.698190       -18.9987
  46   2.0000      -0.689785       -18.7700
  47   2.0000      -0.678256       -18.4563
  48   2.0000      -0.668390       -18.1878
  49   2.0000      -0.666799       -18.1445
  50   2.0000      -0.648541       -17.6477
  51   2.0000      -0.644456       -17.5365
  52   2.0000      -0.636652       -17.3242
  53   2.0000      -0.609852       -16.5949
  54   2.0000      -0.603031       -16.4093
  55   2.0000      -0.599916       -16.3246
  56   2.0000      -0.596353       -16.2276
  57   2.0000      -0.579550       -15.7704
  58   2.0000      -0.571294       -15.5457
  59   2.0000      -0.565875       -15.3982
  60   2.0000      -0.558588       -15.1999
  61   2.0000      -0.548027       -14.9126
  62   2.0000      -0.537126       -14.6160
  63   2.0000      -0.527296       -14.3485
  64   2.0000      -0.525222       -14.2920
  65   2.0000      -0.513844       -13.9824
  66   2.0000      -0.503534       -13.7018
  67   2.0000      -0.499020       -13.5790
  68   2.0000      -0.478156       -13.0113
  69   2.0000      -0.463444       -12.6110
  70   2.0000      -0.451803       -12.2942
  71   2.0000      -0.445457       -12.1215
  72   2.0000      -0.356692        -9.7061
  73   2.0000      -0.351311        -9.5597
  74   2.0000      -0.329195        -8.9579
  75   2.0000      -0.323944        -8.8150
  76   2.0000      -0.316713        -8.6182
  77   0.0000       0.072028         1.9600
  78   0.0000       0.104506         2.8438
  79   0.0000       0.122162         3.3242
  80   0.0000       0.131170         3.5693
  81   0.0000       0.135434         3.6854

MULLIKEN ATOMIC CHARGES
-----------------------
   0 C :   -0.315053
   1 C :    0.032703
   2 O :   -0.374005
   3 C :    0.468542
   4 O :   -0.423818
   5 C :   -0.233608
   6 C :    0.150834
   7 C :   -0.269515
   8 N :   -0.123614
   9 C :    0.214206
  10 S :   -0.438463
  11 N :   -0.202754
  12 C :    0.043329
  13 C :    0.093325
  14 C :   -0.192851
  15 C :   -0.133806
  16 C :   -0.279623
  17 C :    0.324982
  18 O :   -0.359357
  19 C :   -0.281007
  20 H :    0.107176
  21 H :    0.112875
  22 H :    0.105303
  23 H :    0.105156
  24 H :    0.117839
  25 H :    0.129073
  26 H :    0.134217
  27 H :    0.094618
  28 H :    0.198434
  29 H :    0.193216
  30 H :    0.149675
  31 H :    0.147256
  32 H :    0.162538
  33 H :    0.131530
  34 H :    0.241704
  35 H :    0.168946
Sum of atomic charges:   -0.0000000

LOEWDIN ATOMIC CHARGES
----------------------
   0 C :    0.104085
   1 C :   -0.014659
   2 O :    0.292928
   3 C :   -0.415467
   4 O :    0.105504
   5 C :   -0.096534
   6 C :   -0.058183
   7 C :    0.130759
   8 N :    0.407243
   9 C :   -0.455756
  10 S :   -0.033833
  11 N :    0.396512
  12 C :   -0.052998
  13 C :   -0.035405
  14 C :    0.011340
  15 C :    0.040509
  16 C :   -0.002036
  17 C :   -0.188694
  18 O :    0.396158
  19 C :    0.033668
  20 H :   -0.026401
  21 H :   -0.026567
  22 H :   -0.028579
  23 H :   -0.026134
  24 H :   -0.028938
  25 H :   -0.005578
  26 H :   -0.003303
  27 H :   -0.023358
  28 H :   -0.057574
  29 H :   -0.065544
  30 H :   -0.007654
  31 H :   -0.030204
  32 H :   -0.020722
  33 H :   -0.035280
  34 H :   -0.153170
  35 H :   -0.026135

  Mayer bond orders larger than 0.100000
B(  0-C ,  1-C ) :   0.9625 B(  0-C , 20-H ) :   0.9730 B(  0-C , 21-H ) :   0.9778
B(  0-C , 22-H ) :   0.9741 B(  1-C ,  2-O ) :   0.8845 B(  1-C , 23-H ) :   0.9860
B(  1-C , 24-H ) :   0.9776 B(  2-O ,  3-C ) :   1.1273 B(  3-C ,  4-O ) :   1.9863
B(  3-C ,  5-C ) :   1.0660 B(  5-C ,  6-C ) :   1.6521 B(  5-C , 12-C ) :   0.9752
B(  6-C ,  7-C ) :   0.9703 B(  6-C ,  8-N ) :   1.1573 B(  7-C , 25-H ) :   0.9625
B(  7-C , 26-H ) :   0.9579 B(  7-C , 27-H ) :   0.9896 B(  8-N ,  9-C ) :   1.1799
B(  8-N , 28-H ) :   0.9480 B(  9-C , 10-S ) :   1.6087 B(  9-C , 11-N ) :   1.3054
B( 11-N , 12-C ) :   0.9690 B( 11-N , 29-H ) :   0.9534 B( 12-C , 13-C ) :   0.9444
B( 12-C , 30-H ) :   1.0036 B( 13-C , 14-C ) :   1.3519 B( 13-C , 19-C ) :   1.3613
B( 14-C , 15-C ) :   1.3886 B( 14-C , 31-H ) :   0.9742 B( 15-C , 16-C ) :   1.3619
B( 15-C , 32-H ) :   0.9710 B( 16-C , 17-C ) :   1.3318 B( 16-C , 33-H ) :   0.9849
B( 17-C , 18-O ) :   1.1110 B( 17-C , 19-C ) :   1.3661 B( 18-O , 34-H ) :   0.9793
B( 19-C , 35-H ) :   0.9582

MP2 TOTAL ENERGY:    -1274.341427374 Eh
FINAL SINGLE POINT ENERGY     -1274.341427373544

DIPOLE MOMENT
-------------
                                X             Y             Z
Electronic contribution:      8.93648      10.15197       5.35666
Nuclear contribution   :     -9.86157     -11.83062      -5.46070
                        -----------------------------------------
Total Dipole Moment    :     -0.92509      -1.67864      -0.10404
                        -----------------------------------------
Magnitude (a.u.)       :      1.91950
Magnitude (Debye)      :      4.87898

Rotational constants in cm-1:     0.012126     0.009277     0.006533
Rotational constants in MHz :   363.520796   278.121159   195.840092

                             ****ORCA TERMINATED NORMALLY****
TOTAL RUN TIME: 0 days 1 hours 50 minutes 50 seconds 518 msec
