                         Program Version 4.2.0 -  RELEASE  -
|  1> ! ri-mp2 cc-pvtz cc-pvtz/c TightSCF  NoKeepInts
|  2>
|  3> %scf
|  4>   MaxCore 4096
|  5> end
|  6> *xyz  0  1
|  7>     C       15.9927439   13.2007668   17.3522006
|  8>     C       15.9947794   14.2839594   16.2617498
|  9>     O       17.1880363   15.0782070   16.4021116
| 10>     C       17.0934735   16.4172908   16.1503532
| 11>     O       16.3618577   16.8366629   15.2697750
| 12>     C       17.6435623   17.2711408   17.2601188
| 13>     C       17.5028189   18.6221906   17.2768065
| 14>     C       16.7633229   19.4838847   16.2754003
| 15>     N       18.1229429   19.3777391   18.2767257
| 16>     C       19.0402248   18.8869102   19.1671587
| 17>     S       19.8605106   19.8709303   20.2136505
| 18>     N       19.2586083   17.5334203   19.1322064
| 19>     C       18.4409704   16.5699367   18.3734575
| 20>     C       17.5676695   15.7922551   19.3535302
| 21>     C       18.0326519   14.5764606   19.8899703
| 22>     C       17.2641071   13.8664817   20.8280023
| 23>     C       16.0200103   14.3770834   21.2356947
| 24>     C       15.5569649   15.5910986   20.7101622
| 25>     O       14.3586693   16.0894368   21.1057009
| 26>     C       16.3250481   16.2971526   19.7790534
| 27>     H       16.9426296   12.6522310   17.3605965
| 28>     H       15.1819589   12.4834992   17.1771714
| 29>     H       15.8367950   13.6485021   18.3390860
| 30>     H       15.9694244   13.8261984   15.2642078
| 31>     H       15.0931407   14.9012912   16.3797728
| 32>     H       15.7050404   19.1971390   16.2271888
| 33>     H       17.1834510   19.3542299   15.2698328
| 34>     H       16.8051355   20.5528152   16.5151927
| 35>     H       17.9811182   20.3747061   18.3074418
| 36>     H       19.9192074   17.1969885   19.8205599
| 37>     H       19.1270376   15.8590370   17.8913667
| 38>     H       18.9962820   14.1813352   19.5798234
| 39>     H       17.6334894   12.9273506   21.2364906
| 40>     H       15.4229047   13.8330609   21.9602052
| 41>     H       14.0070951   15.4966215   21.7869833
| 42>     H       15.9533171   17.2439859   19.4042513
| 43> *
| 44>
| 45>                          ****END OF INPUT****

CARTESIAN COORDINATES (ANGSTROEM)
---------------------------------
  C     15.992744   13.200767   17.352201
  C     15.994779   14.283959   16.261750
  O     17.188036   15.078207   16.402112
  C     17.093474   16.417291   16.150353
  O     16.361858   16.836663   15.269775
  C     17.643562   17.271141   17.260119
  C     17.502819   18.622191   17.276806
  C     16.763323   19.483885   16.275400
  N     18.122943   19.377739   18.276726
  C     19.040225   18.886910   19.167159
  S     19.860511   19.870930   20.213650
  N     19.258608   17.533420   19.132206
  C     18.440970   16.569937   18.373458
  C     17.567669   15.792255   19.353530
  C     18.032652   14.576461   19.889970
  C     17.264107   13.866482   20.828002
  C     16.020010   14.377083   21.235695
  C     15.556965   15.591099   20.710162
  O     14.358669   16.089437   21.105701
  C     16.325048   16.297153   19.779053
  H     16.942630   12.652231   17.360596
  H     15.181959   12.483499   17.177171
  H     15.836795   13.648502   18.339086
  H     15.969424   13.826198   15.264208
  H     15.093141   14.901291   16.379773
  H     15.705040   19.197139   16.227189
  H     17.183451   19.354230   15.269833
  H     16.805135   20.552815   16.515193
  H     17.981118   20.374706   18.307442
  H     19.919207   17.196988   19.820560
  H     19.127038   15.859037   17.891367
  H     18.996282   14.181335   19.579823
  H     17.633489   12.927351   21.236491
  H     15.422905   13.833061   21.960205
  H     14.007095   15.496621   21.786983
  H     15.953317   17.243986   19.404251

 Total Charge           Charge          ....    0
 Multiplicity           Mult            ....    1
 Number of Electrons    NEL             ....  154
 Basis Dimension        Dim             ....  828

ORBITAL ENERGIES
----------------

  NO   OCC          E(Eh)            E(eV)
   0   2.0000     -91.889628     -2500.4439
   1   2.0000     -20.600416      -560.5658
   2   2.0000     -20.592830      -560.3594
   3   2.0000     -20.543430      -559.0152
   4   2.0000     -15.630344      -425.3233
   5   2.0000     -15.608721      -424.7349
   6   2.0000     -11.393208      -310.0250
   7   2.0000     -11.384455      -309.7868
   8   2.0000     -11.337311      -308.5039
   9   2.0000     -11.317877      -307.9751
  10   2.0000     -11.310595      -307.7770
  11   2.0000     -11.294061      -307.3270
  12   2.0000     -11.263238      -306.4883
  13   2.0000     -11.259789      -306.3944
  14   2.0000     -11.258783      -306.3671
  15   2.0000     -11.252900      -306.2070
  16   2.0000     -11.245995      -306.0191
  17   2.0000     -11.240989      -305.8829
  18   2.0000     -11.240609      -305.8725
  19   2.0000     -11.222259      -305.3732
  20   2.0000      -8.894668      -242.0362
  21   2.0000      -6.576238      -178.9485
  22   2.0000      -6.574239      -178.8941
  23   2.0000      -6.573649      -178.8781
  24   2.0000      -1.450109       -39.4595
  25   2.0000      -1.420052       -38.6416
  26   2.0000      -1.352214       -36.7956
  27   2.0000      -1.341369       -36.5005
  28   2.0000      -1.239827       -33.7374
  29   2.0000      -1.160303       -31.5735
  30   2.0000      -1.121101       -30.5067
  31   2.0000      -1.044476       -28.4216
  32   2.0000      -1.035183       -28.1688
  33   2.0000      -1.018586       -27.7171
  34   2.0000      -0.997274       -27.1372
  35   2.0000      -0.984912       -26.8008
  36   2.0000      -0.924311       -25.1518
  37   2.0000      -0.884613       -24.0715
  38   2.0000      -0.848302       -23.0835
  39   2.0000      -0.840734       -22.8775
  40   2.0000      -0.835812       -22.7436
  41   2.0000      -0.818519       -22.2730
  42   2.0000      -0.762911       -20.7599
  43   2.0000      -0.734754       -19.9937
  44   2.0000      -0.721197       -19.6248
  45   2.0000      -0.698648       -19.0112
  46   2.0000      -0.688204       -18.7270
  47   2.0000      -0.678921       -18.4744
  48   2.0000      -0.674445       -18.3526
  49   2.0000      -0.665428       -18.1072
  50   2.0000      -0.647928       -17.6310
  51   2.0000      -0.645629       -17.5685
  52   2.0000      -0.638575       -17.3765
  53   2.0000      -0.611598       -16.6424
  54   2.0000      -0.603721       -16.4281
  55   2.0000      -0.600569       -16.3423
  56   2.0000      -0.590170       -16.0593
  57   2.0000      -0.579941       -15.7810
  58   2.0000      -0.571987       -15.5646
  59   2.0000      -0.566606       -15.4181
  60   2.0000      -0.558006       -15.1841
  61   2.0000      -0.551324       -15.0023
  62   2.0000      -0.537600       -14.6289
  63   2.0000      -0.528722       -14.3873
  64   2.0000      -0.518854       -14.1187
  65   2.0000      -0.512759       -13.9529
  66   2.0000      -0.504030       -13.7154
  67   2.0000      -0.497247       -13.5308
  68   2.0000      -0.484866       -13.1939
  69   2.0000      -0.463471       -12.6117
  70   2.0000      -0.453787       -12.3482
  71   2.0000      -0.445827       -12.1316
  72   2.0000      -0.356424        -9.6988
  73   2.0000      -0.353261        -9.6127
  74   2.0000      -0.329676        -8.9709
  75   2.0000      -0.324772        -8.8375
  76   2.0000      -0.317171        -8.6307
  77   0.0000       0.073361         1.9962
  78   0.0000       0.104204         2.8355
  79   0.0000       0.121725         3.3123
  80   0.0000       0.128999         3.5102
  81   0.0000       0.132362         3.6018

MULLIKEN ATOMIC CHARGES
-----------------------
   0 C :   -0.283717
   1 C :    0.044387
   2 O :   -0.366556
   3 C :    0.465294
   4 O :   -0.419926
   5 C :   -0.259123
   6 C :    0.160086
   7 C :   -0.267657
   8 N :   -0.124298
   9 C :    0.219552
  10 S :   -0.441139
  11 N :   -0.211353
  12 C :    0.063650
  13 C :    0.075214
  14 C :   -0.206348
  15 C :   -0.127055
  16 C :   -0.277795
  17 C :    0.306789
  18 O :   -0.358319
  19 C :   -0.248242
  20 H :    0.094299
  21 H :    0.105542
  22 H :    0.106074
  23 H :    0.108044
  24 H :    0.089930
  25 H :    0.130178
  26 H :    0.133176
  27 H :    0.095193
  28 H :    0.197851
  29 H :    0.193815
  30 H :    0.148320
  31 H :    0.148887
  32 H :    0.160816
  33 H :    0.131854
  34 H :    0.241963
  35 H :    0.170614
Sum of atomic charges:    0.0000000

LOEWDIN ATOMIC CHARGES
----------------------
   0 C :    0.106846
   1 C :   -0.015084
   2 O :    0.295486
   3 C :   -0.418149
   4 O :    0.105691
   5 C :   -0.096830
   6 C :   -0.057557
   7 C :    0.131144
   8 N :    0.407883
   9 C :   -0.454123
  10 S :   -0.035037
  11 N :    0.395988
  12 C :   -0.052966
  13 C :   -0.033942
  14 C :    0.012885
  15 C :    0.043918
  16 C :   -0.002919
  17 C :   -0.190297
  18 O :    0.396189
  19 C :    0.028447
  20 H :   -0.028458
  21 H :   -0.025871
  22 H :   -0.026330
  23 H :   -0.029763
  24 H :   -0.027925
  25 H :   -0.005342
  26 H :   -0.003287
  27 H :   -0.023271
  28 H :   -0.057414
  29 H :   -0.066316
  30 H :   -0.008039
  31 H :   -0.031072
  32 H :   -0.020161
  33 H :   -0.035133
  34 H :   -0.152856
  35 H :   -0.026335

  Mayer bond orders larger than 0.100000
B(  0-C ,  1-C ) :   0.9721 B(  0-C , 20-H ) :   0.9753 B(  0-C , 21-H ) :   0.9800
B(  0-C , 22-H ) :   0.9741 B(  1-C ,  2-O ) :   0.8910 B(  1-C , 23-H ) :   0.9883
B(  1-C , 24-H ) :   0.9707 B(  2-O ,  3-C ) :   1.1375 B(  3-C ,  4-O ) :   1.9936
B(  3-C ,  5-C ) :   1.0664 B(  5-C ,  6-C ) :   1.6470 B(  5-C , 12-C ) :   0.9760
B(  6-C ,  7-C ) :   0.9678 B(  6-C ,  8-N ) :   1.1601 B(  7-C , 25-H ) :   0.9611
B(  7-C , 26-H ) :   0.9588 B(  7-C , 27-H ) :   0.9900 B(  8-N ,  9-C ) :   1.1837
B(  8-N , 28-H ) :   0.9478 B(  9-C , 10-S ) :   1.6015 B(  9-C , 11-N ) :   1.3078
B( 11-N , 12-C ) :   0.9574 B( 11-N , 29-H ) :   0.9522 B( 12-C , 13-C ) :   0.9465
B( 12-C , 30-H ) :   1.0023 B( 13-C , 14-C ) :   1.3535 B( 13-C , 19-C ) :   1.3724
B( 14-C , 15-C ) :   1.3937 B( 14-C , 31-H ) :   0.9736 B( 15-C , 16-C ) :   1.3617
B( 15-C , 32-H ) :   0.9714 B( 16-C , 17-C ) :   1.3311 B( 16-C , 33-H ) :   0.9854
B( 17-C , 18-O ) :   1.1141 B( 17-C , 19-C ) :   1.3693 B( 18-O , 34-H ) :   0.9789
B( 19-C , 35-H ) :   0.9549

MP2 TOTAL ENERGY:    -1274.341341784 Eh
FINAL SINGLE POINT ENERGY     -1274.341341784312

DIPOLE MOMENT
-------------
                                X             Y             Z
Electronic contribution:      8.22751      11.25124       4.67105
Nuclear contribution   :     -9.24403     -12.78681      -4.61649
                        -----------------------------------------
Total Dipole Moment    :     -1.01652      -1.53557       0.05456
                        -----------------------------------------
Magnitude (a.u.)       :      1.84235
Magnitude (Debye)      :      4.68289

Rotational constants in cm-1:     0.012361     0.008850     0.006451
Rotational constants in MHz :   370.559076   265.323685   193.405030

                             ****ORCA TERMINATED NORMALLY****
TOTAL RUN TIME: 0 days 1 hours 46 minutes 15 seconds 893 msec
