                         Program Version 4.2.0 -  RELEASE  -
|  1> ! ri-mp2 cc-pvtz cc-pvtz/c TightSCF  NoKeepInts
|  2>
|  3> %scf
|  4>   MaxCore 4096
|  5> end
|  6> *xyz  0  1
|  7>     C       15.4689756   13.9989213   14.7933949
|  8>     C       15.0645666   14.8519690   16.0126039
|  9>     O       16.0202339   15.9149121   16.1888818
| 10>     C       17.2034530   15.6764863   16.8305858
| 11>     O       17.6283560   14.5478815   17.0170667
| 12>     C       17.7113629   16.8520630   17.6152652
| 13>     C       17.4067066   18.1497149   17.3514520
| 14>     C       16.5372448   18.6946614   16.2367837
| 15>     N       17.9877266   19.1682943   18.1141105
| 16>     C       18.9839170   18.9855070   19.0365477
| 17>     S       19.7089121   20.2605017   19.8010286
| 18>     N       19.3494185   17.6882463   19.2919359
| 19>     C       18.6470702   16.4978246   18.7768838
| 20>     C       17.8858737   15.7995517   19.9010063
| 21>     C       18.1034699   14.4352573   20.1683833
| 22>     C       17.4038139   13.7864347   21.1996123
| 23>     C       16.4772521   14.5073245   21.9718754
| 24>     C       16.2545040   15.8652980   21.7065981
| 25>     O       15.3557994   16.5626606   22.4464738
| 26>     C       16.9519979   16.5081715   20.6791278
| 27>     H       15.5736233   14.6257821   13.8993941
| 28>     H       14.7063651   13.2374624   14.5904270
| 29>     H       16.4210423   13.4825542   14.9673512
| 30>     H       14.0735986   15.2856965   15.8273980
| 31>     H       15.0007839   14.2292367   16.9157676
| 32>     H       16.7976029   18.2321408   15.2765431
| 33>     H       16.6439553   19.7787087   16.1089798
| 34>     H       15.4784527   18.4868766   16.4355761
| 35>     H       17.7329129   20.1274850   17.9409134
| 36>     H       20.0642606   17.5784510   19.9996423
| 37>     H       19.4085358   15.8030626   18.3939168
| 38>     H       18.8067842   13.8711608   19.5605929
| 39>     H       17.5772820   12.7291877   21.3917939
| 40>     H       15.9334922   14.0097556   22.7678915
| 41>     H       15.0109659   15.9622494   23.1242185
| 42>     H       16.7666878   17.5605080   20.4939764
| 43> *
| 44>
| 45>                          ****END OF INPUT****

CARTESIAN COORDINATES (ANGSTROEM)
---------------------------------
  C     15.468976   13.998921   14.793395
  C     15.064567   14.851969   16.012604
  O     16.020234   15.914912   16.188882
  C     17.203453   15.676486   16.830586
  O     17.628356   14.547881   17.017067
  C     17.711363   16.852063   17.615265
  C     17.406707   18.149715   17.351452
  C     16.537245   18.694661   16.236784
  N     17.987727   19.168294   18.114110
  C     18.983917   18.985507   19.036548
  S     19.708912   20.260502   19.801029
  N     19.349418   17.688246   19.291936
  C     18.647070   16.497825   18.776884
  C     17.885874   15.799552   19.901006
  C     18.103470   14.435257   20.168383
  C     17.403814   13.786435   21.199612
  C     16.477252   14.507324   21.971875
  C     16.254504   15.865298   21.706598
  O     15.355799   16.562661   22.446474
  C     16.951998   16.508171   20.679128
  H     15.573623   14.625782   13.899394
  H     14.706365   13.237462   14.590427
  H     16.421042   13.482554   14.967351
  H     14.073599   15.285697   15.827398
  H     15.000784   14.229237   16.915768
  H     16.797603   18.232141   15.276543
  H     16.643955   19.778709   16.108980
  H     15.478453   18.486877   16.435576
  H     17.732913   20.127485   17.940913
  H     20.064261   17.578451   19.999642
  H     19.408536   15.803063   18.393917
  H     18.806784   13.871161   19.560593
  H     17.577282   12.729188   21.391794
  H     15.933492   14.009756   22.767892
  H     15.010966   15.962249   23.124218
  H     16.766688   17.560508   20.493976

 Total Charge           Charge          ....    0
 Multiplicity           Mult            ....    1
 Number of Electrons    NEL             ....  154
 Basis Dimension        Dim             ....  828

ORBITAL ENERGIES
----------------

  NO   OCC          E(Eh)            E(eV)
   0   2.0000     -91.887856     -2500.3957
   1   2.0000     -20.600362      -560.5643
   2   2.0000     -20.591867      -560.3332
   3   2.0000     -20.548488      -559.1528
   4   2.0000     -15.627896      -425.2567
   5   2.0000     -15.606694      -424.6797
   6   2.0000     -11.397114      -310.1313
   7   2.0000     -11.382845      -309.7430
   8   2.0000     -11.334984      -308.4406
   9   2.0000     -11.307768      -307.7000
  10   2.0000     -11.306024      -307.6525
  11   2.0000     -11.301268      -307.5231
  12   2.0000     -11.260279      -306.4078
  13   2.0000     -11.258720      -306.3654
  14   2.0000     -11.253734      -306.2297
  15   2.0000     -11.248008      -306.0738
  16   2.0000     -11.237606      -305.7908
  17   2.0000     -11.233628      -305.6826
  18   2.0000     -11.230784      -305.6052
  19   2.0000     -11.223648      -305.4110
  20   2.0000      -8.892922      -241.9887
  21   2.0000      -6.574501      -178.9013
  22   2.0000      -6.572493      -178.8466
  23   2.0000      -6.571908      -178.8307
  24   2.0000      -1.453544       -39.5530
  25   2.0000      -1.411603       -38.4117
  26   2.0000      -1.358003       -36.9532
  27   2.0000      -1.338967       -36.4351
  28   2.0000      -1.236739       -33.6534
  29   2.0000      -1.152331       -31.3565
  30   2.0000      -1.119526       -30.4638
  31   2.0000      -1.042093       -28.3568
  32   2.0000      -1.033717       -28.1289
  33   2.0000      -1.009684       -27.4749
  34   2.0000      -0.996969       -27.1289
  35   2.0000      -0.982428       -26.7332
  36   2.0000      -0.921281       -25.0693
  37   2.0000      -0.891261       -24.2525
  38   2.0000      -0.847495       -23.0615
  39   2.0000      -0.835676       -22.7399
  40   2.0000      -0.828169       -22.5356
  41   2.0000      -0.818895       -22.2833
  42   2.0000      -0.753013       -20.4905
  43   2.0000      -0.733983       -19.9727
  44   2.0000      -0.725139       -19.7320
  45   2.0000      -0.690960       -18.8020
  46   2.0000      -0.685160       -18.6441
  47   2.0000      -0.680155       -18.5079
  48   2.0000      -0.671306       -18.2672
  49   2.0000      -0.660537       -17.9741
  50   2.0000      -0.645900       -17.5758
  51   2.0000      -0.641190       -17.4477
  52   2.0000      -0.630980       -17.1698
  53   2.0000      -0.609355       -16.5814
  54   2.0000      -0.600052       -16.3282
  55   2.0000      -0.599566       -16.3150
  56   2.0000      -0.595020       -16.1913
  57   2.0000      -0.585687       -15.9373
  58   2.0000      -0.573207       -15.5978
  59   2.0000      -0.566952       -15.4275
  60   2.0000      -0.560388       -15.2489
  61   2.0000      -0.546009       -14.8577
  62   2.0000      -0.535324       -14.5669
  63   2.0000      -0.521506       -14.1909
  64   2.0000      -0.517207       -14.0739
  65   2.0000      -0.510658       -13.8957
  66   2.0000      -0.501348       -13.6424
  67   2.0000      -0.495552       -13.4846
  68   2.0000      -0.480046       -13.0627
  69   2.0000      -0.461620       -12.5613
  70   2.0000      -0.456847       -12.4314
  71   2.0000      -0.454509       -12.3678
  72   2.0000      -0.353741        -9.6258
  73   2.0000      -0.344161        -9.3651
  74   2.0000      -0.327017        -8.8986
  75   2.0000      -0.315555        -8.5867
  76   2.0000      -0.314005        -8.5445
  77   0.0000       0.075858         2.0642
  78   0.0000       0.112359         3.0574
  79   0.0000       0.121646         3.3102
  80   0.0000       0.135819         3.6958
  81   0.0000       0.140824         3.8320

MULLIKEN ATOMIC CHARGES
-----------------------
   0 C :   -0.293227
   1 C :    0.042221
   2 O :   -0.350387
   3 C :    0.431024
   4 O :   -0.428010
   5 C :   -0.149520
   6 C :    0.141337
   7 C :   -0.284856
   8 N :   -0.122294
   9 C :    0.201780
  10 S :   -0.439912
  11 N :   -0.197262
  12 C :    0.036565
  13 C :    0.055064
  14 C :   -0.162369
  15 C :   -0.134272
  16 C :   -0.279280
  17 C :    0.311346
  18 O :   -0.358878
  19 C :   -0.270900
  20 H :    0.090053
  21 H :    0.093530
  22 H :    0.120578
  23 H :    0.102974
  24 H :    0.100116
  25 H :    0.124681
  26 H :    0.101804
  27 H :    0.128056
  28 H :    0.196819
  29 H :    0.193516
  30 H :    0.153755
  31 H :    0.153651
  32 H :    0.159248
  33 H :    0.128214
  34 H :    0.240021
  35 H :    0.164813
Sum of atomic charges:    0.0000000

LOEWDIN ATOMIC CHARGES
----------------------
   0 C :    0.104384
   1 C :   -0.015077
   2 O :    0.301316
   3 C :   -0.412044
   4 O :    0.109785
   5 C :   -0.090596
   6 C :   -0.067798
   7 C :    0.125115
   8 N :    0.404552
   9 C :   -0.458652
  10 S :   -0.036472
  11 N :    0.397641
  12 C :   -0.046038
  13 C :   -0.038966
  14 C :    0.021456
  15 C :    0.040540
  16 C :   -0.002399
  17 C :   -0.192566
  18 O :    0.393111
  19 C :    0.028819
  20 H :   -0.030658
  21 H :   -0.028233
  22 H :   -0.024945
  23 H :   -0.025898
  24 H :   -0.026562
  25 H :   -0.008907
  26 H :   -0.020728
  27 H :   -0.009456
  28 H :   -0.059088
  29 H :   -0.063788
  30 H :   -0.005055
  31 H :   -0.025402
  32 H :   -0.021246
  33 H :   -0.036380
  34 H :   -0.154897
  35 H :   -0.024866

  Mayer bond orders larger than 0.100000
B(  0-C ,  1-C ) :   0.9680 B(  0-C , 20-H ) :   0.9764 B(  0-C , 21-H ) :   0.9769
B(  0-C , 22-H ) :   0.9732 B(  1-C ,  2-O ) :   0.9022 B(  1-C , 23-H ) :   0.9846
B(  1-C , 24-H ) :   0.9760 B(  2-O ,  3-C ) :   1.1335 B(  3-C ,  4-O ) :   1.9646
B(  3-C ,  5-C ) :   1.0545 B(  5-C ,  6-C ) :   1.6519 B(  5-C , 12-C ) :   0.9645
B(  6-C ,  7-C ) :   0.9547 B(  6-C ,  8-N ) :   1.1436 B(  7-C , 25-H ) :   0.9674
B(  7-C , 26-H ) :   0.9908 B(  7-C , 27-H ) :   0.9629 B(  8-N ,  9-C ) :   1.1803
B(  8-N , 28-H ) :   0.9491 B(  9-C , 10-S ) :   1.6102 B(  9-C , 11-N ) :   1.3029
B( 11-N , 12-C ) :   0.9931 B( 11-N , 29-H ) :   0.9519 B( 12-C , 13-C ) :   0.9466
B( 12-C , 30-H ) :   0.9994 B( 13-C , 14-C ) :   1.3755 B( 13-C , 19-C ) :   1.3703
B( 14-C , 15-C ) :   1.3945 B( 14-C , 31-H ) :   0.9650 B( 15-C , 16-C ) :   1.3628
B( 15-C , 32-H ) :   0.9714 B( 16-C , 17-C ) :   1.3313 B( 16-C , 33-H ) :   0.9859
B( 17-C , 18-O ) :   1.1082 B( 17-C , 19-C ) :   1.3787 B( 18-O , 34-H ) :   0.9806
B( 19-C , 35-H ) :   0.9584

MP2 TOTAL ENERGY:    -1274.342104954 Eh
FINAL SINGLE POINT ENERGY     -1274.342104954170

DIPOLE MOMENT
-------------
                                X             Y             Z
Electronic contribution:     10.28197       9.94051      11.15966
Nuclear contribution   :    -11.93734     -11.09598     -11.98449
                        -----------------------------------------
Total Dipole Moment    :     -1.65537      -1.15547      -0.82484
                        -----------------------------------------
Magnitude (a.u.)       :      2.18076
Magnitude (Debye)      :      5.54306

Rotational constants in cm-1:     0.010657     0.008923     0.005859
Rotational constants in MHz :   319.502311   267.516291   175.640274

                             ****ORCA TERMINATED NORMALLY****
TOTAL RUN TIME: 0 days 1 hours 33 minutes 22 seconds 229 msec
