                         Program Version 5.0.0 -  RELEASE  -
|  1> ! ri-mp2 cc-pvtz cc-pvtz/c TightSCF NoKeepInts
|  2>
|  3> %scf
|  4>   MaxCore 4096
|  5> end
|  6> *xyz  0  1
|  7>     C       14.7247844   15.3519336   16.3145739
|  8>     C       15.8450198   14.7438554   17.1783622
|  9>     O       17.0905988   14.8301260   16.4543890
| 10>     C       17.7519771   16.0091667   16.2386085
| 11>     O       18.1251891   16.3044161   15.1186981
| 12>     C       17.7800540   16.9895157   17.3707465
| 13>     C       17.3771634   18.2700734   17.1912967
| 14>     C       16.7099300   18.8538234   15.9646168
| 15>     N       17.6154831   19.2257131   18.1811621
| 16>     C       18.4171566   19.0280170   19.2738169
| 17>     S       18.7521411   20.2433281   20.3438043
| 18>     N       18.9354874   17.7672093   19.4348287
| 19>     C       18.5689636   16.5845016   18.6303718
| 20>     C       17.8944188   15.5413244   19.5148308
| 21>     C       18.2777640   14.1894780   19.4295347
| 22>     C       17.6592779   13.2178770   20.2338404
| 23>     C       16.6523642   13.6000848   21.1362438
| 24>     C       16.2720893   14.9454530   21.2304779
| 25>     O       15.2960933   15.3168151   22.0960515
| 26>     C       16.8870990   15.9107726   20.4268418
| 27>     H       14.8340501   16.4382815   16.2317526
| 28>     H       13.7447094   15.1462373   16.7619885
| 29>     H       14.7367054   14.9212890   15.3050845
| 30>     H       15.8700173   15.2640408   18.1370623
| 31>     H       15.6167774   13.6877174   17.3717585
| 32>     H       16.2210737   18.0859753   15.3542879
| 33>     H       17.4554290   19.3408924   15.3231675
| 34>     H       15.9457978   19.5950545   16.2273557
| 35>     H       17.2697249   20.1647157   18.0605596
| 36>     H       19.5110193   17.6504181   20.2594923
| 37>     H       19.5111537   16.1416228   18.2765116
| 38>     H       19.0511661   13.8873282   18.7273398
| 39>     H       17.9611883   12.1744496   20.1560703
| 40>     H       16.1723990   12.8524102   21.7595357
| 41>     H       15.0389247   14.5318354   22.6032329
| 42>     H       16.5738090   16.9462478   20.5157038
| 43> *
| 44>
| 45>                          ****END OF INPUT****

CARTESIAN COORDINATES (ANGSTROEM)
---------------------------------
  C     14.724784   15.351934   16.314574
  C     15.845020   14.743855   17.178362
  O     17.090599   14.830126   16.454389
  C     17.751977   16.009167   16.238609
  O     18.125189   16.304416   15.118698
  C     17.780054   16.989516   17.370746
  C     17.377163   18.270073   17.191297
  C     16.709930   18.853823   15.964617
  N     17.615483   19.225713   18.181162
  C     18.417157   19.028017   19.273817
  S     18.752141   20.243328   20.343804
  N     18.935487   17.767209   19.434829
  C     18.568964   16.584502   18.630372
  C     17.894419   15.541324   19.514831
  C     18.277764   14.189478   19.429535
  C     17.659278   13.217877   20.233840
  C     16.652364   13.600085   21.136244
  C     16.272089   14.945453   21.230478
  O     15.296093   15.316815   22.096052
  C     16.887099   15.910773   20.426842
  H     14.834050   16.438281   16.231753
  H     13.744709   15.146237   16.761989
  H     14.736705   14.921289   15.305084
  H     15.870017   15.264041   18.137062
  H     15.616777   13.687717   17.371758
  H     16.221074   18.085975   15.354288
  H     17.455429   19.340892   15.323168
  H     15.945798   19.595054   16.227356
  H     17.269725   20.164716   18.060560
  H     19.511019   17.650418   20.259492
  H     19.511154   16.141623   18.276512
  H     19.051166   13.887328   18.727340
  H     17.961188   12.174450   20.156070
  H     16.172399   12.852410   21.759536
  H     15.038925   14.531835   22.603233
  H     16.573809   16.946248   20.515704

 Total Charge           Charge          ....    0
 Multiplicity           Mult            ....    1
 Number of Electrons    NEL             ....  154
 Basis Dimension        Dim             ....  828

ORBITAL ENERGIES
----------------

  NO   OCC          E(Eh)            E(eV)
   0   2.0000     -91.890751     -2500.4745
   1   2.0000     -20.603640      -560.6535
   2   2.0000     -20.592173      -560.3415
   3   2.0000     -20.552538      -559.2630
   4   2.0000     -15.627286      -425.2401
   5   2.0000     -15.612158      -424.8284
   6   2.0000     -11.395751      -310.0942
   7   2.0000     -11.386527      -309.8432
   8   2.0000     -11.331198      -308.3376
   9   2.0000     -11.322004      -308.0874
  10   2.0000     -11.319701      -308.0247
  11   2.0000     -11.298884      -307.4583
  12   2.0000     -11.268405      -306.6289
  13   2.0000     -11.263165      -306.4863
  14   2.0000     -11.262362      -306.4645
  15   2.0000     -11.257244      -306.3252
  16   2.0000     -11.251465      -306.1679
  17   2.0000     -11.246210      -306.0249
  18   2.0000     -11.245998      -306.0192
  19   2.0000     -11.230510      -305.5977
  20   2.0000      -8.895830      -242.0679
  21   2.0000      -6.577410      -178.9804
  22   2.0000      -6.575395      -178.9256
  23   2.0000      -6.574812      -178.9097
  24   2.0000      -1.446247       -39.3544
  25   2.0000      -1.423437       -38.7337
  26   2.0000      -1.357869       -36.9495
  27   2.0000      -1.341036       -36.4914
  28   2.0000      -1.241387       -33.7798
  29   2.0000      -1.165020       -31.7018
  30   2.0000      -1.123852       -30.5816
  31   2.0000      -1.049840       -28.5676
  32   2.0000      -1.035609       -28.1804
  33   2.0000      -1.023515       -27.8513
  34   2.0000      -1.003368       -27.3030
  35   2.0000      -0.988908       -26.9096
  36   2.0000      -0.928632       -25.2694
  37   2.0000      -0.891491       -24.2587
  38   2.0000      -0.852153       -23.1883
  39   2.0000      -0.844166       -22.9709
  40   2.0000      -0.842199       -22.9174
  41   2.0000      -0.833901       -22.6916
  42   2.0000      -0.754566       -20.5328
  43   2.0000      -0.737592       -20.0709
  44   2.0000      -0.721718       -19.6389
  45   2.0000      -0.702389       -19.1130
  46   2.0000      -0.692964       -18.8565
  47   2.0000      -0.681549       -18.5459
  48   2.0000      -0.675239       -18.3742
  49   2.0000      -0.667336       -18.1591
  50   2.0000      -0.653565       -17.7844
  51   2.0000      -0.647828       -17.6283
  52   2.0000      -0.636769       -17.3274
  53   2.0000      -0.617978       -16.8160
  54   2.0000      -0.612602       -16.6698
  55   2.0000      -0.607070       -16.5192
  56   2.0000      -0.604583       -16.4515
  57   2.0000      -0.584063       -15.8932
  58   2.0000      -0.578226       -15.7343
  59   2.0000      -0.567808       -15.4508
  60   2.0000      -0.557310       -15.1652
  61   2.0000      -0.552055       -15.0222
  62   2.0000      -0.547026       -14.8853
  63   2.0000      -0.530690       -14.4408
  64   2.0000      -0.526633       -14.3304
  65   2.0000      -0.518256       -14.1025
  66   2.0000      -0.506393       -13.7797
  67   2.0000      -0.502791       -13.6816
  68   2.0000      -0.483081       -13.1453
  69   2.0000      -0.468372       -12.7450
  70   2.0000      -0.454860       -12.3774
  71   2.0000      -0.449044       -12.2191
  72   2.0000      -0.358518        -9.7558
  73   2.0000      -0.354174        -9.6376
  74   2.0000      -0.331142        -9.0108
  75   2.0000      -0.329172        -8.9572
  76   2.0000      -0.319794        -8.7021
  77   0.0000       0.082812         2.2534
  78   0.0000       0.099055         2.6954
  79   0.0000       0.118843         3.2339
  80   0.0000       0.126763         3.4494
  81   0.0000       0.129456         3.5227

MULLIKEN ATOMIC CHARGES
-----------------------
   0 C :   -0.292674
   1 C :    0.031045
   2 O :   -0.339057
   3 C :    0.393667
   4 O :   -0.367433
   5 C :   -0.209437
   6 C :    0.157942
   7 C :   -0.302020
   8 N :   -0.128984
   9 C :    0.201520
  10 S :   -0.437798
  11 N :   -0.210667
  12 C :    0.043984
  13 C :    0.019426
  14 C :   -0.172252
  15 C :   -0.142755
  16 C :   -0.271628
  17 C :    0.304422
  18 O :   -0.353505
  19 C :   -0.249343
  20 H :    0.083942
  21 H :    0.102774
  22 H :    0.114906
  23 H :    0.104528
  24 H :    0.121765
  25 H :    0.123000
  26 H :    0.145506
  27 H :    0.104302
  28 H :    0.197610
  29 H :    0.197129
  30 H :    0.160004
  31 H :    0.149909
  32 H :    0.165183
  33 H :    0.135300
  34 H :    0.241448
  35 H :    0.178243
Sum of atomic charges:   -0.0000000

LOEWDIN ATOMIC CHARGES
----------------------
   0 C :    0.105911
   1 C :   -0.019593
   2 O :    0.298511
   3 C :   -0.422627
   4 O :    0.131375
   5 C :   -0.088471
   6 C :   -0.082961
   7 C :    0.128457
   8 N :    0.404743
   9 C :   -0.457563
  10 S :   -0.035077
  11 N :    0.396610
  12 C :   -0.050810
  13 C :   -0.045298
  14 C :    0.018983
  15 C :    0.044478
  16 C :    0.000465
  17 C :   -0.192269
  18 O :    0.397440
  19 C :    0.029264
  20 H :   -0.034530
  21 H :   -0.024658
  22 H :   -0.022071
  23 H :   -0.040073
  24 H :   -0.020809
  25 H :   -0.012499
  26 H :   -0.004920
  27 H :   -0.019748
  28 H :   -0.056641
  29 H :   -0.064122
  30 H :   -0.007518
  31 H :   -0.027318
  32 H :   -0.018481
  33 H :   -0.033712
  34 H :   -0.152343
  35 H :   -0.022126

  Mayer bond orders larger than 0.100000
B(  0-C ,  1-C ) :   0.9765 B(  0-C , 20-H ) :   0.9774 B(  0-C , 21-H ) :   0.9775
B(  0-C , 22-H ) :   0.9762 B(  1-C ,  2-O ) :   0.8840 B(  1-C , 23-H ) :   0.9576
B(  1-C , 24-H ) :   0.9802 B(  2-O ,  3-C ) :   1.1644 B(  3-C ,  4-O ) :   2.1179
B(  3-C ,  5-C ) :   0.9114 B(  5-C ,  6-C ) :   1.7067 B(  5-C , 12-C ) :   0.9576
B(  6-C ,  7-C ) :   0.9543 B(  6-C ,  8-N ) :   1.1277 B(  7-C , 25-H ) :   0.9754
B(  7-C , 26-H ) :   0.9590 B(  7-C , 27-H ) :   0.9785 B(  8-N ,  9-C ) :   1.1958
B(  8-N , 28-H ) :   0.9509 B(  9-C , 10-S ) :   1.6144 B(  9-C , 11-N ) :   1.2843
B( 11-N , 12-C ) :   0.9953 B( 11-N , 29-H ) :   0.9489 B( 12-C , 13-C ) :   0.9458
B( 12-C , 30-H ) :   1.0090 B( 13-C , 14-C ) :   1.3798 B( 13-C , 19-C ) :   1.3501
B( 14-C , 15-C ) :   1.3936 B( 14-C , 31-H ) :   0.9717 B( 15-C , 16-C ) :   1.3638
B( 15-C , 32-H ) :   0.9696 B( 16-C , 17-C ) :   1.3288 B( 16-C , 33-H ) :   0.9830
B( 17-C , 18-O ) :   1.1146 B( 17-C , 19-C ) :   1.3676 B( 18-O , 34-H ) :   0.9789
B( 19-C , 35-H ) :   0.9574

MP2 TOTAL ENERGY:    -1274.328813194 Eh
FINAL SINGLE POINT ENERGY     -1274.328813193506

DIPOLE MOMENT
-------------
                                X             Y             Z
Electronic contribution:     10.50591       6.61085       7.40334
Nuclear contribution   :    -11.85913      -8.23193      -7.12415
                        -----------------------------------------
Total Dipole Moment    :     -1.35322      -1.62108       0.27918
                        -----------------------------------------
Magnitude (a.u.)       :      2.13003
Magnitude (Debye)      :      5.41410

Rotational constants in cm-1:     0.011478     0.009630     0.006414
Rotational constants in MHz :   344.090589   288.709340   192.275665

                             ****ORCA TERMINATED NORMALLY****
TOTAL RUN TIME: 0 days 1 hours 40 minutes 22 seconds 190 msec
