                         Program Version 5.0.0 -  RELEASE  -
|  1> ! ri-mp2 cc-pvtz cc-pvtz/c TightSCF NoKeepInts
|  2>
|  3> %scf
|  4>   MaxCore 4096
|  5> end
|  6> *xyz  0  1
|  7>     C       14.9628466   14.2165345   15.9576110
|  8>     C       16.2547343   14.0468352   16.7842927
|  9>     O       17.2404592   15.0880347   16.5692370
| 10>     C       16.9361112   16.4170293   16.4306720
| 11>     O       16.1153917   16.8306957   15.6311717
| 12>     C       17.6343251   17.2792411   17.4485849
| 13>     C       17.4788181   18.6277824   17.4887841
| 14>     C       16.6175264   19.4815585   16.5824785
| 15>     N       18.1834247   19.3883188   18.4266960
| 16>     C       19.1357697   18.8972330   19.2786754
| 17>     S       19.9938935   19.8814148   20.2940210
| 18>     N       19.3473346   17.5430177   19.2439498
| 19>     C       18.5481455   16.5773035   18.4687474
| 20>     C       17.7722771   15.6783327   19.4268088
| 21>     C       18.1985619   14.3573744   19.6612216
| 22>     C       17.4849845   13.5204211   20.5355269
| 23>     C       16.3384679   14.0094009   21.1845835
| 24>     C       15.9167536   15.3272552   20.9610525
| 25>     O       14.8119338   15.8031825   21.5882134
| 26>     C       16.6280601   16.1574366   20.0893597
| 27>     H       14.3714731   15.0690489   16.3141985
| 28>     H       14.3365950   13.3205036   16.0427381
| 29>     H       15.1956289   14.3685813   14.8960104
| 30>     H       15.9785413   14.0264733   17.8465946
| 31>     H       16.7099647   13.0767944   16.5474600
| 32>     H       15.5627968   19.1898717   16.6664888
| 33>     H       16.9106680   19.3478190   15.5333145
| 34>     H       16.6838543   20.5519888   16.8095230
| 35>     H       18.0440929   20.3854752   18.4632265
| 36>     H       20.0310442   17.2067842   19.9097197
| 37>     H       19.2520717   15.9513758   17.9021652
| 38>     H       19.0837943   13.9763572   19.1586949
| 39>     H       17.8221643   12.4999448   20.7100871
| 40>     H       15.7849579   13.3675684   21.8623179
| 41>     H       14.4903251   15.1084408   22.1823768
| 42>     H       16.2892078   17.1765701   19.9373962
| 43> *
| 44>
| 45>                          ****END OF INPUT****

CARTESIAN COORDINATES (ANGSTROEM)
---------------------------------
  C     14.962847   14.216534   15.957611
  C     16.254734   14.046835   16.784293
  O     17.240459   15.088035   16.569237
  C     16.936111   16.417029   16.430672
  O     16.115392   16.830696   15.631172
  C     17.634325   17.279241   17.448585
  C     17.478818   18.627782   17.488784
  C     16.617526   19.481558   16.582479
  N     18.183425   19.388319   18.426696
  C     19.135770   18.897233   19.278675
  S     19.993893   19.881415   20.294021
  N     19.347335   17.543018   19.243950
  C     18.548146   16.577303   18.468747
  C     17.772277   15.678333   19.426809
  C     18.198562   14.357374   19.661222
  C     17.484984   13.520421   20.535527
  C     16.338468   14.009401   21.184583
  C     15.916754   15.327255   20.961053
  O     14.811934   15.803183   21.588213
  C     16.628060   16.157437   20.089360
  H     14.371473   15.069049   16.314198
  H     14.336595   13.320504   16.042738
  H     15.195629   14.368581   14.896010
  H     15.978541   14.026473   17.846595
  H     16.709965   13.076794   16.547460
  H     15.562797   19.189872   16.666489
  H     16.910668   19.347819   15.533314
  H     16.683854   20.551989   16.809523
  H     18.044093   20.385475   18.463226
  H     20.031044   17.206784   19.909720
  H     19.252072   15.951376   17.902165
  H     19.083794   13.976357   19.158695
  H     17.822164   12.499945   20.710087
  H     15.784958   13.367568   21.862318
  H     14.490325   15.108441   22.182377
  H     16.289208   17.176570   19.937396

 Total Charge           Charge          ....    0
 Multiplicity           Mult            ....    1
 Number of Electrons    NEL             ....  154
 Basis Dimension        Dim             ....  828

ORBITAL ENERGIES
----------------

  NO   OCC          E(Eh)            E(eV)
   0   2.0000     -91.889203     -2500.4323
   1   2.0000     -20.600576      -560.5702
   2   2.0000     -20.588285      -560.2357
   3   2.0000     -20.543439      -559.0154
   4   2.0000     -15.629394      -425.2974
   5   2.0000     -15.608633      -424.7325
   6   2.0000     -11.395275      -310.0812
   7   2.0000     -11.384228      -309.7806
   8   2.0000     -11.336145      -308.4722
   9   2.0000     -11.318347      -307.9879
  10   2.0000     -11.309614      -307.7502
  11   2.0000     -11.298609      -307.4508
  12   2.0000     -11.263140      -306.4856
  13   2.0000     -11.259489      -306.3863
  14   2.0000     -11.258022      -306.3464
  15   2.0000     -11.252366      -306.1924
  16   2.0000     -11.247063      -306.0482
  17   2.0000     -11.242016      -305.9108
  18   2.0000     -11.241535      -305.8977
  19   2.0000     -11.219234      -305.2909
  20   2.0000      -8.894268      -242.0253
  21   2.0000      -6.575843      -178.9378
  22   2.0000      -6.573838      -178.8832
  23   2.0000      -6.573252      -178.8673
  24   2.0000      -1.441944       -39.2373
  25   2.0000      -1.420234       -38.6465
  26   2.0000      -1.352586       -36.8057
  27   2.0000      -1.340552       -36.4783
  28   2.0000      -1.239229       -33.7211
  29   2.0000      -1.160993       -31.5922
  30   2.0000      -1.120451       -30.4890
  31   2.0000      -1.044829       -28.4313
  32   2.0000      -1.032218       -28.0881
  33   2.0000      -1.019118       -27.7316
  34   2.0000      -0.996211       -27.1083
  35   2.0000      -0.984343       -26.7853
  36   2.0000      -0.923927       -25.1413
  37   2.0000      -0.891844       -24.2683
  38   2.0000      -0.848360       -23.0850
  39   2.0000      -0.840933       -22.8829
  40   2.0000      -0.837368       -22.7859
  41   2.0000      -0.821469       -22.3533
  42   2.0000      -0.746798       -20.3214
  43   2.0000      -0.733472       -19.9588
  44   2.0000      -0.717492       -19.5239
  45   2.0000      -0.699001       -19.0208
  46   2.0000      -0.688998       -18.7486
  47   2.0000      -0.676746       -18.4152
  48   2.0000      -0.667706       -18.1692
  49   2.0000      -0.662408       -18.0250
  50   2.0000      -0.651041       -17.7157
  51   2.0000      -0.646131       -17.5821
  52   2.0000      -0.637123       -17.3370
  53   2.0000      -0.610879       -16.6229
  54   2.0000      -0.606011       -16.4904
  55   2.0000      -0.601262       -16.3612
  56   2.0000      -0.600290       -16.3347
  57   2.0000      -0.580383       -15.7930
  58   2.0000      -0.572021       -15.5655
  59   2.0000      -0.569894       -15.5076
  60   2.0000      -0.560918       -15.2634
  61   2.0000      -0.539256       -14.6739
  62   2.0000      -0.534255       -14.5378
  63   2.0000      -0.527634       -14.3576
  64   2.0000      -0.522837       -14.2271
  65   2.0000      -0.514104       -13.9895
  66   2.0000      -0.502858       -13.6835
  67   2.0000      -0.495055       -13.4711
  68   2.0000      -0.485363       -13.2074
  69   2.0000      -0.463211       -12.6046
  70   2.0000      -0.451644       -12.2899
  71   2.0000      -0.440472       -11.9858
  72   2.0000      -0.354877        -9.6567
  73   2.0000      -0.352929        -9.6037
  74   2.0000      -0.329354        -8.9622
  75   2.0000      -0.325341        -8.8530
  76   2.0000      -0.316855        -8.6221
  77   0.0000       0.073482         1.9995
  78   0.0000       0.102518         2.7897
  79   0.0000       0.123563         3.3623
  80   0.0000       0.130494         3.5509
  81   0.0000       0.134820         3.6686

MULLIKEN ATOMIC CHARGES
-----------------------
   0 C :   -0.278907
   1 C :    0.036570
   2 O :   -0.385316
   3 C :    0.476641
   4 O :   -0.415895
   5 C :   -0.254630
   6 C :    0.164166
   7 C :   -0.268723
   8 N :   -0.124016
   9 C :    0.215137
  10 S :   -0.441013
  11 N :   -0.208722
  12 C :    0.077516
  13 C :    0.028827
  14 C :   -0.180377
  15 C :   -0.130778
  16 C :   -0.279114
  17 C :    0.310432
  18 O :   -0.355871
  19 C :   -0.251335
  20 H :    0.102102
  21 H :    0.094563
  22 H :    0.110406
  23 H :    0.099696
  24 H :    0.102393
  25 H :    0.129960
  26 H :    0.132675
  27 H :    0.095163
  28 H :    0.197424
  29 H :    0.195240
  30 H :    0.149220
  31 H :    0.152308
  32 H :    0.162238
  33 H :    0.132590
  34 H :    0.241563
  35 H :    0.167867
Sum of atomic charges:   -0.0000000

LOEWDIN ATOMIC CHARGES
----------------------
   0 C :    0.103259
   1 C :   -0.014455
   2 O :    0.287434
   3 C :   -0.413168
   4 O :    0.115081
   5 C :   -0.097313
   6 C :   -0.058577
   7 C :    0.131129
   8 N :    0.406824
   9 C :   -0.455771
  10 S :   -0.035837
  11 N :    0.396184
  12 C :   -0.052558
  13 C :   -0.037486
  14 C :    0.013939
  15 C :    0.040278
  16 C :   -0.002788
  17 C :   -0.190262
  18 O :    0.396353
  19 C :    0.029590
  20 H :   -0.028171
  21 H :   -0.028717
  22 H :   -0.023608
  23 H :   -0.030281
  24 H :   -0.024619
  25 H :   -0.005315
  26 H :   -0.003536
  27 H :   -0.023458
  28 H :   -0.057539
  29 H :   -0.065002
  30 H :   -0.010025
  31 H :   -0.029479
  32 H :   -0.020319
  33 H :   -0.034877
  34 H :   -0.153000
  35 H :   -0.023913

  Mayer bond orders larger than 0.100000
B(  0-C ,  1-C ) :   0.9830 B(  0-C , 20-H ) :   0.9736 B(  0-C , 21-H ) :   0.9741
B(  0-C , 22-H ) :   0.9749 B(  1-C ,  2-O ) :   0.8921 B(  1-C , 23-H ) :   0.9680
B(  1-C , 24-H ) :   0.9808 B(  2-O ,  3-C ) :   1.1020 B(  3-C ,  4-O ) :   2.0030
B(  3-C ,  5-C ) :   1.0704 B(  5-C ,  6-C ) :   1.6487 B(  5-C , 12-C ) :   0.9724
B(  6-C ,  7-C ) :   0.9659 B(  6-C ,  8-N ) :   1.1602 B(  7-C , 25-H ) :   0.9605
B(  7-C , 26-H ) :   0.9595 B(  7-C , 27-H ) :   0.9908 B(  8-N ,  9-C ) :   1.1841
B(  8-N , 28-H ) :   0.9476 B(  9-C , 10-S ) :   1.6041 B(  9-C , 11-N ) :   1.3081
B( 11-N , 12-C ) :   0.9748 B( 11-N , 29-H ) :   0.9517 B( 12-C , 13-C ) :   0.9378
B( 12-C , 30-H ) :   1.0013 B( 13-C , 14-C ) :   1.3535 B( 13-C , 19-C ) :   1.3809
B( 14-C , 15-C ) :   1.3934 B( 14-C , 31-H ) :   0.9728 B( 15-C , 16-C ) :   1.3613
B( 15-C , 32-H ) :   0.9706 B( 16-C , 17-C ) :   1.3300 B( 16-C , 33-H ) :   0.9845
B( 17-C , 18-O ) :   1.1131 B( 17-C , 19-C ) :   1.3704 B( 18-O , 34-H ) :   0.9791
B( 19-C , 35-H ) :   0.9578

MP2 TOTAL ENERGY:    -1274.335909339 Eh
FINAL SINGLE POINT ENERGY     -1274.335909338531

DIPOLE MOMENT
-------------
                                X             Y             Z
Electronic contribution:     10.27621       9.70868       7.50866
Nuclear contribution   :    -11.27053     -11.40054      -7.53350
                        -----------------------------------------
Total Dipole Moment    :     -0.99431      -1.69186      -0.02484
                        -----------------------------------------
Magnitude (a.u.)       :      1.96257
Magnitude (Debye)      :      4.98845

Rotational constants in cm-1:     0.012244     0.008746     0.006296
Rotational constants in MHz :   367.072505   262.189477   188.752320

                             ****ORCA TERMINATED NORMALLY****
TOTAL RUN TIME: 0 days 1 hours 56 minutes 35 seconds 89 msec
