                         Program Version 4.2.0 -  RELEASE  -
|  1> ! ri-mp2 cc-pvtz cc-pvtz/c TightSCF  NoKeepInts
|  2>
|  3> %scf
|  4>   MaxCore 4096
|  5> end
|  6> *xyz  0  1
|  7>     C       14.6315267   14.3242387   16.4838497
|  8>     C       15.5578469   15.5182937   16.7638536
|  9>     O       16.7872392   15.2755056   16.0528698
| 10>     C       17.9978317   15.6077910   16.5998355
| 11>     O       18.9003913   14.7918770   16.6357462
| 12>     C       18.0320067   16.8576082   17.4239383
| 13>     C       17.5218486   18.0424432   17.0086167
| 14>     C       16.8983004   18.3601411   15.6655118
| 15>     N       17.6408018   19.1726113   17.8210842
| 16>     C       18.3572917   19.2236831   18.9883378
| 17>     S       18.5150136   20.6260498   19.8498677
| 18>     N       18.9351137   18.0509060   19.4078096
| 19>     C       18.7436201   16.7326084   18.7716639
| 20>     C       17.9794550   15.7818305   19.6886894
| 21>     C       18.4075639   14.4505462   19.8422430
| 22>     C       17.6949077   13.5582666   20.6603065
| 23>     C       16.5409679   13.9989106   21.3300495
| 24>     C       16.1073148   15.3222821   21.1756539
| 25>     O       14.9855679   15.7477522   21.8089069
| 26>     C       16.8182690   16.2084390   20.3601470
| 27>     H       15.0962469   13.3895360   16.8228824
| 28>     H       14.4250578   14.2372782   15.4098228
| 29>     H       13.6769997   14.4436678   17.0105993
| 30>     H       15.0833533   16.4493590   16.4336561
| 31>     H       15.7323604   15.5711020   17.8466497
| 32>     H       17.0583883   17.5620162   14.9305974
| 33>     H       17.3400959   19.2678239   15.2347941
| 34>     H       15.8183867   18.5263156   15.7569000
| 35>     H       17.2374203   20.0472636   17.5236220
| 36>     H       19.4409323   18.1133274   20.2824628
| 37>     H       19.7397176   16.3038456   18.5862944
| 38>     H       19.2891811   14.1007574   19.3089923
| 39>     H       18.0349311   12.5293349   20.7657914
| 40>     H       15.9860610   13.3114614   21.9599969
| 41>     H       14.6731318   15.0194217   22.3670782
| 42>     H       16.4618571   17.2277049   20.2548791
| 43> *
| 44>
| 45>                          ****END OF INPUT****

CARTESIAN COORDINATES (ANGSTROEM)
---------------------------------
  C     14.631527   14.324239   16.483850
  C     15.557847   15.518294   16.763854
  O     16.787239   15.275506   16.052870
  C     17.997832   15.607791   16.599836
  O     18.900391   14.791877   16.635746
  C     18.032007   16.857608   17.423938
  C     17.521849   18.042443   17.008617
  C     16.898300   18.360141   15.665512
  N     17.640802   19.172611   17.821084
  C     18.357292   19.223683   18.988338
  S     18.515014   20.626050   19.849868
  N     18.935114   18.050906   19.407810
  C     18.743620   16.732608   18.771664
  C     17.979455   15.781830   19.688689
  C     18.407564   14.450546   19.842243
  C     17.694908   13.558267   20.660307
  C     16.540968   13.998911   21.330049
  C     16.107315   15.322282   21.175654
  O     14.985568   15.747752   21.808907
  C     16.818269   16.208439   20.360147
  H     15.096247   13.389536   16.822882
  H     14.425058   14.237278   15.409823
  H     13.677000   14.443668   17.010599
  H     15.083353   16.449359   16.433656
  H     15.732360   15.571102   17.846650
  H     17.058388   17.562016   14.930597
  H     17.340096   19.267824   15.234794
  H     15.818387   18.526316   15.756900
  H     17.237420   20.047264   17.523622
  H     19.440932   18.113327   20.282463
  H     19.739718   16.303846   18.586294
  H     19.289181   14.100757   19.308992
  H     18.034931   12.529335   20.765791
  H     15.986061   13.311461   21.959997
  H     14.673132   15.019422   22.367078
  H     16.461857   17.227705   20.254879

 Total Charge           Charge          ....    0
 Multiplicity           Mult            ....    1
 Number of Electrons    NEL             ....  154
 Basis Dimension        Dim             ....  828

ORBITAL ENERGIES
----------------

  NO   OCC          E(Eh)            E(eV)
   0   2.0000     -91.890890     -2500.4782
   1   2.0000     -20.599557      -560.5425
   2   2.0000     -20.595879      -560.4424
   3   2.0000     -20.551645      -559.2387
   4   2.0000     -15.629147      -425.2907
   5   2.0000     -15.611340      -424.8061
   6   2.0000     -11.396587      -310.1169
   7   2.0000     -11.387185      -309.8611
   8   2.0000     -11.334450      -308.4261
   9   2.0000     -11.316419      -307.9354
  10   2.0000     -11.312847      -307.8382
  11   2.0000     -11.303353      -307.5799
  12   2.0000     -11.267083      -306.5929
  13   2.0000     -11.264786      -306.5304
  14   2.0000     -11.262669      -306.4728
  15   2.0000     -11.256286      -306.2991
  16   2.0000     -11.245729      -306.0119
  17   2.0000     -11.241914      -305.9080
  18   2.0000     -11.238554      -305.8166
  19   2.0000     -11.230857      -305.6072
  20   2.0000      -8.895987      -242.0721
  21   2.0000      -6.577569      -178.9848
  22   2.0000      -6.575550      -178.9298
  23   2.0000      -6.574969      -178.9140
  24   2.0000      -1.449061       -39.4309
  25   2.0000      -1.419383       -38.6234
  26   2.0000      -1.360223       -37.0135
  27   2.0000      -1.341771       -36.5114
  28   2.0000      -1.240674       -33.7605
  29   2.0000      -1.160857       -31.5885
  30   2.0000      -1.125057       -30.6143
  31   2.0000      -1.048291       -28.5254
  32   2.0000      -1.038285       -28.2532
  33   2.0000      -1.018442       -27.7132
  34   2.0000      -1.005000       -27.3474
  35   2.0000      -0.989180       -26.9170
  36   2.0000      -0.927585       -25.2409
  37   2.0000      -0.879259       -23.9258
  38   2.0000      -0.856141       -23.2968
  39   2.0000      -0.842984       -22.9388
  40   2.0000      -0.836876       -22.7726
  41   2.0000      -0.835913       -22.7463
  42   2.0000      -0.756176       -20.5766
  43   2.0000      -0.739477       -20.1222
  44   2.0000      -0.731550       -19.9065
  45   2.0000      -0.697401       -18.9772
  46   2.0000      -0.688393       -18.7321
  47   2.0000      -0.681432       -18.5427
  48   2.0000      -0.677330       -18.4311
  49   2.0000      -0.662811       -18.0360
  50   2.0000      -0.655952       -17.8494
  51   2.0000      -0.650196       -17.6927
  52   2.0000      -0.641304       -17.4508
  53   2.0000      -0.611145       -16.6301
  54   2.0000      -0.607657       -16.5352
  55   2.0000      -0.603468       -16.4212
  56   2.0000      -0.595240       -16.1973
  57   2.0000      -0.585242       -15.9253
  58   2.0000      -0.577796       -15.7226
  59   2.0000      -0.568421       -15.4675
  60   2.0000      -0.563553       -15.3351
  61   2.0000      -0.559602       -15.2275
  62   2.0000      -0.547582       -14.9005
  63   2.0000      -0.525947       -14.3117
  64   2.0000      -0.516888       -14.0652
  65   2.0000      -0.515889       -14.0380
  66   2.0000      -0.502492       -13.6735
  67   2.0000      -0.499555       -13.5936
  68   2.0000      -0.490145       -13.3375
  69   2.0000      -0.470812       -12.8114
  70   2.0000      -0.457137       -12.4393
  71   2.0000      -0.451721       -12.2919
  72   2.0000      -0.358202        -9.7472
  73   2.0000      -0.351575        -9.5668
  74   2.0000      -0.330389        -8.9903
  75   2.0000      -0.324093        -8.8190
  76   2.0000      -0.319408        -8.6915
  77   0.0000       0.078071         2.1244
  78   0.0000       0.104330         2.8390
  79   0.0000       0.116202         3.1620
  80   0.0000       0.129346         3.5197
  81   0.0000       0.133685         3.6378

MULLIKEN ATOMIC CHARGES
-----------------------
   0 C :   -0.256591
   1 C :    0.018606
   2 O :   -0.326276
   3 C :    0.422748
   4 O :   -0.381794
   5 C :   -0.220088
   6 C :    0.158827
   7 C :   -0.329225
   8 N :   -0.135805
   9 C :    0.199594
  10 S :   -0.438487
  11 N :   -0.209867
  12 C :    0.071455
  13 C :    0.024477
  14 C :   -0.188193
  15 C :   -0.132917
  16 C :   -0.275788
  17 C :    0.324345
  18 O :   -0.358487
  19 C :   -0.290865
  20 H :    0.107538
  21 H :    0.099955
  22 H :    0.088615
  23 H :    0.085436
  24 H :    0.111017
  25 H :    0.137896
  26 H :    0.133435
  27 H :    0.120895
  28 H :    0.197252
  29 H :    0.197211
  30 H :    0.162833
  31 H :    0.168960
  32 H :    0.163812
  33 H :    0.132439
  34 H :    0.241496
  35 H :    0.175543
Sum of atomic charges:    0.0000000

LOEWDIN ATOMIC CHARGES
----------------------
   0 C :    0.111377
   1 C :   -0.022665
   2 O :    0.299685
   3 C :   -0.417392
   4 O :    0.125845
   5 C :   -0.087108
   6 C :   -0.088586
   7 C :    0.125183
   8 N :    0.403051
   9 C :   -0.457616
  10 S :   -0.035654
  11 N :    0.397131
  12 C :   -0.045049
  13 C :   -0.044816
  14 C :    0.021791
  15 C :    0.044749
  16 C :   -0.000373
  17 C :   -0.194782
  18 O :    0.394466
  19 C :    0.026138
  20 H :   -0.021431
  21 H :   -0.026619
  22 H :   -0.025821
  23 H :   -0.037770
  24 H :   -0.030304
  25 H :   -0.007635
  26 H :   -0.011491
  27 H :   -0.018554
  28 H :   -0.056909
  29 H :   -0.063526
  30 H :   -0.002695
  31 H :   -0.021899
  32 H :   -0.018652
  33 H :   -0.034684
  34 H :   -0.152999
  35 H :   -0.024385

  Mayer bond orders larger than 0.100000
B(  0-C ,  1-C ) :   0.9875 B(  0-C , 20-H ) :   0.9779 B(  0-C , 21-H ) :   0.9797
B(  0-C , 22-H ) :   0.9765 B(  1-C ,  2-O ) :   0.8979 B(  1-C , 23-H ) :   0.9732
B(  1-C , 24-H ) :   0.9633 B(  2-O ,  3-C ) :   1.1737 B(  3-C ,  4-O ) :   2.0872
B(  3-C ,  5-C ) :   0.9444 B(  5-C ,  6-C ) :   1.6643 B(  5-C , 12-C ) :   0.9565
B(  6-C ,  7-C ) :   0.9453 B(  6-C ,  8-N ) :   1.1295 B(  7-C , 25-H ) :   0.9748
B(  7-C , 26-H ) :   0.9731 B(  7-C , 27-H ) :   0.9658 B(  8-N ,  9-C ) :   1.1899
B(  8-N , 28-H ) :   0.9517 B(  9-C , 10-S ) :   1.6132 B(  9-C , 11-N ) :   1.2923
B( 11-N , 12-C ) :   0.9958 B( 11-N , 29-H ) :   0.9502 B( 12-C , 13-C ) :   0.9416
B( 12-C , 30-H ) :   0.9978 B( 13-C , 14-C ) :   1.3879 B( 13-C , 19-C ) :   1.3466
B( 14-C , 15-C ) :   1.3965 B( 14-C , 31-H ) :   0.9595 B( 15-C , 16-C ) :   1.3639
B( 15-C , 32-H ) :   0.9700 B( 16-C , 17-C ) :   1.3301 B( 16-C , 33-H ) :   0.9842
B( 17-C , 18-O ) :   1.1101 B( 17-C , 19-C ) :   1.3645 B( 18-O , 34-H ) :   0.9793
B( 19-C , 35-H ) :   0.9593

MP2 TOTAL ENERGY:    -1274.335751259 Eh
FINAL SINGLE POINT ENERGY     -1274.335751258533

DIPOLE MOMENT
-------------
                                X             Y             Z
Electronic contribution:     10.78557       8.65036       7.24510
Nuclear contribution   :    -12.27232      -9.63444      -7.58675
                        -----------------------------------------
Total Dipole Moment    :     -1.48676      -0.98408      -0.34165
                        -----------------------------------------
Magnitude (a.u.)       :      1.81537
Magnitude (Debye)      :      4.61431

Rotational constants in cm-1:     0.011612     0.009194     0.006682
Rotational constants in MHz :   348.104278   275.634853   200.320949

                             ****ORCA TERMINATED NORMALLY****
TOTAL RUN TIME: 0 days 1 hours 51 minutes 19 seconds 560 msec
