                         Program Version 4.2.0 -  RELEASE  -
|  1> ! ri-mp2 cc-pvtz cc-pvtz/c TightSCF  NoKeepInts
|  2>
|  3> %scf
|  4>   MaxCore 4096
|  5> end
|  6> *xyz  0  1
|  7>     C       15.7465486   14.1516770   14.7814392
|  8>     C       15.5084646   14.1842970   16.3039085
|  9>     O       16.4530273   15.0880039   16.9058898
| 10>     C       16.2278461   16.4379081   16.8829500
| 11>     O       15.2726352   16.9338228   16.3091776
| 12>     C       17.2667967   17.2124019   17.6461719
| 13>     C       17.2823988   18.5691444   17.6841535
| 14>     C       16.3118209   19.5166648   17.0120975
| 15>     N       18.2978328   19.2396011   18.3728348
| 16>     C       19.3836328   18.6367899   18.9496987
| 17>     S       20.5953086   19.5108885   19.6594325
| 18>     N       19.4174589   17.2663733   18.9063324
| 19>     C       18.3271495   16.4051510   18.4127845
| 20>     C       17.7172472   15.6276229   19.5756711
| 21>     C       17.8486142   14.2279073   19.6454631
| 22>     C       17.2883119   13.5095554   20.7151930
| 23>     C       16.5930615   14.1961663   21.7252269
| 24>     C       16.4635649   15.5903264   21.6608700
| 25>     O       15.7937498   16.2562179   22.6350515
| 26>     C       17.0221901   16.3024597   20.5950801
| 27>     H       15.5386494   15.1295450   14.3293030
| 28>     H       15.0878355   13.4141418   14.3072895
| 29>     H       16.7849799   13.8790368   14.5566583
| 30>     H       14.4760275   14.4851139   16.5295109
| 31>     H       15.6651921   13.1767405   16.7098122
| 32>     H       15.2921882   19.3489032   17.3821218
| 33>     H       16.2975613   19.3498753   15.9275317
| 34>     H       16.5554668   20.5720468   17.1811437
| 35>     H       18.2901153   20.2462424   18.4133749
| 36>     H       20.2115066   16.8489264   19.3743558
| 37>     H       18.7730660   15.6872061   17.7101993
| 38>     H       18.3811084   13.6941337   18.8629260
| 39>     H       17.3932668   12.4269644   20.7589951
| 40>     H       16.1586574   13.6459333   22.5533265
| 41>     H       15.5064799   15.6025336   23.2899559
| 42>     H       16.9172387   17.3816774   20.5680687
| 43> *
| 44>
| 45>                          ****END OF INPUT****

CARTESIAN COORDINATES (ANGSTROEM)
---------------------------------
  C     15.746549   14.151677   14.781439
  C     15.508465   14.184297   16.303908
  O     16.453027   15.088004   16.905890
  C     16.227846   16.437908   16.882950
  O     15.272635   16.933823   16.309178
  C     17.266797   17.212402   17.646172
  C     17.282399   18.569144   17.684154
  C     16.311821   19.516665   17.012097
  N     18.297833   19.239601   18.372835
  C     19.383633   18.636790   18.949699
  S     20.595309   19.510889   19.659433
  N     19.417459   17.266373   18.906332
  C     18.327150   16.405151   18.412785
  C     17.717247   15.627623   19.575671
  C     17.848614   14.227907   19.645463
  C     17.288312   13.509555   20.715193
  C     16.593062   14.196166   21.725227
  C     16.463565   15.590326   21.660870
  O     15.793750   16.256218   22.635051
  C     17.022190   16.302460   20.595080
  H     15.538649   15.129545   14.329303
  H     15.087836   13.414142   14.307289
  H     16.784980   13.879037   14.556658
  H     14.476028   14.485114   16.529511
  H     15.665192   13.176740   16.709812
  H     15.292188   19.348903   17.382122
  H     16.297561   19.349875   15.927532
  H     16.555467   20.572047   17.181144
  H     18.290115   20.246242   18.413375
  H     20.211507   16.848926   19.374356
  H     18.773066   15.687206   17.710199
  H     18.381108   13.694134   18.862926
  H     17.393267   12.426964   20.758995
  H     16.158657   13.645933   22.553327
  H     15.506480   15.602534   23.289956
  H     16.917239   17.381677   20.568069

 Total Charge           Charge          ....    0
 Multiplicity           Mult            ....    1
 Number of Electrons    NEL             ....  154
 Basis Dimension        Dim             ....  828

ORBITAL ENERGIES
----------------

  NO   OCC          E(Eh)            E(eV)
   0   2.0000     -91.888576     -2500.4153
   1   2.0000     -20.602484      -560.6221
   2   2.0000     -20.595016      -560.4189
   3   2.0000     -20.542152      -558.9804
   4   2.0000     -15.628849      -425.2826
   5   2.0000     -15.607803      -424.7099
   6   2.0000     -11.396022      -310.1015
   7   2.0000     -11.383641      -309.7646
   8   2.0000     -11.335872      -308.4648
   9   2.0000     -11.311993      -307.8150
  10   2.0000     -11.308284      -307.7141
  11   2.0000     -11.298181      -307.4391
  12   2.0000     -11.258955      -306.3717
  13   2.0000     -11.258048      -306.3471
  14   2.0000     -11.253442      -306.2217
  15   2.0000     -11.251965      -306.1815
  16   2.0000     -11.241399      -305.8940
  17   2.0000     -11.236945      -305.7728
  18   2.0000     -11.236685      -305.7658
  19   2.0000     -11.224935      -305.4460
  20   2.0000      -8.893637      -242.0082
  21   2.0000      -6.575212      -178.9206
  22   2.0000      -6.573207      -178.8661
  23   2.0000      -6.572621      -178.8501
  24   2.0000      -1.451621       -39.5006
  25   2.0000      -1.414666       -38.4950
  26   2.0000      -1.355265       -36.8786
  27   2.0000      -1.339762       -36.4568
  28   2.0000      -1.238085       -33.6900
  29   2.0000      -1.156195       -31.4617
  30   2.0000      -1.119952       -30.4754
  31   2.0000      -1.041988       -28.3539
  32   2.0000      -1.036790       -28.2125
  33   2.0000      -1.013398       -27.5760
  34   2.0000      -0.995046       -27.0766
  35   2.0000      -0.983656       -26.7666
  36   2.0000      -0.921832       -25.0843
  37   2.0000      -0.894526       -24.3413
  38   2.0000      -0.846677       -23.0392
  39   2.0000      -0.836554       -22.7638
  40   2.0000      -0.832485       -22.6531
  41   2.0000      -0.817309       -22.2401
  42   2.0000      -0.757470       -20.6118
  43   2.0000      -0.731053       -19.8930
  44   2.0000      -0.722691       -19.6654
  45   2.0000      -0.694331       -18.8937
  46   2.0000      -0.687578       -18.7099
  47   2.0000      -0.680586       -18.5197
  48   2.0000      -0.671291       -18.2667
  49   2.0000      -0.654561       -17.8115
  50   2.0000      -0.646413       -17.5898
  51   2.0000      -0.645038       -17.5524
  52   2.0000      -0.630555       -17.1583
  53   2.0000      -0.612544       -16.6682
  54   2.0000      -0.605168       -16.4675
  55   2.0000      -0.598609       -16.2890
  56   2.0000      -0.597599       -16.2615
  57   2.0000      -0.578422       -15.7397
  58   2.0000      -0.570562       -15.5258
  59   2.0000      -0.570212       -15.5162
  60   2.0000      -0.562806       -15.3147
  61   2.0000      -0.538982       -14.6664
  62   2.0000      -0.536370       -14.5954
  63   2.0000      -0.529750       -14.4152
  64   2.0000      -0.523652       -14.2493
  65   2.0000      -0.512871       -13.9559
  66   2.0000      -0.500227       -13.6119
  67   2.0000      -0.497369       -13.5341
  68   2.0000      -0.484974       -13.1968
  69   2.0000      -0.463428       -12.6105
  70   2.0000      -0.455780       -12.4024
  71   2.0000      -0.447624       -12.1805
  72   2.0000      -0.354126        -9.6363
  73   2.0000      -0.348004        -9.4697
  74   2.0000      -0.327841        -8.9210
  75   2.0000      -0.319721        -8.7001
  76   2.0000      -0.315495        -8.5851
  77   0.0000       0.076655         2.0859
  78   0.0000       0.108591         2.9549
  79   0.0000       0.124558         3.3894
  80   0.0000       0.133210         3.6248
  81   0.0000       0.136705         3.7199

MULLIKEN ATOMIC CHARGES
-----------------------
   0 C :   -0.289215
   1 C :    0.035543
   2 O :   -0.349883
   3 C :    0.472463
   4 O :   -0.439301
   5 C :   -0.215587
   6 C :    0.148078
   7 C :   -0.274956
   8 N :   -0.119816
   9 C :    0.210490
  10 S :   -0.440016
  11 N :   -0.202909
  12 C :    0.044692
  13 C :    0.068548
  14 C :   -0.175347
  15 C :   -0.133053
  16 C :   -0.277602
  17 C :    0.315052
  18 O :   -0.357001
  19 C :   -0.268510
  20 H :    0.115475
  21 H :    0.094172
  22 H :    0.091492
  23 H :    0.101426
  24 H :    0.107415
  25 H :    0.132402
  26 H :    0.130301
  27 H :    0.095239
  28 H :    0.197220
  29 H :    0.194255
  30 H :    0.150469
  31 H :    0.145858
  32 H :    0.158946
  33 H :    0.128946
  34 H :    0.240481
  35 H :    0.164234
Sum of atomic charges:    0.0000000

LOEWDIN ATOMIC CHARGES
----------------------
   0 C :    0.104753
   1 C :   -0.015782
   2 O :    0.308297
   3 C :   -0.411909
   4 O :    0.095261
   5 C :   -0.093595
   6 C :   -0.058865
   7 C :    0.131394
   8 N :    0.406521
   9 C :   -0.456742
  10 S :   -0.035582
  11 N :    0.396611
  12 C :   -0.052842
  13 C :   -0.038734
  14 C :    0.014383
  15 C :    0.039207
  16 C :   -0.001358
  17 C :   -0.189523
  18 O :    0.394920
  19 C :    0.031484
  20 H :   -0.025092
  21 H :   -0.027047
  22 H :   -0.030316
  23 H :   -0.027533
  24 H :   -0.025988
  25 H :   -0.004460
  26 H :   -0.004296
  27 H :   -0.023411
  28 H :   -0.057616
  29 H :   -0.064547
  30 H :   -0.011505
  31 H :   -0.030521
  32 H :   -0.021692
  33 H :   -0.035778
  34 H :   -0.154132
  35 H :   -0.023962

  Mayer bond orders larger than 0.100000
B(  0-C ,  1-C ) :   0.9658 B(  0-C , 20-H ) :   0.9750 B(  0-C , 21-H ) :   0.9766
B(  0-C , 22-H ) :   0.9771 B(  1-C ,  2-O ) :   0.8975 B(  1-C , 23-H ) :   0.9769
B(  1-C , 24-H ) :   0.9835 B(  2-O ,  3-C ) :   1.1662 B(  3-C ,  4-O ) :   1.9480
B(  3-C ,  5-C ) :   1.0694 B(  5-C ,  6-C ) :   1.6562 B(  5-C , 12-C ) :   0.9737
B(  6-C ,  7-C ) :   0.9674 B(  6-C ,  8-N ) :   1.1651 B(  7-C , 25-H ) :   0.9607
B(  7-C , 26-H ) :   0.9601 B(  7-C , 27-H ) :   0.9905 B(  8-N ,  9-C ) :   1.1822
B(  8-N , 28-H ) :   0.9479 B(  9-C , 10-S ) :   1.6077 B(  9-C , 11-N ) :   1.3049
B( 11-N , 12-C ) :   0.9880 B( 11-N , 29-H ) :   0.9516 B( 12-C , 13-C ) :   0.9378
B( 12-C , 30-H ) :   1.0030 B( 13-C , 14-C ) :   1.3564 B( 13-C , 19-C ) :   1.3817
B( 14-C , 15-C ) :   1.3938 B( 14-C , 31-H ) :   0.9722 B( 15-C , 16-C ) :   1.3645
B( 15-C , 32-H ) :   0.9710 B( 16-C , 17-C ) :   1.3317 B( 16-C , 33-H ) :   0.9854
B( 17-C , 18-O ) :   1.1096 B( 17-C , 19-C ) :   1.3742 B( 18-O , 34-H ) :   0.9801
B( 19-C , 35-H ) :   0.9583

MP2 TOTAL ENERGY:    -1274.350826296 Eh
FINAL SINGLE POINT ENERGY     -1274.350826296162

DIPOLE MOMENT
-------------
                                X             Y             Z
Electronic contribution:      9.46324       9.05320      10.38355
Nuclear contribution   :    -10.62619     -10.67301     -10.71626
                        -----------------------------------------
Total Dipole Moment    :     -1.16296      -1.61982      -0.33271
                        -----------------------------------------
Magnitude (a.u.)       :      2.02162
Magnitude (Debye)      :      5.13856

Rotational constants in cm-1:     0.010634     0.008928     0.006015
Rotational constants in MHz :   318.795863   267.662378   180.335344

                             ****ORCA TERMINATED NORMALLY****
TOTAL RUN TIME: 0 days 1 hours 38 minutes 11 seconds 76 msec
