                         Program Version 5.0.0 -  RELEASE  -
|  1> ! ri-mp2 cc-pvtz cc-pvtz/c TightSCF NoKeepInts
|  2>
|  3> %scf
|  4>   MaxCore 4096
|  5> end
|  6> *xyz  0  1
|  7>     C       14.4776716   15.1115968   16.8273583
|  8>     C       15.7105626   14.6968457   16.0060138
|  9>     O       16.5489094   15.8595082   15.8795202
| 10>     C       17.7744800   15.8596323   16.4789100
| 11>     O       18.4433986   14.8434734   16.5715535
| 12>     C       17.9417928   17.0032895   17.4331330
| 13>     C       17.3895230   18.2302090   17.2559800
| 14>     C       16.5589047   18.7074861   16.0829026
| 15>     N       17.6297415   19.2418113   18.1909118
| 16>     C       18.5002491   19.1435108   19.2445209
| 17>     S       18.8060387   20.4253696   20.2439793
| 18>     N       19.1057239   17.9257181   19.4280319
| 19>     C       18.7846381   16.6986799   18.6747202
| 20>     C       18.0701053   15.6917879   19.5718081
| 21>     C       18.5922085   14.3974459   19.7497721
| 22>     C       17.9269246   13.4621546   20.5600933
| 23>     C       16.7271712   13.8224939   21.1969239
| 24>     C       16.2015483   15.1092777   21.0184340
| 25>     O       15.0375993   15.4571570   21.6228396
| 26>     C       16.8667214   16.0384754   20.2127756
| 27>     H       14.7755294   15.4362959   17.8326772
| 28>     H       13.7850577   14.2677864   16.9327940
| 29>     H       13.9438940   15.9359737   16.3387876
| 30>     H       16.2257012   13.8635355   16.5037688
| 31>     H       15.3940188   14.3592494   15.0107873
| 32>     H       16.9828329   18.3568869   15.1336157
| 33>     H       16.5041026   19.8013184   16.0241506
| 34>     H       15.5335384   18.3238000   16.1543154
| 35>     H       17.1950289   20.1431415   18.0735781
| 36>     H       19.7187029   17.8717960   20.2313302
| 37>     H       19.7319477   16.2536111   18.3375219
| 38>     H       19.5089435   14.1098316   19.2408407
| 39>     H       18.3383033   12.4620917   20.6848357
| 40>     H       16.2085021   13.1019580   21.8204621
| 41>     H       14.7628062   14.7090735   22.1741075
| 42>     H       16.4441780   17.0297274   20.0902448
| 43> *
| 44>
| 45>                          ****END OF INPUT****

CARTESIAN COORDINATES (ANGSTROEM)
---------------------------------
  C     14.477672   15.111597   16.827358
  C     15.710563   14.696846   16.006014
  O     16.548909   15.859508   15.879520
  C     17.774480   15.859632   16.478910
  O     18.443399   14.843473   16.571554
  C     17.941793   17.003290   17.433133
  C     17.389523   18.230209   17.255980
  C     16.558905   18.707486   16.082903
  N     17.629742   19.241811   18.190912
  C     18.500249   19.143511   19.244521
  S     18.806039   20.425370   20.243979
  N     19.105724   17.925718   19.428032
  C     18.784638   16.698680   18.674720
  C     18.070105   15.691788   19.571808
  C     18.592208   14.397446   19.749772
  C     17.926925   13.462155   20.560093
  C     16.727171   13.822494   21.196924
  C     16.201548   15.109278   21.018434
  O     15.037599   15.457157   21.622840
  C     16.866721   16.038475   20.212776
  H     14.775529   15.436296   17.832677
  H     13.785058   14.267786   16.932794
  H     13.943894   15.935974   16.338788
  H     16.225701   13.863535   16.503769
  H     15.394019   14.359249   15.010787
  H     16.982833   18.356887   15.133616
  H     16.504103   19.801318   16.024151
  H     15.533538   18.323800   16.154315
  H     17.195029   20.143141   18.073578
  H     19.718703   17.871796   20.231330
  H     19.731948   16.253611   18.337522
  H     19.508943   14.109832   19.240841
  H     18.338303   12.462092   20.684836
  H     16.208502   13.101958   21.820462
  H     14.762806   14.709073   22.174108
  H     16.444178   17.029727   20.090245

 Total Charge           Charge          ....    0
 Multiplicity           Mult            ....    1
 Number of Electrons    NEL             ....  154
 Basis Dimension        Dim             ....  828

ORBITAL ENERGIES
----------------

  NO   OCC          E(Eh)            E(eV)
   0   2.0000     -91.888286     -2500.4074
   1   2.0000     -20.595517      -560.4325
   2   2.0000     -20.593247      -560.3707
   3   2.0000     -20.551005      -559.2213
   4   2.0000     -15.627837      -425.2551
   5   2.0000     -15.607796      -424.7097
   6   2.0000     -11.395327      -310.0826
   7   2.0000     -11.383697      -309.7661
   8   2.0000     -11.333164      -308.3911
   9   2.0000     -11.311399      -307.7988
  10   2.0000     -11.307908      -307.7038
  11   2.0000     -11.297945      -307.4327
  12   2.0000     -11.259661      -306.3909
  13   2.0000     -11.259308      -306.3813
  14   2.0000     -11.256894      -306.3157
  15   2.0000     -11.251580      -306.1711
  16   2.0000     -11.241124      -305.8865
  17   2.0000     -11.236990      -305.7740
  18   2.0000     -11.234364      -305.7026
  19   2.0000     -11.229143      -305.5605
  20   2.0000      -8.893361      -242.0006
  21   2.0000      -6.574940      -178.9132
  22   2.0000      -6.572930      -178.8585
  23   2.0000      -6.572347      -178.8427
  24   2.0000      -1.453066       -39.5399
  25   2.0000      -1.415255       -38.5110
  26   2.0000      -1.357167       -36.9304
  27   2.0000      -1.339095       -36.4386
  28   2.0000      -1.237392       -33.6712
  29   2.0000      -1.155642       -31.4466
  30   2.0000      -1.120896       -30.5011
  31   2.0000      -1.044381       -28.4191
  32   2.0000      -1.035411       -28.1750
  33   2.0000      -1.013031       -27.5660
  34   2.0000      -0.998929       -27.1822
  35   2.0000      -0.984496       -26.7895
  36   2.0000      -0.922868       -25.1125
  37   2.0000      -0.888563       -24.1790
  38   2.0000      -0.847338       -23.0573
  39   2.0000      -0.837309       -22.7843
  40   2.0000      -0.831602       -22.6290
  41   2.0000      -0.817884       -22.2558
  42   2.0000      -0.758597       -20.6425
  43   2.0000      -0.736441       -20.0396
  44   2.0000      -0.727475       -19.7956
  45   2.0000      -0.693793       -18.8791
  46   2.0000      -0.685369       -18.6498
  47   2.0000      -0.677634       -18.4393
  48   2.0000      -0.676964       -18.4211
  49   2.0000      -0.661309       -17.9951
  50   2.0000      -0.651311       -17.7231
  51   2.0000      -0.645071       -17.5533
  52   2.0000      -0.635836       -17.3020
  53   2.0000      -0.604603       -16.4521
  54   2.0000      -0.602355       -16.3909
  55   2.0000      -0.598958       -16.2985
  56   2.0000      -0.590111       -16.0577
  57   2.0000      -0.582103       -15.8398
  58   2.0000      -0.575945       -15.6723
  59   2.0000      -0.566883       -15.4257
  60   2.0000      -0.560937       -15.2639
  61   2.0000      -0.554749       -15.0955
  62   2.0000      -0.541297       -14.7294
  63   2.0000      -0.520679       -14.1684
  64   2.0000      -0.519665       -14.1408
  65   2.0000      -0.511442       -13.9171
  66   2.0000      -0.500084       -13.6080
  67   2.0000      -0.497429       -13.5357
  68   2.0000      -0.482827       -13.1384
  69   2.0000      -0.463678       -12.6173
  70   2.0000      -0.458099       -12.4655
  71   2.0000      -0.453528       -12.3411
  72   2.0000      -0.353586        -9.6216
  73   2.0000      -0.347296        -9.4504
  74   2.0000      -0.327611        -8.9147
  75   2.0000      -0.318597        -8.6695
  76   2.0000      -0.315212        -8.5773
  77   0.0000       0.074136         2.0173
  78   0.0000       0.106754         2.9049
  79   0.0000       0.119634         3.2554
  80   0.0000       0.132611         3.6085
  81   0.0000       0.141005         3.8370

MULLIKEN ATOMIC CHARGES
-----------------------
   0 C :   -0.284005
   1 C :    0.035408
   2 O :   -0.361984
   3 C :    0.448769
   4 O :   -0.411869
   5 C :   -0.185505
   6 C :    0.139240
   7 C :   -0.284076
   8 N :   -0.124825
   9 C :    0.205027
  10 S :   -0.440586
  11 N :   -0.200491
  12 C :    0.052194
  13 C :    0.057276
  14 C :   -0.161162
  15 C :   -0.132462
  16 C :   -0.279270
  17 C :    0.324477
  18 O :   -0.362453
  19 C :   -0.304493
  20 H :    0.109678
  21 H :    0.101081
  22 H :    0.089351
  23 H :    0.110775
  24 H :    0.101242
  25 H :    0.124461
  26 H :    0.104473
  27 H :    0.126199
  28 H :    0.196972
  29 H :    0.194263
  30 H :    0.154259
  31 H :    0.154528
  32 H :    0.160605
  33 H :    0.130171
  34 H :    0.240871
  35 H :    0.171859
Sum of atomic charges:    0.0000000

LOEWDIN ATOMIC CHARGES
----------------------
   0 C :    0.103565
   1 C :   -0.012901
   2 O :    0.300391
   3 C :   -0.415262
   4 O :    0.116588
   5 C :   -0.092939
   6 C :   -0.073324
   7 C :    0.125781
   8 N :    0.404146
   9 C :   -0.457333
  10 S :   -0.036873
  11 N :    0.397240
  12 C :   -0.045627
  13 C :   -0.040126
  14 C :    0.021997
  15 C :    0.041704
  16 C :   -0.002150
  17 C :   -0.193929
  18 O :    0.393309
  19 C :    0.028550
  20 H :   -0.025574
  21 H :   -0.024911
  22 H :   -0.031306
  23 H :   -0.025333
  24 H :   -0.028952
  25 H :   -0.008101
  26 H :   -0.019936
  27 H :   -0.010699
  28 H :   -0.058891
  29 H :   -0.064043
  30 H :   -0.004844
  31 H :   -0.024893
  32 H :   -0.020562
  33 H :   -0.035827
  34 H :   -0.154052
  35 H :   -0.024884

  Mayer bond orders larger than 0.100000
B(  0-C ,  1-C ) :   0.9685 B(  0-C , 20-H ) :   0.9723 B(  0-C , 21-H ) :   0.9784
B(  0-C , 22-H ) :   0.9794 B(  1-C ,  2-O ) :   0.8893 B(  1-C , 23-H ) :   0.9707
B(  1-C , 24-H ) :   0.9851 B(  2-O ,  3-C ) :   1.1231 B(  3-C ,  4-O ) :   2.0106
B(  3-C ,  5-C ) :   1.0279 B(  5-C ,  6-C ) :   1.6659 B(  5-C , 12-C ) :   0.9649
B(  6-C ,  7-C ) :   0.9541 B(  6-C ,  8-N ) :   1.1415 B(  7-C , 25-H ) :   0.9698
B(  7-C , 26-H ) :   0.9883 B(  7-C , 27-H ) :   0.9633 B(  8-N ,  9-C ) :   1.1842
B(  8-N , 28-H ) :   0.9496 B(  9-C , 10-S ) :   1.6095 B(  9-C , 11-N ) :   1.3010
B( 11-N , 12-C ) :   0.9932 B( 11-N , 29-H ) :   0.9517 B( 12-C , 13-C ) :   0.9453
B( 12-C , 30-H ) :   0.9984 B( 13-C , 14-C ) :   1.3762 B( 13-C , 19-C ) :   1.3595
B( 14-C , 15-C ) :   1.3934 B( 14-C , 31-H ) :   0.9646 B( 15-C , 16-C ) :   1.3638
B( 15-C , 32-H ) :   0.9710 B( 16-C , 17-C ) :   1.3322 B( 16-C , 33-H ) :   0.9849
B( 17-C , 18-O ) :   1.1036 B( 17-C , 19-C ) :   1.3702 B( 18-O , 34-H ) :   0.9803
B( 19-C , 35-H ) :   0.9577

MP2 TOTAL ENERGY:    -1274.334880212 Eh
FINAL SINGLE POINT ENERGY     -1274.334880212431

DIPOLE MOMENT
-------------
                                X             Y             Z
Electronic contribution:     11.19804       8.25091       7.04737
Nuclear contribution   :    -12.53564      -9.59342      -7.82829
                        -----------------------------------------
Total Dipole Moment    :     -1.33760      -1.34251      -0.78092
                        -----------------------------------------
Magnitude (a.u.)       :      2.04972
Magnitude (Debye)      :      5.20997

Rotational constants in cm-1:     0.011567     0.009224     0.006692
Rotational constants in MHz :   346.769533   276.533306   200.617202

                             ****ORCA TERMINATED NORMALLY****
TOTAL RUN TIME: 0 days 1 hours 55 minutes 2 seconds 375 msec
