                         Program Version 5.0.0 -  RELEASE  -
|  1> ! ri-mp2 cc-pvtz cc-pvtz/c TightSCF NoKeepInts
|  2>
|  3> %scf
|  4>   MaxCore 4096
|  5> end
|  6> *xyz  0  1
|  7>     C       14.9453245   14.7569528   16.1396618
|  8>     C       16.2060650   14.3232841   16.9162012
|  9>     O       17.3945774   14.9307751   16.3560159
| 10>     C       17.4510811   16.2770469   16.1290660
| 11>     O       17.0736846   16.7320506   15.0643535
| 12>     C       17.7195256   17.1131483   17.3515183
| 13>     C       17.3605066   18.4206811   17.4221312
| 14>     C       16.5281838   19.1998155   16.4267008
| 15>     N       17.8153217   19.2134166   18.4806984
| 16>     C       18.8128679   18.8472104   19.3458797
| 17>     S       19.4549639   19.9048642   20.4432237
| 18>     N       19.2623972   17.5545424   19.2429104
| 19>     C       18.5896291   16.4990694   18.4633254
| 20>     C       17.8244174   15.5976027   19.4242575
| 21>     C       18.2402467   14.2686518   19.6321857
| 22>     C       17.5385049   13.4300078   20.5143651
| 23>     C       16.4160702   13.9251471   21.1998057
| 24>     C       16.0058077   15.2508650   21.0042399
| 25>     O       14.9223468   15.7320098   21.6635473
| 26>     C       16.7040089   16.0826528   20.1234904
| 27>     H       14.7267227   15.8205988   16.2957021
| 28>     H       14.0736438   14.1825539   16.4756265
| 29>     H       15.0746327   14.5832493   15.0636080
| 30>     H       16.0679882   14.5965030   17.9651952
| 31>     H       16.3063818   13.2314113   16.8682630
| 32>     H       15.6234834   18.6417001   16.1546308
| 33>     H       17.0958431   19.3708716   15.5028057
| 34>     H       16.2076048   20.1756922   16.8097140
| 35>     H       17.5106828   20.1713066   18.5518137
| 36>     H       19.9847183   17.3058663   19.9066154
| 37>     H       19.3695025   15.8969379   17.9757141
| 38>     H       19.1071317   13.8815117   19.1026413
| 39>     H       17.8666681   12.4029722   20.6669850
| 40>     H       15.8720871   13.2812971   21.8834423
| 41>     H       14.6206816   15.0423305   22.2741469
| 42>     H       16.3736966   17.1074033   19.9935180
| 43> *
| 44>
| 45>                          ****END OF INPUT****

CARTESIAN COORDINATES (ANGSTROEM)
---------------------------------
  C     14.945324   14.756953   16.139662
  C     16.206065   14.323284   16.916201
  O     17.394577   14.930775   16.356016
  C     17.451081   16.277047   16.129066
  O     17.073685   16.732051   15.064353
  C     17.719526   17.113148   17.351518
  C     17.360507   18.420681   17.422131
  C     16.528184   19.199815   16.426701
  N     17.815322   19.213417   18.480698
  C     18.812868   18.847210   19.345880
  S     19.454964   19.904864   20.443224
  N     19.262397   17.554542   19.242910
  C     18.589629   16.499069   18.463325
  C     17.824417   15.597603   19.424257
  C     18.240247   14.268652   19.632186
  C     17.538505   13.430008   20.514365
  C     16.416070   13.925147   21.199806
  C     16.005808   15.250865   21.004240
  O     14.922347   15.732010   21.663547
  C     16.704009   16.082653   20.123490
  H     14.726723   15.820599   16.295702
  H     14.073644   14.182554   16.475627
  H     15.074633   14.583249   15.063608
  H     16.067988   14.596503   17.965195
  H     16.306382   13.231411   16.868263
  H     15.623483   18.641700   16.154631
  H     17.095843   19.370872   15.502806
  H     16.207605   20.175692   16.809714
  H     17.510683   20.171307   18.551814
  H     19.984718   17.305866   19.906615
  H     19.369502   15.896938   17.975714
  H     19.107132   13.881512   19.102641
  H     17.866668   12.402972   20.666985
  H     15.872087   13.281297   21.883442
  H     14.620682   15.042330   22.274147
  H     16.373697   17.107403   19.993518

 Total Charge           Charge          ....    0
 Multiplicity           Mult            ....    1
 Number of Electrons    NEL             ....  154
 Basis Dimension        Dim             ....  828

ORBITAL ENERGIES
----------------

  NO   OCC          E(Eh)            E(eV)
   0   2.0000     -91.891588     -2500.4972
   1   2.0000     -20.602548      -560.6238
   2   2.0000     -20.580932      -560.0356
   3   2.0000     -20.549262      -559.1738
   4   2.0000     -15.631663      -425.3592
   5   2.0000     -15.610472      -424.7825
   6   2.0000     -11.393159      -310.0236
   7   2.0000     -11.386129      -309.8323
   8   2.0000     -11.337408      -308.5066
   9   2.0000     -11.320648      -308.0505
  10   2.0000     -11.313856      -307.8657
  11   2.0000     -11.296766      -307.4006
  12   2.0000     -11.264931      -306.5343
  13   2.0000     -11.261701      -306.4465
  14   2.0000     -11.259627      -306.3900
  15   2.0000     -11.254699      -306.2559
  16   2.0000     -11.249653      -306.1186
  17   2.0000     -11.244057      -305.9663
  18   2.0000     -11.243712      -305.9570
  19   2.0000     -11.223317      -305.4020
  20   2.0000      -8.896599      -242.0888
  21   2.0000      -6.578161      -179.0008
  22   2.0000      -6.576170      -178.9467
  23   2.0000      -6.575571      -178.9304
  24   2.0000      -1.443662       -39.2840
  25   2.0000      -1.422247       -38.7013
  26   2.0000      -1.351843       -36.7855
  27   2.0000      -1.342971       -36.5441
  28   2.0000      -1.241428       -33.7810
  29   2.0000      -1.163124       -31.6502
  30   2.0000      -1.122058       -30.5327
  31   2.0000      -1.047339       -28.4995
  32   2.0000      -1.030376       -28.0380
  33   2.0000      -1.021481       -27.7959
  34   2.0000      -0.999869       -27.2078
  35   2.0000      -0.987034       -26.8586
  36   2.0000      -0.926567       -25.2132
  37   2.0000      -0.889158       -24.1952
  38   2.0000      -0.850261       -23.1368
  39   2.0000      -0.844999       -22.9936
  40   2.0000      -0.839814       -22.8525
  41   2.0000      -0.827381       -22.5142
  42   2.0000      -0.750002       -20.4086
  43   2.0000      -0.736005       -20.0277
  44   2.0000      -0.716053       -19.4848
  45   2.0000      -0.701453       -19.0875
  46   2.0000      -0.691830       -18.8257
  47   2.0000      -0.678993       -18.4763
  48   2.0000      -0.668793       -18.1988
  49   2.0000      -0.665960       -18.1217
  50   2.0000      -0.652746       -17.7621
  51   2.0000      -0.649309       -17.6686
  52   2.0000      -0.638337       -17.3700
  53   2.0000      -0.614974       -16.7343
  54   2.0000      -0.612725       -16.6731
  55   2.0000      -0.604085       -16.4380
  56   2.0000      -0.602143       -16.3852
  57   2.0000      -0.582434       -15.8488
  58   2.0000      -0.574256       -15.6263
  59   2.0000      -0.567400       -15.4397
  60   2.0000      -0.552667       -15.0388
  61   2.0000      -0.543661       -14.7938
  62   2.0000      -0.537516       -14.6266
  63   2.0000      -0.530556       -14.4372
  64   2.0000      -0.525234       -14.2923
  65   2.0000      -0.517900       -14.0928
  66   2.0000      -0.506139       -13.7728
  67   2.0000      -0.496558       -13.5120
  68   2.0000      -0.478098       -13.0097
  69   2.0000      -0.466539       -12.6952
  70   2.0000      -0.453774       -12.3478
  71   2.0000      -0.443609       -12.0712
  72   2.0000      -0.359249        -9.7757
  73   2.0000      -0.354689        -9.6516
  74   2.0000      -0.331654        -9.0248
  75   2.0000      -0.327880        -8.9221
  76   2.0000      -0.318405        -8.6642
  77   0.0000       0.068897         1.8748
  78   0.0000       0.100957         2.7472
  79   0.0000       0.121314         3.3011
  80   0.0000       0.127367         3.4658
  81   0.0000       0.131984         3.5915

MULLIKEN ATOMIC CHARGES
-----------------------
   0 C :   -0.282385
   1 C :    0.032526
   2 O :   -0.379873
   3 C :    0.457928
   4 O :   -0.388247
   5 C :   -0.242409
   6 C :    0.150633
   7 C :   -0.271723
   8 N :   -0.126064
   9 C :    0.207657
  10 S :   -0.433679
  11 N :   -0.192575
  12 C :    0.039038
  13 C :    0.036011
  14 C :   -0.174677
  15 C :   -0.131260
  16 C :   -0.273824
  17 C :    0.303501
  18 O :   -0.356107
  19 C :   -0.251052
  20 H :    0.087147
  21 H :    0.101362
  22 H :    0.115518
  23 H :    0.103160
  24 H :    0.111790
  25 H :    0.124387
  26 H :    0.139193
  27 H :    0.094725
  28 H :    0.198674
  29 H :    0.191251
  30 H :    0.149724
  31 H :    0.152778
  32 H :    0.163558
  33 H :    0.133932
  34 H :    0.241875
  35 H :    0.167508
Sum of atomic charges:   -0.0000000

LOEWDIN ATOMIC CHARGES
----------------------
   0 C :    0.105494
   1 C :   -0.015077
   2 O :    0.278641
   3 C :   -0.421839
   4 O :    0.127591
   5 C :   -0.098812
   6 C :   -0.060944
   7 C :    0.130407
   8 N :    0.406610
   9 C :   -0.457130
  10 S :   -0.030969
  11 N :    0.396533
  12 C :   -0.052540
  13 C :   -0.041181
  14 C :    0.015036
  15 C :    0.042729
  16 C :   -0.000595
  17 C :   -0.191180
  18 O :    0.396830
  19 C :    0.029792
  20 H :   -0.031605
  21 H :   -0.026615
  22 H :   -0.021742
  23 H :   -0.036930
  24 H :   -0.022087
  25 H :   -0.007648
  26 H :   -0.002521
  27 H :   -0.022783
  28 H :   -0.057395
  29 H :   -0.065251
  30 H :   -0.005742
  31 H :   -0.028643
  32 H :   -0.019413
  33 H :   -0.034077
  34 H :   -0.152449
  35 H :   -0.024498

  Mayer bond orders larger than 0.100000
B(  0-C ,  1-C ) :   0.9798 B(  0-C , 20-H ) :   0.9738 B(  0-C , 21-H ) :   0.9756
B(  0-C , 22-H ) :   0.9752 B(  1-C ,  2-O ) :   0.8885 B(  1-C , 23-H ) :   0.9633
B(  1-C , 24-H ) :   0.9804 B(  2-O ,  3-C ) :   1.1069 B(  3-C ,  4-O ) :   2.0519
B(  3-C ,  5-C ) :   1.0244 B(  5-C ,  6-C ) :   1.6623 B(  5-C , 12-C ) :   0.9675
B(  6-C ,  7-C ) :   0.9705 B(  6-C ,  8-N ) :   1.1494 B(  7-C , 25-H ) :   0.9677
B(  7-C , 26-H ) :   0.9553 B(  7-C , 27-H ) :   0.9868 B(  8-N ,  9-C ) :   1.1777
B(  8-N , 28-H ) :   0.9487 B(  9-C , 10-S ) :   1.6183 B(  9-C , 11-N ) :   1.2982
B( 11-N , 12-C ) :   0.9794 B( 11-N , 29-H ) :   0.9545 B( 12-C , 13-C ) :   0.9466
B( 12-C , 30-H ) :   1.0035 B( 13-C , 14-C ) :   1.3607 B( 13-C , 19-C ) :   1.3709
B( 14-C , 15-C ) :   1.3857 B( 14-C , 31-H ) :   0.9711 B( 15-C , 16-C ) :   1.3681
B( 15-C , 32-H ) :   0.9700 B( 16-C , 17-C ) :   1.3266 B( 16-C , 33-H ) :   0.9835
B( 17-C , 18-O ) :   1.1154 B( 17-C , 19-C ) :   1.3784 B( 18-O , 34-H ) :   0.9788
B( 19-C , 35-H ) :   0.9573

MP2 TOTAL ENERGY:    -1274.328228920 Eh
FINAL SINGLE POINT ENERGY     -1274.328228920214

DIPOLE MOMENT
-------------
                                X             Y             Z
Electronic contribution:     10.70977       8.16000       6.84514
Nuclear contribution   :    -11.88921      -9.73996      -6.49762
                        -----------------------------------------
Total Dipole Moment    :     -1.17944      -1.57996       0.34752
                        -----------------------------------------
Magnitude (a.u.)       :      2.00203
Magnitude (Debye)      :      5.08876

Rotational constants in cm-1:     0.011454     0.009693     0.006519
Rotational constants in MHz :   343.370121   290.589674   195.440538

                             ****ORCA TERMINATED NORMALLY****
TOTAL RUN TIME: 0 days 2 hours 27 minutes 6 seconds 583 msec
