                         Program Version 4.2.0 -  RELEASE  -
|  1> ! ri-mp2 cc-pvtz cc-pvtz/c TightSCF  NoKeepInts
|  2>
|  3> %scf
|  4>   MaxCore 4096
|  5> end
|  6> *xyz  0  1
|  7>     C       15.0065729   14.3459327   16.8242788
|  8>     C       15.6497712   14.8729292   15.5242685
|  9>     O       16.4302716   16.0442295   15.8281360
| 10>     C       17.5870800   15.9155569   16.5425677
| 11>     O       18.1909989   14.8574414   16.6167566
| 12>     C       17.8512231   17.0569694   17.4795584
| 13>     C       17.3777820   18.3192414   17.3159098
| 14>     C       16.5415502   18.8568547   16.1730335
| 15>     N       17.7169566   19.3130312   18.2397432
| 16>     C       18.6124982   19.1584560   19.2649484
| 17>     S       19.0379758   20.4190552   20.2475739
| 18>     N       19.1381531   17.9026506   19.4346517
| 19>     C       18.7083756   16.6993979   18.6977951
| 20>     C       17.9569226   15.7446652   19.6218077
| 21>     C       18.3829374   14.4118280   19.7698985
| 22>     C       17.6832231   13.5246694   20.6048669
| 23>     C       16.5460727   13.9728636   21.2981356
| 24>     C       16.1162301   15.2985599   21.1505067
| 25>     O       15.0136760   15.7321543   21.8120238
| 26>     C       16.8148545   16.1792533   20.3189442
| 27>     H       15.7694632   13.9914686   17.5296450
| 28>     H       14.3356529   13.5065171   16.6058358
| 29>     H       14.4218937   15.1333190   17.3158771
| 30>     H       16.2747717   14.0951449   15.0642122
| 31>     H       14.8576390   15.1389969   14.8128311
| 32>     H       15.5096710   18.4906884   16.2438211
| 33>     H       16.9480698   18.5347467   15.2062337
| 34>     H       16.5049462   19.9528531   16.1558136
| 35>     H       17.3413105   20.2417488   18.1330870
| 36>     H       19.7711903   17.8081624   20.2183890
| 37>     H       19.6123600   16.1897705   18.3340840
| 38>     H       19.2500503   14.0572649   19.2180151
| 39>     H       18.0195495   12.4943250   20.7054797
| 40>     H       16.0012386   13.2902850   21.9416950
| 41>     H       14.7001628   14.9996446   22.3633583
| 42>     H       16.4659048   17.2013243   20.2202174
| 43> *
| 44>
| 45>                          ****END OF INPUT****

CARTESIAN COORDINATES (ANGSTROEM)
---------------------------------
  C     15.006573   14.345933   16.824279
  C     15.649771   14.872929   15.524268
  O     16.430272   16.044230   15.828136
  C     17.587080   15.915557   16.542568
  O     18.190999   14.857441   16.616757
  C     17.851223   17.056969   17.479558
  C     17.377782   18.319241   17.315910
  C     16.541550   18.856855   16.173033
  N     17.716957   19.313031   18.239743
  C     18.612498   19.158456   19.264948
  S     19.037976   20.419055   20.247574
  N     19.138153   17.902651   19.434652
  C     18.708376   16.699398   18.697795
  C     17.956923   15.744665   19.621808
  C     18.382937   14.411828   19.769898
  C     17.683223   13.524669   20.604867
  C     16.546073   13.972864   21.298136
  C     16.116230   15.298560   21.150507
  O     15.013676   15.732154   21.812024
  C     16.814854   16.179253   20.318944
  H     15.769463   13.991469   17.529645
  H     14.335653   13.506517   16.605836
  H     14.421894   15.133319   17.315877
  H     16.274772   14.095145   15.064212
  H     14.857639   15.138997   14.812831
  H     15.509671   18.490688   16.243821
  H     16.948070   18.534747   15.206234
  H     16.504946   19.952853   16.155814
  H     17.341310   20.241749   18.133087
  H     19.771190   17.808162   20.218389
  H     19.612360   16.189771   18.334084
  H     19.250050   14.057265   19.218015
  H     18.019550   12.494325   20.705480
  H     16.001239   13.290285   21.941695
  H     14.700163   14.999645   22.363358
  H     16.465905   17.201324   20.220217

 Total Charge           Charge          ....    0
 Multiplicity           Mult            ....    1
 Number of Electrons    NEL             ....  154
 Basis Dimension        Dim             ....  828

ORBITAL ENERGIES
----------------

  NO   OCC          E(Eh)            E(eV)
   0   2.0000     -91.888173     -2500.4043
   1   2.0000     -20.598976      -560.5266
   2   2.0000     -20.593508      -560.3779
   3   2.0000     -20.547553      -559.1274
   4   2.0000     -15.628083      -425.2618
   5   2.0000     -15.607325      -424.6969
   6   2.0000     -11.395855      -310.0970
   7   2.0000     -11.383382      -309.7576
   8   2.0000     -11.334933      -308.4392
   9   2.0000     -11.309526      -307.7478
  10   2.0000     -11.306720      -307.6715
  11   2.0000     -11.299211      -307.4672
  12   2.0000     -11.259957      -306.3990
  13   2.0000     -11.258777      -306.3669
  14   2.0000     -11.255136      -306.2678
  15   2.0000     -11.249776      -306.1220
  16   2.0000     -11.239423      -305.8402
  17   2.0000     -11.235285      -305.7276
  18   2.0000     -11.232535      -305.6528
  19   2.0000     -11.224806      -305.4425
  20   2.0000      -8.893240      -241.9974
  21   2.0000      -6.574819      -178.9099
  22   2.0000      -6.572810      -178.8553
  23   2.0000      -6.572226      -178.8394
  24   2.0000      -1.453024       -39.5388
  25   2.0000      -1.413263       -38.4568
  26   2.0000      -1.356716       -36.9181
  27   2.0000      -1.339164       -36.4405
  28   2.0000      -1.237181       -33.6654
  29   2.0000      -1.154105       -31.4048
  30   2.0000      -1.120343       -30.4861
  31   2.0000      -1.042753       -28.3747
  32   2.0000      -1.032582       -28.0980
  33   2.0000      -1.011303       -27.5189
  34   2.0000      -0.998066       -27.1588
  35   2.0000      -0.983597       -26.7650
  36   2.0000      -0.922242       -25.0955
  37   2.0000      -0.893662       -24.3178
  38   2.0000      -0.847582       -23.0639
  39   2.0000      -0.836131       -22.7523
  40   2.0000      -0.829829       -22.5808
  41   2.0000      -0.814940       -22.1756
  42   2.0000      -0.752024       -20.4636
  43   2.0000      -0.736045       -20.0288
  44   2.0000      -0.726174       -19.7602
  45   2.0000      -0.692050       -18.8316
  46   2.0000      -0.685653       -18.6576
  47   2.0000      -0.678666       -18.4675
  48   2.0000      -0.672066       -18.2878
  49   2.0000      -0.657105       -17.8807
  50   2.0000      -0.652145       -17.7458
  51   2.0000      -0.644937       -17.5496
  52   2.0000      -0.632756       -17.2182
  53   2.0000      -0.611161       -16.6305
  54   2.0000      -0.601196       -16.3594
  55   2.0000      -0.601167       -16.3586
  56   2.0000      -0.596956       -16.2440
  57   2.0000      -0.579457       -15.7678
  58   2.0000      -0.575061       -15.6482
  59   2.0000      -0.563349       -15.3295
  60   2.0000      -0.555969       -15.1287
  61   2.0000      -0.548365       -14.9218
  62   2.0000      -0.533707       -14.5229
  63   2.0000      -0.531386       -14.4597
  64   2.0000      -0.518577       -14.1112
  65   2.0000      -0.509728       -13.8704
  66   2.0000      -0.497869       -13.5477
  67   2.0000      -0.493885       -13.4393
  68   2.0000      -0.482254       -13.1228
  69   2.0000      -0.464005       -12.6262
  70   2.0000      -0.459855       -12.5133
  71   2.0000      -0.450736       -12.2652
  72   2.0000      -0.353919        -9.6306
  73   2.0000      -0.345815        -9.4101
  74   2.0000      -0.327401        -8.9090
  75   2.0000      -0.316797        -8.6205
  76   2.0000      -0.315021        -8.5721
  77   0.0000       0.075584         2.0568
  78   0.0000       0.109973         2.9925
  79   0.0000       0.120217         3.2713
  80   0.0000       0.134194         3.6516
  81   0.0000       0.143243         3.8978

MULLIKEN ATOMIC CHARGES
-----------------------
   0 C :   -0.302270
   1 C :    0.032859
   2 O :   -0.359007
   3 C :    0.431700
   4 O :   -0.422620
   5 C :   -0.163050
   6 C :    0.141808
   7 C :   -0.283329
   8 N :   -0.123619
   9 C :    0.204601
  10 S :   -0.440018
  11 N :   -0.200721
  12 C :    0.050133
  13 C :    0.046742
  14 C :   -0.163000
  15 C :   -0.134229
  16 C :   -0.280451
  17 C :    0.313515
  18 O :   -0.359082
  19 C :   -0.273012
  20 H :    0.125485
  21 H :    0.097587
  22 H :    0.094970
  23 H :    0.109268
  24 H :    0.106825
  25 H :    0.126701
  26 H :    0.125689
  27 H :    0.101684
  28 H :    0.196956
  29 H :    0.194275
  30 H :    0.153459
  31 H :    0.154364
  32 H :    0.160208
  33 H :    0.129348
  34 H :    0.240357
  35 H :    0.165871
Sum of atomic charges:   -0.0000000

LOEWDIN ATOMIC CHARGES
----------------------
   0 C :    0.106173
   1 C :   -0.017888
   2 O :    0.301211
   3 C :   -0.414271
   4 O :    0.107868
   5 C :   -0.091253
   6 C :   -0.068942
   7 C :    0.125605
   8 N :    0.404493
   9 C :   -0.457782
  10 S :   -0.036439
  11 N :    0.397630
  12 C :   -0.045832
  13 C :   -0.040113
  14 C :    0.021487
  15 C :    0.040374
  16 C :   -0.002295
  17 C :   -0.192738
  18 O :    0.393441
  19 C :    0.029429
  20 H :   -0.022443
  21 H :   -0.026651
  22 H :   -0.029055
  23 H :   -0.028085
  24 H :   -0.025957
  25 H :   -0.009958
  26 H :   -0.008169
  27 H :   -0.020638
  28 H :   -0.058978
  29 H :   -0.063808
  30 H :   -0.005125
  31 H :   -0.025126
  32 H :   -0.020907
  33 H :   -0.036038
  34 H :   -0.154597
  35 H :   -0.024624

  Mayer bond orders larger than 0.100000
B(  0-C ,  1-C ) :   0.9615 B(  0-C , 20-H ) :   0.9701 B(  0-C , 21-H ) :   0.9764
B(  0-C , 22-H ) :   0.9766 B(  1-C ,  2-O ) :   0.8941 B(  1-C , 23-H ) :   0.9792
B(  1-C , 24-H ) :   0.9842 B(  2-O ,  3-C ) :   1.1337 B(  3-C ,  4-O ) :   1.9947
B(  3-C ,  5-C ) :   1.0403 B(  5-C ,  6-C ) :   1.6531 B(  5-C , 12-C ) :   0.9663
B(  6-C ,  7-C ) :   0.9543 B(  6-C ,  8-N ) :   1.1449 B(  7-C , 25-H ) :   0.9630
B(  7-C , 26-H ) :   0.9676 B(  7-C , 27-H ) :   0.9900 B(  8-N ,  9-C ) :   1.1817
B(  8-N , 28-H ) :   0.9492 B(  9-C , 10-S ) :   1.6098 B(  9-C , 11-N ) :   1.3027
B( 11-N , 12-C ) :   0.9929 B( 11-N , 29-H ) :   0.9516 B( 12-C , 13-C ) :   0.9428
B( 12-C , 30-H ) :   0.9994 B( 13-C , 14-C ) :   1.3764 B( 13-C , 19-C ) :   1.3710
B( 14-C , 15-C ) :   1.3937 B( 14-C , 31-H ) :   0.9648 B( 15-C , 16-C ) :   1.3623
B( 15-C , 32-H ) :   0.9712 B( 16-C , 17-C ) :   1.3315 B( 16-C , 33-H ) :   0.9855
B( 17-C , 18-O ) :   1.1084 B( 17-C , 19-C ) :   1.3763 B( 18-O , 34-H ) :   0.9804
B( 19-C , 35-H ) :   0.9580

MP2 TOTAL ENERGY:    -1274.345163078 Eh
FINAL SINGLE POINT ENERGY     -1274.345163078293

DIPOLE MOMENT
-------------
                                X             Y             Z
Electronic contribution:     10.19409       9.75034       7.67614
Nuclear contribution   :    -11.61880     -11.03500      -8.64727
                        -----------------------------------------
Total Dipole Moment    :     -1.42471      -1.28466      -0.97114
                        -----------------------------------------
Magnitude (a.u.)       :      2.15017
Magnitude (Debye)      :      5.46531

Rotational constants in cm-1:     0.011553     0.009216     0.006394
Rotational constants in MHz :   346.356776   276.299069   191.687605

                             ****ORCA TERMINATED NORMALLY****
TOTAL RUN TIME: 0 days 1 hours 44 minutes 10 seconds 150 msec
