                         Program Version 5.0.0 -  RELEASE  -
|  1> ! ri-mp2 cc-pvtz cc-pvtz/c TightSCF NoKeepInts
|  2>
|  3> %scf
|  4>   MaxCore 4096
|  5> end
|  6> *xyz  0  1
|  7>     C       14.1791455   15.0569670   16.1044458
|  8>     C       15.6424987   14.7098100   16.4244942
|  9>     O       16.4502189   15.8263857   16.0207731
| 10>     C       17.7235227   15.8778403   16.5029459
| 11>     O       18.4035792   14.8678147   16.5774973
| 12>     C       17.9106878   17.0155382   17.4599219
| 13>     C       17.3270778   18.2310320   17.3100518
| 14>     C       16.4376187   18.6897818   16.1733385
| 15>     N       17.5885662   19.2463543   18.2350150
| 16>     C       18.5111953   19.1652970   19.2450219
| 17>     S       18.8387143   20.4524677   20.2305761
| 18>     N       19.1499821   17.9599897   19.3970714
| 19>     C       18.8157818   16.7259751   18.6606161
| 20>     C       18.1630482   15.7070231   19.5908923
| 21>     C       18.7031021   14.4147594   19.7252382
| 22>     C       18.0961328   13.4687883   20.5682122
| 23>     C       16.9375033   13.8165373   21.2832890
| 24>     C       16.3938915   15.1012054   21.1490428
| 25>     O       15.2699101   15.4373779   21.8307263
| 26>     C       16.9999392   16.0403596   20.3088484
| 27>     H       13.8655173   15.9542128   16.6521269
| 28>     H       13.5172755   14.2308717   16.3916339
| 29>     H       14.0518268   15.2418980   15.0305469
| 30>     H       15.7473452   14.5325689   17.5042799
| 31>     H       15.9509942   13.8011086   15.8901319
| 32>     H       16.8168564   18.3312804   15.2081918
| 33>     H       16.3732799   19.7826124   16.1058062
| 34>     H       15.4195155   18.3004139   16.2979903
| 35>     H       17.1302519   20.1386202   18.1398701
| 36>     H       19.8029042   17.9187542   20.1690898
| 37>     H       19.7540744   16.2976042   18.2793878
| 38>     H       19.5880039   14.1372569   19.1575573
| 39>     H       18.5210515   12.4706656   20.6588610
| 40>     H       16.4645321   13.0882031   21.9336072
| 41>     H       15.0372248   14.6849057   22.3952723
| 42>     H       16.5642303   17.0297186   20.2216286
| 43> *
| 44>
| 45>                          ****END OF INPUT****

CARTESIAN COORDINATES (ANGSTROEM)
---------------------------------
  C     14.179145   15.056967   16.104446
  C     15.642499   14.709810   16.424494
  O     16.450219   15.826386   16.020773
  C     17.723523   15.877840   16.502946
  O     18.403579   14.867815   16.577497
  C     17.910688   17.015538   17.459922
  C     17.327078   18.231032   17.310052
  C     16.437619   18.689782   16.173338
  N     17.588566   19.246354   18.235015
  C     18.511195   19.165297   19.245022
  S     18.838714   20.452468   20.230576
  N     19.149982   17.959990   19.397071
  C     18.815782   16.725975   18.660616
  C     18.163048   15.707023   19.590892
  C     18.703102   14.414759   19.725238
  C     18.096133   13.468788   20.568212
  C     16.937503   13.816537   21.283289
  C     16.393891   15.101205   21.149043
  O     15.269910   15.437378   21.830726
  C     16.999939   16.040360   20.308848
  H     13.865517   15.954213   16.652127
  H     13.517275   14.230872   16.391634
  H     14.051827   15.241898   15.030547
  H     15.747345   14.532569   17.504280
  H     15.950994   13.801109   15.890132
  H     16.816856   18.331280   15.208192
  H     16.373280   19.782612   16.105806
  H     15.419515   18.300414   16.297990
  H     17.130252   20.138620   18.139870
  H     19.802904   17.918754   20.169090
  H     19.754074   16.297604   18.279388
  H     19.588004   14.137257   19.157557
  H     18.521051   12.470666   20.658861
  H     16.464532   13.088203   21.933607
  H     15.037225   14.684906   22.395272
  H     16.564230   17.029719   20.221629

 Total Charge           Charge          ....    0
 Multiplicity           Mult            ....    1
 Number of Electrons    NEL             ....  154
 Basis Dimension        Dim             ....  828

ORBITAL ENERGIES
----------------

  NO   OCC          E(Eh)            E(eV)
   0   2.0000     -91.888552     -2500.4146
   1   2.0000     -20.595473      -560.4313
   2   2.0000     -20.588800      -560.2497
   3   2.0000     -20.553517      -559.2896
   4   2.0000     -15.628163      -425.2639
   5   2.0000     -15.608053      -424.7167
   6   2.0000     -11.393913      -310.0441
   7   2.0000     -11.384023      -309.7750
   8   2.0000     -11.333088      -308.3890
   9   2.0000     -11.311620      -307.8048
  10   2.0000     -11.308313      -307.7148
  11   2.0000     -11.297990      -307.4339
  12   2.0000     -11.259902      -306.3975
  13   2.0000     -11.259678      -306.3914
  14   2.0000     -11.257063      -306.3203
  15   2.0000     -11.251623      -306.1722
  16   2.0000     -11.241328      -305.8921
  17   2.0000     -11.237245      -305.7810
  18   2.0000     -11.234389      -305.7033
  19   2.0000     -11.233133      -305.6691
  20   2.0000      -8.893630      -242.0080
  21   2.0000      -6.575209      -178.9205
  22   2.0000      -6.573199      -178.8658
  23   2.0000      -6.572615      -178.8500
  24   2.0000      -1.454439       -39.5773
  25   2.0000      -1.415254       -38.5110
  26   2.0000      -1.356835       -36.9214
  27   2.0000      -1.339310       -36.4445
  28   2.0000      -1.237587       -33.6765
  29   2.0000      -1.155733       -31.4491
  30   2.0000      -1.121108       -30.5069
  31   2.0000      -1.044807       -28.4307
  32   2.0000      -1.036284       -28.1987
  33   2.0000      -1.013145       -27.5691
  34   2.0000      -0.999009       -27.1844
  35   2.0000      -0.984675       -26.7944
  36   2.0000      -0.922945       -25.1146
  37   2.0000      -0.883760       -24.0483
  38   2.0000      -0.847622       -23.0650
  39   2.0000      -0.837801       -22.7977
  40   2.0000      -0.831677       -22.6311
  41   2.0000      -0.823294       -22.4030
  42   2.0000      -0.758349       -20.6357
  43   2.0000      -0.735987       -20.0272
  44   2.0000      -0.727748       -19.8030
  45   2.0000      -0.693556       -18.8726
  46   2.0000      -0.684745       -18.6329
  47   2.0000      -0.681632       -18.5481
  48   2.0000      -0.676207       -18.4005
  49   2.0000      -0.655879       -17.8474
  50   2.0000      -0.652919       -17.7668
  51   2.0000      -0.643688       -17.5156
  52   2.0000      -0.635710       -17.2985
  53   2.0000      -0.608625       -16.5615
  54   2.0000      -0.603971       -16.4349
  55   2.0000      -0.602392       -16.3919
  56   2.0000      -0.598947       -16.2982
  57   2.0000      -0.576796       -15.6954
  58   2.0000      -0.575283       -15.6542
  59   2.0000      -0.564882       -15.3712
  60   2.0000      -0.558458       -15.1964
  61   2.0000      -0.548516       -14.9259
  62   2.0000      -0.544648       -14.8206
  63   2.0000      -0.521106       -14.1800
  64   2.0000      -0.516023       -14.0417
  65   2.0000      -0.510567       -13.8932
  66   2.0000      -0.506884       -13.7930
  67   2.0000      -0.497780       -13.5453
  68   2.0000      -0.482509       -13.1297
  69   2.0000      -0.464971       -12.6525
  70   2.0000      -0.458791       -12.4843
  71   2.0000      -0.452806       -12.3215
  72   2.0000      -0.353955        -9.6316
  73   2.0000      -0.347480        -9.4554
  74   2.0000      -0.327875        -8.9219
  75   2.0000      -0.318677        -8.6717
  76   2.0000      -0.315412        -8.5828
  77   0.0000       0.072261         1.9663
  78   0.0000       0.106082         2.8867
  79   0.0000       0.119013         3.2385
  80   0.0000       0.132688         3.6106
  81   0.0000       0.137224         3.7341

MULLIKEN ATOMIC CHARGES
-----------------------
   0 C :   -0.279391
   1 C :    0.053116
   2 O :   -0.361766
   3 C :    0.435843
   4 O :   -0.401641
   5 C :   -0.183219
   6 C :    0.136502
   7 C :   -0.282903
   8 N :   -0.124908
   9 C :    0.203852
  10 S :   -0.440134
  11 N :   -0.200868
  12 C :    0.055509
  13 C :    0.042869
  14 C :   -0.157300
  15 C :   -0.133464
  16 C :   -0.280866
  17 C :    0.312736
  18 O :   -0.359128
  19 C :   -0.279885
  20 H :    0.091602
  21 H :    0.100601
  22 H :    0.099092
  23 H :    0.093180
  24 H :    0.105489
  25 H :    0.123875
  26 H :    0.105010
  27 H :    0.125424
  28 H :    0.197202
  29 H :    0.194241
  30 H :    0.154682
  31 H :    0.155310
  32 H :    0.160605
  33 H :    0.130453
  34 H :    0.240747
  35 H :    0.167534
Sum of atomic charges:   -0.0000000

LOEWDIN ATOMIC CHARGES
----------------------
   0 C :    0.108257
   1 C :   -0.017932
   2 O :    0.294515
   3 C :   -0.416745
   4 O :    0.124297
   5 C :   -0.093310
   6 C :   -0.074018
   7 C :    0.126214
   8 N :    0.404041
   9 C :   -0.457390
  10 S :   -0.036597
  11 N :    0.397128
  12 C :   -0.045323
  13 C :   -0.040565
  14 C :    0.021813
  15 C :    0.041762
  16 C :   -0.002392
  17 C :   -0.194299
  18 O :    0.393407
  19 C :    0.027534
  20 H :   -0.029501
  21 H :   -0.023024
  22 H :   -0.026495
  23 H :   -0.027485
  24 H :   -0.028222
  25 H :   -0.008063
  26 H :   -0.019634
  27 H :   -0.010694
  28 H :   -0.058799
  29 H :   -0.064056
  30 H :   -0.004725
  31 H :   -0.024732
  32 H :   -0.020416
  33 H :   -0.035747
  34 H :   -0.154227
  35 H :   -0.024576

  Mayer bond orders larger than 0.100000
B(  0-C ,  1-C ) :   0.9718 B(  0-C , 20-H ) :   0.9782 B(  0-C , 21-H ) :   0.9779
B(  0-C , 22-H ) :   0.9771 B(  1-C ,  2-O ) :   0.9007 B(  1-C , 23-H ) :   0.9682
B(  1-C , 24-H ) :   0.9819 B(  2-O ,  3-C ) :   1.1012 B(  3-C ,  4-O ) :   2.0186
B(  3-C ,  5-C ) :   1.0305 B(  5-C ,  6-C ) :   1.6672 B(  5-C , 12-C ) :   0.9641
B(  6-C ,  7-C ) :   0.9519 B(  6-C ,  8-N ) :   1.1380 B(  7-C , 25-H ) :   0.9703
B(  7-C , 26-H ) :   0.9887 B(  7-C , 27-H ) :   0.9626 B(  8-N ,  9-C ) :   1.1844
B(  8-N , 28-H ) :   0.9498 B(  9-C , 10-S ) :   1.6102 B(  9-C , 11-N ) :   1.3004
B( 11-N , 12-C ) :   0.9926 B( 11-N , 29-H ) :   0.9517 B( 12-C , 13-C ) :   0.9446
B( 12-C , 30-H ) :   0.9984 B( 13-C , 14-C ) :   1.3775 B( 13-C , 19-C ) :   1.3686
B( 14-C , 15-C ) :   1.3946 B( 14-C , 31-H ) :   0.9641 B( 15-C , 16-C ) :   1.3635
B( 15-C , 32-H ) :   0.9711 B( 16-C , 17-C ) :   1.3303 B( 16-C , 33-H ) :   0.9851
B( 17-C , 18-O ) :   1.1095 B( 17-C , 19-C ) :   1.3750 B( 18-O , 34-H ) :   0.9799
B( 19-C , 35-H ) :   0.9582

MP2 TOTAL ENERGY:    -1274.329569939 Eh
FINAL SINGLE POINT ENERGY     -1274.329569939090

DIPOLE MOMENT
-------------
                                X             Y             Z
Electronic contribution:     11.91995       8.43188       8.03531
Nuclear contribution   :    -13.26259      -9.74891      -8.70695
                        -----------------------------------------
Total Dipole Moment    :     -1.34264      -1.31703      -0.67163
                        -----------------------------------------
Magnitude (a.u.)       :      1.99709
Magnitude (Debye)      :      5.07619

Rotational constants in cm-1:     0.011162     0.009170     0.006536
Rotational constants in MHz :   334.640171   274.916101   195.944707

                             ****ORCA TERMINATED NORMALLY****
TOTAL RUN TIME: 0 days 1 hours 59 minutes 35 seconds 359 msec
