                         Program Version 4.2.0 -  RELEASE  -
|  1> ! ri-mp2 cc-pvtz cc-pvtz/c TightSCF  NoKeepInts
|  2>
|  3> %scf
|  4>   MaxCore 4096
|  5> end
|  6> *xyz  0  1
|  7>     C       14.5629136   14.8133014   14.7725737
|  8>     C       15.4780529   14.4870390   15.9646726
|  9>     O       16.3878635   15.5885268   16.1210727
| 10>     C       17.4902165   15.4276653   16.9089793
| 11>     O       17.9132912   14.3234121   17.2104445
| 12>     C       17.9088139   16.6715141   17.6395595
| 13>     C       17.5953028   17.9384529   17.2606084
| 14>     C       16.7968713   18.3803099   16.0510412
| 15>     N       18.0942733   19.0240273   17.9882535
| 16>     C       19.0217354   18.9347115   18.9924875
| 17>     S       19.6587795   20.2801819   19.7132557
| 18>     N       19.3951010   17.6694161   19.3682357
| 19>     C       18.7593271   16.4269029   18.8913799
| 20>     C       17.9286062   15.7921003   20.0038126
| 21>     C       18.1564131   14.4584414   20.3905906
| 22>     C       17.3932484   13.8679841   21.4118082
| 23>     C       16.3922490   14.6169178   22.0534436
| 24>     C       16.1593784   15.9443071   21.6688999
| 25>     O       15.1893011   16.6682438   22.2822913
| 26>     C       16.9202503   16.5290715   20.6517480
| 27>     H       13.9959313   15.7334801   14.9602836
| 28>     H       13.8488943   13.9983345   14.6021776
| 29>     H       15.1533635   14.9491718   13.8578852
| 30>     H       14.8892744   14.3419343   16.8801674
| 31>     H       16.0251722   13.5587922   15.7489383
| 32>     H       17.1535036   17.8780007   15.1431327
| 33>     H       16.8668845   19.4594856   15.8686133
| 34>     H       15.7351129   18.1343939   16.1776723
| 35>     H       17.8324912   19.9611849   17.7271553
| 36>     H       20.0565961   17.6298541   20.1329476
| 37>     H       19.5622395   15.7265352   18.6193137
| 38>     H       18.9184301   13.8715079   19.8835589
| 39>     H       17.5757605   12.8335142   21.6970643
| 40>     H       15.7993992   14.1642610   22.8411837
| 41>     H       14.8062900   16.1100911   22.9754899
| 42>     H       16.7256682   17.5589314   20.3732577
| 43> *
| 44>
| 45>                          ****END OF INPUT****

CARTESIAN COORDINATES (ANGSTROEM)
---------------------------------
  C     14.562914   14.813301   14.772574
  C     15.478053   14.487039   15.964673
  O     16.387864   15.588527   16.121073
  C     17.490216   15.427665   16.908979
  O     17.913291   14.323412   17.210445
  C     17.908814   16.671514   17.639560
  C     17.595303   17.938453   17.260608
  C     16.796871   18.380310   16.051041
  N     18.094273   19.024027   17.988253
  C     19.021735   18.934711   18.992487
  S     19.658780   20.280182   19.713256
  N     19.395101   17.669416   19.368236
  C     18.759327   16.426903   18.891380
  C     17.928606   15.792100   20.003813
  C     18.156413   14.458441   20.390591
  C     17.393248   13.867984   21.411808
  C     16.392249   14.616918   22.053444
  C     16.159378   15.944307   21.668900
  O     15.189301   16.668244   22.282291
  C     16.920250   16.529072   20.651748
  H     13.995931   15.733480   14.960284
  H     13.848894   13.998335   14.602178
  H     15.153363   14.949172   13.857885
  H     14.889274   14.341934   16.880167
  H     16.025172   13.558792   15.748938
  H     17.153504   17.878001   15.143133
  H     16.866885   19.459486   15.868613
  H     15.735113   18.134394   16.177672
  H     17.832491   19.961185   17.727155
  H     20.056596   17.629854   20.132948
  H     19.562240   15.726535   18.619314
  H     18.918430   13.871508   19.883559
  H     17.575760   12.833514   21.697064
  H     15.799399   14.164261   22.841184
  H     14.806290   16.110091   22.975490
  H     16.725668   17.558931   20.373258

 Total Charge           Charge          ....    0
 Multiplicity           Mult            ....    1
 Number of Electrons    NEL             ....  154
 Basis Dimension        Dim             ....  828

ORBITAL ENERGIES
----------------

  NO   OCC          E(Eh)            E(eV)
   0   2.0000     -91.888016     -2500.4000
   1   2.0000     -20.601099      -560.5844
   2   2.0000     -20.591780      -560.3308
   3   2.0000     -20.547078      -559.1144
   4   2.0000     -15.628310      -425.2679
   5   2.0000     -15.606698      -424.6798
   6   2.0000     -11.395235      -310.0801
   7   2.0000     -11.382974      -309.7465
   8   2.0000     -11.335830      -308.4636
   9   2.0000     -11.307579      -307.6949
  10   2.0000     -11.305748      -307.6450
  11   2.0000     -11.298659      -307.4521
  12   2.0000     -11.260367      -306.4102
  13   2.0000     -11.259097      -306.3756
  14   2.0000     -11.253483      -306.2229
  15   2.0000     -11.247673      -306.0647
  16   2.0000     -11.237345      -305.7837
  17   2.0000     -11.234401      -305.7036
  18   2.0000     -11.233465      -305.6781
  19   2.0000     -11.230436      -305.5957
  20   2.0000      -8.893082      -241.9931
  21   2.0000      -6.574660      -178.9056
  22   2.0000      -6.572653      -178.8510
  23   2.0000      -6.572067      -178.8350
  24   2.0000      -1.454804       -39.5872
  25   2.0000      -1.411516       -38.4093
  26   2.0000      -1.357347       -36.9353
  27   2.0000      -1.339236       -36.4425
  28   2.0000      -1.236892       -33.6575
  29   2.0000      -1.152152       -31.3516
  30   2.0000      -1.119598       -30.4658
  31   2.0000      -1.044555       -28.4238
  32   2.0000      -1.036890       -28.2152
  33   2.0000      -1.009523       -27.4705
  34   2.0000      -0.997609       -27.1463
  35   2.0000      -0.983259       -26.7558
  36   2.0000      -0.921063       -25.0634
  37   2.0000      -0.887531       -24.1509
  38   2.0000      -0.846971       -23.0473
  39   2.0000      -0.835029       -22.7223
  40   2.0000      -0.827878       -22.5277
  41   2.0000      -0.818768       -22.2798
  42   2.0000      -0.761332       -20.7169
  43   2.0000      -0.735902       -20.0249
  44   2.0000      -0.724930       -19.7263
  45   2.0000      -0.690381       -18.7862
  46   2.0000      -0.683918       -18.6103
  47   2.0000      -0.680977       -18.5303
  48   2.0000      -0.675831       -18.3903
  49   2.0000      -0.655790       -17.8450
  50   2.0000      -0.651258       -17.7216
  51   2.0000      -0.643059       -17.4985
  52   2.0000      -0.634299       -17.2602
  53   2.0000      -0.605075       -16.4649
  54   2.0000      -0.600758       -16.3474
  55   2.0000      -0.599874       -16.3234
  56   2.0000      -0.595134       -16.1944
  57   2.0000      -0.578475       -15.7411
  58   2.0000      -0.573290       -15.6000
  59   2.0000      -0.563100       -15.3227
  60   2.0000      -0.561852       -15.2888
  61   2.0000      -0.547041       -14.8858
  62   2.0000      -0.542789       -14.7700
  63   2.0000      -0.524670       -14.2770
  64   2.0000      -0.517170       -14.0729
  65   2.0000      -0.509376       -13.8608
  66   2.0000      -0.502881       -13.6841
  67   2.0000      -0.495442       -13.4817
  68   2.0000      -0.481319       -13.0974
  69   2.0000      -0.463201       -12.6044
  70   2.0000      -0.461837       -12.5672
  71   2.0000      -0.452873       -12.3233
  72   2.0000      -0.354074        -9.6348
  73   2.0000      -0.344014        -9.3611
  74   2.0000      -0.327154        -8.9023
  75   2.0000      -0.315565        -8.5870
  76   2.0000      -0.313880        -8.5411
  77   0.0000       0.075356         2.0505
  78   0.0000       0.112386         3.0582
  79   0.0000       0.120375         3.2756
  80   0.0000       0.135656         3.6914
  81   0.0000       0.138528         3.7695

MULLIKEN ATOMIC CHARGES
-----------------------
   0 C :   -0.270397
   1 C :    0.038927
   2 O :   -0.344191
   3 C :    0.443486
   4 O :   -0.421618
   5 C :   -0.177591
   6 C :    0.142589
   7 C :   -0.288011
   8 N :   -0.123040
   9 C :    0.201812
  10 S :   -0.439457
  11 N :   -0.197495
  12 C :    0.037874
  13 C :    0.055561
  14 C :   -0.160272
  15 C :   -0.133886
  16 C :   -0.279330
  17 C :    0.311084
  18 O :   -0.359151
  19 C :   -0.272711
  20 H :    0.091263
  21 H :    0.097645
  22 H :    0.097704
  23 H :    0.092500
  24 H :    0.109753
  25 H :    0.126286
  26 H :    0.103891
  27 H :    0.127074
  28 H :    0.196862
  29 H :    0.193660
  30 H :    0.153762
  31 H :    0.153358
  32 H :    0.159108
  33 H :    0.128104
  34 H :    0.240073
  35 H :    0.164775
Sum of atomic charges:   -0.0000000

LOEWDIN ATOMIC CHARGES
----------------------
   0 C :    0.106688
   1 C :   -0.015820
   2 O :    0.303951
   3 C :   -0.413878
   4 O :    0.107607
   5 C :   -0.091546
   6 C :   -0.067155
   7 C :    0.125098
   8 N :    0.404692
   9 C :   -0.458695
  10 S :   -0.036129
  11 N :    0.397720
  12 C :   -0.046242
  13 C :   -0.038907
  14 C :    0.022175
  15 C :    0.040973
  16 C :   -0.002440
  17 C :   -0.192820
  18 O :    0.392936
  19 C :    0.028278
  20 H :   -0.029988
  21 H :   -0.023500
  22 H :   -0.026093
  23 H :   -0.029477
  24 H :   -0.027198
  25 H :   -0.008523
  26 H :   -0.020744
  27 H :   -0.010355
  28 H :   -0.059107
  29 H :   -0.063740
  30 H :   -0.004888
  31 H :   -0.025274
  32 H :   -0.021195
  33 H :   -0.036414
  34 H :   -0.154909
  35 H :   -0.025086

  Mayer bond orders larger than 0.100000
B(  0-C ,  1-C ) :   0.9720 B(  0-C , 20-H ) :   0.9790 B(  0-C , 21-H ) :   0.9778
B(  0-C , 22-H ) :   0.9772 B(  1-C ,  2-O ) :   0.8993 B(  1-C , 23-H ) :   0.9749
B(  1-C , 24-H ) :   0.9775 B(  2-O ,  3-C ) :   1.1487 B(  3-C ,  4-O ) :   1.9959
B(  3-C ,  5-C ) :   1.0459 B(  5-C ,  6-C ) :   1.6502 B(  5-C , 12-C ) :   0.9662
B(  6-C ,  7-C ) :   0.9539 B(  6-C ,  8-N ) :   1.1437 B(  7-C , 25-H ) :   0.9667
B(  7-C , 26-H ) :   0.9918 B(  7-C , 27-H ) :   0.9629 B(  8-N ,  9-C ) :   1.1795
B(  8-N , 28-H ) :   0.9490 B(  9-C , 10-S ) :   1.6106 B(  9-C , 11-N ) :   1.3037
B( 11-N , 12-C ) :   0.9915 B( 11-N , 29-H ) :   0.9520 B( 12-C , 13-C ) :   0.9474
B( 12-C , 30-H ) :   0.9995 B( 13-C , 14-C ) :   1.3765 B( 13-C , 19-C ) :   1.3692
B( 14-C , 15-C ) :   1.3948 B( 14-C , 31-H ) :   0.9648 B( 15-C , 16-C ) :   1.3627
B( 15-C , 32-H ) :   0.9714 B( 16-C , 17-C ) :   1.3314 B( 16-C , 33-H ) :   0.9860
B( 17-C , 18-O ) :   1.1080 B( 17-C , 19-C ) :   1.3790 B( 18-O , 34-H ) :   0.9806
B( 19-C , 35-H ) :   0.9584

MP2 TOTAL ENERGY:    -1274.344246385 Eh
FINAL SINGLE POINT ENERGY     -1274.344246385186

DIPOLE MOMENT
-------------
                                X             Y             Z
Electronic contribution:     11.96166       8.44101      11.29882
Nuclear contribution   :    -13.57283      -9.64877     -12.18843
                        -----------------------------------------
Total Dipole Moment    :     -1.61117      -1.20776      -0.88961
                        -----------------------------------------
Magnitude (a.u.)       :      2.20136
Magnitude (Debye)      :      5.59541

Rotational constants in cm-1:     0.010359     0.008919     0.005886
Rotational constants in MHz :   310.551775   267.381723   176.455075

                             ****ORCA TERMINATED NORMALLY****
TOTAL RUN TIME: 0 days 1 hours 36 minutes 27 seconds 191 msec
