                         Program Version 4.2.0 -  RELEASE  -
|  1> ! ri-mp2 cc-pvtz cc-pvtz/c TightSCF  NoKeepInts
|  2>
|  3> %scf
|  4>   MaxCore 4096
|  5> end
|  6> *xyz  0  1
|  7>     C       14.2253175   15.6153474   16.3014537
|  8>     C       15.5278667   15.1880396   17.0004115
|  9>     O       16.6112350   15.3152544   16.0566691
| 10>     C       17.8612877   15.6841918   16.4755421
| 11>     O       18.7843019   14.8951770   16.3885716
| 12>     C       17.9241978   16.8624461   17.3967499
| 13>     C       17.3004941   18.0399942   17.1524556
| 14>     C       16.5045458   18.4316998   15.9269148
| 15>     N       17.4508775   19.1036855   18.0455728
| 16>     C       18.2957079   19.1050220   19.1247105
| 17>     S       18.4777455   20.4391578   20.0843442
| 18>     N       18.9814862   17.9413057   19.3703230
| 19>     C       18.7858018   16.6702090   18.6459481
| 20>     C       18.1724443   15.6077359   19.5539280
| 21>     C       18.6949731   14.3016447   19.5696872
| 22>     C       18.1194957   13.3090566   20.3802106
| 23>     C       17.0088870   13.6230082   21.1816668
| 24>     C       16.4815273   14.9210196   21.1653208
| 25>     O       15.4004768   15.2247114   21.9264937
| 26>     C       17.0558347   15.9069710   20.3568007
| 27>     H       13.3730672   15.5076099   16.9835419
| 28>     H       14.0390764   14.9852407   15.4226149
| 29>     H       14.2680414   16.6579847   15.9724459
| 30>     H       15.6723110   15.8229120   17.8829742
| 31>     H       15.4551143   14.1475141   17.3438675
| 32>     H       16.5121548   17.6586429   15.1501098
| 33>     H       16.9224241   19.3365101   15.4675000
| 34>     H       15.4604502   18.6416504   16.1866190
| 35>     H       16.9678375   19.9716882   17.8741683
| 36>     H       19.5819274   17.9636391   20.1849579
| 37>     H       19.7751581   16.3158044   18.3205971
| 38>     H       19.5423029   14.0503781   18.9350585
| 39>     H       18.5314601   12.3012047   20.3786989
| 40>     H       16.5599221   12.8580538   21.8067099
| 41>     H       15.1916479   14.4428325   22.4600987
| 42>     H       16.6296002   16.9046567   20.3602627
| 43> *
| 44>
| 45>                          ****END OF INPUT****

CARTESIAN COORDINATES (ANGSTROEM)
---------------------------------
  C     14.225317   15.615347   16.301454
  C     15.527867   15.188040   17.000411
  O     16.611235   15.315254   16.056669
  C     17.861288   15.684192   16.475542
  O     18.784302   14.895177   16.388572
  C     17.924198   16.862446   17.396750
  C     17.300494   18.039994   17.152456
  C     16.504546   18.431700   15.926915
  N     17.450877   19.103685   18.045573
  C     18.295708   19.105022   19.124710
  S     18.477746   20.439158   20.084344
  N     18.981486   17.941306   19.370323
  C     18.785802   16.670209   18.645948
  C     18.172444   15.607736   19.553928
  C     18.694973   14.301645   19.569687
  C     18.119496   13.309057   20.380211
  C     17.008887   13.623008   21.181667
  C     16.481527   14.921020   21.165321
  O     15.400477   15.224711   21.926494
  C     17.055835   15.906971   20.356801
  H     13.373067   15.507610   16.983542
  H     14.039076   14.985241   15.422615
  H     14.268041   16.657985   15.972446
  H     15.672311   15.822912   17.882974
  H     15.455114   14.147514   17.343867
  H     16.512155   17.658643   15.150110
  H     16.922424   19.336510   15.467500
  H     15.460450   18.641650   16.186619
  H     16.967838   19.971688   17.874168
  H     19.581927   17.963639   20.184958
  H     19.775158   16.315804   18.320597
  H     19.542303   14.050378   18.935059
  H     18.531460   12.301205   20.378699
  H     16.559922   12.858054   21.806710
  H     15.191648   14.442832   22.460099
  H     16.629600   16.904657   20.360263

 Total Charge           Charge          ....    0
 Multiplicity           Mult            ....    1
 Number of Electrons    NEL             ....  154
 Basis Dimension        Dim             ....  828

ORBITAL ENERGIES
----------------

  NO   OCC          E(Eh)            E(eV)
   0   2.0000     -91.890817     -2500.4762
   1   2.0000     -20.599360      -560.5371
   2   2.0000     -20.590694      -560.3013
   3   2.0000     -20.553938      -559.3011
   4   2.0000     -15.629036      -425.2877
   5   2.0000     -15.611228      -424.8031
   6   2.0000     -11.396210      -310.1066
   7   2.0000     -11.387074      -309.8580
   8   2.0000     -11.334051      -308.4152
   9   2.0000     -11.315990      -307.9238
  10   2.0000     -11.312758      -307.8358
  11   2.0000     -11.302206      -307.5486
  12   2.0000     -11.265463      -306.5488
  13   2.0000     -11.264912      -306.5338
  14   2.0000     -11.262116      -306.4578
  15   2.0000     -11.255824      -306.2865
  16   2.0000     -11.245415      -306.0033
  17   2.0000     -11.241585      -305.8991
  18   2.0000     -11.238221      -305.8075
  19   2.0000     -11.234961      -305.7188
  20   2.0000      -8.895910      -242.0700
  21   2.0000      -6.577491      -178.9826
  22   2.0000      -6.575473      -178.9277
  23   2.0000      -6.574892      -178.9119
  24   2.0000      -1.448554       -39.4172
  25   2.0000      -1.419170       -38.6176
  26   2.0000      -1.358669       -36.9713
  27   2.0000      -1.341848       -36.5135
  28   2.0000      -1.240671       -33.7604
  29   2.0000      -1.160437       -31.5771
  30   2.0000      -1.124867       -30.6092
  31   2.0000      -1.047802       -28.5121
  32   2.0000      -1.039012       -28.2730
  33   2.0000      -1.017957       -27.7000
  34   2.0000      -1.004728       -27.3400
  35   2.0000      -0.989204       -26.9176
  36   2.0000      -0.927240       -25.2315
  37   2.0000      -0.883000       -24.0276
  38   2.0000      -0.853463       -23.2239
  39   2.0000      -0.842841       -22.9349
  40   2.0000      -0.836217       -22.7546
  41   2.0000      -0.835190       -22.7267
  42   2.0000      -0.757776       -20.6201
  43   2.0000      -0.738082       -20.0842
  44   2.0000      -0.731683       -19.9101
  45   2.0000      -0.697378       -18.9766
  46   2.0000      -0.687891       -18.7185
  47   2.0000      -0.682582       -18.5740
  48   2.0000      -0.676365       -18.4048
  49   2.0000      -0.661884       -18.0108
  50   2.0000      -0.652963       -17.7680
  51   2.0000      -0.641516       -17.4565
  52   2.0000      -0.633598       -17.2411
  53   2.0000      -0.624112       -16.9830
  54   2.0000      -0.609291       -16.5796
  55   2.0000      -0.607536       -16.5319
  56   2.0000      -0.603018       -16.4090
  57   2.0000      -0.584602       -15.9078
  58   2.0000      -0.577109       -15.7039
  59   2.0000      -0.568794       -15.4777
  60   2.0000      -0.562574       -15.3084
  61   2.0000      -0.555824       -15.1247
  62   2.0000      -0.542516       -14.7626
  63   2.0000      -0.529280       -14.4025
  64   2.0000      -0.523376       -14.2418
  65   2.0000      -0.515871       -14.0376
  66   2.0000      -0.502392       -13.6708
  67   2.0000      -0.496495       -13.5103
  68   2.0000      -0.486373       -13.2349
  69   2.0000      -0.468572       -12.7505
  70   2.0000      -0.461652       -12.5622
  71   2.0000      -0.449979       -12.2446
  72   2.0000      -0.358060        -9.7433
  73   2.0000      -0.351268        -9.5585
  74   2.0000      -0.330282        -8.9874
  75   2.0000      -0.323590        -8.8053
  76   2.0000      -0.319378        -8.6907
  77   0.0000       0.077138         2.0990
  78   0.0000       0.103605         2.8192
  79   0.0000       0.116848         3.1796
  80   0.0000       0.129836         3.5330
  81   0.0000       0.132715         3.6114

MULLIKEN ATOMIC CHARGES
-----------------------
   0 C :   -0.273832
   1 C :    0.019072
   2 O :   -0.349802
   3 C :    0.441555
   4 O :   -0.378883
   5 C :   -0.224010
   6 C :    0.159610
   7 C :   -0.345186
   8 N :   -0.131052
   9 C :    0.196804
  10 S :   -0.438497
  11 N :   -0.207778
  12 C :    0.067242
  13 C :    0.034206
  14 C :   -0.185166
  15 C :   -0.132617
  16 C :   -0.277087
  17 C :    0.319873
  18 O :   -0.357786
  19 C :   -0.296441
  20 H :    0.098629
  21 H :    0.108078
  22 H :    0.090337
  23 H :    0.098528
  24 H :    0.122915
  25 H :    0.138346
  26 H :    0.144412
  27 H :    0.119719
  28 H :    0.197587
  29 H :    0.196555
  30 H :    0.162764
  31 H :    0.166931
  32 H :    0.163471
  33 H :    0.132039
  34 H :    0.241598
  35 H :    0.177866
Sum of atomic charges:   -0.0000000

LOEWDIN ATOMIC CHARGES
----------------------
   0 C :    0.108403
   1 C :   -0.015282
   2 O :    0.292170
   3 C :   -0.416332
   4 O :    0.131617
   5 C :   -0.087992
   6 C :   -0.088625
   7 C :    0.125068
   8 N :    0.403421
   9 C :   -0.457824
  10 S :   -0.035654
  11 N :    0.397182
  12 C :   -0.045126
  13 C :   -0.043674
  14 C :    0.022142
  15 C :    0.044380
  16 C :   -0.000624
  17 C :   -0.194619
  18 O :    0.394168
  19 C :    0.026740
  20 H :   -0.023345
  21 H :   -0.024224
  22 H :   -0.033234
  23 H :   -0.038330
  24 H :   -0.024989
  25 H :   -0.010008
  26 H :   -0.010519
  27 H :   -0.018150
  28 H :   -0.056583
  29 H :   -0.063475
  30 H :   -0.002823
  31 H :   -0.022223
  32 H :   -0.018856
  33 H :   -0.034784
  34 H :   -0.153034
  35 H :   -0.024962

  Mayer bond orders larger than 0.100000
B(  0-C ,  1-C ) :   0.9775 B(  0-C , 20-H ) :   0.9764 B(  0-C , 21-H ) :   0.9791
B(  0-C , 22-H ) :   0.9782 B(  1-C ,  2-O ) :   0.8976 B(  1-C , 23-H ) :   0.9599
B(  1-C , 24-H ) :   0.9812 B(  2-O ,  3-C ) :   1.1423 B(  3-C ,  4-O ) :   2.0882
B(  3-C ,  5-C ) :   0.9494 B(  5-C ,  6-C ) :   1.6673 B(  5-C , 12-C ) :   0.9596
B(  6-C ,  7-C ) :   0.9455 B(  6-C ,  8-N ) :   1.1265 B(  7-C , 25-H ) :   0.9755
B(  7-C , 26-H ) :   0.9698 B(  7-C , 27-H ) :   0.9661 B(  8-N ,  9-C ) :   1.1893
B(  8-N , 28-H ) :   0.9516 B(  9-C , 10-S ) :   1.6142 B(  9-C , 11-N ) :   1.2930
B( 11-N , 12-C ) :   0.9963 B( 11-N , 29-H ) :   0.9506 B( 12-C , 13-C ) :   0.9415
B( 12-C , 30-H ) :   0.9985 B( 13-C , 14-C ) :   1.3875 B( 13-C , 19-C ) :   1.3442
B( 14-C , 15-C ) :   1.3965 B( 14-C , 31-H ) :   0.9601 B( 15-C , 16-C ) :   1.3640
B( 15-C , 32-H ) :   0.9700 B( 16-C , 17-C ) :   1.3296 B( 16-C , 33-H ) :   0.9844
B( 17-C , 18-O ) :   1.1119 B( 17-C , 19-C ) :   1.3676 B( 18-O , 34-H ) :   0.9794
B( 19-C , 35-H ) :   0.9570

MP2 TOTAL ENERGY:    -1274.330802253 Eh
FINAL SINGLE POINT ENERGY     -1274.330802253479

DIPOLE MOMENT
-------------
                                X             Y             Z
Electronic contribution:     11.73446       6.07980       7.21087
Nuclear contribution   :    -13.16220      -7.14143      -7.47579
                        -----------------------------------------
Total Dipole Moment    :     -1.42774      -1.06163      -0.26492
                        -----------------------------------------
Magnitude (a.u.)       :      1.79879
Magnitude (Debye)      :      4.57217

Rotational constants in cm-1:     0.011234     0.009375     0.006865
Rotational constants in MHz :   336.791303   281.063286   205.820422

                             ****ORCA TERMINATED NORMALLY****
TOTAL RUN TIME: 0 days 1 hours 52 minutes 18 seconds 10 msec
