                         Program Version 4.2.0 -  RELEASE  -
|  1> ! ri-mp2 cc-pvtz cc-pvtz/c TightSCF  NoKeepInts
|  2>
|  3> %scf
|  4>   MaxCore 4096
|  5> end
|  6> *xyz  0  1
|  7>     C       14.9539313   16.2228396   17.3442931
|  8>     C       15.5569651   14.8976658   16.8340347
|  9>     O       16.8867718   14.9219074   16.2436979
| 10>     C       18.0093561   15.6808420   16.4901008
| 11>     O       19.1042200   15.2224330   16.2222475
| 12>     C       17.9099695   16.8660507   17.3803327
| 13>     C       17.4684800   18.0578734   16.9217323
| 14>     C       17.0065240   18.3643085   15.5133048
| 15>     N       17.4851074   19.1742981   17.7600066
| 16>     C       17.9766914   19.1797183   19.0400555
| 17>     S       17.9522453   20.5441835   19.9737541
| 18>     N       18.4883812   17.9953842   19.5132864
| 19>     C       18.5214274   16.7165666   18.7744107
| 20>     C       17.8807719   15.5732639   19.5611551
| 21>     C       18.3773156   14.2641992   19.4158161
| 22>     C       17.7935327   13.1922053   20.1105840
| 23>     C       16.7024248   13.4282514   20.9632573
| 24>     C       16.2050207   14.7291122   21.1148937
| 25>     O       15.1458534   14.9600198   21.9303858
| 26>     C       16.7878775   15.7947062   20.4215365
| 27>     H       15.4882189   16.6295772   18.2060250
| 28>     H       13.9243777   16.0439229   17.6778961
| 29>     H       14.9028317   16.9703410   16.5469389
| 30>     H       15.5873526   14.2089887   17.6891964
| 31>     H       14.8666384   14.4557930   16.1039297
| 32>     H       16.7328282   17.4581794   14.9590118
| 33>     H       17.8057559   18.8610354   14.9485396
| 34>     H       16.1299817   19.0237905   15.5116552
| 35>     H       17.1383386   20.0590616   17.4240850
| 36>     H       18.8324016   18.0287573   20.4647785
| 37>     H       19.5801056   16.4543011   18.6294695
| 38>     H       19.2154768   14.0744187   18.7478453
| 39>     H       18.1865814   12.1847434   19.9832499
| 40>     H       16.2476808   12.6025872   21.5008123
| 41>     H       14.9189861   14.1205307   22.3585607
| 42>     H       16.3765769   16.7901428   20.5531202
| 43> *
| 44>
| 45>                          ****END OF INPUT****

CARTESIAN COORDINATES (ANGSTROEM)
---------------------------------
  C     14.953931   16.222840   17.344293
  C     15.556965   14.897666   16.834035
  O     16.886772   14.921907   16.243698
  C     18.009356   15.680842   16.490101
  O     19.104220   15.222433   16.222248
  C     17.909969   16.866051   17.380333
  C     17.468480   18.057873   16.921732
  C     17.006524   18.364308   15.513305
  N     17.485107   19.174298   17.760007
  C     17.976691   19.179718   19.040055
  S     17.952245   20.544183   19.973754
  N     18.488381   17.995384   19.513286
  C     18.521427   16.716567   18.774411
  C     17.880772   15.573264   19.561155
  C     18.377316   14.264199   19.415816
  C     17.793533   13.192205   20.110584
  C     16.702425   13.428251   20.963257
  C     16.205021   14.729112   21.114894
  O     15.145853   14.960020   21.930386
  C     16.787878   15.794706   20.421536
  H     15.488219   16.629577   18.206025
  H     13.924378   16.043923   17.677896
  H     14.902832   16.970341   16.546939
  H     15.587353   14.208989   17.689196
  H     14.866638   14.455793   16.103930
  H     16.732828   17.458179   14.959012
  H     17.805756   18.861035   14.948540
  H     16.129982   19.023791   15.511655
  H     17.138339   20.059062   17.424085
  H     18.832402   18.028757   20.464779
  H     19.580106   16.454301   18.629469
  H     19.215477   14.074419   18.747845
  H     18.186581   12.184743   19.983250
  H     16.247681   12.602587   21.500812
  H     14.918986   14.120531   22.358561
  H     16.376577   16.790143   20.553120

 Total Charge           Charge          ....    0
 Multiplicity           Mult            ....    1
 Number of Electrons    NEL             ....  154
 Basis Dimension        Dim             ....  828

ORBITAL ENERGIES
----------------

  NO   OCC          E(Eh)            E(eV)
   0   2.0000     -91.889751     -2500.4472
   1   2.0000     -20.602048      -560.6102
   2   2.0000     -20.595961      -560.4446
   3   2.0000     -20.549514      -559.1807
   4   2.0000     -15.625331      -425.1869
   5   2.0000     -15.612504      -424.8378
   6   2.0000     -11.399664      -310.2006
   7   2.0000     -11.386937      -309.8543
   8   2.0000     -11.323879      -308.1384
   9   2.0000     -11.319378      -308.0159
  10   2.0000     -11.317367      -307.9612
  11   2.0000     -11.309846      -307.7565
  12   2.0000     -11.267996      -306.6178
  13   2.0000     -11.265863      -306.5597
  14   2.0000     -11.260837      -306.4230
  15   2.0000     -11.259435      -306.3848
  16   2.0000     -11.248421      -306.0851
  17   2.0000     -11.244910      -305.9896
  18   2.0000     -11.241412      -305.8944
  19   2.0000     -11.235897      -305.7443
  20   2.0000      -8.894873      -242.0418
  21   2.0000      -6.576465      -178.9547
  22   2.0000      -6.574435      -178.8995
  23   2.0000      -6.573863      -178.8839
  24   2.0000      -1.441349       -39.2211
  25   2.0000      -1.421866       -38.6909
  26   2.0000      -1.354161       -36.8486
  27   2.0000      -1.338815       -36.4310
  28   2.0000      -1.239625       -33.7319
  29   2.0000      -1.163386       -31.6573
  30   2.0000      -1.125536       -30.6274
  31   2.0000      -1.049982       -28.5715
  32   2.0000      -1.040318       -28.3085
  33   2.0000      -1.021606       -27.7993
  34   2.0000      -1.005081       -27.3496
  35   2.0000      -0.990648       -26.9569
  36   2.0000      -0.928541       -25.2669
  37   2.0000      -0.901012       -24.5178
  38   2.0000      -0.852590       -23.2002
  39   2.0000      -0.842239       -22.9185
  40   2.0000      -0.838339       -22.8124
  41   2.0000      -0.830750       -22.6059
  42   2.0000      -0.747936       -20.3524
  43   2.0000      -0.735084       -20.0027
  44   2.0000      -0.728460       -19.8224
  45   2.0000      -0.699680       -19.0393
  46   2.0000      -0.687842       -18.7171
  47   2.0000      -0.676867       -18.4185
  48   2.0000      -0.675868       -18.3913
  49   2.0000      -0.661974       -18.0132
  50   2.0000      -0.656391       -17.8613
  51   2.0000      -0.652635       -17.7591
  52   2.0000      -0.639292       -17.3960
  53   2.0000      -0.614466       -16.7205
  54   2.0000      -0.608107       -16.5474
  55   2.0000      -0.606010       -16.4904
  56   2.0000      -0.602993       -16.4083
  57   2.0000      -0.592095       -16.1117
  58   2.0000      -0.582262       -15.8441
  59   2.0000      -0.578055       -15.7297
  60   2.0000      -0.567549       -15.4438
  61   2.0000      -0.557275       -15.1642
  62   2.0000      -0.542262       -14.7557
  63   2.0000      -0.532853       -14.4997
  64   2.0000      -0.520014       -14.1503
  65   2.0000      -0.514556       -14.0018
  66   2.0000      -0.503978       -13.7139
  67   2.0000      -0.499880       -13.6024
  68   2.0000      -0.487896       -13.2763
  69   2.0000      -0.466824       -12.7029
  70   2.0000      -0.452933       -12.3249
  71   2.0000      -0.447910       -12.1882
  72   2.0000      -0.355818        -9.6823
  73   2.0000      -0.350967        -9.5503
  74   2.0000      -0.329538        -8.9672
  75   2.0000      -0.326993        -8.8979
  76   2.0000      -0.318167        -8.6578
  77   0.0000       0.092167         2.5080
  78   0.0000       0.104050         2.8313
  79   0.0000       0.118017         3.2114
  80   0.0000       0.124359         3.3840
  81   0.0000       0.128022         3.4837

MULLIKEN ATOMIC CHARGES
-----------------------
   0 C :   -0.348087
   1 C :    0.050506
   2 O :   -0.339229
   3 C :    0.393170
   4 O :   -0.379824
   5 C :   -0.186396
   6 C :    0.139955
   7 C :   -0.322796
   8 N :   -0.139386
   9 C :    0.214107
  10 S :   -0.443408
  11 N :   -0.235933
  12 C :    0.118195
  13 C :    0.004807
  14 C :   -0.217625
  15 C :   -0.131383
  16 C :   -0.279270
  17 C :    0.325018
  18 O :   -0.355780
  19 C :   -0.284251
  20 H :    0.119503
  21 H :    0.129617
  22 H :    0.100194
  23 H :    0.104000
  24 H :    0.121377
  25 H :    0.117363
  26 H :    0.151001
  27 H :    0.109543
  28 H :    0.195760
  29 H :    0.204570
  30 H :    0.165311
  31 H :    0.172390
  32 H :    0.166021
  33 H :    0.133357
  34 H :    0.242005
  35 H :    0.185599
Sum of atomic charges:   -0.0000000

LOEWDIN ATOMIC CHARGES
----------------------
   0 C :    0.103970
   1 C :   -0.009994
   2 O :    0.290401
   3 C :   -0.418438
   4 O :    0.125329
   5 C :   -0.082192
   6 C :   -0.102831
   7 C :    0.123623
   8 N :    0.402530
   9 C :   -0.454076
  10 S :   -0.039149
  11 N :    0.397642
  12 C :   -0.043708
  13 C :   -0.042123
  14 C :    0.022247
  15 C :    0.044867
  16 C :   -0.001219
  17 C :   -0.193791
  18 O :    0.395836
  19 C :    0.025449
  20 H :   -0.034169
  21 H :   -0.018703
  22 H :   -0.031962
  23 H :   -0.025179
  24 H :   -0.020543
  25 H :   -0.010716
  26 H :   -0.007321
  27 H :   -0.018227
  28 H :   -0.058420
  29 H :   -0.064676
  30 H :   -0.003307
  31 H :   -0.021029
  32 H :   -0.017630
  33 H :   -0.034275
  34 H :   -0.152603
  35 H :   -0.025614

  Mayer bond orders larger than 0.100000
B(  0-C ,  1-C ) :   0.9607 B(  0-C , 20-H ) :   0.9670 B(  0-C , 21-H ) :   0.9766
B(  0-C , 22-H ) :   0.9770 B(  1-C ,  2-O ) :   0.9062 B(  1-C , 23-H ) :   0.9720
B(  1-C , 24-H ) :   0.9808 B(  2-O ,  3-C ) :   1.1766 B(  3-C ,  4-O ) :   2.0970
B(  3-C ,  5-C ) :   0.9261 B(  5-C ,  6-C ) :   1.6975 B(  5-C , 12-C ) :   0.9450
B(  6-C ,  7-C ) :   0.9476 B(  6-C ,  8-N ) :   1.1140 B(  7-C , 25-H ) :   0.9796
B(  7-C , 26-H ) :   0.9646 B(  7-C , 27-H ) :   0.9738 B(  8-N ,  9-C ) :   1.2037
B(  8-N , 28-H ) :   0.9521 B(  9-C , 10-S ) :   1.6048 B(  9-C , 11-N ) :   1.2844
B( 11-N , 12-C ) :   0.9916 B( 11-N , 29-H ) :   0.9450 B( 12-C , 13-C ) :   0.9480
B( 12-C , 30-H ) :   0.9961 B( 13-C , 14-C ) :   1.3889 B( 13-C , 19-C ) :   1.3360
B( 14-C , 15-C ) :   1.4047 B( 14-C , 31-H ) :   0.9611 B( 15-C , 16-C ) :   1.3557
B( 15-C , 32-H ) :   0.9691 B( 16-C , 17-C ) :   1.3327 B( 16-C , 33-H ) :   0.9844
B( 17-C , 18-O ) :   1.1105 B( 17-C , 19-C ) :   1.3639 B( 18-O , 34-H ) :   0.9787
B( 19-C , 35-H ) :   0.9521

MP2 TOTAL ENERGY:    -1274.321815700 Eh
FINAL SINGLE POINT ENERGY     -1274.321815699978

DIPOLE MOMENT
-------------
                                X             Y             Z
Electronic contribution:      8.95722       5.28887       6.13464
Nuclear contribution   :    -10.44193      -6.60051      -6.48467
                        -----------------------------------------
Total Dipole Moment    :     -1.48471      -1.31164      -0.35003
                        -----------------------------------------
Magnitude (a.u.)       :      2.01179
Magnitude (Debye)      :      5.11355

Rotational constants in cm-1:     0.012614     0.009182     0.006808
Rotational constants in MHz :   378.143637   275.255682   204.104016

                             ****ORCA TERMINATED NORMALLY****
TOTAL RUN TIME: 0 days 1 hours 50 minutes 4 seconds 761 msec
