                         Program Version 5.0.0 -  RELEASE  -
|  1> ! ri-mp2 cc-pvtz cc-pvtz/c TightSCF NoKeepInts
|  2>
|  3> %scf
|  4>   MaxCore 4096
|  5> end
|  6> *xyz  0  1
|  7>     C       15.1163411   15.5124518   17.5157820
|  8>     C       15.5406319   15.3634029   16.0399941
|  9>     O       16.9467211   15.0572385   15.8705048
| 10>     C       18.0643237   15.5858411   16.4788869
| 11>     O       19.0870309   14.9257037   16.4941332
| 12>     C       17.9267094   16.7760469   17.3758197
| 13>     C       17.4034401   17.9555004   16.9614578
| 14>     C       16.9024711   18.3074003   15.5774683
| 15>     N       17.4078123   19.0595550   17.8170972
| 16>     C       18.0604693   19.1115184   19.0203953
| 17>     S       18.0965391   20.4915845   19.9303709
| 18>     N       18.6876633   17.9612264   19.4290842
| 19>     C       18.5919026   16.6525308   18.7519112
| 20>     C       17.8873010   15.6205022   19.6301630
| 21>     C       18.3237178   14.2825928   19.6281552
| 22>     C       17.6805287   13.3158462   20.4185559
| 23>     C       16.5895852   13.6878915   21.2217405
| 24>     C       16.1502681   15.0182825   21.2283020
| 25>     O       15.0903773   15.3790355   21.9944670
| 26>     C       16.7921662   15.9789532   20.4402621
| 27>     H       15.5755399   14.7279936   18.1302828
| 28>     H       14.0285591   15.4029993   17.6029384
| 29>     H       15.3704622   16.4916115   17.9321959
| 30>     H       14.9664696   14.5379344   15.5992522
| 31>     H       15.2633430   16.2644474   15.4841385
| 32>     H       17.1424323   17.5343671   14.8375049
| 33>     H       17.3727904   19.2319568   15.2183812
| 34>     H       15.8172218   18.4647079   15.5761321
| 35>     H       16.9736921   19.9209297   17.5246772
| 36>     H       19.1517175   18.0233849   20.3265544
| 37>     H       19.6199614   16.2964958   18.5881718
| 38>     H       19.1613695   13.9875729   18.9993294
| 39>     H       18.0270716   12.2838580   20.4021629
| 40>     H       16.0886648   12.9435026   21.8317969
| 41>     H       14.8149367   14.5968775   22.4960486
| 42>     H       16.4267678   17.0002560   20.4598814
| 43> *
| 44>
| 45>                          ****END OF INPUT****

CARTESIAN COORDINATES (ANGSTROEM)
---------------------------------
  C     15.116341   15.512452   17.515782
  C     15.540632   15.363403   16.039994
  O     16.946721   15.057238   15.870505
  C     18.064324   15.585841   16.478887
  O     19.087031   14.925704   16.494133
  C     17.926709   16.776047   17.375820
  C     17.403440   17.955500   16.961458
  C     16.902471   18.307400   15.577468
  N     17.407812   19.059555   17.817097
  C     18.060469   19.111518   19.020395
  S     18.096539   20.491584   19.930371
  N     18.687663   17.961226   19.429084
  C     18.591903   16.652531   18.751911
  C     17.887301   15.620502   19.630163
  C     18.323718   14.282593   19.628155
  C     17.680529   13.315846   20.418556
  C     16.589585   13.687891   21.221740
  C     16.150268   15.018282   21.228302
  O     15.090377   15.379035   21.994467
  C     16.792166   15.978953   20.440262
  H     15.575540   14.727994   18.130283
  H     14.028559   15.402999   17.602938
  H     15.370462   16.491612   17.932196
  H     14.966470   14.537934   15.599252
  H     15.263343   16.264447   15.484139
  H     17.142432   17.534367   14.837505
  H     17.372790   19.231957   15.218381
  H     15.817222   18.464708   15.576132
  H     16.973692   19.920930   17.524677
  H     19.151718   18.023385   20.326554
  H     19.619961   16.296496   18.588172
  H     19.161369   13.987573   18.999329
  H     18.027072   12.283858   20.402163
  H     16.088665   12.943503   21.831797
  H     14.814937   14.596877   22.496049
  H     16.426768   17.000256   20.459881

 Total Charge           Charge          ....    0
 Multiplicity           Mult            ....    1
 Number of Electrons    NEL             ....  154
 Basis Dimension        Dim             ....  828

ORBITAL ENERGIES
----------------

  NO   OCC          E(Eh)            E(eV)
   0   2.0000     -91.890913     -2500.4789
   1   2.0000     -20.598408      -560.5112
   2   2.0000     -20.597551      -560.4879
   3   2.0000     -20.547359      -559.1221
   4   2.0000     -15.629083      -425.2890
   5   2.0000     -15.611296      -424.8050
   6   2.0000     -11.400752      -310.2302
   7   2.0000     -11.387165      -309.8605
   8   2.0000     -11.333058      -308.3882
   9   2.0000     -11.314088      -307.8720
  10   2.0000     -11.313503      -307.8561
  11   2.0000     -11.310584      -307.7766
  12   2.0000     -11.270652      -306.6900
  13   2.0000     -11.267370      -306.6007
  14   2.0000     -11.261387      -306.4379
  15   2.0000     -11.254595      -306.2531
  16   2.0000     -11.243942      -305.9632
  17   2.0000     -11.239309      -305.8371
  18   2.0000     -11.236167      -305.7517
  19   2.0000     -11.231137      -305.6148
  20   2.0000      -8.896010      -242.0727
  21   2.0000      -6.577597      -178.9855
  22   2.0000      -6.575572      -178.9304
  23   2.0000      -6.574994      -178.9147
  24   2.0000      -1.443286       -39.2738
  25   2.0000      -1.417369       -38.5686
  26   2.0000      -1.355782       -36.8927
  27   2.0000      -1.342161       -36.5221
  28   2.0000      -1.240919       -33.7671
  29   2.0000      -1.158995       -31.5379
  30   2.0000      -1.125324       -30.6216
  31   2.0000      -1.047707       -28.5096
  32   2.0000      -1.039199       -28.2780
  33   2.0000      -1.017185       -27.6790
  34   2.0000      -1.006131       -27.3782
  35   2.0000      -0.990378       -26.9496
  36   2.0000      -0.928243       -25.2588
  37   2.0000      -0.898678       -24.4543
  38   2.0000      -0.855353       -23.2753
  39   2.0000      -0.841027       -22.8855
  40   2.0000      -0.834483       -22.7074
  41   2.0000      -0.828778       -22.5522
  42   2.0000      -0.745719       -20.2920
  43   2.0000      -0.738557       -20.0972
  44   2.0000      -0.730552       -19.8793
  45   2.0000      -0.695308       -18.9203
  46   2.0000      -0.687097       -18.6969
  47   2.0000      -0.679258       -18.4835
  48   2.0000      -0.674892       -18.3647
  49   2.0000      -0.661548       -18.0016
  50   2.0000      -0.654563       -17.8116
  51   2.0000      -0.651903       -17.7392
  52   2.0000      -0.640524       -17.4296
  53   2.0000      -0.618208       -16.8223
  54   2.0000      -0.610040       -16.6000
  55   2.0000      -0.605783       -16.4842
  56   2.0000      -0.602066       -16.3831
  57   2.0000      -0.590157       -16.0590
  58   2.0000      -0.577612       -15.7176
  59   2.0000      -0.570514       -15.5245
  60   2.0000      -0.565771       -15.3954
  61   2.0000      -0.555539       -15.1170
  62   2.0000      -0.541560       -14.7366
  63   2.0000      -0.531281       -14.4569
  64   2.0000      -0.521211       -14.1829
  65   2.0000      -0.513332       -13.9685
  66   2.0000      -0.501280       -13.6405
  67   2.0000      -0.499611       -13.5951
  68   2.0000      -0.482952       -13.1418
  69   2.0000      -0.467093       -12.7102
  70   2.0000      -0.454989       -12.3809
  71   2.0000      -0.449708       -12.2372
  72   2.0000      -0.357485        -9.7277
  73   2.0000      -0.348547        -9.4844
  74   2.0000      -0.330439        -8.9917
  75   2.0000      -0.323026        -8.7900
  76   2.0000      -0.319267        -8.6877
  77   0.0000       0.081164         2.2086
  78   0.0000       0.107765         2.9324
  79   0.0000       0.113616         3.0917
  80   0.0000       0.130921         3.5625
  81   0.0000       0.131091         3.5672

MULLIKEN ATOMIC CHARGES
-----------------------
   0 C :   -0.334841
   1 C :    0.028450
   2 O :   -0.327332
   3 C :    0.425798
   4 O :   -0.387039
   5 C :   -0.215185
   6 C :    0.152010
   7 C :   -0.338363
   8 N :   -0.136377
   9 C :    0.199759
  10 S :   -0.439222
  11 N :   -0.221042
  12 C :    0.080225
  13 C :    0.020932
  14 C :   -0.209822
  15 C :   -0.135086
  16 C :   -0.278151
  17 C :    0.318031
  18 O :   -0.358478
  19 C :   -0.271200
  20 H :    0.129577
  21 H :    0.117459
  22 H :    0.109743
  23 H :    0.133460
  24 H :    0.086202
  25 H :    0.132479
  26 H :    0.139974
  27 H :    0.121329
  28 H :    0.197212
  29 H :    0.201199
  30 H :    0.167276
  31 H :    0.176406
  32 H :    0.163845
  33 H :    0.131955
  34 H :    0.241061
  35 H :    0.177757
Sum of atomic charges:    0.0000000

LOEWDIN ATOMIC CHARGES
----------------------
   0 C :    0.103449
   1 C :   -0.017282
   2 O :    0.294761
   3 C :   -0.414326
   4 O :    0.120961
   5 C :   -0.080088
   6 C :   -0.094888
   7 C :    0.123339
   8 N :    0.402853
   9 C :   -0.458702
  10 S :   -0.036514
  11 N :    0.398383
  12 C :   -0.042777
  13 C :   -0.043072
  14 C :    0.019912
  15 C :    0.043031
  16 C :   -0.001719
  17 C :   -0.193839
  18 O :    0.395216
  19 C :    0.028951
  20 H :   -0.018603
  21 H :   -0.023774
  22 H :   -0.036258
  23 H :   -0.017455
  24 H :   -0.039880
  25 H :   -0.007555
  26 H :   -0.008915
  27 H :   -0.018338
  28 H :   -0.057241
  29 H :   -0.063151
  30 H :   -0.001667
  31 H :   -0.021860
  32 H :   -0.018687
  33 H :   -0.034989
  34 H :   -0.153586
  35 H :   -0.025691

  Mayer bond orders larger than 0.100000
B(  0-C ,  1-C ) :   0.9550 B(  0-C , 20-H ) :   0.9676 B(  0-C , 21-H ) :   0.9767
B(  0-C , 22-H ) :   0.9725 B(  1-C ,  2-O ) :   0.9058 B(  1-C , 23-H ) :   0.9811
B(  1-C , 24-H ) :   0.9733 B(  2-O ,  3-C ) :   1.1852 B(  3-C ,  4-O ) :   2.0752
B(  3-C ,  5-C ) :   0.9282 B(  5-C ,  6-C ) :   1.6899 B(  5-C , 12-C ) :   0.9550
B(  6-C ,  7-C ) :   0.9452 B(  6-C ,  8-N ) :   1.1077 B(  7-C , 25-H ) :   0.9794
B(  7-C , 26-H ) :   0.9710 B(  7-C , 27-H ) :   0.9653 B(  8-N ,  9-C ) :   1.1927
B(  8-N , 28-H ) :   0.9520 B(  9-C , 10-S ) :   1.6113 B(  9-C , 11-N ) :   1.2897
B( 11-N , 12-C ) :   0.9893 B( 11-N , 29-H ) :   0.9487 B( 12-C , 13-C ) :   0.9482
B( 12-C , 30-H ) :   0.9955 B( 13-C , 14-C ) :   1.3914 B( 13-C , 19-C ) :   1.3402
B( 14-C , 15-C ) :   1.3995 B( 14-C , 31-H ) :   0.9574 B( 15-C , 16-C ) :   1.3591
B( 15-C , 32-H ) :   0.9703 B( 16-C , 17-C ) :   1.3302 B( 16-C , 33-H ) :   0.9849
B( 17-C , 18-O ) :   1.1101 B( 17-C , 19-C ) :   1.3709 B( 18-O , 34-H ) :   0.9797
B( 19-C , 35-H ) :   0.9567

MP2 TOTAL ENERGY:    -1274.328864727 Eh
FINAL SINGLE POINT ENERGY     -1274.328864726943

DIPOLE MOMENT
-------------
                                X             Y             Z
Electronic contribution:      9.22667       5.99746       6.24611
Nuclear contribution   :    -10.80459      -6.96629      -6.87367
                        -----------------------------------------
Total Dipole Moment    :     -1.57792      -0.96883      -0.62756
                        -----------------------------------------
Magnitude (a.u.)       :      1.95507
Magnitude (Debye)      :      4.96938

Rotational constants in cm-1:     0.011704     0.009645     0.006818
Rotational constants in MHz :   350.891284   289.148394   204.405384

                             ****ORCA TERMINATED NORMALLY****
TOTAL RUN TIME: 0 days 2 hours 30 minutes 53 seconds 504 msec
