                         Program Version 4.2.0 -  RELEASE  -
|  1> ! ri-mp2 cc-pvtz cc-pvtz/c TightSCF  NoKeepInts
|  2>
|  3> %scf
|  4>   MaxCore 4096
|  5> end
|  6> *xyz  0  1
|  7>     C       14.2471097   15.6951071   16.2534502
|  8>     C       15.4586083   15.3217543   17.1268950
|  9>     O       16.6040347   15.1476773   16.2644597
| 10>     C       17.8499601   15.6686025   16.5162631
| 11>     O       18.8396556   14.9985189   16.2863902
| 12>     C       17.9229428   16.8547067   17.4219692
| 13>     C       17.3273395   18.0369030   17.1433886
| 14>     C       16.5588044   18.4009582   15.8938570
| 15>     N       17.4764669   19.1141096   18.0195725
| 16>     C       18.2762793   19.1094472   19.1328785
| 17>     S       18.4389991   20.4474625   20.0904964
| 18>     N       18.9320144   17.9364245   19.4167579
| 19>     C       18.7701605   16.6675173   18.6792703
| 20>     C       18.1659937   15.5810516   19.5636880
| 21>     C       18.6881550   14.2751129   19.5342892
| 22>     C       18.1188936   13.2581968   20.3185734
| 23>     C       17.0143684   13.5473504   21.1376356
| 24>     C       16.4864292   14.8449662   21.1645338
| 25>     O       15.4101946   15.1246291   21.9415264
| 26>     C       17.0546429   15.8554838   20.3824410
| 27>     H       13.3564644   15.8400924   16.8770589
| 28>     H       14.0327270   14.8906065   15.5386368
| 29>     H       14.4203041   16.6140708   15.6861124
| 30>     H       15.6065302   16.1051238   17.8786996
| 31>     H       15.2593165   14.3846565   17.6635241
| 32>     H       16.5568969   17.5919227   15.1535280
| 33>     H       17.0091422   19.2731898   15.4030339
| 34>     H       15.5172994   18.6496994   16.1300250
| 35>     H       17.0173519   19.9891401   17.8200946
| 36>     H       19.4990664   17.9565616   20.2551142
| 37>     H       19.7698508   16.3355117   18.3616896
| 38>     H       19.5299126   14.0433885   18.8848038
| 39>     H       18.5302552   12.2507089   20.2826281
| 40>     H       16.5698948   12.7633505   21.7419681
| 41>     H       15.2037871   14.3259314   22.4507033
| 42>     H       16.6271476   16.8520655   20.4180437
| 43> *
| 44>
| 45>                          ****END OF INPUT****

CARTESIAN COORDINATES (ANGSTROEM)
---------------------------------
  C     14.247110   15.695107   16.253450
  C     15.458608   15.321754   17.126895
  O     16.604035   15.147677   16.264460
  C     17.849960   15.668602   16.516263
  O     18.839656   14.998519   16.286390
  C     17.922943   16.854707   17.421969
  C     17.327340   18.036903   17.143389
  C     16.558804   18.400958   15.893857
  N     17.476467   19.114110   18.019572
  C     18.276279   19.109447   19.132879
  S     18.438999   20.447463   20.090496
  N     18.932014   17.936424   19.416758
  C     18.770160   16.667517   18.679270
  C     18.165994   15.581052   19.563688
  C     18.688155   14.275113   19.534289
  C     18.118894   13.258197   20.318573
  C     17.014368   13.547350   21.137636
  C     16.486429   14.844966   21.164534
  O     15.410195   15.124629   21.941526
  C     17.054643   15.855484   20.382441
  H     13.356464   15.840092   16.877059
  H     14.032727   14.890607   15.538637
  H     14.420304   16.614071   15.686112
  H     15.606530   16.105124   17.878700
  H     15.259316   14.384657   17.663524
  H     16.556897   17.591923   15.153528
  H     17.009142   19.273190   15.403034
  H     15.517299   18.649699   16.130025
  H     17.017352   19.989140   17.820095
  H     19.499066   17.956562   20.255114
  H     19.769851   16.335512   18.361690
  H     19.529913   14.043388   18.884804
  H     18.530255   12.250709   20.282628
  H     16.569895   12.763350   21.741968
  H     15.203787   14.325931   22.450703
  H     16.627148   16.852065   20.418044

 Total Charge           Charge          ....    0
 Multiplicity           Mult            ....    1
 Number of Electrons    NEL             ....  154
 Basis Dimension        Dim             ....  828

ORBITAL ENERGIES
----------------

  NO   OCC          E(Eh)            E(eV)
   0   2.0000     -91.890612     -2500.4707
   1   2.0000     -20.600342      -560.5638
   2   2.0000     -20.597786      -560.4943
   3   2.0000     -20.550860      -559.2173
   4   2.0000     -15.627961      -425.2584
   5   2.0000     -15.611932      -424.8223
   6   2.0000     -11.397899      -310.1526
   7   2.0000     -11.387324      -309.8648
   8   2.0000     -11.330801      -308.3268
   9   2.0000     -11.317079      -307.9534
  10   2.0000     -11.314523      -307.8838
  11   2.0000     -11.303316      -307.5789
  12   2.0000     -11.267934      -306.6161
  13   2.0000     -11.265051      -306.5376
  14   2.0000     -11.263597      -306.4981
  15   2.0000     -11.256994      -306.3184
  16   2.0000     -11.246479      -306.0323
  17   2.0000     -11.242691      -305.9292
  18   2.0000     -11.239574      -305.8444
  19   2.0000     -11.235223      -305.7260
  20   2.0000      -8.895720      -242.0648
  21   2.0000      -6.577305      -178.9776
  22   2.0000      -6.575282      -178.9225
  23   2.0000      -6.574704      -178.9068
  24   2.0000      -1.446685       -39.3663
  25   2.0000      -1.420146       -38.6441
  26   2.0000      -1.358569       -36.9685
  27   2.0000      -1.341205       -36.4961
  28   2.0000      -1.240661       -33.7601
  29   2.0000      -1.161817       -31.6146
  30   2.0000      -1.126144       -30.6439
  31   2.0000      -1.049290       -28.5526
  32   2.0000      -1.040465       -28.3125
  33   2.0000      -1.019181       -27.7333
  34   2.0000      -1.005602       -27.3638
  35   2.0000      -0.990042       -26.9404
  36   2.0000      -0.928127       -25.2556
  37   2.0000      -0.886134       -24.1129
  38   2.0000      -0.854170       -23.2431
  39   2.0000      -0.842731       -22.9319
  40   2.0000      -0.837349       -22.7854
  41   2.0000      -0.836502       -22.7624
  42   2.0000      -0.757373       -20.6092
  43   2.0000      -0.738743       -20.1022
  44   2.0000      -0.732498       -19.9323
  45   2.0000      -0.698130       -18.9971
  46   2.0000      -0.688494       -18.7349
  47   2.0000      -0.681275       -18.5384
  48   2.0000      -0.677057       -18.4237
  49   2.0000      -0.665032       -18.0964
  50   2.0000      -0.653560       -17.7843
  51   2.0000      -0.640659       -17.4332
  52   2.0000      -0.637859       -17.3570
  53   2.0000      -0.617929       -16.8147
  54   2.0000      -0.609367       -16.5817
  55   2.0000      -0.608113       -16.5476
  56   2.0000      -0.603921       -16.4335
  57   2.0000      -0.587611       -15.9897
  58   2.0000      -0.578617       -15.7450
  59   2.0000      -0.570373       -15.5206
  60   2.0000      -0.564941       -15.3728
  61   2.0000      -0.558865       -15.2075
  62   2.0000      -0.540587       -14.7101
  63   2.0000      -0.534605       -14.5473
  64   2.0000      -0.523838       -14.2543
  65   2.0000      -0.516562       -14.0564
  66   2.0000      -0.502903       -13.6847
  67   2.0000      -0.498077       -13.5534
  68   2.0000      -0.489106       -13.3093
  69   2.0000      -0.470578       -12.8051
  70   2.0000      -0.456948       -12.4342
  71   2.0000      -0.448913       -12.2155
  72   2.0000      -0.357390        -9.7251
  73   2.0000      -0.352314        -9.5869
  74   2.0000      -0.330220        -8.9857
  75   2.0000      -0.324868        -8.8401
  76   2.0000      -0.319207        -8.6861
  77   0.0000       0.082401         2.2422
  78   0.0000       0.103933         2.8282
  79   0.0000       0.115408         3.1404
  80   0.0000       0.128533         3.4976
  81   0.0000       0.131184         3.5697

MULLIKEN ATOMIC CHARGES
-----------------------
   0 C :   -0.271426
   1 C :    0.015302
   2 O :   -0.328798
   3 C :    0.410220
   4 O :   -0.380400
   5 C :   -0.197939
   6 C :    0.145057
   7 C :   -0.339749
   8 N :   -0.135279
   9 C :    0.201439
  10 S :   -0.439909
  11 N :   -0.212089
  12 C :    0.072879
  13 C :    0.030176
  14 C :   -0.192620
  15 C :   -0.130098
  16 C :   -0.277646
  17 C :    0.318079
  18 O :   -0.357389
  19 C :   -0.292002
  20 H :    0.096112
  21 H :    0.109928
  22 H :    0.090023
  23 H :    0.098534
  24 H :    0.127567
  25 H :    0.129341
  26 H :    0.146642
  27 H :    0.121082
  28 H :    0.196889
  29 H :    0.198104
  30 H :    0.163701
  31 H :    0.167774
  32 H :    0.163885
  33 H :    0.132559
  34 H :    0.241905
  35 H :    0.178147
Sum of atomic charges:   -0.0000000

LOEWDIN ATOMIC CHARGES
----------------------
   0 C :    0.106663
   1 C :   -0.014873
   2 O :    0.300136
   3 C :   -0.415359
   4 O :    0.126133
   5 C :   -0.084379
   6 C :   -0.098729
   7 C :    0.125055
   8 N :    0.402209
   9 C :   -0.456520
  10 S :   -0.036875
  11 N :    0.397243
  12 C :   -0.044917
  13 C :   -0.044127
  14 C :    0.022636
  15 C :    0.045446
  16 C :   -0.000193
  17 C :   -0.194234
  18 O :    0.394367
  19 C :    0.027388
  20 H :   -0.024122
  21 H :   -0.023900
  22 H :   -0.034033
  23 H :   -0.040263
  24 H :   -0.023488
  25 H :   -0.009172
  26 H :   -0.009250
  27 H :   -0.017115
  28 H :   -0.057227
  29 H :   -0.063533
  30 H :   -0.002504
  31 H :   -0.021766
  32 H :   -0.018415
  33 H :   -0.034535
  34 H :   -0.152800
  35 H :   -0.024947

  Mayer bond orders larger than 0.100000
B(  0-C ,  1-C ) :   0.9731 B(  0-C , 20-H ) :   0.9757 B(  0-C , 21-H ) :   0.9797
B(  0-C , 22-H ) :   0.9784 B(  1-C ,  2-O ) :   0.8996 B(  1-C , 23-H ) :   0.9603
B(  1-C , 24-H ) :   0.9801 B(  2-O ,  3-C ) :   1.1780 B(  3-C ,  4-O ) :   2.0954
B(  3-C ,  5-C ) :   0.9290 B(  5-C ,  6-C ) :   1.6832 B(  5-C , 12-C ) :   0.9584
B(  6-C ,  7-C ) :   0.9441 B(  6-C ,  8-N ) :   1.1186 B(  7-C , 25-H ) :   0.9798
B(  7-C , 26-H ) :   0.9689 B(  7-C , 27-H ) :   0.9663 B(  8-N ,  9-C ) :   1.1933
B(  8-N , 28-H ) :   0.9518 B(  9-C , 10-S ) :   1.6131 B(  9-C , 11-N ) :   1.2890
B( 11-N , 12-C ) :   0.9983 B( 11-N , 29-H ) :   0.9494 B( 12-C , 13-C ) :   0.9406
B( 12-C , 30-H ) :   0.9977 B( 13-C , 14-C ) :   1.3877 B( 13-C , 19-C ) :   1.3439
B( 14-C , 15-C ) :   1.3964 B( 14-C , 31-H ) :   0.9607 B( 15-C , 16-C ) :   1.3641
B( 15-C , 32-H ) :   0.9699 B( 16-C , 17-C ) :   1.3285 B( 16-C , 33-H ) :   0.9843
B( 17-C , 18-O ) :   1.1114 B( 17-C , 19-C ) :   1.3693 B( 18-O , 34-H ) :   0.9791
B( 19-C , 35-H ) :   0.9562

MP2 TOTAL ENERGY:    -1274.332405726 Eh
FINAL SINGLE POINT ENERGY     -1274.332405726343

DIPOLE MOMENT
-------------
                                X             Y             Z
Electronic contribution:     11.59971       5.63337       7.55279
Nuclear contribution   :    -13.09454      -6.66872      -7.78486
                        -----------------------------------------
Total Dipole Moment    :     -1.49484      -1.03534      -0.23207
                        -----------------------------------------
Magnitude (a.u.)       :      1.83312
Magnitude (Debye)      :      4.65942

Rotational constants in cm-1:     0.011374     0.009276     0.006864
Rotational constants in MHz :   340.983629   278.072991   205.786944

                             ****ORCA TERMINATED NORMALLY****
TOTAL RUN TIME: 0 days 1 hours 45 minutes 31 seconds 280 msec
