                         Program Version 4.2.0 -  RELEASE  -
|  1> ! ri-mp2 cc-pvtz cc-pvtz/c TightSCF  NoKeepInts
|  2>
|  3> %scf
|  4>   MaxCore 4096
|  5> end
|  6> *xyz  0  1
|  7>     C       14.2708739   14.8387930   16.4832697
|  8>     C       15.4343457   15.5993489   17.1393617
|  9>     O       16.6451487   15.1461429   16.5062232
| 10>     C       17.8060968   15.8729635   16.4254644
| 11>     O       18.8132323   15.3224943   16.0219300
| 12>     C       17.9203252   16.9888351   17.4084403
| 13>     C       17.4018494   18.2135284   17.1662179
| 14>     C       16.6519441   18.6523197   15.9266103
| 15>     N       17.6024949   19.2470343   18.0832763
| 16>     C       18.3907127   19.1528988   19.2013257
| 17>     S       18.6207661   20.4416958   20.2112116
| 18>     N       18.9767480   17.9340369   19.4444106
| 19>     C       18.7504665   16.7038190   18.6585205
| 20>     C       18.1051098   15.6063893   19.4992322
| 21>     C       18.5043442   14.2679596   19.3303297
| 22>     C       17.9010787   13.2407038   20.0745111
| 23>     C       16.8867583   13.5526044   20.9954093
| 24>     C       16.4812978   14.8833310   21.1626160
| 25>     O       15.4912866   15.1863675   22.0391384
| 26>     C       17.0824444   15.9044749   20.4196855
| 27>     H       13.3141222   15.1366493   16.9291358
| 28>     H       14.3923280   13.7570687   16.6225884
| 29>     H       14.2297352   15.0452968   15.4065287
| 30>     H       15.2667716   16.6696670   16.9863979
| 31>     H       15.4654611   15.3961746   18.2175255
| 32>     H       16.5449791   17.8452979   15.1914076
| 33>     H       17.1831155   19.4709082   15.4239438
| 34>     H       15.6449336   19.0077776   16.1779618
| 35>     H       17.1979578   20.1546995   17.9135831
| 36>     H       19.5390166   17.8908490   20.2851275
| 37>     H       19.7329343   16.3383820   18.3241902
| 38>     H       19.2756040   14.0211934   18.6033406
| 39>     H       18.2161915   12.2086776   19.9293848
| 40>     H       16.4161151   12.7611568   21.5693722
| 41>     H       15.2441152   14.3663967   22.4932159
| 42>     H       16.7462949   16.9260638   20.5631119
| 43> *
| 44>
| 45>                          ****END OF INPUT****

CARTESIAN COORDINATES (ANGSTROEM)
---------------------------------
  C     14.270874   14.838793   16.483270
  C     15.434346   15.599349   17.139362
  O     16.645149   15.146143   16.506223
  C     17.806097   15.872963   16.425464
  O     18.813232   15.322494   16.021930
  C     17.920325   16.988835   17.408440
  C     17.401849   18.213528   17.166218
  C     16.651944   18.652320   15.926610
  N     17.602495   19.247034   18.083276
  C     18.390713   19.152899   19.201326
  S     18.620766   20.441696   20.211212
  N     18.976748   17.934037   19.444411
  C     18.750467   16.703819   18.658521
  C     18.105110   15.606389   19.499232
  C     18.504344   14.267960   19.330330
  C     17.901079   13.240704   20.074511
  C     16.886758   13.552604   20.995409
  C     16.481298   14.883331   21.162616
  O     15.491287   15.186367   22.039138
  C     17.082444   15.904475   20.419685
  H     13.314122   15.136649   16.929136
  H     14.392328   13.757069   16.622588
  H     14.229735   15.045297   15.406529
  H     15.266772   16.669667   16.986398
  H     15.465461   15.396175   18.217526
  H     16.544979   17.845298   15.191408
  H     17.183115   19.470908   15.423944
  H     15.644934   19.007778   16.177962
  H     17.197958   20.154699   17.913583
  H     19.539017   17.890849   20.285128
  H     19.732934   16.338382   18.324190
  H     19.275604   14.021193   18.603341
  H     18.216192   12.208678   19.929385
  H     16.416115   12.761157   21.569372
  H     15.244115   14.366397   22.493216
  H     16.746295   16.926064   20.563112

 Total Charge           Charge          ....    0
 Multiplicity           Mult            ....    1
 Number of Electrons    NEL             ....  154
 Basis Dimension        Dim             ....  828

ORBITAL ENERGIES
----------------

  NO   OCC          E(Eh)            E(eV)
   0   2.0000     -91.889246     -2500.4335
   1   2.0000     -20.601931      -560.6070
   2   2.0000     -20.600037      -560.5555
   3   2.0000     -20.552513      -559.2623
   4   2.0000     -15.625083      -425.1801
   5   2.0000     -15.611715      -424.8164
   6   2.0000     -11.397777      -310.1493
   7   2.0000     -11.386292      -309.8368
   8   2.0000     -11.325894      -308.1932
   9   2.0000     -11.316914      -307.9489
  10   2.0000     -11.316668      -307.9422
  11   2.0000     -11.301908      -307.5406
  12   2.0000     -11.271035      -306.7004
  13   2.0000     -11.264995      -306.5361
  14   2.0000     -11.264159      -306.5134
  15   2.0000     -11.257175      -306.3233
  16   2.0000     -11.246317      -306.0278
  17   2.0000     -11.242195      -305.9157
  18   2.0000     -11.239584      -305.8446
  19   2.0000     -11.232987      -305.6651
  20   2.0000      -8.894375      -242.0283
  21   2.0000      -6.575968      -178.9412
  22   2.0000      -6.573937      -178.8859
  23   2.0000      -6.573367      -178.8704
  24   2.0000      -1.450660       -39.4745
  25   2.0000      -1.419882       -38.6370
  26   2.0000      -1.360814       -37.0296
  27   2.0000      -1.339096       -36.4387
  28   2.0000      -1.239446       -33.7270
  29   2.0000      -1.161569       -31.6079
  30   2.0000      -1.125754       -30.6333
  31   2.0000      -1.049518       -28.5588
  32   2.0000      -1.040632       -28.3170
  33   2.0000      -1.019332       -27.7374
  34   2.0000      -1.005393       -27.3581
  35   2.0000      -0.989132       -26.9156
  36   2.0000      -0.928154       -25.2564
  37   2.0000      -0.881871       -23.9969
  38   2.0000      -0.855227       -23.2719
  39   2.0000      -0.841710       -22.9041
  40   2.0000      -0.837510       -22.7898
  41   2.0000      -0.836800       -22.7705
  42   2.0000      -0.757451       -20.6113
  43   2.0000      -0.738807       -20.1039
  44   2.0000      -0.732326       -19.9276
  45   2.0000      -0.697538       -18.9810
  46   2.0000      -0.688484       -18.7346
  47   2.0000      -0.680569       -18.5192
  48   2.0000      -0.678128       -18.4528
  49   2.0000      -0.666592       -18.1389
  50   2.0000      -0.653647       -17.7866
  51   2.0000      -0.651384       -17.7251
  52   2.0000      -0.639460       -17.4006
  53   2.0000      -0.612612       -16.6700
  54   2.0000      -0.608184       -16.5495
  55   2.0000      -0.603944       -16.4341
  56   2.0000      -0.595182       -16.1957
  57   2.0000      -0.585542       -15.9334
  58   2.0000      -0.577911       -15.7258
  59   2.0000      -0.571870       -15.5614
  60   2.0000      -0.564335       -15.3563
  61   2.0000      -0.560805       -15.2603
  62   2.0000      -0.550118       -14.9695
  63   2.0000      -0.527204       -14.3459
  64   2.0000      -0.521736       -14.1971
  65   2.0000      -0.514816       -14.0089
  66   2.0000      -0.506667       -13.7871
  67   2.0000      -0.502560       -13.6753
  68   2.0000      -0.487611       -13.2686
  69   2.0000      -0.469432       -12.7739
  70   2.0000      -0.453273       -12.3342
  71   2.0000      -0.450916       -12.2700
  72   2.0000      -0.356769        -9.7082
  73   2.0000      -0.351743        -9.5714
  74   2.0000      -0.329057        -8.9541
  75   2.0000      -0.324705        -8.8357
  76   2.0000      -0.317805        -8.6479
  77   0.0000       0.090631         2.4662
  78   0.0000       0.103978         2.8294
  79   0.0000       0.110094         2.9958
  80   0.0000       0.127617         3.4726
  81   0.0000       0.129662         3.5283

MULLIKEN ATOMIC CHARGES
-----------------------
   0 C :   -0.256043
   1 C :    0.016963
   2 O :   -0.303236
   3 C :    0.380794
   4 O :   -0.377233
   5 C :   -0.153941
   6 C :    0.118804
   7 C :   -0.323076
   8 N :   -0.136666
   9 C :    0.206940
  10 S :   -0.442858
  11 N :   -0.220428
  12 C :    0.066248
  13 C :    0.021627
  14 C :   -0.190513
  15 C :   -0.133895
  16 C :   -0.273659
  17 C :    0.321373
  18 O :   -0.359008
  19 C :   -0.281773
  20 H :    0.088693
  21 H :    0.106347
  22 H :    0.096078
  23 H :    0.084115
  24 H :    0.120091
  25 H :    0.118529
  26 H :    0.143669
  27 H :    0.118766
  28 H :    0.194756
  29 H :    0.200232
  30 H :    0.166290
  31 H :    0.165813
  32 H :    0.163784
  33 H :    0.132864
  34 H :    0.241538
  35 H :    0.178018
Sum of atomic charges:   -0.0000000

LOEWDIN ATOMIC CHARGES
----------------------
   0 C :    0.109721
   1 C :   -0.023481
   2 O :    0.314525
   3 C :   -0.419088
   4 O :    0.127794
   5 C :   -0.078680
   6 C :   -0.111135
   7 C :    0.122145
   8 N :    0.400419
   9 C :   -0.455177
  10 S :   -0.039313
  11 N :    0.397505
  12 C :   -0.042855
  13 C :   -0.042861
  14 C :    0.023772
  15 C :    0.046083
  16 C :   -0.000576
  17 C :   -0.194967
  18 O :    0.394983
  19 C :    0.026507
  20 H :   -0.025789
  21 H :   -0.023611
  22 H :   -0.027120
  23 H :   -0.038104
  24 H :   -0.028863
  25 H :   -0.009960
  26 H :   -0.008627
  27 H :   -0.017198
  28 H :   -0.058423
  29 H :   -0.063779
  30 H :   -0.002044
  31 H :   -0.021790
  32 H :   -0.018235
  33 H :   -0.034561
  34 H :   -0.152883
  35 H :   -0.024335

  Mayer bond orders larger than 0.100000
B(  0-C ,  1-C ) :   0.9843 B(  0-C , 20-H ) :   0.9769 B(  0-C , 21-H ) :   0.9794
B(  0-C , 22-H ) :   0.9780 B(  1-C ,  2-O ) :   0.9121 B(  1-C , 23-H ) :   0.9699
B(  1-C , 24-H ) :   0.9636 B(  2-O ,  3-C ) :   1.1674 B(  3-C ,  4-O ) :   2.0967
B(  3-C ,  5-C ) :   0.9176 B(  5-C ,  6-C ) :   1.7037 B(  5-C , 12-C ) :   0.9637
B(  6-C ,  7-C ) :   0.9434 B(  6-C ,  8-N ) :   1.1102 B(  7-C , 25-H ) :   0.9829
B(  7-C , 26-H ) :   0.9669 B(  7-C , 27-H ) :   0.9682 B(  8-N ,  9-C ) :   1.2001
B(  8-N , 28-H ) :   0.9533 B(  9-C , 10-S ) :   1.6082 B(  9-C , 11-N ) :   1.2854
B( 11-N , 12-C ) :   0.9927 B( 11-N , 29-H ) :   0.9476 B( 12-C , 13-C ) :   0.9438
B( 12-C , 30-H ) :   0.9978 B( 13-C , 14-C ) :   1.3862 B( 13-C , 19-C ) :   1.3447
B( 14-C , 15-C ) :   1.3978 B( 14-C , 31-H ) :   0.9628 B( 15-C , 16-C ) :   1.3624
B( 15-C , 32-H ) :   0.9699 B( 16-C , 17-C ) :   1.3298 B( 16-C , 33-H ) :   0.9843
B( 17-C , 18-O ) :   1.1079 B( 17-C , 19-C ) :   1.3637 B( 18-O , 34-H ) :   0.9791
B( 19-C , 35-H ) :   0.9587

MP2 TOTAL ENERGY:    -1274.327720928 Eh
FINAL SINGLE POINT ENERGY     -1274.327720927524

DIPOLE MOMENT
-------------
                                X             Y             Z
Electronic contribution:     11.81792       7.02209       7.41986
Nuclear contribution   :    -13.46687      -8.05663      -7.79887
                        -----------------------------------------
Total Dipole Moment    :     -1.64895      -1.03454      -0.37901
                        -----------------------------------------
Magnitude (a.u.)       :      1.98317
Magnitude (Debye)      :      5.04082

Rotational constants in cm-1:     0.011784     0.009104     0.006693
Rotational constants in MHz :   353.264916   272.924863   200.656902

                             ****ORCA TERMINATED NORMALLY****
TOTAL RUN TIME: 0 days 1 hours 54 minutes 25 seconds 732 msec
