                         Program Version 5.0.0 -  RELEASE  -
|  1> ! ri-mp2 cc-pvtz cc-pvtz/c TightSCF NoKeepInts
|  2>
|  3> %scf
|  4>   MaxCore 4096
|  5> end
|  6> *xyz  0  1
|  7>     C       14.3775637   14.6272326   15.7427850
|  8>     C       15.8149951   14.7582658   15.2112317
|  9>     O       16.4125396   15.8912541   15.8696596
| 10>     C       17.4627657   15.7250931   16.7267713
| 11>     O       18.0540438   14.6640328   16.8434051
| 12>     C       17.7669813   16.9153142   17.5939522
| 13>     C       17.2612051   18.1661982   17.4231445
| 14>     C       16.3027481   18.6547384   16.3559398
| 15>     N       17.6763507   19.2032271   18.2658253
| 16>     C       18.6877515   19.1109744   19.1848883
| 17>     S       19.2071047   20.4246522   20.0452496
| 18>     N       19.2469410   17.8702918   19.3536394
| 19>     C       18.7332314   16.6270567   18.7494500
| 20>     C       18.0737779   15.7507510   19.8115485
| 21>     C       18.4912456   14.4196896   19.9963805
| 22>     C       17.8864211   13.6074050   20.9701961
| 23>     C       16.8540592   14.1295522   21.7677866
| 24>     C       16.4325480   15.4534999   21.5847002
| 25>     O       15.4316613   15.9587987   22.3491133
| 26>     C       17.0362290   16.2594343   20.6143874
| 27>     H       14.3828816   14.4341933   16.8230765
| 28>     H       13.8594386   13.7960103   15.2492607
| 29>     H       13.8088313   15.5466685   15.5567343
| 30>     H       16.3666105   13.8253310   15.3892921
| 31>     H       15.7884192   14.9351328   14.1283567
| 32>     H       16.6833532   18.4199171   15.3541265
| 33>     H       16.1418925   19.7389235   16.3932440
| 34>     H       15.3224108   18.1747420   16.4674485
| 35>     H       17.2779542   20.1221239   18.1574480
| 36>     H       19.9689004   17.8205904   20.0608733
| 37>     H       19.5936129   16.0795842   18.3380589
| 38>     H       19.2775260   14.0079147   19.3683395
| 39>     H       18.2145159   12.5774875   21.0982103
| 40>     H       16.3828283   13.5050806   22.5193443
| 41>     H       15.1708692   15.2686783   22.9771595
| 42>     H       16.6967914   17.2821595   20.4929725
| 43> *
| 44>
| 45>                          ****END OF INPUT****

CARTESIAN COORDINATES (ANGSTROEM)
---------------------------------
  C     14.377564   14.627233   15.742785
  C     15.814995   14.758266   15.211232
  O     16.412540   15.891254   15.869660
  C     17.462766   15.725093   16.726771
  O     18.054044   14.664033   16.843405
  C     17.766981   16.915314   17.593952
  C     17.261205   18.166198   17.423144
  C     16.302748   18.654738   16.355940
  N     17.676351   19.203227   18.265825
  C     18.687752   19.110974   19.184888
  S     19.207105   20.424652   20.045250
  N     19.246941   17.870292   19.353639
  C     18.733231   16.627057   18.749450
  C     18.073778   15.750751   19.811549
  C     18.491246   14.419690   19.996381
  C     17.886421   13.607405   20.970196
  C     16.854059   14.129552   21.767787
  C     16.432548   15.453500   21.584700
  O     15.431661   15.958799   22.349113
  C     17.036229   16.259434   20.614387
  H     14.382882   14.434193   16.823076
  H     13.859439   13.796010   15.249261
  H     13.808831   15.546668   15.556734
  H     16.366611   13.825331   15.389292
  H     15.788419   14.935133   14.128357
  H     16.683353   18.419917   15.354126
  H     16.141893   19.738923   16.393244
  H     15.322411   18.174742   16.467448
  H     17.277954   20.122124   18.157448
  H     19.968900   17.820590   20.060873
  H     19.593613   16.079584   18.338059
  H     19.277526   14.007915   19.368340
  H     18.214516   12.577487   21.098210
  H     16.382828   13.505081   22.519344
  H     15.170869   15.268678   22.977159
  H     16.696791   17.282159   20.492973

 Total Charge           Charge          ....    0
 Multiplicity           Mult            ....    1
 Number of Electrons    NEL             ....  154
 Basis Dimension        Dim             ....  828

ORBITAL ENERGIES
----------------

  NO   OCC          E(Eh)            E(eV)
   0   2.0000     -91.888087     -2500.4020
   1   2.0000     -20.604505      -560.6771
   2   2.0000     -20.591217      -560.3155
   3   2.0000     -20.544467      -559.0434
   4   2.0000     -15.628642      -425.2770
   5   2.0000     -15.606544      -424.6756
   6   2.0000     -11.396640      -310.1183
   7   2.0000     -11.382832      -309.7426
   8   2.0000     -11.337184      -308.5005
   9   2.0000     -11.306974      -307.6784
  10   2.0000     -11.305027      -307.6254
  11   2.0000     -11.298782      -307.4555
  12   2.0000     -11.260855      -306.4234
  13   2.0000     -11.258992      -306.3728
  14   2.0000     -11.252868      -306.2061
  15   2.0000     -11.247036      -306.0474
  16   2.0000     -11.236728      -305.7669
  17   2.0000     -11.232913      -305.6631
  18   2.0000     -11.231986      -305.6379
  19   2.0000     -11.229748      -305.5770
  20   2.0000      -8.893146      -241.9948
  21   2.0000      -6.574723      -178.9073
  22   2.0000      -6.572717      -178.8527
  23   2.0000      -6.572131      -178.8368
  24   2.0000      -1.453644       -39.5557
  25   2.0000      -1.410955       -38.3940
  26   2.0000      -1.357331       -36.9348
  27   2.0000      -1.339501       -36.4497
  28   2.0000      -1.236959       -33.6594
  29   2.0000      -1.151624       -31.3373
  30   2.0000      -1.119237       -30.4560
  31   2.0000      -1.043840       -28.4043
  32   2.0000      -1.036350       -28.2005
  33   2.0000      -1.009000       -27.4563
  34   2.0000      -0.997565       -27.1451
  35   2.0000      -0.983058       -26.7504
  36   2.0000      -0.920924       -25.0596
  37   2.0000      -0.891739       -24.2654
  38   2.0000      -0.847312       -23.0565
  39   2.0000      -0.834666       -22.7124
  40   2.0000      -0.827275       -22.5113
  41   2.0000      -0.815693       -22.1961
  42   2.0000      -0.761054       -20.7093
  43   2.0000      -0.736196       -20.0329
  44   2.0000      -0.724390       -19.7117
  45   2.0000      -0.690811       -18.7979
  46   2.0000      -0.685174       -18.6445
  47   2.0000      -0.679164       -18.4810
  48   2.0000      -0.671918       -18.2838
  49   2.0000      -0.658155       -17.9093
  50   2.0000      -0.648356       -17.6427
  51   2.0000      -0.643989       -17.5238
  52   2.0000      -0.633206       -17.2304
  53   2.0000      -0.604168       -16.4402
  54   2.0000      -0.599769       -16.3205
  55   2.0000      -0.597283       -16.2529
  56   2.0000      -0.593968       -16.1627
  57   2.0000      -0.584151       -15.8956
  58   2.0000      -0.573357       -15.6018
  59   2.0000      -0.562111       -15.2958
  60   2.0000      -0.559728       -15.2310
  61   2.0000      -0.555323       -15.1111
  62   2.0000      -0.536062       -14.5870
  63   2.0000      -0.529819       -14.4171
  64   2.0000      -0.516797       -14.0628
  65   2.0000      -0.509477       -13.8636
  66   2.0000      -0.499205       -13.5841
  67   2.0000      -0.495219       -13.4756
  68   2.0000      -0.481066       -13.0905
  69   2.0000      -0.464024       -12.6267
  70   2.0000      -0.456966       -12.4347
  71   2.0000      -0.454570       -12.3695
  72   2.0000      -0.354434        -9.6446
  73   2.0000      -0.343569        -9.3490
  74   2.0000      -0.327169        -8.9027
  75   2.0000      -0.315559        -8.5868
  76   2.0000      -0.313219        -8.5231
  77   0.0000       0.075860         2.0642
  78   0.0000       0.113873         3.0986
  79   0.0000       0.120491         3.2787
  80   0.0000       0.136444         3.7128
  81   0.0000       0.140181         3.8145

MULLIKEN ATOMIC CHARGES
-----------------------
   0 C :   -0.271272
   1 C :    0.012877
   2 O :   -0.342668
   3 C :    0.456536
   4 O :   -0.433276
   5 C :   -0.182943
   6 C :    0.143591
   7 C :   -0.284607
   8 N :   -0.121042
   9 C :    0.201144
  10 S :   -0.438917
  11 N :   -0.196488
  12 C :    0.034119
  13 C :    0.058653
  14 C :   -0.159612
  15 C :   -0.134163
  16 C :   -0.279063
  17 C :    0.311368
  18 O :   -0.359275
  19 C :   -0.273542
  20 H :    0.102794
  21 H :    0.096510
  22 H :    0.089739
  23 H :    0.124683
  24 H :    0.099729
  25 H :    0.127429
  26 H :    0.102349
  27 H :    0.127436
  28 H :    0.196715
  29 H :    0.193493
  30 H :    0.153628
  31 H :    0.152982
  32 H :    0.158837
  33 H :    0.127875
  34 H :    0.240023
  35 H :    0.164356
Sum of atomic charges:   -0.0000000

LOEWDIN ATOMIC CHARGES
----------------------
   0 C :    0.103964
   1 C :   -0.012258
   2 O :    0.308849
   3 C :   -0.415021
   4 O :    0.101243
   5 C :   -0.091284
   6 C :   -0.064333
   7 C :    0.124795
   8 N :    0.404978
   9 C :   -0.459148
  10 S :   -0.035716
  11 N :    0.398055
  12 C :   -0.046747
  13 C :   -0.038690
  14 C :    0.022472
  15 C :    0.040871
  16 C :   -0.002456
  17 C :   -0.192792
  18 O :    0.392880
  19 C :    0.028137
  20 H :   -0.024519
  21 H :   -0.025119
  22 H :   -0.030210
  23 H :   -0.026977
  24 H :   -0.029944
  25 H :   -0.008281
  26 H :   -0.021266
  27 H :   -0.010166
  28 H :   -0.059262
  29 H :   -0.063583
  30 H :   -0.005112
  31 H :   -0.025313
  32 H :   -0.021305
  33 H :   -0.036482
  34 H :   -0.154972
  35 H :   -0.025287

  Mayer bond orders larger than 0.100000
B(  0-C ,  1-C ) :   0.9712 B(  0-C , 20-H ) :   0.9768 B(  0-C , 21-H ) :   0.9763
B(  0-C , 22-H ) :   0.9795 B(  1-C ,  2-O ) :   0.8847 B(  1-C , 23-H ) :   0.9728
B(  1-C , 24-H ) :   0.9833 B(  2-O ,  3-C ) :   1.1726 B(  3-C ,  4-O ) :   1.9771
B(  3-C ,  5-C ) :   1.0508 B(  5-C ,  6-C ) :   1.6441 B(  5-C , 12-C ) :   0.9670
B(  6-C ,  7-C ) :   0.9560 B(  6-C ,  8-N ) :   1.1516 B(  7-C , 25-H ) :   0.9650
B(  7-C , 26-H ) :   0.9913 B(  7-C , 27-H ) :   0.9641 B(  8-N ,  9-C ) :   1.1771
B(  8-N , 28-H ) :   0.9487 B(  9-C , 10-S ) :   1.6110 B(  9-C , 11-N ) :   1.3051
B( 11-N , 12-C ) :   0.9922 B( 11-N , 29-H ) :   0.9521 B( 12-C , 13-C ) :   0.9475
B( 12-C , 30-H ) :   1.0005 B( 13-C , 14-C ) :   1.3758 B( 13-C , 19-C ) :   1.3688
B( 14-C , 15-C ) :   1.3947 B( 14-C , 31-H ) :   0.9650 B( 15-C , 16-C ) :   1.3623
B( 15-C , 32-H ) :   0.9715 B( 16-C , 17-C ) :   1.3317 B( 16-C , 33-H ) :   0.9861
B( 17-C , 18-O ) :   1.1078 B( 17-C , 19-C ) :   1.3794 B( 18-O , 34-H ) :   0.9806
B( 19-C , 35-H ) :   0.9585

MP2 TOTAL ENERGY:    -1274.348359072 Eh
FINAL SINGLE POINT ENERGY     -1274.348359072167

DIPOLE MOMENT
-------------
                                X             Y             Z
Electronic contribution:     11.65475       9.10542      10.05580
Nuclear contribution   :    -13.12889     -10.39023     -11.12966
                        -----------------------------------------
Total Dipole Moment    :     -1.47414      -1.28481      -1.07386
                        -----------------------------------------
Magnitude (a.u.)       :      2.23092
Magnitude (Debye)      :      5.67055

Rotational constants in cm-1:     0.010405     0.009043     0.005987
Rotational constants in MHz :   311.932724   271.114463   179.492503

                             ****ORCA TERMINATED NORMALLY****
TOTAL RUN TIME: 0 days 1 hours 36 minutes 59 seconds 800 msec
