                         Program Version 5.0.0 -  RELEASE  -
|  1> ! ri-mp2 cc-pvtz cc-pvtz/c TightSCF NoKeepInts
|  2>
|  3> %scf
|  4>   MaxCore 4096
|  5> end
|  6> *xyz  0  1
|  7>     C       14.6596925   14.1766618   16.5976359
|  8>     C       15.6396605   15.2199674   17.1576127
|  9>     O       16.8486159   15.1174942   16.3836431
| 10>     C       17.6822684   16.1870282   16.2050498
| 11>     O       18.0861430   16.4687079   15.0925844
| 12>     C       17.8195486   17.1323906   17.3557438
| 13>     C       17.4404146   18.4239572   17.2279971
| 14>     C       16.7096857   19.0226484   16.0467092
| 15>     N       17.7511779   19.3480729   18.2278572
| 16>     C       18.5847206   19.0928573   19.2851096
| 17>     S       18.9974062   20.2662167   20.3745462
| 18>     N       19.0633271   17.8101116   19.3964717
| 19>     C       18.6352039   16.6635704   18.5694577
| 20>     C       17.9300369   15.6241972   19.4317857
| 21>     C       18.2536685   14.2606720   19.2995554
| 22>     C       17.6046560   13.2923969   20.0836628
| 23>     C       16.6270655   13.6895424   21.0116475
| 24>     C       16.3051851   15.0462573   21.1505852
| 25>     O       15.3559838   15.4320862   22.0392820
| 26>     C       16.9497176   16.0085293   20.3665412
| 27>     H       13.7064357   14.2128040   17.1387197
| 28>     H       15.0744723   13.1659201   16.6988459
| 29>     H       14.4608058   14.3636640   15.5348160
| 30>     H       15.1946261   16.2186750   17.0562520
| 31>     H       15.8137568   15.0129227   18.2160150
| 32>     H       15.9280759   18.3464601   15.6792653
| 33>     H       17.4075981   19.1927268   15.2160464
| 34>     H       16.2311593   19.9791574   16.2882905
| 35>     H       17.4322341   20.3005956   18.1459060
| 36>     H       19.6621382   17.6516309   20.1972731
| 37>     H       19.5488941   16.1957604   18.1751889
| 38>     H       19.0037556   13.9473417   18.5773625
| 39>     H       17.8595254   12.2398173   19.9696756
| 40>     H       16.1233971   12.9441498   21.6187205
| 41>     H       15.0737245   14.6438624   22.5278471
| 42>     H       16.6822227   17.0531459   20.4902974
| 43> *
| 44>
| 45>                          ****END OF INPUT****

CARTESIAN COORDINATES (ANGSTROEM)
---------------------------------
  C     14.659693   14.176662   16.597636
  C     15.639660   15.219967   17.157613
  O     16.848616   15.117494   16.383643
  C     17.682268   16.187028   16.205050
  O     18.086143   16.468708   15.092584
  C     17.819549   17.132391   17.355744
  C     17.440415   18.423957   17.227997
  C     16.709686   19.022648   16.046709
  N     17.751178   19.348073   18.227857
  C     18.584721   19.092857   19.285110
  S     18.997406   20.266217   20.374546
  N     19.063327   17.810112   19.396472
  C     18.635204   16.663570   18.569458
  C     17.930037   15.624197   19.431786
  C     18.253668   14.260672   19.299555
  C     17.604656   13.292397   20.083663
  C     16.627066   13.689542   21.011647
  C     16.305185   15.046257   21.150585
  O     15.355984   15.432086   22.039282
  C     16.949718   16.008529   20.366541
  H     13.706436   14.212804   17.138720
  H     15.074472   13.165920   16.698846
  H     14.460806   14.363664   15.534816
  H     15.194626   16.218675   17.056252
  H     15.813757   15.012923   18.216015
  H     15.928076   18.346460   15.679265
  H     17.407598   19.192727   15.216046
  H     16.231159   19.979157   16.288290
  H     17.432234   20.300596   18.145906
  H     19.662138   17.651631   20.197273
  H     19.548894   16.195760   18.175189
  H     19.003756   13.947342   18.577362
  H     17.859525   12.239817   19.969676
  H     16.123397   12.944150   21.618720
  H     15.073724   14.643862   22.527847
  H     16.682223   17.053146   20.490297

 Total Charge           Charge          ....    0
 Multiplicity           Mult            ....    1
 Number of Electrons    NEL             ....  154
 Basis Dimension        Dim             ....  828

ORBITAL ENERGIES
----------------

  NO   OCC          E(Eh)            E(eV)
   0   2.0000     -91.890413     -2500.4652
   1   2.0000     -20.603994      -560.6632
   2   2.0000     -20.593512      -560.3780
   3   2.0000     -20.553650      -559.2933
   4   2.0000     -15.626996      -425.2322
   5   2.0000     -15.612039      -424.8252
   6   2.0000     -11.394942      -310.0721
   7   2.0000     -11.386278      -309.8364
   8   2.0000     -11.328614      -308.2673
   9   2.0000     -11.322386      -308.0978
  10   2.0000     -11.319250      -308.0124
  11   2.0000     -11.297778      -307.4282
  12   2.0000     -11.268515      -306.6319
  13   2.0000     -11.263894      -306.5061
  14   2.0000     -11.259361      -306.3828
  15   2.0000     -11.258211      -306.3515
  16   2.0000     -11.252184      -306.1875
  17   2.0000     -11.246926      -306.0444
  18   2.0000     -11.246570      -306.0347
  19   2.0000     -11.229169      -305.5612
  20   2.0000      -8.895498      -242.0588
  21   2.0000      -6.577079      -178.9714
  22   2.0000      -6.575063      -178.9166
  23   2.0000      -6.574482      -178.9007
  24   2.0000      -1.448272       -39.4095
  25   2.0000      -1.423813       -38.7439
  26   2.0000      -1.359599       -36.9966
  27   2.0000      -1.340043       -36.4644
  28   2.0000      -1.240563       -33.7574
  29   2.0000      -1.165765       -31.7221
  30   2.0000      -1.124588       -30.6016
  31   2.0000      -1.050615       -28.5887
  32   2.0000      -1.036654       -28.2088
  33   2.0000      -1.024088       -27.8668
  34   2.0000      -1.002720       -27.2854
  35   2.0000      -0.988784       -26.9062
  36   2.0000      -0.928657       -25.2700
  37   2.0000      -0.877591       -23.8805
  38   2.0000      -0.853236       -23.2177
  39   2.0000      -0.844150       -22.9705
  40   2.0000      -0.842664       -22.9301
  41   2.0000      -0.838034       -22.8041
  42   2.0000      -0.758968       -20.6526
  43   2.0000      -0.738060       -20.0836
  44   2.0000      -0.730913       -19.8891
  45   2.0000      -0.702956       -19.1284
  46   2.0000      -0.692375       -18.8405
  47   2.0000      -0.680896       -18.5281
  48   2.0000      -0.677136       -18.4258
  49   2.0000      -0.666389       -18.1334
  50   2.0000      -0.653526       -17.7834
  51   2.0000      -0.650318       -17.6961
  52   2.0000      -0.638714       -17.3803
  53   2.0000      -0.613901       -16.7051
  54   2.0000      -0.608486       -16.5577
  55   2.0000      -0.604714       -16.4551
  56   2.0000      -0.594065       -16.1653
  57   2.0000      -0.582190       -15.8422
  58   2.0000      -0.577632       -15.7182
  59   2.0000      -0.568050       -15.4574
  60   2.0000      -0.560998       -15.2655
  61   2.0000      -0.558221       -15.1900
  62   2.0000      -0.547442       -14.8966
  63   2.0000      -0.530973       -14.4485
  64   2.0000      -0.521232       -14.1835
  65   2.0000      -0.517062       -14.0700
  66   2.0000      -0.506907       -13.7936
  67   2.0000      -0.504060       -13.7162
  68   2.0000      -0.484939       -13.1959
  69   2.0000      -0.470462       -12.8019
  70   2.0000      -0.453162       -12.3312
  71   2.0000      -0.451466       -12.2850
  72   2.0000      -0.356827        -9.7098
  73   2.0000      -0.355170        -9.6647
  74   2.0000      -0.331730        -9.0268
  75   2.0000      -0.329259        -8.9596
  76   2.0000      -0.318371        -8.6633
  77   0.0000       0.082923         2.2564
  78   0.0000       0.099605         2.7104
  79   0.0000       0.118554         3.2260
  80   0.0000       0.127189         3.4610
  81   0.0000       0.127622         3.4728

MULLIKEN ATOMIC CHARGES
-----------------------
   0 C :   -0.258959
   1 C :    0.021993
   2 O :   -0.314124
   3 C :    0.380038
   4 O :   -0.365418
   5 C :   -0.195695
   6 C :    0.153498
   7 C :   -0.289384
   8 N :   -0.129580
   9 C :    0.204273
  10 S :   -0.438019
  11 N :   -0.211182
  12 C :    0.033078
  13 C :    0.014922
  14 C :   -0.180139
  15 C :   -0.139050
  16 C :   -0.270331
  17 C :    0.303666
  18 O :   -0.355077
  19 C :   -0.240820
  20 H :    0.087673
  21 H :    0.099061
  22 H :    0.103912
  23 H :    0.089495
  24 H :    0.113340
  25 H :    0.115231
  26 H :    0.146871
  27 H :    0.098569
  28 H :    0.197011
  29 H :    0.196419
  30 H :    0.161360
  31 H :    0.151298
  32 H :    0.164258
  33 H :    0.134997
  34 H :    0.241612
  35 H :    0.175203
Sum of atomic charges:    0.0000000

LOEWDIN ATOMIC CHARGES
----------------------
   0 C :    0.110938
   1 C :   -0.022994
   2 O :    0.303514
   3 C :   -0.420253
   4 O :    0.133144
   5 C :   -0.088264
   6 C :   -0.086611
   7 C :    0.129735
   8 N :    0.403886
   9 C :   -0.456386
  10 S :   -0.035600
  11 N :    0.396672
  12 C :   -0.052311
  13 C :   -0.045353
  14 C :    0.016380
  15 C :    0.043985
  16 C :    0.000425
  17 C :   -0.193067
  18 O :    0.397594
  19 C :    0.030946
  20 H :   -0.026106
  21 H :   -0.025524
  22 H :   -0.025089
  23 H :   -0.036228
  24 H :   -0.034877
  25 H :   -0.011837
  26 H :   -0.002522
  27 H :   -0.020365
  28 H :   -0.058478
  29 H :   -0.064583
  30 H :   -0.007611
  31 H :   -0.027504
  32 H :   -0.018271
  33 H :   -0.033432
  34 H :   -0.152214
  35 H :   -0.021740

  Mayer bond orders larger than 0.100000
B(  0-C ,  1-C ) :   0.9842 B(  0-C , 20-H ) :   0.9766 B(  0-C , 21-H ) :   0.9789
B(  0-C , 22-H ) :   0.9791 B(  1-C ,  2-O ) :   0.8969 B(  1-C , 23-H ) :   0.9727
B(  1-C , 24-H ) :   0.9635 B(  2-O ,  3-C ) :   1.1904 B(  3-C ,  4-O ) :   2.1232
B(  3-C ,  5-C ) :   0.9139 B(  5-C ,  6-C ) :   1.7179 B(  5-C , 12-C ) :   0.9666
B(  6-C ,  7-C ) :   0.9465 B(  6-C ,  8-N ) :   1.1228 B(  7-C , 25-H ) :   0.9757
B(  7-C , 26-H ) :   0.9594 B(  7-C , 27-H ) :   0.9854 B(  8-N ,  9-C ) :   1.1960
B(  8-N , 28-H ) :   0.9501 B(  9-C , 10-S ) :   1.6135 B(  9-C , 11-N ) :   1.2834
B( 11-N , 12-C ) :   0.9930 B( 11-N , 29-H ) :   0.9495 B( 12-C , 13-C ) :   0.9304
B( 12-C , 30-H ) :   1.0097 B( 13-C , 14-C ) :   1.3771 B( 13-C , 19-C ) :   1.3602
B( 14-C , 15-C ) :   1.3953 B( 14-C , 31-H ) :   0.9704 B( 15-C , 16-C ) :   1.3640
B( 15-C , 32-H ) :   0.9700 B( 16-C , 17-C ) :   1.3269 B( 16-C , 33-H ) :   0.9836
B( 17-C , 18-O ) :   1.1141 B( 17-C , 19-C ) :   1.3694 B( 18-O , 34-H ) :   0.9787
B( 19-C , 35-H ) :   0.9575

MP2 TOTAL ENERGY:    -1274.328090849 Eh
FINAL SINGLE POINT ENERGY     -1274.328090848805

DIPOLE MOMENT
-------------
                                X             Y             Z
Electronic contribution:     11.15317       8.87262       6.71034
Nuclear contribution   :    -12.57063     -10.42558      -6.43699
                        -----------------------------------------
Total Dipole Moment    :     -1.41746      -1.55296       0.27334
                        -----------------------------------------
Magnitude (a.u.)       :      2.12028
Magnitude (Debye)      :      5.38933

Rotational constants in cm-1:     0.011812     0.009307     0.006281
Rotational constants in MHz :   354.120622   279.016443   188.297396

                             ****ORCA TERMINATED NORMALLY****
TOTAL RUN TIME: 0 days 1 hours 49 minutes 7 seconds 925 msec
