                         Program Version 4.2.0 -  RELEASE  -
|  1> ! ri-mp2 cc-pvtz cc-pvtz/c TightSCF  NoKeepInts
|  2>
|  3> %scf
|  4>   MaxCore 4096
|  5> end
|  6> *xyz  0  1
|  7>     C       14.6906437   14.4706397   17.2706131
|  8>     C       15.5962517   15.5863308   16.7250816
|  9>     O       16.8950600   15.0017802   16.5156503
| 10>     C       18.0790806   15.6950926   16.5140762
| 11>     O       19.1129877   15.0729959   16.3573273
| 12>     C       18.0845914   16.9118203   17.3762466
| 13>     C       17.5912941   18.0965889   16.9524264
| 14>     C       16.9845940   18.3904002   15.5976728
| 15>     N       17.6583420   19.2149698   17.7857383
| 16>     C       18.2803037   19.2382524   19.0077236
| 17>     S       18.3581499   20.6190561   19.9139307
| 18>     N       18.8278155   18.0565277   19.4463450
| 19>     C       18.7215823   16.7556969   18.7545607
| 20>     C       17.9443416   15.7397446   19.5856666
| 21>     C       18.3986585   14.4117615   19.6805633
| 22>     C       17.6747035   13.4579041   20.4150035
| 23>     C       16.4825921   13.8329320   21.0574214
| 24>     C       16.0217723   15.1524624   20.9577869
| 25>     O       14.8615612   15.5137456   21.5609947
| 26>     C       16.7444439   16.1004586   20.2266632
| 27>     H       15.0998223   14.0662848   18.2052474
| 28>     H       14.6097052   13.6497770   16.5471723
| 29>     H       13.6832386   14.8533517   17.4738198
| 30>     H       15.1949229   15.9886583   15.7861519
| 31>     H       15.6210481   16.3843537   17.4768332
| 32>     H       17.1629738   17.5822937   14.8775250
| 33>     H       17.4203177   19.2993327   15.1631114
| 34>     H       15.9007883   18.5404440   15.6752038
| 35>     H       17.2738402   20.0948195   17.4786944
| 36>     H       19.2600778   18.0996398   20.3606764
| 37>     H       19.7413002   16.3700185   18.6072710
| 38>     H       19.3086215   14.1133248   19.1642397
| 39>     H       18.0345804   12.4321728   20.4750702
| 40>     H       15.9183246   13.0975267   21.6212843
| 41>     H       14.5429684   14.7460722   22.0597050
| 42>     H       16.3657003   17.1147696   20.1605019
| 43> *
| 44>
| 45>                          ****END OF INPUT****

CARTESIAN COORDINATES (ANGSTROEM)
---------------------------------
  C     14.690644   14.470640   17.270613
  C     15.596252   15.586331   16.725082
  O     16.895060   15.001780   16.515650
  C     18.079081   15.695093   16.514076
  O     19.112988   15.072996   16.357327
  C     18.084591   16.911820   17.376247
  C     17.591294   18.096589   16.952426
  C     16.984594   18.390400   15.597673
  N     17.658342   19.214970   17.785738
  C     18.280304   19.238252   19.007724
  S     18.358150   20.619056   19.913931
  N     18.827815   18.056528   19.446345
  C     18.721582   16.755697   18.754561
  C     17.944342   15.739745   19.585667
  C     18.398658   14.411762   19.680563
  C     17.674703   13.457904   20.415004
  C     16.482592   13.832932   21.057421
  C     16.021772   15.152462   20.957787
  O     14.861561   15.513746   21.560995
  C     16.744444   16.100459   20.226663
  H     15.099822   14.066285   18.205247
  H     14.609705   13.649777   16.547172
  H     13.683239   14.853352   17.473820
  H     15.194923   15.988658   15.786152
  H     15.621048   16.384354   17.476833
  H     17.162974   17.582294   14.877525
  H     17.420318   19.299333   15.163111
  H     15.900788   18.540444   15.675204
  H     17.273840   20.094819   17.478694
  H     19.260078   18.099640   20.360676
  H     19.741300   16.370019   18.607271
  H     19.308622   14.113325   19.164240
  H     18.034580   12.432173   20.475070
  H     15.918325   13.097527   21.621284
  H     14.542968   14.746072   22.059705
  H     16.365700   17.114770   20.160502

 Total Charge           Charge          ....    0
 Multiplicity           Mult            ....    1
 Number of Electrons    NEL             ....  154
 Basis Dimension        Dim             ....  828

ORBITAL ENERGIES
----------------

  NO   OCC          E(Eh)            E(eV)
   0   2.0000     -91.889225     -2500.4329
   1   2.0000     -20.603004      -560.6362
   2   2.0000     -20.600061      -560.5562
   3   2.0000     -20.552144      -559.2523
   4   2.0000     -15.625360      -425.1877
   5   2.0000     -15.611603      -424.8133
   6   2.0000     -11.396763      -310.1217
   7   2.0000     -11.386259      -309.8359
   8   2.0000     -11.325442      -308.1809
   9   2.0000     -11.316717      -307.9435
  10   2.0000     -11.316000      -307.9240
  11   2.0000     -11.303373      -307.5804
  12   2.0000     -11.270644      -306.6898
  13   2.0000     -11.264178      -306.5139
  14   2.0000     -11.263641      -306.4993
  15   2.0000     -11.256711      -306.3107
  16   2.0000     -11.245830      -306.0146
  17   2.0000     -11.242207      -305.9160
  18   2.0000     -11.239242      -305.8353
  19   2.0000     -11.229556      -305.5717
  20   2.0000      -8.894354      -242.0277
  21   2.0000      -6.575946      -178.9406
  22   2.0000      -6.573916      -178.8853
  23   2.0000      -6.573345      -178.8698
  24   2.0000      -1.451017       -39.4842
  25   2.0000      -1.419858       -38.6363
  26   2.0000      -1.360508       -37.0213
  27   2.0000      -1.339106       -36.4389
  28   2.0000      -1.239306       -33.7232
  29   2.0000      -1.161322       -31.6012
  30   2.0000      -1.125639       -30.6302
  31   2.0000      -1.049281       -28.5524
  32   2.0000      -1.039618       -28.2894
  33   2.0000      -1.018765       -27.7220
  34   2.0000      -1.005115       -27.3506
  35   2.0000      -0.989008       -26.9123
  36   2.0000      -0.927931       -25.2503
  37   2.0000      -0.881264       -23.9804
  38   2.0000      -0.854724       -23.2582
  39   2.0000      -0.841391       -22.8954
  40   2.0000      -0.836972       -22.7752
  41   2.0000      -0.836535       -22.7633
  42   2.0000      -0.757640       -20.6164
  43   2.0000      -0.739288       -20.1170
  44   2.0000      -0.731445       -19.9036
  45   2.0000      -0.698420       -19.0050
  46   2.0000      -0.689300       -18.7568
  47   2.0000      -0.682750       -18.5786
  48   2.0000      -0.677091       -18.4246
  49   2.0000      -0.660803       -17.9814
  50   2.0000      -0.657004       -17.8780
  51   2.0000      -0.648102       -17.6357
  52   2.0000      -0.639784       -17.4094
  53   2.0000      -0.612152       -16.6575
  54   2.0000      -0.608724       -16.5642
  55   2.0000      -0.605472       -16.4757
  56   2.0000      -0.600452       -16.3391
  57   2.0000      -0.585874       -15.9424
  58   2.0000      -0.578179       -15.7330
  59   2.0000      -0.568300       -15.4642
  60   2.0000      -0.560763       -15.2592
  61   2.0000      -0.555452       -15.1146
  62   2.0000      -0.548411       -14.9230
  63   2.0000      -0.529413       -14.4061
  64   2.0000      -0.519735       -14.1427
  65   2.0000      -0.514588       -14.0026
  66   2.0000      -0.503591       -13.7034
  67   2.0000      -0.502229       -13.6663
  68   2.0000      -0.488591       -13.2952
  69   2.0000      -0.470097       -12.7920
  70   2.0000      -0.453738       -12.3468
  71   2.0000      -0.451187       -12.2774
  72   2.0000      -0.356041        -9.6884
  73   2.0000      -0.351951        -9.5771
  74   2.0000      -0.329028        -8.9533
  75   2.0000      -0.324351        -8.8260
  76   2.0000      -0.317474        -8.6389
  77   0.0000       0.088875         2.4184
  78   0.0000       0.103651         2.8205
  79   0.0000       0.108552         2.9538
  80   0.0000       0.126964         3.4549
  81   0.0000       0.131650         3.5824

MULLIKEN ATOMIC CHARGES
-----------------------
   0 C :   -0.263560
   1 C :    0.002744
   2 O :   -0.303872
   3 C :    0.384894
   4 O :   -0.375634
   5 C :   -0.157595
   6 C :    0.117375
   7 C :   -0.323672
   8 N :   -0.135579
   9 C :    0.205614
  10 S :   -0.442577
  11 N :   -0.214113
  12 C :    0.061262
  13 C :    0.035776
  14 C :   -0.189184
  15 C :   -0.126147
  16 C :   -0.281213
  17 C :    0.304423
  18 O :   -0.360957
  19 C :   -0.271902
  20 H :    0.111248
  21 H :    0.105282
  22 H :    0.088809
  23 H :    0.106843
  24 H :    0.098608
  25 H :    0.122424
  26 H :    0.136258
  27 H :    0.123593
  28 H :    0.195540
  29 H :    0.198427
  30 H :    0.165337
  31 H :    0.164037
  32 H :    0.163310
  33 H :    0.133165
  34 H :    0.241952
  35 H :    0.179082
Sum of atomic charges:   -0.0000000

LOEWDIN ATOMIC CHARGES
----------------------
   0 C :    0.112402
   1 C :   -0.027094
   2 O :    0.318833
   3 C :   -0.420624
   4 O :    0.129187
   5 C :   -0.080940
   6 C :   -0.109870
   7 C :    0.124372
   8 N :    0.400063
   9 C :   -0.455290
  10 S :   -0.039207
  11 N :    0.397384
  12 C :   -0.043097
  13 C :   -0.041098
  14 C :    0.024748
  15 C :    0.046263
  16 C :   -0.000824
  17 C :   -0.194023
  18 O :    0.394959
  19 C :    0.027428
  20 H :   -0.022120
  21 H :   -0.026150
  22 H :   -0.025395
  23 H :   -0.037022
  24 H :   -0.038811
  25 H :   -0.009519
  26 H :   -0.010049
  27 H :   -0.016410
  28 H :   -0.058813
  29 H :   -0.063678
  30 H :   -0.002205
  31 H :   -0.022183
  32 H :   -0.018473
  33 H :   -0.034906
  34 H :   -0.152904
  35 H :   -0.024934

  Mayer bond orders larger than 0.100000
B(  0-C ,  1-C ) :   0.9815 B(  0-C , 20-H ) :   0.9726 B(  0-C , 21-H ) :   0.9809
B(  0-C , 22-H ) :   0.9761 B(  1-C ,  2-O ) :   0.9183 B(  1-C , 23-H ) :   0.9753
B(  1-C , 24-H ) :   0.9605 B(  2-O ,  3-C ) :   1.1564 B(  3-C ,  4-O ) :   2.0959
B(  3-C ,  5-C ) :   0.9206 B(  5-C ,  6-C ) :   1.6990 B(  5-C , 12-C ) :   0.9646
B(  6-C ,  7-C ) :   0.9417 B(  6-C ,  8-N ) :   1.1086 B(  7-C , 25-H ) :   0.9822
B(  7-C , 26-H ) :   0.9722 B(  7-C , 27-H ) :   0.9653 B(  8-N ,  9-C ) :   1.1981
B(  8-N , 28-H ) :   0.9530 B(  9-C , 10-S ) :   1.6096 B(  9-C , 11-N ) :   1.2856
B( 11-N , 12-C ) :   0.9978 B( 11-N , 29-H ) :   0.9487 B( 12-C , 13-C ) :   0.9454
B( 12-C , 30-H ) :   0.9971 B( 13-C , 14-C ) :   1.3867 B( 13-C , 19-C ) :   1.3422
B( 14-C , 15-C ) :   1.3976 B( 14-C , 31-H ) :   0.9630 B( 15-C , 16-C ) :   1.3602
B( 15-C , 32-H ) :   0.9704 B( 16-C , 17-C ) :   1.3301 B( 16-C , 33-H ) :   0.9849
B( 17-C , 18-O ) :   1.1054 B( 17-C , 19-C ) :   1.3710 B( 18-O , 34-H ) :   0.9790
B( 19-C , 35-H ) :   0.9558

MP2 TOTAL ENERGY:    -1274.328108781 Eh
FINAL SINGLE POINT ENERGY     -1274.328108780779

DIPOLE MOMENT
-------------
                                X             Y             Z
Electronic contribution:     10.50530       8.05427       6.13979
Nuclear contribution   :    -12.06834      -9.08825      -6.68403
                        -----------------------------------------
Total Dipole Moment    :     -1.56304      -1.03398      -0.54424
                        -----------------------------------------
Magnitude (a.u.)       :      1.95151
Magnitude (Debye)      :      4.96035

Rotational constants in cm-1:     0.012640     0.009020     0.006930
Rotational constants in MHz :   378.937693   270.419785   207.741836

                             ****ORCA TERMINATED NORMALLY****
TOTAL RUN TIME: 0 days 1 hours 48 minutes 11 seconds 422 msec
