                         Program Version 4.2.0 -  RELEASE  -
|  1> ! ri-mp2 cc-pvtz cc-pvtz/c TightSCF  NoKeepInts
|  2>
|  3> %scf
|  4>   MaxCore 4096
|  5> end
|  6> *xyz  0  1
|  7>     C       14.7108201   14.5517538   17.3160312
|  8>     C       15.6689832   15.2680961   16.3505953
|  9>     O       17.0044002   14.9470713   16.7620830
| 10>     C       18.0381225   15.7866990   16.4696721
| 11>     O       19.1117055   15.2870312   16.1914676
| 12>     C       18.0278294   16.9566088   17.3907701
| 13>     C       17.5411290   18.1563803   17.0051955
| 14>     C       16.9450237   18.5009476   15.6571961
| 15>     N       17.6141764   19.2480695   17.8729349
| 16>     C       18.2585924   19.2375727   19.0831264
| 17>     S       18.3585751   20.5942259   20.0235165
| 18>     N       18.8136742   18.0441822   19.4775862
| 19>     C       18.6771607   16.7595691   18.7610127
| 20>     C       17.9181956   15.7370117   19.6008093
| 21>     C       18.3862744   14.4132854   19.6915236
| 22>     C       17.6894665   13.4576260   20.4495741
| 23>     C       16.5129736   13.8274844   21.1230260
| 24>     C       16.0405034   15.1435274   21.0306619
| 25>     O       14.8964435   15.4996515   21.6672211
| 26>     C       16.7350160   16.0929304   20.2743440
| 27>     H       14.8842900   13.4684171   17.2985910
| 28>     H       13.6670225   14.7384369   17.0364847
| 29>     H       14.8596875   14.9062593   18.3429587
| 30>     H       15.4977664   14.9390288   15.3171903
| 31>     H       15.4794387   16.3452304   16.4158600
| 32>     H       17.1414057   17.7286917   14.9037135
| 33>     H       17.3746942   19.4330107   15.2678223
| 34>     H       15.8590024   18.6371578   15.7301082
| 35>     H       17.2241904   20.1358560   17.5980390
| 36>     H       19.2623374   18.0613279   20.3846207
| 37>     H       19.6901915   16.3678778   18.5871317
| 38>     H       19.2856877   14.1202462   19.1546902
| 39>     H       18.0586772   12.4351397   20.5054680
| 40>     H       15.9699896   13.0912288   21.7061297
| 41>     H       14.5952826   14.7298853   22.1731077
| 42>     H       16.3482705   17.1044815   20.2137367
| 43> *
| 44>
| 45>                          ****END OF INPUT****

CARTESIAN COORDINATES (ANGSTROEM)
---------------------------------
  C     14.710820   14.551754   17.316031
  C     15.668983   15.268096   16.350595
  O     17.004400   14.947071   16.762083
  C     18.038122   15.786699   16.469672
  O     19.111705   15.287031   16.191468
  C     18.027829   16.956609   17.390770
  C     17.541129   18.156380   17.005195
  C     16.945024   18.500948   15.657196
  N     17.614176   19.248069   17.872935
  C     18.258592   19.237573   19.083126
  S     18.358575   20.594226   20.023516
  N     18.813674   18.044182   19.477586
  C     18.677161   16.759569   18.761013
  C     17.918196   15.737012   19.600809
  C     18.386274   14.413285   19.691524
  C     17.689467   13.457626   20.449574
  C     16.512974   13.827484   21.123026
  C     16.040503   15.143527   21.030662
  O     14.896443   15.499651   21.667221
  C     16.735016   16.092930   20.274344
  H     14.884290   13.468417   17.298591
  H     13.667022   14.738437   17.036485
  H     14.859687   14.906259   18.342959
  H     15.497766   14.939029   15.317190
  H     15.479439   16.345230   16.415860
  H     17.141406   17.728692   14.903714
  H     17.374694   19.433011   15.267822
  H     15.859002   18.637158   15.730108
  H     17.224190   20.135856   17.598039
  H     19.262337   18.061328   20.384621
  H     19.690191   16.367878   18.587132
  H     19.285688   14.120246   19.154690
  H     18.058677   12.435140   20.505468
  H     15.969990   13.091229   21.706130
  H     14.595283   14.729885   22.173108
  H     16.348271   17.104481   20.213737

 Total Charge           Charge          ....    0
 Multiplicity           Mult            ....    1
 Number of Electrons    NEL             ....  154
 Basis Dimension        Dim             ....  828

ORBITAL ENERGIES
----------------

  NO   OCC          E(Eh)            E(eV)
   0   2.0000     -91.885985     -2500.3448
   1   2.0000     -20.597883      -560.4969
   2   2.0000     -20.597537      -560.4875
   3   2.0000     -20.564386      -559.5854
   4   2.0000     -15.620657      -425.0597
   5   2.0000     -15.609084      -424.7448
   6   2.0000     -11.394621      -310.0634
   7   2.0000     -11.382969      -309.7463
   8   2.0000     -11.319434      -308.0175
   9   2.0000     -11.315369      -307.9068
  10   2.0000     -11.313436      -307.8542
  11   2.0000     -11.305769      -307.6456
  12   2.0000     -11.268920      -306.6429
  13   2.0000     -11.263977      -306.5084
  14   2.0000     -11.260539      -306.4148
  15   2.0000     -11.253988      -306.2366
  16   2.0000     -11.242942      -305.9360
  17   2.0000     -11.238464      -305.8142
  18   2.0000     -11.236690      -305.7659
  19   2.0000     -11.230095      -305.5864
  20   2.0000      -8.891139      -241.9402
  21   2.0000      -6.572741      -178.8534
  22   2.0000      -6.570703      -178.7979
  23   2.0000      -6.570141      -178.7826
  24   2.0000      -1.459709       -39.7207
  25   2.0000      -1.417275       -38.5660
  26   2.0000      -1.366104       -37.1736
  27   2.0000      -1.335543       -36.3420
  28   2.0000      -1.236287       -33.6411
  29   2.0000      -1.157742       -31.5038
  30   2.0000      -1.122769       -30.5521
  31   2.0000      -1.046470       -28.4759
  32   2.0000      -1.040782       -28.3211
  33   2.0000      -1.015658       -27.6375
  34   2.0000      -1.002536       -27.2804
  35   2.0000      -0.985775       -26.8243
  36   2.0000      -0.925371       -25.1806
  37   2.0000      -0.883710       -24.0470
  38   2.0000      -0.851121       -23.1602
  39   2.0000      -0.838381       -22.8135
  40   2.0000      -0.834236       -22.7007
  41   2.0000      -0.833624       -22.6841
  42   2.0000      -0.760601       -20.6970
  43   2.0000      -0.735116       -20.0035
  44   2.0000      -0.729211       -19.8428
  45   2.0000      -0.696466       -18.9518
  46   2.0000      -0.691673       -18.8214
  47   2.0000      -0.683700       -18.6044
  48   2.0000      -0.676515       -18.4089
  49   2.0000      -0.663193       -18.0464
  50   2.0000      -0.651516       -17.7286
  51   2.0000      -0.639463       -17.4007
  52   2.0000      -0.634879       -17.2759
  53   2.0000      -0.624473       -16.9928
  54   2.0000      -0.609783       -16.5930
  55   2.0000      -0.604938       -16.4612
  56   2.0000      -0.601207       -16.3597
  57   2.0000      -0.587690       -15.9919
  58   2.0000      -0.575905       -15.6712
  59   2.0000      -0.564908       -15.3719
  60   2.0000      -0.561710       -15.2849
  61   2.0000      -0.551764       -15.0143
  62   2.0000      -0.537648       -14.6302
  63   2.0000      -0.529018       -14.3953
  64   2.0000      -0.520368       -14.1599
  65   2.0000      -0.511895       -13.9294
  66   2.0000      -0.499711       -13.5978
  67   2.0000      -0.499042       -13.5796
  68   2.0000      -0.491011       -13.3611
  69   2.0000      -0.466067       -12.6823
  70   2.0000      -0.460783       -12.5386
  71   2.0000      -0.454146       -12.3579
  72   2.0000      -0.353737        -9.6257
  73   2.0000      -0.347799        -9.4641
  74   2.0000      -0.326017        -8.8714
  75   2.0000      -0.320972        -8.7341
  76   2.0000      -0.314166        -8.5489
  77   0.0000       0.090727         2.4688
  78   0.0000       0.098470         2.6795
  79   0.0000       0.108862         2.9623
  80   0.0000       0.125743         3.4216
  81   0.0000       0.129284         3.5180

MULLIKEN ATOMIC CHARGES
-----------------------
   0 C :   -0.271965
   1 C :    0.016386
   2 O :   -0.306908
   3 C :    0.372843
   4 O :   -0.351229
   5 C :   -0.122618
   6 C :    0.116714
   7 C :   -0.327805
   8 N :   -0.134206
   9 C :    0.208139
  10 S :   -0.447825
  11 N :   -0.210890
  12 C :    0.031538
  13 C :    0.054362
  14 C :   -0.182311
  15 C :   -0.136341
  16 C :   -0.264206
  17 C :    0.303748
  18 O :   -0.365009
  19 C :   -0.274052
  20 H :    0.103599
  21 H :    0.090083
  22 H :    0.117158
  23 H :    0.109143
  24 H :    0.074811
  25 H :    0.117453
  26 H :    0.132913
  27 H :    0.122715
  28 H :    0.193525
  29 H :    0.197447
  30 H :    0.166566
  31 H :    0.157041
  32 H :    0.161394
  33 H :    0.131343
  34 H :    0.240782
  35 H :    0.175660
Sum of atomic charges:    0.0000000

LOEWDIN ATOMIC CHARGES
----------------------
   0 C :    0.112384
   1 C :   -0.032895
   2 O :    0.328652
   3 C :   -0.426970
   4 O :    0.151574
   5 C :   -0.077416
   6 C :   -0.118662
   7 C :    0.119867
   8 N :    0.398728
   9 C :   -0.455148
  10 S :   -0.043396
  11 N :    0.397636
  12 C :   -0.040341
  13 C :   -0.039566
  14 C :    0.023567
  15 C :    0.045440
  16 C :   -0.001054
  17 C :   -0.194101
  18 O :    0.394485
  19 C :    0.027584
  20 H :   -0.024136
  21 H :   -0.027103
  22 H :   -0.023363
  23 H :   -0.032080
  24 H :   -0.037605
  25 H :   -0.012226
  26 H :   -0.011162
  27 H :   -0.018153
  28 H :   -0.060158
  29 H :   -0.063849
  30 H :   -0.003073
  31 H :   -0.024570
  32 H :   -0.019533
  33 H :   -0.035489
  34 H :   -0.153536
  35 H :   -0.024330

  Mayer bond orders larger than 0.100000
B(  0-C ,  1-C ) :   0.9835 B(  0-C , 20-H ) :   0.9797 B(  0-C , 21-H ) :   0.9769
B(  0-C , 22-H ) :   0.9721 B(  1-C ,  2-O ) :   0.9322 B(  1-C , 23-H ) :   0.9792
B(  1-C , 24-H ) :   0.9633 B(  2-O ,  3-C ) :   1.0828 B(  3-C ,  4-O ) :   2.1085
B(  3-C ,  5-C ) :   0.9333 B(  5-C ,  6-C ) :   1.7245 B(  5-C , 12-C ) :   0.9712
B(  6-C ,  7-C ) :   0.9411 B(  6-C ,  8-N ) :   1.1030 B(  7-C , 25-H ) :   0.9825
B(  7-C , 26-H ) :   0.9731 B(  7-C , 27-H ) :   0.9673 B(  8-N ,  9-C ) :   1.2040
B(  8-N , 28-H ) :   0.9547 B(  9-C , 10-S ) :   1.6036 B(  9-C , 11-N ) :   1.2850
B( 11-N , 12-C ) :   0.9970 B( 11-N , 29-H ) :   0.9482 B( 12-C , 13-C ) :   0.9466
B( 12-C , 30-H ) :   0.9996 B( 13-C , 14-C ) :   1.3790 B( 13-C , 19-C ) :   1.3506
B( 14-C , 15-C ) :   1.3957 B( 14-C , 31-H ) :   0.9667 B( 15-C , 16-C ) :   1.3643
B( 15-C , 32-H ) :   0.9709 B( 16-C , 17-C ) :   1.3324 B( 16-C , 33-H ) :   0.9847
B( 17-C , 18-O ) :   1.0981 B( 17-C , 19-C ) :   1.3665 B( 18-O , 34-H ) :   0.9801
B( 19-C , 35-H ) :   0.9570

MP2 TOTAL ENERGY:    -1274.310865321 Eh
FINAL SINGLE POINT ENERGY     -1274.310865320899

DIPOLE MOMENT
-------------
                                X             Y             Z
Electronic contribution:     10.41184       8.06129       6.72844
Nuclear contribution   :    -12.00053      -9.37821      -7.59460
                        -----------------------------------------
Total Dipole Moment    :     -1.58869      -1.31693      -0.86616
                        -----------------------------------------
Magnitude (a.u.)       :      2.23796
Magnitude (Debye)      :      5.68844

Rotational constants in cm-1:     0.012337     0.009092     0.006801
Rotational constants in MHz :   369.864932   272.584191   203.899701

                             ****ORCA TERMINATED NORMALLY****
TOTAL RUN TIME: 0 days 1 hours 46 minutes 25 seconds 744 msec
