                         Program Version 4.2.0 -  RELEASE  -
|  1> ! ri-mp2 cc-pvtz cc-pvtz/c TightSCF  NoKeepInts
|  2>
|  3> %scf
|  4>   MaxCore 4096
|  5> end
|  6> *xyz  0  1
|  7>     C       14.6465028   14.7843649   16.3096195
|  8>     C       15.8691569   14.8909507   17.2360180
|  9>     O       17.0316282   15.0068429   16.3923964
| 10>     C       17.6693191   16.1996147   16.1867214
| 11>     O       17.9064375   16.5713845   15.0526016
| 12>     C       17.8006631   17.1113613   17.3696886
| 13>     C       17.4043102   18.4031757   17.2943872
| 14>     C       16.6478090   19.0422263   16.1509786
| 15>     N       17.7113730   19.2922539   18.3268588
| 16>     C       18.5647816   19.0121305   19.3613713
| 17>     S       18.9835096   20.1531897   20.4824095
| 18>     N       19.0592890   17.7323843   19.4209263
| 19>     C       18.6180814   16.6076584   18.5722250
| 20>     C       17.9164540   15.5622750   19.4320707
| 21>     C       18.3243789   14.2158009   19.3839345
| 22>     C       17.6835686   13.2459620   20.1730302
| 23>     C       16.6294631   13.6249822   21.0214750
| 24>     C       16.2265177   14.9658218   21.0798461
| 25>     O       15.2063378   15.3346453   21.8939065
| 26>     C       16.8651049   15.9292892   20.2927516
| 27>     H       14.5475191   15.6858300   15.6920222
| 28>     H       13.7273646   14.6656014   16.8960903
| 29>     H       14.7428634   13.9187420   15.6421201
| 30>     H       15.7382442   15.7513207   17.9016848
| 31>     H       15.9394132   13.9807240   17.8454806
| 32>     H       15.8731022   18.3677239   15.7655318
| 33>     H       17.3299590   19.2614536   15.3189317
| 34>     H       16.1547734   19.9774709   16.4413230
| 35>     H       17.3789425   20.2426705   18.2830511
| 36>     H       19.6711968   17.5541425   20.2074924
| 37>     H       19.5255639   16.1410109   18.1629420
| 38>     H       19.1353462   13.9163887   18.7244183
| 39>     H       18.0043015   12.2063193   20.1250482
| 40>     H       16.1316125   12.8785360   21.6321586
| 41>     H       14.9422586   14.5549272   22.4058188
| 42>     H       16.5398524   16.9628243   20.3566691
| 43> *
| 44>
| 45>                          ****END OF INPUT****

CARTESIAN COORDINATES (ANGSTROEM)
---------------------------------
  C     14.646503   14.784365   16.309620
  C     15.869157   14.890951   17.236018
  O     17.031628   15.006843   16.392396
  C     17.669319   16.199615   16.186721
  O     17.906437   16.571385   15.052602
  C     17.800663   17.111361   17.369689
  C     17.404310   18.403176   17.294387
  C     16.647809   19.042226   16.150979
  N     17.711373   19.292254   18.326859
  C     18.564782   19.012131   19.361371
  S     18.983510   20.153190   20.482409
  N     19.059289   17.732384   19.420926
  C     18.618081   16.607658   18.572225
  C     17.916454   15.562275   19.432071
  C     18.324379   14.215801   19.383934
  C     17.683569   13.245962   20.173030
  C     16.629463   13.624982   21.021475
  C     16.226518   14.965822   21.079846
  O     15.206338   15.334645   21.893906
  C     16.865105   15.929289   20.292752
  H     14.547519   15.685830   15.692022
  H     13.727365   14.665601   16.896090
  H     14.742863   13.918742   15.642120
  H     15.738244   15.751321   17.901685
  H     15.939413   13.980724   17.845481
  H     15.873102   18.367724   15.765532
  H     17.329959   19.261454   15.318932
  H     16.154773   19.977471   16.441323
  H     17.378943   20.242670   18.283051
  H     19.671197   17.554142   20.207492
  H     19.525564   16.141011   18.162942
  H     19.135346   13.916389   18.724418
  H     18.004302   12.206319   20.125048
  H     16.131612   12.878536   21.632159
  H     14.942259   14.554927   22.405819
  H     16.539852   16.962824   20.356669

 Total Charge           Charge          ....    0
 Multiplicity           Mult            ....    1
 Number of Electrons    NEL             ....  154
 Basis Dimension        Dim             ....  828

ORBITAL ENERGIES
----------------

  NO   OCC          E(Eh)            E(eV)
   0   2.0000     -91.891177     -2500.4860
   1   2.0000     -20.604366      -560.6733
   2   2.0000     -20.592141      -560.3406
   3   2.0000     -20.550736      -559.2140
   4   2.0000     -15.628613      -425.2762
   5   2.0000     -15.612329      -424.8331
   6   2.0000     -11.394685      -310.0651
   7   2.0000     -11.386798      -309.8505
   8   2.0000     -11.331524      -308.3464
   9   2.0000     -11.322587      -308.1033
  10   2.0000     -11.319208      -308.0113
  11   2.0000     -11.296763      -307.4005
  12   2.0000     -11.268144      -306.6218
  13   2.0000     -11.263591      -306.4979
  14   2.0000     -11.260412      -306.4114
  15   2.0000     -11.256932      -306.3167
  16   2.0000     -11.252409      -306.1936
  17   2.0000     -11.246946      -306.0450
  18   2.0000     -11.246681      -306.0377
  19   2.0000     -11.227012      -305.5025
  20   2.0000      -8.896245      -242.0791
  21   2.0000      -6.577820      -178.9916
  22   2.0000      -6.575810      -178.9369
  23   2.0000      -6.575224      -178.9209
  24   2.0000      -1.446633       -39.3649
  25   2.0000      -1.424173       -38.7537
  26   2.0000      -1.357323       -36.9346
  27   2.0000      -1.341346       -36.4999
  28   2.0000      -1.241513       -33.7833
  29   2.0000      -1.165594       -31.7174
  30   2.0000      -1.124256       -30.5926
  31   2.0000      -1.050353       -28.5815
  32   2.0000      -1.034349       -28.1461
  33   2.0000      -1.024059       -27.8661
  34   2.0000      -1.002572       -27.2814
  35   2.0000      -0.988990       -26.9118
  36   2.0000      -0.928680       -25.2707
  37   2.0000      -0.882874       -24.0242
  38   2.0000      -0.852823       -23.2065
  39   2.0000      -0.844874       -22.9902
  40   2.0000      -0.842930       -22.9373
  41   2.0000      -0.836329       -22.7577
  42   2.0000      -0.757141       -20.6028
  43   2.0000      -0.738115       -20.0851
  44   2.0000      -0.724357       -19.7107
  45   2.0000      -0.703482       -19.1427
  46   2.0000      -0.693321       -18.8662
  47   2.0000      -0.679890       -18.5008
  48   2.0000      -0.673226       -18.3194
  49   2.0000      -0.670579       -18.2474
  50   2.0000      -0.653765       -17.7898
  51   2.0000      -0.647293       -17.6138
  52   2.0000      -0.638491       -17.3742
  53   2.0000      -0.613900       -16.7051
  54   2.0000      -0.608764       -16.5653
  55   2.0000      -0.604164       -16.4401
  56   2.0000      -0.595341       -16.2001
  57   2.0000      -0.584001       -15.8915
  58   2.0000      -0.578066       -15.7300
  59   2.0000      -0.571197       -15.5431
  60   2.0000      -0.561483       -15.2787
  61   2.0000      -0.555444       -15.1144
  62   2.0000      -0.545210       -14.8359
  63   2.0000      -0.531307       -14.4576
  64   2.0000      -0.522204       -14.2099
  65   2.0000      -0.518101       -14.0982
  66   2.0000      -0.506590       -13.7850
  67   2.0000      -0.501965       -13.6592
  68   2.0000      -0.485867       -13.2211
  69   2.0000      -0.469332       -12.7712
  70   2.0000      -0.453131       -12.3303
  71   2.0000      -0.446942       -12.1619
  72   2.0000      -0.358739        -9.7618
  73   2.0000      -0.353893        -9.6299
  74   2.0000      -0.332113        -9.0373
  75   2.0000      -0.329538        -8.9672
  76   2.0000      -0.319493        -8.6938
  77   0.0000       0.079037         2.1507
  78   0.0000       0.097337         2.6487
  79   0.0000       0.117976         3.2103
  80   0.0000       0.126752         3.4491
  81   0.0000       0.127817         3.4781

MULLIKEN ATOMIC CHARGES
-----------------------
   0 C :   -0.258286
   1 C :    0.010314
   2 O :   -0.329378
   3 C :    0.398473
   4 O :   -0.371010
   5 C :   -0.237942
   6 C :    0.163073
   7 C :   -0.280385
   8 N :   -0.126131
   9 C :    0.202121
  10 S :   -0.436193
  11 N :   -0.200469
  12 C :    0.041296
  13 C :    0.017166
  14 C :   -0.167663
  15 C :   -0.151155
  16 C :   -0.268994
  17 C :    0.305726
  18 O :   -0.353920
  19 C :   -0.242879
  20 H :    0.090239
  21 H :    0.090669
  22 H :    0.105148
  23 H :    0.102950
  24 H :    0.118276
  25 H :    0.118091
  26 H :    0.144546
  27 H :    0.097006
  28 H :    0.197727
  29 H :    0.194109
  30 H :    0.158339
  31 H :    0.148321
  32 H :    0.165640
  33 H :    0.135624
  34 H :    0.241902
  35 H :    0.177650
Sum of atomic charges:   -0.0000000

LOEWDIN ATOMIC CHARGES
----------------------
   0 C :    0.106120
   1 C :   -0.024938
   2 O :    0.303453
   3 C :   -0.422384
   4 O :    0.129295
   5 C :   -0.092794
   6 C :   -0.081020
   7 C :    0.130009
   8 N :    0.404401
   9 C :   -0.457030
  10 S :   -0.033924
  11 N :    0.396567
  12 C :   -0.051642
  13 C :   -0.042850
  14 C :    0.017658
  15 C :    0.042586
  16 C :    0.000280
  17 C :   -0.192210
  18 O :    0.397250
  19 C :    0.033286
  20 H :   -0.029827
  21 H :   -0.027284
  22 H :   -0.024070
  23 H :   -0.039327
  24 H :   -0.023828
  25 H :   -0.009636
  26 H :   -0.002604
  27 H :   -0.021235
  28 H :   -0.057848
  29 H :   -0.064276
  30 H :   -0.007728
  31 H :   -0.027708
  32 H :   -0.018837
  33 H :   -0.033524
  34 H :   -0.152128
  35 H :   -0.022254

  Mayer bond orders larger than 0.100000
B(  0-C ,  1-C ) :   0.9799 B(  0-C , 20-H ) :   0.9773 B(  0-C , 21-H ) :   0.9770
B(  0-C , 22-H ) :   0.9805 B(  1-C ,  2-O ) :   0.8805 B(  1-C , 23-H ) :   0.9583
B(  1-C , 24-H ) :   0.9773 B(  2-O ,  3-C ) :   1.1830 B(  3-C ,  4-O ) :   2.1070
B(  3-C ,  5-C ) :   0.9367 B(  5-C ,  6-C ) :   1.7007 B(  5-C , 12-C ) :   0.9618
B(  6-C ,  7-C ) :   0.9504 B(  6-C ,  8-N ) :   1.1311 B(  7-C , 25-H ) :   0.9733
B(  7-C , 26-H ) :   0.9580 B(  7-C , 27-H ) :   0.9852 B(  8-N ,  9-C ) :   1.1911
B(  8-N , 28-H ) :   0.9497 B(  9-C , 10-S ) :   1.6163 B(  9-C , 11-N ) :   1.2864
B( 11-N , 12-C ) :   0.9985 B( 11-N , 29-H ) :   0.9507 B( 12-C , 13-C ) :   0.9420
B( 12-C , 30-H ) :   1.0108 B( 13-C , 14-C ) :   1.3642 B( 13-C , 19-C ) :   1.3513
B( 14-C , 15-C ) :   1.3957 B( 14-C , 31-H ) :   0.9736 B( 15-C , 16-C ) :   1.3652
B( 15-C , 32-H ) :   0.9701 B( 16-C , 17-C ) :   1.3248 B( 16-C , 33-H ) :   0.9830
B( 17-C , 18-O ) :   1.1156 B( 17-C , 19-C ) :   1.3727 B( 18-O , 34-H ) :   0.9786
B( 19-C , 35-H ) :   0.9575

MP2 TOTAL ENERGY:    -1274.328867030 Eh
FINAL SINGLE POINT ENERGY     -1274.328867030309

DIPOLE MOMENT
-------------
                                X             Y             Z
Electronic contribution:     10.95855       7.78330       7.08807
Nuclear contribution   :    -12.25381      -9.37468      -6.72487
                        -----------------------------------------
Total Dipole Moment    :     -1.29526      -1.59138       0.36320
                        -----------------------------------------
Magnitude (a.u.)       :      2.08377
Magnitude (Debye)      :      5.29653

Rotational constants in cm-1:     0.011612     0.009513     0.006397
Rotational constants in MHz :   348.125855   285.184583   191.787684

                             ****ORCA TERMINATED NORMALLY****
TOTAL RUN TIME: 0 days 1 hours 46 minutes 12 seconds 422 msec
