                         Program Version 5.0.0 -  RELEASE  -
|  1> ! ri-mp2 cc-pvtz cc-pvtz/c TightSCF NoKeepInts
|  2>
|  3> %scf
|  4>   MaxCore 4096
|  5> end
|  6> *xyz  0  1
|  7>     C       15.0948794   13.9173660   15.8259477
|  8>     C       15.9735289   14.4060644   16.9926448
|  9>     O       17.0679116   15.1773887   16.4616064
| 10>     C       16.9038908   16.5267228   16.3333288
| 11>     O       16.0249534   16.9816437   15.6233858
| 12>     C       17.5889572   17.3124549   17.4206911
| 13>     C       17.4263393   18.6539318   17.5596875
| 14>     C       16.5480892   19.5658461   16.7294469
| 15>     N       18.1523848   19.3511230   18.5302823
| 16>     C       19.1691120   18.8188147   19.2771501
| 17>     S       20.0797805   19.7426744   20.3031904
| 18>     N       19.4026733   17.4766418   19.1204001
| 19>     C       18.5373346   16.5527392   18.3655992
| 20>     C       17.7970858   15.6498170   19.3473725
| 21>     C       18.2112360   14.3174398   19.5337408
| 22>     C       17.5320683   13.4764567   20.4312338
| 23>     C       16.4337279   13.9731138   21.1535058
| 24>     C       16.0262908   15.3027869   20.9799525
| 25>     O       14.9678205   15.7863060   21.6771024
| 26>     C       16.7026578   16.1368731   20.0845136
| 27>     H       14.6228777   14.7617070   15.3083234
| 28>     H       14.2995735   13.2584082   16.1942586
| 29>     H       15.6950411   13.3584395   15.0974327
| 30>     H       15.3792616   14.9957464   17.7040920
| 31>     H       16.3704369   13.5308071   17.5223566
| 32>     H       15.4950940   19.2678640   16.8133751
| 33>     H       16.8211977   19.5041812   15.6682433
| 34>     H       16.6187599   20.6185897   17.0270680
| 35>     H       17.9994950   20.3397258   18.6507126
| 36>     H       20.1402865   17.1070696   19.7062342
| 37>     H       19.1894460   15.9237395   17.7430342
| 38>     H       19.0595550   13.9301165   18.9752986
| 39>     H       17.8588803   12.4466849   20.5670909
| 40>     H       15.9070407   13.3278736   21.8492231
| 41>     H       14.6731829   15.0896682   22.2831286
| 42>     H       16.3761490   17.1651743   19.9733455
| 43> *
| 44>
| 45>                          ****END OF INPUT****

CARTESIAN COORDINATES (ANGSTROEM)
---------------------------------
  C     15.094879   13.917366   15.825948
  C     15.973529   14.406064   16.992645
  O     17.067912   15.177389   16.461606
  C     16.903891   16.526723   16.333329
  O     16.024953   16.981644   15.623386
  C     17.588957   17.312455   17.420691
  C     17.426339   18.653932   17.559687
  C     16.548089   19.565846   16.729447
  N     18.152385   19.351123   18.530282
  C     19.169112   18.818815   19.277150
  S     20.079780   19.742674   20.303190
  N     19.402673   17.476642   19.120400
  C     18.537335   16.552739   18.365599
  C     17.797086   15.649817   19.347372
  C     18.211236   14.317440   19.533741
  C     17.532068   13.476457   20.431234
  C     16.433728   13.973114   21.153506
  C     16.026291   15.302787   20.979952
  O     14.967820   15.786306   21.677102
  C     16.702658   16.136873   20.084514
  H     14.622878   14.761707   15.308323
  H     14.299573   13.258408   16.194259
  H     15.695041   13.358439   15.097433
  H     15.379262   14.995746   17.704092
  H     16.370437   13.530807   17.522357
  H     15.495094   19.267864   16.813375
  H     16.821198   19.504181   15.668243
  H     16.618760   20.618590   17.027068
  H     17.999495   20.339726   18.650713
  H     20.140286   17.107070   19.706234
  H     19.189446   15.923739   17.743034
  H     19.059555   13.930116   18.975299
  H     17.858880   12.446685   20.567091
  H     15.907041   13.327874   21.849223
  H     14.673183   15.089668   22.283129
  H     16.376149   17.165174   19.973345

 Total Charge           Charge          ....    0
 Multiplicity           Mult            ....    1
 Number of Electrons    NEL             ....  154
 Basis Dimension        Dim             ....  828

ORBITAL ENERGIES
----------------

  NO   OCC          E(Eh)            E(eV)
   0   2.0000     -91.890595     -2500.4702
   1   2.0000     -20.601497      -560.5952
   2   2.0000     -20.582990      -560.0916
   3   2.0000     -20.547764      -559.1331
   4   2.0000     -15.631220      -425.3471
   5   2.0000     -15.609798      -424.7642
   6   2.0000     -11.394283      -310.0542
   7   2.0000     -11.385435      -309.8134
   8   2.0000     -11.337899      -308.5199
   9   2.0000     -11.319126      -308.0091
  10   2.0000     -11.311564      -307.8033
  11   2.0000     -11.294927      -307.3506
  12   2.0000     -11.264016      -306.5095
  13   2.0000     -11.260476      -306.4131
  14   2.0000     -11.259859      -306.3963
  15   2.0000     -11.253787      -306.2311
  16   2.0000     -11.248155      -306.0779
  17   2.0000     -11.242804      -305.9322
  18   2.0000     -11.242760      -305.9311
  19   2.0000     -11.215571      -305.1912
  20   2.0000      -8.895639      -242.0626
  21   2.0000      -6.577208      -178.9749
  22   2.0000      -6.575208      -178.9205
  23   2.0000      -6.574617      -178.9044
  24   2.0000      -1.447986       -39.4017
  25   2.0000      -1.421179       -38.6722
  26   2.0000      -1.353385       -36.8275
  27   2.0000      -1.342263       -36.5248
  28   2.0000      -1.240727       -33.7619
  29   2.0000      -1.162034       -31.6206
  30   2.0000      -1.121598       -30.5202
  31   2.0000      -1.046017       -28.4636
  32   2.0000      -1.030089       -28.0301
  33   2.0000      -1.020297       -27.7637
  34   2.0000      -0.997157       -27.1340
  35   2.0000      -0.985525       -26.8175
  36   2.0000      -0.925388       -25.1811
  37   2.0000      -0.882126       -24.0039
  38   2.0000      -0.849755       -23.1230
  39   2.0000      -0.842530       -22.9264
  40   2.0000      -0.838469       -22.8159
  41   2.0000      -0.827029       -22.5046
  42   2.0000      -0.755771       -20.5656
  43   2.0000      -0.735315       -20.0089
  44   2.0000      -0.721506       -19.6332
  45   2.0000      -0.700471       -19.0608
  46   2.0000      -0.691342       -18.8124
  47   2.0000      -0.679541       -18.4912
  48   2.0000      -0.670184       -18.2366
  49   2.0000      -0.658655       -17.9229
  50   2.0000      -0.648846       -17.6560
  51   2.0000      -0.647697       -17.6247
  52   2.0000      -0.637088       -17.3360
  53   2.0000      -0.612256       -16.6603
  54   2.0000      -0.605535       -16.4774
  55   2.0000      -0.601659       -16.3720
  56   2.0000      -0.589587       -16.0435
  57   2.0000      -0.583666       -15.8824
  58   2.0000      -0.577089       -15.7034
  59   2.0000      -0.571715       -15.5572
  60   2.0000      -0.565572       -15.3900
  61   2.0000      -0.539936       -14.6924
  62   2.0000      -0.535180       -14.5630
  63   2.0000      -0.529018       -14.3953
  64   2.0000      -0.516799       -14.0628
  65   2.0000      -0.511144       -13.9089
  66   2.0000      -0.504419       -13.7259
  67   2.0000      -0.497678       -13.5425
  68   2.0000      -0.487046       -13.2532
  69   2.0000      -0.463884       -12.6229
  70   2.0000      -0.454075       -12.3560
  71   2.0000      -0.442243       -12.0341
  72   2.0000      -0.356833        -9.7099
  73   2.0000      -0.354189        -9.6380
  74   2.0000      -0.330525        -8.9940
  75   2.0000      -0.326250        -8.8777
  76   2.0000      -0.317909        -8.6507
  77   0.0000       0.069671         1.8958
  78   0.0000       0.100241         2.7277
  79   0.0000       0.122318         3.3284
  80   0.0000       0.129008         3.5105
  81   0.0000       0.132967         3.6182

MULLIKEN ATOMIC CHARGES
-----------------------
   0 C :   -0.267073
   1 C :    0.023637
   2 O :   -0.386156
   3 C :    0.492448
   4 O :   -0.413658
   5 C :   -0.263791
   6 C :    0.161114
   7 C :   -0.269768
   8 N :   -0.123486
   9 C :    0.214752
  10 S :   -0.438341
  11 N :   -0.205314
  12 C :    0.060611
  13 C :    0.071194
  14 C :   -0.206078
  15 C :   -0.126952
  16 C :   -0.275816
  17 C :    0.318805
  18 O :   -0.356314
  19 C :   -0.272902
  20 H :    0.114952
  21 H :    0.085987
  22 H :    0.092067
  23 H :    0.096634
  24 H :    0.112171
  25 H :    0.130433
  26 H :    0.132547
  27 H :    0.095495
  28 H :    0.197955
  29 H :    0.194152
  30 H :    0.150853
  31 H :    0.149649
  32 H :    0.165656
  33 H :    0.133257
  34 H :    0.241956
  35 H :    0.169325
Sum of atomic charges:   -0.0000000

LOEWDIN ATOMIC CHARGES
----------------------
   0 C :    0.105268
   1 C :   -0.019570
   2 O :    0.287690
   3 C :   -0.417837
   4 O :    0.118516
   5 C :   -0.098374
   6 C :   -0.057669
   7 C :    0.131200
   8 N :    0.407206
   9 C :   -0.456098
  10 S :   -0.033675
  11 N :    0.396154
  12 C :   -0.052795
  13 C :   -0.036282
  14 C :    0.014880
  15 C :    0.041325
  16 C :   -0.001579
  17 C :   -0.190469
  18 O :    0.396325
  19 C :    0.031129
  20 H :   -0.026141
  21 H :   -0.031025
  22 H :   -0.028013
  23 H :   -0.030874
  24 H :   -0.025509
  25 H :   -0.005137
  26 H :   -0.003400
  27 H :   -0.023151
  28 H :   -0.057279
  29 H :   -0.065156
  30 H :   -0.008197
  31 H :   -0.029463
  32 H :   -0.020084
  33 H :   -0.034511
  34 H :   -0.152635
  35 H :   -0.024769

  Mayer bond orders larger than 0.100000
B(  0-C ,  1-C ) :   0.9854 B(  0-C , 20-H ) :   0.9733 B(  0-C , 21-H ) :   0.9778
B(  0-C , 22-H ) :   0.9786 B(  1-C ,  2-O ) :   0.8725 B(  1-C , 23-H ) :   0.9669
B(  1-C , 24-H ) :   0.9764 B(  2-O ,  3-C ) :   1.0901 B(  3-C ,  4-O ) :   1.9931
B(  3-C ,  5-C ) :   1.0785 B(  5-C ,  6-C ) :   1.6455 B(  5-C , 12-C ) :   0.9700
B(  6-C ,  7-C ) :   0.9677 B(  6-C ,  8-N ) :   1.1611 B(  7-C , 25-H ) :   0.9604
B(  7-C , 26-H ) :   0.9593 B(  7-C , 27-H ) :   0.9903 B(  8-N ,  9-C ) :   1.1807
B(  8-N , 28-H ) :   0.9476 B(  9-C , 10-S ) :   1.6078 B(  9-C , 11-N ) :   1.3066
B( 11-N , 12-C ) :   0.9700 B( 11-N , 29-H ) :   0.9526 B( 12-C , 13-C ) :   0.9455
B( 12-C , 30-H ) :   1.0013 B( 13-C , 14-C ) :   1.3412 B( 13-C , 19-C ) :   1.3685
B( 14-C , 15-C ) :   1.3880 B( 14-C , 31-H ) :   0.9768 B( 15-C , 16-C ) :   1.3640
B( 15-C , 32-H ) :   0.9688 B( 16-C , 17-C ) :   1.3295 B( 16-C , 33-H ) :   0.9838
B( 17-C , 18-O ) :   1.1133 B( 17-C , 19-C ) :   1.3681 B( 18-O , 34-H ) :   0.9789
B( 19-C , 35-H ) :   0.9586

MP2 TOTAL ENERGY:    -1274.331889903 Eh
FINAL SINGLE POINT ENERGY     -1274.331889902553

DIPOLE MOMENT
-------------
                                X             Y             Z
Electronic contribution:     10.44521       9.79138       7.22365
Nuclear contribution   :    -11.40508     -11.28261      -7.08364
                        -----------------------------------------
Total Dipole Moment    :     -0.95987      -1.49123       0.14001
                        -----------------------------------------
Magnitude (a.u.)       :      1.77897
Magnitude (Debye)      :      4.52177

Rotational constants in cm-1:     0.012181     0.008871     0.006325
Rotational constants in MHz :   365.173425   265.957725   189.633569

                             ****ORCA TERMINATED NORMALLY****
TOTAL RUN TIME: 0 days 3 hours 5 minutes 3 seconds 979 msec
