                         Program Version 4.2.0 -  RELEASE  -
|  1> ! ri-mp2 cc-pvtz cc-pvtz/c TightSCF  NoKeepInts
|  2>
|  3> %scf
|  4>   MaxCore 4096
|  5> end
|  6> *xyz  0  1
|  7>     C       14.9494953   15.0662592   17.5761156
|  8>     C       15.6074570   15.4182672   16.2322139
|  9>     O       16.9670523   14.9426029   16.2334423
| 10>     C       18.1002954   15.6897331   16.4426653
| 11>     O       19.1777605   15.1290589   16.3668850
| 12>     C       17.9501617   16.8609102   17.3575434
| 13>     C       17.4844361   18.0572194   16.9285209
| 14>     C       17.0558235   18.4215197   15.5222970
| 15>     N       17.4862571   19.1561591   17.7900407
| 16>     C       18.0809615   19.1768291   19.0243180
| 17>     S       18.1156999   20.5473651   19.9487097
| 18>     N       18.6550929   18.0049680   19.4510094
| 19>     C       18.5637803   16.7055658   18.7542682
| 20>     C       17.8375746   15.6566667   19.5963345
| 21>     C       18.1933732   14.2999016   19.4782218
| 22>     C       17.5381214   13.3151662   20.2355707
| 23>     C       16.5174493   13.6874888   21.1258409
| 24>     C       16.1606677   15.0363425   21.2518915
| 25>     O       15.1691814   15.3984632   22.1041427
| 26>     C       16.8142527   16.0153705   20.4963643
| 27>     H       15.2558019   15.7749833   18.3510080
| 28>     H       15.2261055   14.0537080   17.8973474
| 29>     H       13.8570226   15.1146760   17.4941174
| 30>     H       15.0644418   14.8821927   15.4429403
| 31>     H       15.5140949   16.4851337   16.0231120
| 32>     H       17.2075610   17.6008882   14.8105732
| 33>     H       17.6430707   19.2704680   15.1485805
| 34>     H       15.9973332   18.7081173   15.4906517
| 35>     H       17.0946810   20.0333861   17.4848765
| 36>     H       19.0817275   18.0472419   20.3680003
| 37>     H       19.5935043   16.3441314   18.6139243
| 38>     H       18.9782862   14.0047360   18.7847897
| 39>     H       17.8218221   12.2696930   20.1271102
| 40>     H       16.0073949   12.9296451   21.7111957
| 41>     H       14.8710343   14.5970573   22.5602239
| 42>     H       16.5082244   17.0500851   20.6091533
| 43> *
| 44>
| 45>                          ****END OF INPUT****

CARTESIAN COORDINATES (ANGSTROEM)
---------------------------------
  C     14.949495   15.066259   17.576116
  C     15.607457   15.418267   16.232214
  O     16.967052   14.942603   16.233442
  C     18.100295   15.689733   16.442665
  O     19.177760   15.129059   16.366885
  C     17.950162   16.860910   17.357543
  C     17.484436   18.057219   16.928521
  C     17.055823   18.421520   15.522297
  N     17.486257   19.156159   17.790041
  C     18.080962   19.176829   19.024318
  S     18.115700   20.547365   19.948710
  N     18.655093   18.004968   19.451009
  C     18.563780   16.705566   18.754268
  C     17.837575   15.656667   19.596335
  C     18.193373   14.299902   19.478222
  C     17.538121   13.315166   20.235571
  C     16.517449   13.687489   21.125841
  C     16.160668   15.036342   21.251891
  O     15.169181   15.398463   22.104143
  C     16.814253   16.015370   20.496364
  H     15.255802   15.774983   18.351008
  H     15.226105   14.053708   17.897347
  H     13.857023   15.114676   17.494117
  H     15.064442   14.882193   15.442940
  H     15.514095   16.485134   16.023112
  H     17.207561   17.600888   14.810573
  H     17.643071   19.270468   15.148580
  H     15.997333   18.708117   15.490652
  H     17.094681   20.033386   17.484876
  H     19.081727   18.047242   20.368000
  H     19.593504   16.344131   18.613924
  H     18.978286   14.004736   18.784790
  H     17.821822   12.269693   20.127110
  H     16.007395   12.929645   21.711196
  H     14.871034   14.597057   22.560224
  H     16.508224   17.050085   20.609153

 Total Charge           Charge          ....    0
 Multiplicity           Mult            ....    1
 Number of Electrons    NEL             ....  154
 Basis Dimension        Dim             ....  828

ORBITAL ENERGIES
----------------

  NO   OCC          E(Eh)            E(eV)
   0   2.0000     -91.889714     -2500.4462
   1   2.0000     -20.602363      -560.6188
   2   2.0000     -20.597347      -560.4823
   3   2.0000     -20.553106      -559.2784
   4   2.0000     -15.626046      -425.2063
   5   2.0000     -15.611421      -424.8084
   6   2.0000     -11.400252      -310.2166
   7   2.0000     -11.386420      -309.8402
   8   2.0000     -11.329076      -308.2798
   9   2.0000     -11.316275      -307.9315
  10   2.0000     -11.314066      -307.8714
  11   2.0000     -11.305287      -307.6325
  12   2.0000     -11.272808      -306.7487
  13   2.0000     -11.268464      -306.6305
  14   2.0000     -11.262729      -306.4744
  15   2.0000     -11.254506      -306.2507
  16   2.0000     -11.243333      -305.9467
  17   2.0000     -11.239249      -305.8355
  18   2.0000     -11.235922      -305.7450
  19   2.0000     -11.225422      -305.4593
  20   2.0000      -8.894832      -242.0407
  21   2.0000      -6.576426      -178.9536
  22   2.0000      -6.574393      -178.8983
  23   2.0000      -6.573822      -178.8828
  24   2.0000      -1.450883       -39.4805
  25   2.0000      -1.417157       -38.5628
  26   2.0000      -1.361037       -37.0357
  27   2.0000      -1.340239       -36.4697
  28   2.0000      -1.239963       -33.7411
  29   2.0000      -1.158720       -31.5304
  30   2.0000      -1.125357       -30.6225
  31   2.0000      -1.048051       -28.5189
  32   2.0000      -1.038713       -28.2648
  33   2.0000      -1.017402       -27.6849
  34   2.0000      -1.005276       -27.3549
  35   2.0000      -0.989602       -26.9284
  36   2.0000      -0.927711       -25.2443
  37   2.0000      -0.890038       -24.2192
  38   2.0000      -0.854905       -23.2632
  39   2.0000      -0.840772       -22.8786
  40   2.0000      -0.834017       -22.6948
  41   2.0000      -0.832736       -22.6599
  42   2.0000      -0.755386       -20.5551
  43   2.0000      -0.739858       -20.1326
  44   2.0000      -0.730286       -19.8721
  45   2.0000      -0.695342       -18.9212
  46   2.0000      -0.688569       -18.7369
  47   2.0000      -0.682006       -18.5583
  48   2.0000      -0.675704       -18.3868
  49   2.0000      -0.664003       -18.0684
  50   2.0000      -0.652903       -17.7664
  51   2.0000      -0.639729       -17.4079
  52   2.0000      -0.634458       -17.2645
  53   2.0000      -0.622998       -16.9526
  54   2.0000      -0.612106       -16.6563
  55   2.0000      -0.605911       -16.4877
  56   2.0000      -0.601312       -16.3625
  57   2.0000      -0.590357       -16.0644
  58   2.0000      -0.577698       -15.7200
  59   2.0000      -0.570395       -15.5212
  60   2.0000      -0.565301       -15.3826
  61   2.0000      -0.557019       -15.1572
  62   2.0000      -0.536632       -14.6025
  63   2.0000      -0.534377       -14.5411
  64   2.0000      -0.516874       -14.0649
  65   2.0000      -0.512298       -13.9403
  66   2.0000      -0.504736       -13.7346
  67   2.0000      -0.501406       -13.6439
  68   2.0000      -0.484638       -13.1877
  69   2.0000      -0.467744       -12.7280
  70   2.0000      -0.454590       -12.3700
  71   2.0000      -0.449523       -12.2321
  72   2.0000      -0.358139        -9.7455
  73   2.0000      -0.348284        -9.4773
  74   2.0000      -0.329468        -8.9653
  75   2.0000      -0.322422        -8.7736
  76   2.0000      -0.318489        -8.6665
  77   0.0000       0.089820         2.4441
  78   0.0000       0.105095         2.8598
  79   0.0000       0.109630         2.9832
  80   0.0000       0.128294         3.4911
  81   0.0000       0.131197         3.5700

MULLIKEN ATOMIC CHARGES
-----------------------
   0 C :   -0.296520
   1 C :    0.009965
   2 O :   -0.310599
   3 C :    0.397418
   4 O :   -0.378173
   5 C :   -0.179668
   6 C :    0.127819
   7 C :   -0.324874
   8 N :   -0.139007
   9 C :    0.208919
  10 S :   -0.442755
  11 N :   -0.235123
  12 C :    0.092624
  13 C :    0.024576
  14 C :   -0.205902
  15 C :   -0.142719
  16 C :   -0.273461
  17 C :    0.326185
  18 O :   -0.357679
  19 C :   -0.281471
  20 H :    0.104189
  21 H :    0.117206
  22 H :    0.105859
  23 H :    0.122499
  24 H :    0.086330
  25 H :    0.119715
  26 H :    0.143017
  27 H :    0.120676
  28 H :    0.194737
  29 H :    0.204620
  30 H :    0.168896
  31 H :    0.172536
  32 H :    0.164991
  33 H :    0.131953
  34 H :    0.240931
  35 H :    0.182294
Sum of atomic charges:   -0.0000000

LOEWDIN ATOMIC CHARGES
----------------------
   0 C :    0.107650
   1 C :   -0.024659
   2 O :    0.314523
   3 C :   -0.418733
   4 O :    0.127811
   5 C :   -0.075977
   6 C :   -0.109147
   7 C :    0.120174
   8 N :    0.400943
   9 C :   -0.456808
  10 S :   -0.039057
  11 N :    0.398334
  12 C :   -0.040857
  13 C :   -0.040583
  14 C :    0.022390
  15 C :    0.044600
  16 C :   -0.001541
  17 C :   -0.192286
  18 O :    0.395702
  19 C :    0.026145
  20 H :   -0.032783
  21 H :   -0.020190
  22 H :   -0.027036
  23 H :   -0.024111
  24 H :   -0.039041
  25 H :   -0.010441
  26 H :   -0.008161
  27 H :   -0.017792
  28 H :   -0.058350
  29 H :   -0.063607
  30 H :   -0.001569
  31 H :   -0.022087
  32 H :   -0.018680
  33 H :   -0.035221
  34 H :   -0.153488
  35 H :   -0.026065

  Mayer bond orders larger than 0.100000
B(  0-C ,  1-C ) :   0.9648 B(  0-C , 20-H ) :   0.9722 B(  0-C , 21-H ) :   0.9714
B(  0-C , 22-H ) :   0.9781 B(  1-C ,  2-O ) :   0.9143 B(  1-C , 23-H ) :   0.9866
B(  1-C , 24-H ) :   0.9707 B(  2-O ,  3-C ) :   1.1449 B(  3-C ,  4-O ) :   2.0823
B(  3-C ,  5-C ) :   0.9196 B(  5-C ,  6-C ) :   1.7070 B(  5-C , 12-C ) :   0.9500
B(  6-C ,  7-C ) :   0.9401 B(  6-C ,  8-N ) :   1.1061 B(  7-C , 25-H ) :   0.9830
B(  7-C , 26-H ) :   0.9677 B(  7-C , 27-H ) :   0.9682 B(  8-N ,  9-C ) :   1.2016
B(  8-N , 28-H ) :   0.9535 B(  9-C , 10-S ) :   1.6049 B(  9-C , 11-N ) :   1.2874
B( 11-N , 12-C ) :   0.9797 B( 11-N , 29-H ) :   0.9460 B( 12-C , 13-C ) :   0.9546
B( 12-C , 30-H ) :   0.9937 B( 13-C , 14-C ) :   1.3855 B( 13-C , 19-C ) :   1.3377
B( 14-C , 15-C ) :   1.4052 B( 14-C , 31-H ) :   0.9598 B( 15-C , 16-C ) :   1.3544
B( 15-C , 32-H ) :   0.9694 B( 16-C , 17-C ) :   1.3329 B( 16-C , 33-H ) :   0.9849
B( 17-C , 18-O ) :   1.1082 B( 17-C , 19-C ) :   1.3615 B( 18-O , 34-H ) :   0.9797
B( 19-C , 35-H ) :   0.9576

MP2 TOTAL ENERGY:    -1274.324581270 Eh
FINAL SINGLE POINT ENERGY     -1274.324581270330

DIPOLE MOMENT
-------------
                                X             Y             Z
Electronic contribution:      9.45261       6.85109       6.29283
Nuclear contribution   :    -10.98416      -7.87601      -7.09650
                        -----------------------------------------
Total Dipole Moment    :     -1.53155      -1.02492      -0.80367
                        -----------------------------------------
Magnitude (a.u.)       :      2.01047
Magnitude (Debye)      :      5.11021

Rotational constants in cm-1:     0.012048     0.009453     0.006706
Rotational constants in MHz :   361.175574   283.406366   201.055521

                             ****ORCA TERMINATED NORMALLY****
TOTAL RUN TIME: 0 days 1 hours 54 minutes 15 seconds 59 msec
