                         Program Version 5.0.0 -  RELEASE  -
|  1> ! ri-mp2 cc-pvtz cc-pvtz/c TightSCF NoKeepInts
|  2>
|  3> %scf
|  4>   MaxCore 4096
|  5> end
|  6> *xyz  0  1
|  7>     C       15.0592987   15.5207002   17.5609356
|  8>     C       15.6334270   15.2629242   16.1534419
|  9>     O       17.0209731   14.8671934   16.2023886
| 10>     C       18.1306917   15.6328179   16.4774648
| 11>     O       19.2187753   15.0886571   16.4394580
| 12>     C       17.9431344   16.8154665   17.3697611
| 13>     C       17.4037370   17.9769821   16.9316040
| 14>     C       16.9178413   18.2906056   15.5334147
| 15>     N       17.3548529   19.0861238   17.7788476
| 16>     C       17.9604110   19.1560791   19.0060634
| 17>     S       17.9283235   20.5386924   19.9123586
| 18>     N       18.5993338   18.0220978   19.4430181
| 19>     C       18.5686252   16.7103307   18.7646990
| 20>     C       17.8790245   15.6476958   19.6189272
| 21>     C       18.3273485   14.3144998   19.5718661
| 22>     C       17.7030620   13.3183959   20.3405775
| 23>     C       16.6193972   13.6558576   21.1683783
| 24>     C       16.1681327   14.9812032   21.2201277
| 25>     O       15.1148553   15.3086224   22.0100412
| 26>     C       16.7907480   15.9711891   20.4530710
| 27>     H       15.3594316   14.7205278   18.2492670
| 28>     H       13.9633268   15.5334933   17.5237502
| 29>     H       15.3801441   16.4808889   17.9754994
| 30>     H       15.0690513   14.4299024   15.7143090
| 31>     H       15.4774121   16.1261766   15.5001522
| 32>     H       17.2019512   17.5164206   14.8102814
| 33>     H       17.3580571   19.2285234   15.1706594
| 34>     H       15.8270760   18.4032291   15.5092205
| 35>     H       16.9103524   19.9355926   17.4677910
| 36>     H       19.0287473   18.0985491   20.3564694
| 37>     H       19.6128899   16.3912845   18.6296829
| 38>     H       19.1597049   14.0463534   18.9242350
| 39>     H       18.0585970   12.2907147   20.2883508
| 40>     H       16.1331158   12.8888227   21.7619411
| 41>     H       14.8510072   14.5082715   22.4885692
| 42>     H       16.4141422   16.9871148   20.5073772
| 43> *
| 44>
| 45>                          ****END OF INPUT****

CARTESIAN COORDINATES (ANGSTROEM)
---------------------------------
  C     15.059299   15.520700   17.560936
  C     15.633427   15.262924   16.153442
  O     17.020973   14.867193   16.202389
  C     18.130692   15.632818   16.477465
  O     19.218775   15.088657   16.439458
  C     17.943134   16.815466   17.369761
  C     17.403737   17.976982   16.931604
  C     16.917841   18.290606   15.533415
  N     17.354853   19.086124   17.778848
  C     17.960411   19.156079   19.006063
  S     17.928324   20.538692   19.912359
  N     18.599334   18.022098   19.443018
  C     18.568625   16.710331   18.764699
  C     17.879024   15.647696   19.618927
  C     18.327348   14.314500   19.571866
  C     17.703062   13.318396   20.340577
  C     16.619397   13.655858   21.168378
  C     16.168133   14.981203   21.220128
  O     15.114855   15.308622   22.010041
  C     16.790748   15.971189   20.453071
  H     15.359432   14.720528   18.249267
  H     13.963327   15.533493   17.523750
  H     15.380144   16.480889   17.975499
  H     15.069051   14.429902   15.714309
  H     15.477412   16.126177   15.500152
  H     17.201951   17.516421   14.810281
  H     17.358057   19.228523   15.170659
  H     15.827076   18.403229   15.509220
  H     16.910352   19.935593   17.467791
  H     19.028747   18.098549   20.356469
  H     19.612890   16.391285   18.629683
  H     19.159705   14.046353   18.924235
  H     18.058597   12.290715   20.288351
  H     16.133116   12.888823   21.761941
  H     14.851007   14.508271   22.488569
  H     16.414142   16.987115   20.507377

 Total Charge           Charge          ....    0
 Multiplicity           Mult            ....    1
 Number of Electrons    NEL             ....  154
 Basis Dimension        Dim             ....  828

ORBITAL ENERGIES
----------------

  NO   OCC          E(Eh)            E(eV)
   0   2.0000     -91.889868     -2500.4504
   1   2.0000     -20.600344      -560.5639
   2   2.0000     -20.597051      -560.4743
   3   2.0000     -20.551410      -559.2323
   4   2.0000     -15.626831      -425.2277
   5   2.0000     -15.611221      -424.8029
   6   2.0000     -11.400170      -310.2144
   7   2.0000     -11.386467      -309.8415
   8   2.0000     -11.328549      -308.2655
   9   2.0000     -11.315154      -307.9010
  10   2.0000     -11.313503      -307.8561
  11   2.0000     -11.308592      -307.7224
  12   2.0000     -11.272432      -306.7385
  13   2.0000     -11.267101      -306.5934
  14   2.0000     -11.261531      -306.4418
  15   2.0000     -11.254131      -306.2405
  16   2.0000     -11.243377      -305.9478
  17   2.0000     -11.238851      -305.8247
  18   2.0000     -11.235895      -305.7442
  19   2.0000     -11.228722      -305.5490
  20   2.0000      -8.894981      -242.0447
  21   2.0000      -6.576574      -178.9577
  22   2.0000      -6.574543      -178.9024
  23   2.0000      -6.573970      -178.8868
  24   2.0000      -1.447811       -39.3969
  25   2.0000      -1.416883       -38.5553
  26   2.0000      -1.358504       -36.9668
  27   2.0000      -1.340522       -36.4775
  28   2.0000      -1.239974       -33.7414
  29   2.0000      -1.158588       -31.5268
  30   2.0000      -1.125197       -30.6182
  31   2.0000      -1.047862       -28.5138
  32   2.0000      -1.038768       -28.2663
  33   2.0000      -1.016838       -27.6696
  34   2.0000      -1.005581       -27.3632
  35   2.0000      -0.989885       -26.9361
  36   2.0000      -0.927777       -25.2461
  37   2.0000      -0.895735       -24.3742
  38   2.0000      -0.854746       -23.2588
  39   2.0000      -0.840375       -22.8678
  40   2.0000      -0.833958       -22.6931
  41   2.0000      -0.830161       -22.5898
  42   2.0000      -0.750230       -20.4148
  43   2.0000      -0.739686       -20.1279
  44   2.0000      -0.730273       -19.8717
  45   2.0000      -0.694948       -18.9105
  46   2.0000      -0.687394       -18.7049
  47   2.0000      -0.679911       -18.5013
  48   2.0000      -0.675177       -18.3725
  49   2.0000      -0.664017       -18.0688
  50   2.0000      -0.652122       -17.7451
  51   2.0000      -0.645612       -17.5680
  52   2.0000      -0.640204       -17.4208
  53   2.0000      -0.615775       -16.7561
  54   2.0000      -0.610722       -16.6186
  55   2.0000      -0.605663       -16.4809
  56   2.0000      -0.601701       -16.3731
  57   2.0000      -0.591026       -16.0826
  58   2.0000      -0.580535       -15.7972
  59   2.0000      -0.573226       -15.5983
  60   2.0000      -0.565367       -15.3844
  61   2.0000      -0.557402       -15.1677
  62   2.0000      -0.540459       -14.7066
  63   2.0000      -0.529405       -14.4058
  64   2.0000      -0.517582       -14.0841
  65   2.0000      -0.512603       -13.9486
  66   2.0000      -0.504396       -13.7253
  67   2.0000      -0.500985       -13.6325
  68   2.0000      -0.484018       -13.1708
  69   2.0000      -0.463437       -12.6108
  70   2.0000      -0.454547       -12.3689
  71   2.0000      -0.452088       -12.3019
  72   2.0000      -0.356868        -9.7109
  73   2.0000      -0.347851        -9.4655
  74   2.0000      -0.329550        -8.9675
  75   2.0000      -0.322385        -8.7726
  76   2.0000      -0.318243        -8.6598
  77   0.0000       0.086684         2.3588
  78   0.0000       0.105650         2.8749
  79   0.0000       0.112030         3.0485
  80   0.0000       0.129722         3.5299
  81   0.0000       0.131092         3.5672

MULLIKEN ATOMIC CHARGES
-----------------------
   0 C :   -0.316901
   1 C :    0.008666
   2 O :   -0.317797
   3 C :    0.405546
   4 O :   -0.378936
   5 C :   -0.185371
   6 C :    0.135142
   7 C :   -0.333838
   8 N :   -0.136400
   9 C :    0.205875
  10 S :   -0.441552
  11 N :   -0.228414
  12 C :    0.087068
  13 C :    0.027183
  14 C :   -0.207632
  15 C :   -0.135252
  16 C :   -0.278350
  17 C :    0.317139
  18 O :   -0.358831
  19 C :   -0.274944
  20 H :    0.125754
  21 H :    0.113264
  22 H :    0.105462
  23 H :    0.132780
  24 H :    0.089656
  25 H :    0.122879
  26 H :    0.139498
  27 H :    0.122544
  28 H :    0.196052
  29 H :    0.202739
  30 H :    0.169253
  31 H :    0.172770
  32 H :    0.163502
  33 H :    0.131853
  34 H :    0.241011
  35 H :    0.178580
Sum of atomic charges:    0.0000000

LOEWDIN ATOMIC CHARGES
----------------------
   0 C :    0.103823
   1 C :   -0.021444
   2 O :    0.305902
   3 C :   -0.416435
   4 O :    0.127450
   5 C :   -0.076501
   6 C :   -0.104946
   7 C :    0.121727
   8 N :    0.401451
   9 C :   -0.457481
  10 S :   -0.038428
  11 N :    0.398647
  12 C :   -0.041659
  13 C :   -0.041418
  14 C :    0.021971
  15 C :    0.043725
  16 C :   -0.002181
  17 C :   -0.194118
  18 O :    0.395339
  19 C :    0.028745
  20 H :   -0.018370
  21 H :   -0.025673
  22 H :   -0.037005
  23 H :   -0.018058
  24 H :   -0.040510
  25 H :   -0.010021
  26 H :   -0.008782
  27 H :   -0.017617
  28 H :   -0.058247
  29 H :   -0.063412
  30 H :   -0.001305
  31 H :   -0.021851
  32 H :   -0.018663
  33 H :   -0.035109
  34 H :   -0.153667
  35 H :   -0.025879

  Mayer bond orders larger than 0.100000
B(  0-C ,  1-C ) :   0.9547 B(  0-C , 20-H ) :   0.9695 B(  0-C , 21-H ) :   0.9765
B(  0-C , 22-H ) :   0.9723 B(  1-C ,  2-O ) :   0.9124 B(  1-C , 23-H ) :   0.9838
B(  1-C , 24-H ) :   0.9756 B(  2-O ,  3-C ) :   1.1538 B(  3-C ,  4-O ) :   2.0805
B(  3-C ,  5-C ) :   0.9189 B(  5-C ,  6-C ) :   1.7027 B(  5-C , 12-C ) :   0.9520
B(  6-C ,  7-C ) :   0.9435 B(  6-C ,  8-N ) :   1.1014 B(  7-C , 25-H ) :   0.9820
B(  7-C , 26-H ) :   0.9710 B(  7-C , 27-H ) :   0.9660 B(  8-N ,  9-C ) :   1.1973
B(  8-N , 28-H ) :   0.9531 B(  9-C , 10-S ) :   1.6077 B(  9-C , 11-N ) :   1.2870
B( 11-N , 12-C ) :   0.9857 B( 11-N , 29-H ) :   0.9474 B( 12-C , 13-C ) :   0.9521
B( 12-C , 30-H ) :   0.9950 B( 13-C , 14-C ) :   1.3883 B( 13-C , 19-C ) :   1.3369
B( 14-C , 15-C ) :   1.4030 B( 14-C , 31-H ) :   0.9595 B( 15-C , 16-C ) :   1.3571
B( 15-C , 32-H ) :   0.9702 B( 16-C , 17-C ) :   1.3315 B( 16-C , 33-H ) :   0.9850
B( 17-C , 18-O ) :   1.1091 B( 17-C , 19-C ) :   1.3697 B( 18-O , 34-H ) :   0.9797
B( 19-C , 35-H ) :   0.9566

MP2 TOTAL ENERGY:    -1274.323654527 Eh
FINAL SINGLE POINT ENERGY     -1274.323654526938

DIPOLE MOMENT
-------------
                                X             Y             Z
Electronic contribution:      9.13208       6.12274       6.31162
Nuclear contribution   :    -10.65036      -7.19122      -7.10632
                        -----------------------------------------
Total Dipole Moment    :     -1.51828      -1.06848      -0.79470
                        -----------------------------------------
Magnitude (a.u.)       :      2.01950
Magnitude (Debye)      :      5.13317

Rotational constants in cm-1:     0.011989     0.009568     0.006851
Rotational constants in MHz :   359.432584   286.835589   205.401642

                             ****ORCA TERMINATED NORMALLY****
TOTAL RUN TIME: 0 days 1 hours 42 minutes 51 seconds 699 msec
