                         Program Version 4.2.0 -  RELEASE  -
|  1> ! ri-mp2 cc-pvtz cc-pvtz/c TightSCF  NoKeepInts
|  2>
|  3> %scf
|  4>   MaxCore 4096
|  5> end
|  6> *xyz  0  1
|  7>     C       14.5173369   14.6049427   15.3455194
|  8>     C       15.6915573   14.4356122   16.3238924
|  9>     O       16.6086108   15.5153660   16.0870155
| 10>     C       17.7807429   15.5225896   16.7836381
| 11>     O       18.3359588   14.4835615   17.1011530
| 12>     C       17.9931830   16.7942999   17.5503932
| 13>     C       17.5411301   18.0111806   17.1524237
| 14>     C       16.7824419   18.3475516   15.8851503
| 15>     N       17.8360065   19.1453940   17.9155427
| 16>     C       18.6855722   19.1664270   18.9903037
| 17>     S       19.0757662   20.5745891   19.7651121
| 18>     N       19.1967899   17.9574788   19.3902316
| 19>     C       18.7820818   16.6466001   18.8555453
| 20>     C       17.9720747   15.8773905   19.8959439
| 21>     C       18.3629412   14.5845372   20.2905193
| 22>     C       17.6164133   13.8692574   21.2418268
| 23>     C       16.4675629   14.4507740   21.8045182
| 24>     C       16.0723853   15.7365898   21.4114205
| 25>     O       14.9593166   16.2980175   21.9472475
| 26>     C       16.8170766   16.4457518   20.4638352
| 27>     H       14.8722585   14.5768115   14.3077271
| 28>     H       14.0085071   15.5621955   15.5131826
| 29>     H       13.7860139   13.7986904   15.4801147
| 30>     H       15.3317820   14.4595621   17.3614880
| 31>     H       16.1808619   13.4681654   16.1449631
| 32>     H       17.2227442   17.8392192   15.0182063
| 33>     H       16.7883925   19.4216036   15.6631298
| 34>     H       15.7356493   18.0287930   15.9651841
| 35>     H       17.4709761   20.0423516   17.6374340
| 36>     H       19.7961026   17.9970635   20.2046237
| 37>     H       19.6935674   16.0727940   18.6338423
| 38>     H       19.2410363   14.1253801   19.8428475
| 39>     H       17.9267184   12.8676361   21.5340255
| 40>     H       15.8872564   13.9011156   22.5380797
| 41>     H       14.6149187   15.6818398   22.6110411
| 42>     H       16.4952657   17.4408670   20.1768780
| 43> *
| 44>
| 45>                          ****END OF INPUT****

CARTESIAN COORDINATES (ANGSTROEM)
---------------------------------
  C     14.517337   14.604943   15.345519
  C     15.691557   14.435612   16.323892
  O     16.608611   15.515366   16.087015
  C     17.780743   15.522590   16.783638
  O     18.335959   14.483562   17.101153
  C     17.993183   16.794300   17.550393
  C     17.541130   18.011181   17.152424
  C     16.782442   18.347552   15.885150
  N     17.836006   19.145394   17.915543
  C     18.685572   19.166427   18.990304
  S     19.075766   20.574589   19.765112
  N     19.196790   17.957479   19.390232
  C     18.782082   16.646600   18.855545
  C     17.972075   15.877390   19.895944
  C     18.362941   14.584537   20.290519
  C     17.616413   13.869257   21.241827
  C     16.467563   14.450774   21.804518
  C     16.072385   15.736590   21.411420
  O     14.959317   16.298018   21.947247
  C     16.817077   16.445752   20.463835
  H     14.872258   14.576811   14.307727
  H     14.008507   15.562195   15.513183
  H     13.786014   13.798690   15.480115
  H     15.331782   14.459562   17.361488
  H     16.180862   13.468165   16.144963
  H     17.222744   17.839219   15.018206
  H     16.788393   19.421604   15.663130
  H     15.735649   18.028793   15.965184
  H     17.470976   20.042352   17.637434
  H     19.796103   17.997063   20.204624
  H     19.693567   16.072794   18.633842
  H     19.241036   14.125380   19.842847
  H     17.926718   12.867636   21.534025
  H     15.887256   13.901116   22.538080
  H     14.614919   15.681840   22.611041
  H     16.495266   17.440867   20.176878

 Total Charge           Charge          ....    0
 Multiplicity           Mult            ....    1
 Number of Electrons    NEL             ....  154
 Basis Dimension        Dim             ....  828

ORBITAL ENERGIES
----------------

  NO   OCC          E(Eh)            E(eV)
   0   2.0000     -91.888293     -2500.4076
   1   2.0000     -20.593903      -560.3886
   2   2.0000     -20.593641      -560.3815
   3   2.0000     -20.550897      -559.2183
   4   2.0000     -15.628242      -425.2661
   5   2.0000     -15.607364      -424.6980
   6   2.0000     -11.394614      -310.0632
   7   2.0000     -11.383504      -309.7609
   8   2.0000     -11.334346      -308.4232
   9   2.0000     -11.309598      -307.7498
  10   2.0000     -11.307071      -307.6810
  11   2.0000     -11.298300      -307.4424
  12   2.0000     -11.259989      -306.3999
  13   2.0000     -11.259535      -306.3875
  14   2.0000     -11.255294      -306.2721
  15   2.0000     -11.249637      -306.1182
  16   2.0000     -11.239321      -305.8375
  17   2.0000     -11.235360      -305.7297
  18   2.0000     -11.233531      -305.6799
  19   2.0000     -11.232412      -305.6495
  20   2.0000      -8.893362      -242.0007
  21   2.0000      -6.574940      -178.9132
  22   2.0000      -6.572932      -178.8586
  23   2.0000      -6.572347      -178.8427
  24   2.0000      -1.454509       -39.5792
  25   2.0000      -1.413395       -38.4604
  26   2.0000      -1.357208       -36.9315
  27   2.0000      -1.339260       -36.4431
  28   2.0000      -1.237226       -33.6666
  29   2.0000      -1.153890       -31.3989
  30   2.0000      -1.120349       -30.4863
  31   2.0000      -1.044323       -28.4175
  32   2.0000      -1.036750       -28.2114
  33   2.0000      -1.011301       -27.5189
  34   2.0000      -0.998268       -27.1643
  35   2.0000      -0.983897       -26.7732
  36   2.0000      -0.921988       -25.0886
  37   2.0000      -0.885016       -24.0825
  38   2.0000      -0.847314       -23.0566
  39   2.0000      -0.836501       -22.7624
  40   2.0000      -0.829781       -22.5795
  41   2.0000      -0.821512       -22.3545
  42   2.0000      -0.759545       -20.6683
  43   2.0000      -0.735948       -20.0262
  44   2.0000      -0.726403       -19.7664
  45   2.0000      -0.691884       -18.8271
  46   2.0000      -0.684560       -18.6278
  47   2.0000      -0.681105       -18.5338
  48   2.0000      -0.675702       -18.3868
  49   2.0000      -0.654780       -17.8175
  50   2.0000      -0.652020       -17.7424
  51   2.0000      -0.643144       -17.5008
  52   2.0000      -0.634615       -17.2687
  53   2.0000      -0.610365       -16.6089
  54   2.0000      -0.602114       -16.3844
  55   2.0000      -0.601533       -16.3685
  56   2.0000      -0.597033       -16.2461
  57   2.0000      -0.576664       -15.6918
  58   2.0000      -0.574772       -15.6403
  59   2.0000      -0.563284       -15.3277
  60   2.0000      -0.560071       -15.2403
  61   2.0000      -0.545818       -14.8525
  62   2.0000      -0.542709       -14.7679
  63   2.0000      -0.522517       -14.2184
  64   2.0000      -0.518823       -14.1179
  65   2.0000      -0.510275       -13.8853
  66   2.0000      -0.504388       -13.7251
  67   2.0000      -0.496562       -13.5121
  68   2.0000      -0.481813       -13.1108
  69   2.0000      -0.464160       -12.6304
  70   2.0000      -0.460736       -12.5373
  71   2.0000      -0.451843       -12.2953
  72   2.0000      -0.353954        -9.6316
  73   2.0000      -0.345703        -9.4071
  74   2.0000      -0.327511        -8.9120
  75   2.0000      -0.316729        -8.6186
  76   2.0000      -0.315047        -8.5729
  77   0.0000       0.073435         1.9983
  78   0.0000       0.109010         2.9663
  79   0.0000       0.119792         3.2597
  80   0.0000       0.134312         3.6548
  81   0.0000       0.137848         3.7510

MULLIKEN ATOMIC CHARGES
-----------------------
   0 C :   -0.272014
   1 C :    0.045379
   2 O :   -0.355827
   3 C :    0.444521
   4 O :   -0.409859
   5 C :   -0.182561
   6 C :    0.139668
   7 C :   -0.285099
   8 N :   -0.124038
   9 C :    0.202730
  10 S :   -0.439839
  11 N :   -0.199404
  12 C :    0.046162
  13 C :    0.052340
  14 C :   -0.161571
  15 C :   -0.132957
  16 C :   -0.280592
  17 C :    0.311657
  18 O :   -0.358879
  19 C :   -0.276456
  20 H :    0.098921
  21 H :    0.090348
  22 H :    0.096682
  23 H :    0.091555
  24 H :    0.108787
  25 H :    0.125098
  26 H :    0.104053
  27 H :    0.125958
  28 H :    0.197101
  29 H :    0.193980
  30 H :    0.154349
  31 H :    0.154321
  32 H :    0.159834
  33 H :    0.129132
  34 H :    0.240396
  35 H :    0.166126
Sum of atomic charges:    0.0000000

LOEWDIN ATOMIC CHARGES
----------------------
   0 C :    0.107846
   1 C :   -0.017442
   2 O :    0.298288
   3 C :   -0.414447
   4 O :    0.117407
   5 C :   -0.092596
   6 C :   -0.070804
   7 C :    0.125599
   8 N :    0.404359
   9 C :   -0.458028
  10 S :   -0.036395
  11 N :    0.397370
  12 C :   -0.045756
  13 C :   -0.039505
  14 C :    0.021848
  15 C :    0.041285
  16 C :   -0.002450
  17 C :   -0.193531
  18 O :    0.393099
  19 C :    0.027862
  20 H :   -0.025614
  21 H :   -0.030147
  22 H :   -0.023534
  23 H :   -0.029499
  24 H :   -0.027368
  25 H :   -0.008169
  26 H :   -0.020136
  27 H :   -0.010558
  28 H :   -0.058900
  29 H :   -0.063921
  30 H :   -0.004763
  31 H :   -0.025044
  32 H :   -0.020857
  33 H :   -0.036124
  34 H :   -0.154595
  35 H :   -0.024779

  Mayer bond orders larger than 0.100000
B(  0-C ,  1-C ) :   0.9728 B(  0-C , 20-H ) :   0.9772 B(  0-C , 21-H ) :   0.9789
B(  0-C , 22-H ) :   0.9775 B(  1-C ,  2-O ) :   0.9003 B(  1-C , 23-H ) :   0.9714
B(  1-C , 24-H ) :   0.9788 B(  2-O ,  3-C ) :   1.1148 B(  3-C ,  4-O ) :   2.0088
B(  3-C ,  5-C ) :   1.0377 B(  5-C ,  6-C ) :   1.6600 B(  5-C , 12-C ) :   0.9652
B(  6-C ,  7-C ) :   0.9525 B(  6-C ,  8-N ) :   1.1402 B(  7-C , 25-H ) :   0.9688
B(  7-C , 26-H ) :   0.9899 B(  7-C , 27-H ) :   0.9627 B(  8-N ,  9-C ) :   1.1823
B(  8-N , 28-H ) :   0.9495 B(  9-C , 10-S ) :   1.6103 B(  9-C , 11-N ) :   1.3019
B( 11-N , 12-C ) :   0.9914 B( 11-N , 29-H ) :   0.9518 B( 12-C , 13-C ) :   0.9464
B( 12-C , 30-H ) :   0.9989 B( 13-C , 14-C ) :   1.3771 B( 13-C , 19-C ) :   1.3681
B( 14-C , 15-C ) :   1.3948 B( 14-C , 31-H ) :   0.9645 B( 15-C , 16-C ) :   1.3631
B( 15-C , 32-H ) :   0.9712 B( 16-C , 17-C ) :   1.3311 B( 16-C , 33-H ) :   0.9856
B( 17-C , 18-O ) :   1.1087 B( 17-C , 19-C ) :   1.3773 B( 18-O , 34-H ) :   0.9803
B( 19-C , 35-H ) :   0.9582

MP2 TOTAL ENERGY:    -1274.335336863 Eh
FINAL SINGLE POINT ENERGY     -1274.335336862882

DIPOLE MOMENT
-------------
                                X             Y             Z
Electronic contribution:     11.40917       9.53431       9.68238
Nuclear contribution   :    -12.82806     -10.88742     -10.42683
                        -----------------------------------------
Total Dipole Moment    :     -1.41889      -1.35311      -0.74445
                        -----------------------------------------
Magnitude (a.u.)       :      2.09723
Magnitude (Debye)      :      5.33073

Rotational constants in cm-1:     0.010622     0.009139     0.006197
Rotational constants in MHz :   318.436382   273.989207   185.791475

                             ****ORCA TERMINATED NORMALLY****
TOTAL RUN TIME: 0 days 1 hours 41 minutes 44 seconds 68 msec
