                         Program Version 4.2.0 -  RELEASE  -
|  1> ! ri-mp2 cc-pvtz cc-pvtz/c TightSCF  NoKeepInts
|  2>
|  3> %scf
|  4>   MaxCore 4096
|  5> end
|  6> *xyz  0  1
|  7>     C       14.2739042   15.2923221   16.2211460
|  8>     C       15.4171817   15.5092906   17.2258691
|  9>     O       16.6333670   15.0675916   16.5897395
| 10>     C       17.7967838   15.7888618   16.4844021
| 11>     O       18.7964595   15.2272906   16.0775079
| 12>     C       17.9318128   16.9279041   17.4364937
| 13>     C       17.3934359   18.1412447   17.1826457
| 14>     C       16.5910322   18.5357267   15.9615749
| 15>     N       17.5935548   19.1917254   18.0802167
| 16>     C       18.3861682   19.1198345   19.1970625
| 17>     S       18.6046954   20.4236080   20.1901848
| 18>     N       18.9827151   17.9091145   19.4564063
| 19>     C       18.7747651   16.6685806   18.6817979
| 20>     C       18.1402995   15.5737506   19.5329113
| 21>     C       18.6064029   14.2498136   19.4391448
| 22>     C       18.0082546   13.2253305   20.1914194
| 23>     C       16.9309543   13.5253507   21.0422677
| 24>     C       16.4581626   14.8413034   21.1320562
| 25>     O       15.4068712   15.1317949   21.9386966
| 26>     C       17.0550603   15.8596278   20.3821294
| 27>     H       13.3113611   15.5737319   16.6653570
| 28>     H       14.2185925   14.2374186   15.9235859
| 29>     H       14.4281048   15.8973264   15.3192634
| 30>     H       15.4344224   16.5613597   17.5238058
| 31>     H       15.2386579   14.9079223   18.1272895
| 32>     H       16.5790272   17.7492446   15.1969905
| 33>     H       17.0159111   19.4303053   15.4884150
| 34>     H       15.5499698   18.7559588   16.2281548
| 35>     H       17.1764562   20.0919472   17.9014918
| 36>     H       19.5440948   17.8817032   20.2983513
| 37>     H       19.7605773   16.3136299   18.3462857
| 38>     H       19.4254031   14.0110418   18.7638131
| 39>     H       18.3752462   12.2038913   20.1053901
| 40>     H       16.4637175   12.7355338   21.6212459
| 41>     H       15.1742560   14.3206634   22.4158994
| 42>     H       16.6693210   16.8702552   20.4649884
| 43> *
| 44>
| 45>                          ****END OF INPUT****

CARTESIAN COORDINATES (ANGSTROEM)
---------------------------------
  C     14.273904   15.292322   16.221146
  C     15.417182   15.509291   17.225869
  O     16.633367   15.067592   16.589740
  C     17.796784   15.788862   16.484402
  O     18.796460   15.227291   16.077508
  C     17.931813   16.927904   17.436494
  C     17.393436   18.141245   17.182646
  C     16.591032   18.535727   15.961575
  N     17.593555   19.191725   18.080217
  C     18.386168   19.119834   19.197062
  S     18.604695   20.423608   20.190185
  N     18.982715   17.909115   19.456406
  C     18.774765   16.668581   18.681798
  C     18.140300   15.573751   19.532911
  C     18.606403   14.249814   19.439145
  C     18.008255   13.225331   20.191419
  C     16.930954   13.525351   21.042268
  C     16.458163   14.841303   21.132056
  O     15.406871   15.131795   21.938697
  C     17.055060   15.859628   20.382129
  H     13.311361   15.573732   16.665357
  H     14.218592   14.237419   15.923586
  H     14.428105   15.897326   15.319263
  H     15.434422   16.561360   17.523806
  H     15.238658   14.907922   18.127289
  H     16.579027   17.749245   15.196991
  H     17.015911   19.430305   15.488415
  H     15.549970   18.755959   16.228155
  H     17.176456   20.091947   17.901492
  H     19.544095   17.881703   20.298351
  H     19.760577   16.313630   18.346286
  H     19.425403   14.011042   18.763813
  H     18.375246   12.203891   20.105390
  H     16.463718   12.735534   21.621246
  H     15.174256   14.320663   22.415899
  H     16.669321   16.870255   20.464988

 Total Charge           Charge          ....    0
 Multiplicity           Mult            ....    1
 Number of Electrons    NEL             ....  154
 Basis Dimension        Dim             ....  828

ORBITAL ENERGIES
----------------

  NO   OCC          E(Eh)            E(eV)
   0   2.0000     -91.889277     -2500.4343
   1   2.0000     -20.602238      -560.6154
   2   2.0000     -20.600326      -560.5634
   3   2.0000     -20.551509      -559.2350
   4   2.0000     -15.625376      -425.1881
   5   2.0000     -15.611766      -424.8178
   6   2.0000     -11.397897      -310.1526
   7   2.0000     -11.386427      -309.8404
   8   2.0000     -11.325475      -308.1818
   9   2.0000     -11.316868      -307.9476
  10   2.0000     -11.316366      -307.9340
  11   2.0000     -11.302791      -307.5646
  12   2.0000     -11.270821      -306.6946
  13   2.0000     -11.264729      -306.5289
  14   2.0000     -11.263761      -306.5025
  15   2.0000     -11.257054      -306.3200
  16   2.0000     -11.246421      -306.0307
  17   2.0000     -11.242343      -305.9197
  18   2.0000     -11.239845      -305.8517
  19   2.0000     -11.234304      -305.7010
  20   2.0000      -8.894405      -242.0291
  21   2.0000      -6.575997      -178.9420
  22   2.0000      -6.573967      -178.8867
  23   2.0000      -6.573397      -178.8712
  24   2.0000      -1.449537       -39.4439
  25   2.0000      -1.420146       -38.6441
  26   2.0000      -1.359810       -37.0023
  27   2.0000      -1.339162       -36.4405
  28   2.0000      -1.239456       -33.7273
  29   2.0000      -1.161711       -31.6118
  30   2.0000      -1.126056       -30.6415
  31   2.0000      -1.049656       -28.5626
  32   2.0000      -1.041279       -28.3347
  33   2.0000      -1.019127       -27.7319
  34   2.0000      -1.005383       -27.3579
  35   2.0000      -0.989388       -26.9226
  36   2.0000      -0.928181       -25.2571
  37   2.0000      -0.886089       -24.1117
  38   2.0000      -0.854386       -23.2490
  39   2.0000      -0.841615       -22.9015
  40   2.0000      -0.837334       -22.7850
  41   2.0000      -0.836794       -22.7703
  42   2.0000      -0.757084       -20.6013
  43   2.0000      -0.738042       -20.0831
  44   2.0000      -0.732453       -19.9311
  45   2.0000      -0.697761       -18.9870
  46   2.0000      -0.688792       -18.7430
  47   2.0000      -0.679848       -18.4996
  48   2.0000      -0.677287       -18.4299
  49   2.0000      -0.668438       -18.1891
  50   2.0000      -0.652669       -17.7600
  51   2.0000      -0.646758       -17.5992
  52   2.0000      -0.639765       -17.4089
  53   2.0000      -0.613102       -16.6834
  54   2.0000      -0.608518       -16.5586
  55   2.0000      -0.604237       -16.4421
  56   2.0000      -0.599774       -16.3207
  57   2.0000      -0.589611       -16.0441
  58   2.0000      -0.578682       -15.7467
  59   2.0000      -0.569591       -15.4994
  60   2.0000      -0.564313       -15.3557
  61   2.0000      -0.562067       -15.2946
  62   2.0000      -0.546098       -14.8601
  63   2.0000      -0.530403       -14.4330
  64   2.0000      -0.522825       -14.2268
  65   2.0000      -0.515425       -14.0254
  66   2.0000      -0.505805       -13.7637
  67   2.0000      -0.502526       -13.6744
  68   2.0000      -0.488382       -13.2896
  69   2.0000      -0.470643       -12.8068
  70   2.0000      -0.452468       -12.3123
  71   2.0000      -0.449069       -12.2198
  72   2.0000      -0.356382        -9.6976
  73   2.0000      -0.352033        -9.5793
  74   2.0000      -0.329097        -8.9552
  75   2.0000      -0.324669        -8.8347
  76   2.0000      -0.317578        -8.6417
  77   0.0000       0.089822         2.4442
  78   0.0000       0.104665         2.8481
  79   0.0000       0.110338         3.0024
  80   0.0000       0.126992         3.4556
  81   0.0000       0.129270         3.5176

MULLIKEN ATOMIC CHARGES
-----------------------
   0 C :   -0.256772
   1 C :    0.007035
   2 O :   -0.309291
   3 C :    0.381940
   4 O :   -0.377741
   5 C :   -0.161802
   6 C :    0.118569
   7 C :   -0.321661
   8 N :   -0.135889
   9 C :    0.207605
  10 S :   -0.442721
  11 N :   -0.214904
  12 C :    0.059783
  13 C :    0.029394
  14 C :   -0.186475
  15 C :   -0.130649
  16 C :   -0.274968
  17 C :    0.311496
  18 O :   -0.359568
  19 C :   -0.273208
  20 H :    0.090729
  21 H :    0.110033
  22 H :    0.087105
  23 H :    0.094303
  24 H :    0.130156
  25 H :    0.120833
  26 H :    0.140044
  27 H :    0.121685
  28 H :    0.195412
  29 H :    0.198637
  30 H :    0.164990
  31 H :    0.163972
  32 H :    0.163244
  33 H :    0.133009
  34 H :    0.241904
  35 H :    0.173772
Sum of atomic charges:   -0.0000000

LOEWDIN ATOMIC CHARGES
----------------------
   0 C :    0.105588
   1 C :   -0.019911
   2 O :    0.316349
   3 C :   -0.420298
   4 O :    0.127493
   5 C :   -0.080400
   6 C :   -0.112329
   7 C :    0.124642
   8 N :    0.400000
   9 C :   -0.454877
  10 S :   -0.039231
  11 N :    0.397310
  12 C :   -0.043413
  13 C :   -0.042459
  14 C :    0.024312
  15 C :    0.046375
  16 C :   -0.000513
  17 C :   -0.194797
  18 O :    0.394433
  19 C :    0.028598
  20 H :   -0.025901
  21 H :   -0.022817
  22 H :   -0.031662
  23 H :   -0.040127
  24 H :   -0.023754
  25 H :   -0.009649
  26 H :   -0.009472
  27 H :   -0.016413
  28 H :   -0.058558
  29 H :   -0.063734
  30 H :   -0.002327
  31 H :   -0.022208
  32 H :   -0.018373
  33 H :   -0.034573
  34 H :   -0.152827
  35 H :   -0.024476

  Mayer bond orders larger than 0.100000
B(  0-C ,  1-C ) :   0.9785 B(  0-C , 20-H ) :   0.9765 B(  0-C , 21-H ) :   0.9790
B(  0-C , 22-H ) :   0.9773 B(  1-C ,  2-O ) :   0.9036 B(  1-C , 23-H ) :   0.9644
B(  1-C , 24-H ) :   0.9711 B(  2-O ,  3-C ) :   1.1683 B(  3-C ,  4-O ) :   2.0977
B(  3-C ,  5-C ) :   0.9233 B(  5-C ,  6-C ) :   1.7015 B(  5-C , 12-C ) :   0.9616
B(  6-C ,  7-C ) :   0.9451 B(  6-C ,  8-N ) :   1.1086 B(  7-C , 25-H ) :   0.9809
B(  7-C , 26-H ) :   0.9708 B(  7-C , 27-H ) :   0.9656 B(  8-N ,  9-C ) :   1.1983
B(  8-N , 28-H ) :   0.9528 B(  9-C , 10-S ) :   1.6094 B(  9-C , 11-N ) :   1.2855
B( 11-N , 12-C ) :   0.9983 B( 11-N , 29-H ) :   0.9483 B( 12-C , 13-C ) :   0.9490
B( 12-C , 30-H ) :   0.9974 B( 13-C , 14-C ) :   1.3850 B( 13-C , 19-C ) :   1.3441
B( 14-C , 15-C ) :   1.3966 B( 14-C , 31-H ) :   0.9631 B( 15-C , 16-C ) :   1.3641
B( 15-C , 32-H ) :   0.9702 B( 16-C , 17-C ) :   1.3280 B( 16-C , 33-H ) :   0.9842
B( 17-C , 18-O ) :   1.1080 B( 17-C , 19-C ) :   1.3705 B( 18-O , 34-H ) :   0.9789
B( 19-C , 35-H ) :   0.9598

MP2 TOTAL ENERGY:    -1274.327356553 Eh
FINAL SINGLE POINT ENERGY     -1274.327356552528

DIPOLE MOMENT
-------------
                                X             Y             Z
Electronic contribution:     11.85938       6.12555       7.83543
Nuclear contribution   :    -13.49506      -7.16544      -8.15555
                        -----------------------------------------
Total Dipole Moment    :     -1.63568      -1.03990      -0.32012
                        -----------------------------------------
Magnitude (a.u.)       :      1.96451
Magnitude (Debye)      :      4.99340

Rotational constants in cm-1:     0.011648     0.009172     0.006798
Rotational constants in MHz :   349.190547   274.973186   203.784186

                             ****ORCA TERMINATED NORMALLY****
TOTAL RUN TIME: 0 days 1 hours 52 minutes 55 seconds 130 msec
