                         Program Version 4.2.0 -  RELEASE  -
|  1> ! ri-mp2 cc-pvtz cc-pvtz/c TightSCF  NoKeepInts
|  2>
|  3> %scf
|  4>   MaxCore 4096
|  5> end
|  6> *xyz  0  1
|  7>     C       15.1617912   13.8095002   15.9636436
|  8>     C       16.0289512   14.5928819   16.9627908
|  9>     O       17.0576888   15.2565645   16.2074656
| 10>     C       17.0353093   16.6190907   16.1487967
| 11>     O       16.3709760   17.1647091   15.2873852
| 12>     C       17.5678653   17.3208213   17.3721684
| 13>     C       17.3411585   18.6405609   17.6045380
| 14>     C       16.4655679   19.5818165   16.8050966
| 15>     N       17.9997262   19.2877609   18.6552571
| 16>     C       19.0625949   18.7622995   19.3415226
| 17>     S       19.9390809   19.6557007   20.4227275
| 18>     N       19.3760396   17.4555936   19.0653771
| 19>     C       18.5086194   16.5373485   18.3063250
| 20>     C       17.7849328   15.6336304   19.2989808
| 21>     C       18.2793420   14.3416928   19.5609959
| 22>     C       17.6274358   13.4980664   20.4760057
| 23>     C       16.4771280   13.9525377   21.1428237
| 24>     C       15.9921347   15.2443143   20.8985494
| 25>     O       14.8843618   15.6885406   21.5430842
| 26>     C       16.6411426   16.0811247   19.9855532
| 27>     H       14.6961371   14.4921922   15.2412107
| 28>     H       14.3654139   13.2662057   16.4863423
| 29>     H       15.7694008   13.0832267   15.4096287
| 30>     H       15.4096505   15.3080001   17.5215908
| 31>     H       16.4745120   13.8828237   17.6691548
| 32>     H       15.4533184   19.1719475   16.6967475
| 33>     H       16.8715080   19.7200057   15.7946280
| 34>     H       16.3705403   20.5729990   17.2637547
| 35>     H       17.7930253   20.2541410   18.8521016
| 36>     H       20.1531230   17.0881851   19.5992256
| 37>     H       19.1543432   15.9090176   17.6761751
| 38>     H       19.1704314   13.9874600   19.0489627
| 39>     H       18.0158456   12.4991987   20.6690730
| 40>     H       15.9713634   13.3050275   21.8519208
| 41>     H       14.6221361   15.0057594   22.1793332
| 42>     H       16.2544042   17.0812546   19.8250635
| 43> *
| 44>
| 45>                          ****END OF INPUT****

CARTESIAN COORDINATES (ANGSTROEM)
---------------------------------
  C     15.161791   13.809500   15.963644
  C     16.028951   14.592882   16.962791
  O     17.057689   15.256564   16.207466
  C     17.035309   16.619091   16.148797
  O     16.370976   17.164709   15.287385
  C     17.567865   17.320821   17.372168
  C     17.341158   18.640561   17.604538
  C     16.465568   19.581816   16.805097
  N     17.999726   19.287761   18.655257
  C     19.062595   18.762299   19.341523
  S     19.939081   19.655701   20.422728
  N     19.376040   17.455594   19.065377
  C     18.508619   16.537349   18.306325
  C     17.784933   15.633630   19.298981
  C     18.279342   14.341693   19.560996
  C     17.627436   13.498066   20.476006
  C     16.477128   13.952538   21.142824
  C     15.992135   15.244314   20.898549
  O     14.884362   15.688541   21.543084
  C     16.641143   16.081125   19.985553
  H     14.696137   14.492192   15.241211
  H     14.365414   13.266206   16.486342
  H     15.769401   13.083227   15.409629
  H     15.409650   15.308000   17.521591
  H     16.474512   13.882824   17.669155
  H     15.453318   19.171948   16.696748
  H     16.871508   19.720006   15.794628
  H     16.370540   20.572999   17.263755
  H     17.793025   20.254141   18.852102
  H     20.153123   17.088185   19.599226
  H     19.154343   15.909018   17.676175
  H     19.170431   13.987460   19.048963
  H     18.015846   12.499199   20.669073
  H     15.971363   13.305027   21.851921
  H     14.622136   15.005759   22.179333
  H     16.254404   17.081255   19.825063

 Total Charge           Charge          ....    0
 Multiplicity           Mult            ....    1
 Number of Electrons    NEL             ....  154
 Basis Dimension        Dim             ....  828

ORBITAL ENERGIES
----------------

  NO   OCC          E(Eh)            E(eV)
   0   2.0000     -91.891831     -2500.5038
   1   2.0000     -20.603703      -560.6553
   2   2.0000     -20.580229      -560.0165
   3   2.0000     -20.547798      -559.1340
   4   2.0000     -15.632621      -425.3852
   5   2.0000     -15.610731      -424.7896
   6   2.0000     -11.392730      -310.0119
   7   2.0000     -11.386293      -309.8368
   8   2.0000     -11.339224      -308.5560
   9   2.0000     -11.321417      -308.0714
  10   2.0000     -11.313887      -307.8665
  11   2.0000     -11.294377      -307.3356
  12   2.0000     -11.266136      -306.5671
  13   2.0000     -11.262881      -306.4786
  14   2.0000     -11.260535      -306.4147
  15   2.0000     -11.254451      -306.2492
  16   2.0000     -11.250292      -306.1360
  17   2.0000     -11.244988      -305.9917
  18   2.0000     -11.244526      -305.9791
  19   2.0000     -11.219342      -305.2938
  20   2.0000      -8.896840      -242.0953
  21   2.0000      -6.578402      -179.0074
  22   2.0000      -6.576412      -178.9533
  23   2.0000      -6.575813      -178.9370
  24   2.0000      -1.447068       -39.3767
  25   2.0000      -1.423345       -38.7312
  26   2.0000      -1.352767       -36.8107
  27   2.0000      -1.343799       -36.5666
  28   2.0000      -1.242141       -33.8004
  29   2.0000      -1.164048       -31.6753
  30   2.0000      -1.122380       -30.5415
  31   2.0000      -1.047787       -28.5117
  32   2.0000      -1.030782       -28.0490
  33   2.0000      -1.022622       -27.8270
  34   2.0000      -0.999462       -27.1967
  35   2.0000      -0.986870       -26.8541
  36   2.0000      -0.927048       -25.2263
  37   2.0000      -0.877720       -23.8840
  38   2.0000      -0.851411       -23.1681
  39   2.0000      -0.845668       -23.0118
  40   2.0000      -0.840322       -22.8663
  41   2.0000      -0.832024       -22.6405
  42   2.0000      -0.758823       -20.6486
  43   2.0000      -0.737208       -20.0605
  44   2.0000      -0.721500       -19.6330
  45   2.0000      -0.703113       -19.1327
  46   2.0000      -0.693660       -18.8755
  47   2.0000      -0.678175       -18.4541
  48   2.0000      -0.670186       -18.2367
  49   2.0000      -0.662659       -18.0319
  50   2.0000      -0.650876       -17.7112
  51   2.0000      -0.648312       -17.6415
  52   2.0000      -0.640249       -17.4221
  53   2.0000      -0.614886       -16.7319
  54   2.0000      -0.607354       -16.5269
  55   2.0000      -0.602969       -16.4076
  56   2.0000      -0.589690       -16.0463
  57   2.0000      -0.583864       -15.8878
  58   2.0000      -0.575340       -15.6558
  59   2.0000      -0.572299       -15.5731
  60   2.0000      -0.565953       -15.4004
  61   2.0000      -0.540560       -14.7094
  62   2.0000      -0.538494       -14.6532
  63   2.0000      -0.531928       -14.4745
  64   2.0000      -0.518551       -14.1105
  65   2.0000      -0.510056       -13.8793
  66   2.0000      -0.506853       -13.7922
  67   2.0000      -0.498430       -13.5630
  68   2.0000      -0.487463       -13.2645
  69   2.0000      -0.465808       -12.6753
  70   2.0000      -0.451332       -12.2814
  71   2.0000      -0.443150       -12.0587
  72   2.0000      -0.359932        -9.7943
  73   2.0000      -0.356182        -9.6922
  74   2.0000      -0.332383        -9.0446
  75   2.0000      -0.327934        -8.9235
  76   2.0000      -0.318824        -8.6757
  77   0.0000       0.068685         1.8690
  78   0.0000       0.099464         2.7065
  79   0.0000       0.119958         3.2642
  80   0.0000       0.126022         3.4292
  81   0.0000       0.130001         3.5375

MULLIKEN ATOMIC CHARGES
-----------------------
   0 C :   -0.257219
   1 C :    0.020124
   2 O :   -0.379317
   3 C :    0.490256
   4 O :   -0.397982
   5 C :   -0.281636
   6 C :    0.153694
   7 C :   -0.269327
   8 N :   -0.123281
   9 C :    0.215417
  10 S :   -0.436072
  11 N :   -0.203582
  12 C :    0.048700
  13 C :    0.061116
  14 C :   -0.202752
  15 C :   -0.128642
  16 C :   -0.273875
  17 C :    0.313029
  18 O :   -0.356065
  19 C :   -0.256981
  20 H :    0.106737
  21 H :    0.084517
  22 H :    0.094425
  23 H :    0.094264
  24 H :    0.117943
  25 H :    0.127469
  26 H :    0.137277
  27 H :    0.094603
  28 H :    0.198855
  29 H :    0.192412
  30 H :    0.150881
  31 H :    0.151342
  32 H :    0.164689
  33 H :    0.133799
  34 H :    0.242707
  35 H :    0.172472
Sum of atomic charges:   -0.0000000

LOEWDIN ATOMIC CHARGES
----------------------
   0 C :    0.106808
   1 C :   -0.022178
   2 O :    0.287968
   3 C :   -0.425212
   4 O :    0.122074
   5 C :   -0.100368
   6 C :   -0.057591
   7 C :    0.130787
   8 N :    0.407870
   9 C :   -0.455292
  10 S :   -0.031442
  11 N :    0.395976
  12 C :   -0.052758
  13 C :   -0.036244
  14 C :    0.011079
  15 C :    0.042331
  16 C :   -0.000318
  17 C :   -0.189909
  18 O :    0.396466
  19 C :    0.032217
  20 H :   -0.023834
  21 H :   -0.029793
  22 H :   -0.026898
  23 H :   -0.031701
  24 H :   -0.028200
  25 H :   -0.005757
  26 H :   -0.002399
  27 H :   -0.023094
  28 H :   -0.057130
  29 H :   -0.066097
  30 H :   -0.005962
  31 H :   -0.029949
  32 H :   -0.019262
  33 H :   -0.033890
  34 H :   -0.151902
  35 H :   -0.026396

  Mayer bond orders larger than 0.100000
B(  0-C ,  1-C ) :   0.9838 B(  0-C , 20-H ) :   0.9772 B(  0-C , 21-H ) :   0.9777
B(  0-C , 22-H ) :   0.9803 B(  1-C ,  2-O ) :   0.8683 B(  1-C , 23-H ) :   0.9692
B(  1-C , 24-H ) :   0.9720 B(  2-O ,  3-C ) :   1.1071 B(  3-C ,  4-O ) :   2.0305
B(  3-C ,  5-C ) :   1.0541 B(  5-C ,  6-C ) :   1.6469 B(  5-C , 12-C ) :   0.9696
B(  6-C ,  7-C ) :   0.9728 B(  6-C ,  8-N ) :   1.1576 B(  7-C , 25-H ) :   0.9635
B(  7-C , 26-H ) :   0.9557 B(  7-C , 27-H ) :   0.9885 B(  8-N ,  9-C ) :   1.1792
B(  8-N , 28-H ) :   0.9480 B(  9-C , 10-S ) :   1.6116 B(  9-C , 11-N ) :   1.3035
B( 11-N , 12-C ) :   0.9578 B( 11-N , 29-H ) :   0.9536 B( 12-C , 13-C ) :   0.9578
B( 12-C , 30-H ) :   1.0000 B( 13-C , 14-C ) :   1.3474 B( 13-C , 19-C ) :   1.3587
B( 14-C , 15-C ) :   1.3909 B( 14-C , 31-H ) :   0.9754 B( 15-C , 16-C ) :   1.3657
B( 15-C , 32-H ) :   0.9690 B( 16-C , 17-C ) :   1.3296 B( 16-C , 33-H ) :   0.9835
B( 17-C , 18-O ) :   1.1157 B( 17-C , 19-C ) :   1.3706 B( 18-O , 34-H ) :   0.9785
B( 19-C , 35-H ) :   0.9564

MP2 TOTAL ENERGY:    -1274.328072309 Eh
FINAL SINGLE POINT ENERGY     -1274.328072308697

DIPOLE MOMENT
-------------
                                X             Y             Z
Electronic contribution:     10.21433       9.74057       6.48386
Nuclear contribution   :    -11.22805     -11.21103      -6.02390
                        -----------------------------------------
Total Dipole Moment    :     -1.01372      -1.47045       0.45996
                        -----------------------------------------
Magnitude (a.u.)       :      1.84429
Magnitude (Debye)      :      4.68782

Rotational constants in cm-1:     0.011793     0.009179     0.006399
Rotational constants in MHz :   353.534768   275.167046   191.835225

                             ****ORCA TERMINATED NORMALLY****
TOTAL RUN TIME: 0 days 1 hours 45 minutes 51 seconds 524 msec
