                         Program Version 4.2.0 -  RELEASE  -
|  1> ! ri-mp2 cc-pvtz cc-pvtz/c TightSCF  NoKeepInts
|  2>
|  3> %scf
|  4>   MaxCore 4096
|  5> end
|  6> *xyz  0  1
|  7>     C       15.2838804   14.5979715   17.4732020
|  8>     C       16.1519828   14.4791442   16.2112757
|  9>     O       17.5216936   14.8370467   16.4977067
| 10>     C       17.9348525   16.0856456   16.1359596
| 11>     O       17.8039007   16.4393710   14.9770564
| 12>     C       17.8620107   17.0567680   17.2786972
| 13>     C       17.3754699   18.3159887   17.1419932
| 14>     C       16.6783746   18.9043127   15.9344022
| 15>     N       17.5392105   19.2416986   18.1768345
| 16>     C       18.3745060   19.0623757   19.2482514
| 17>     S       18.6761248   20.2709723   20.3360123
| 18>     N       18.9533855   17.8234337   19.3692950
| 19>     C       18.5658080   16.6376987   18.5805853
| 20>     C       17.7641966   15.6838069   19.4616051
| 21>     C       18.1831043   14.3493396   19.6237107
| 22>     C       17.4826155   13.4764583   20.4734369
| 23>     C       16.3544517   13.9411468   21.1706740
| 24>     C       15.9365819   15.2700039   21.0165148
| 25>     O       14.8460521   15.7210264   21.6856147
| 26>     C       16.6372771   16.1372920   20.1724528
| 27>     H       15.6709421   13.9555937   18.2716101
| 28>     H       14.2552736   14.2844789   17.2584971
| 29>     H       15.2520838   15.6340268   17.8291822
| 30>     H       16.1258198   13.4358977   15.8712569
| 31>     H       15.7341460   15.0976124   15.4048702
| 32>     H       15.9236608   18.2099545   15.5447202
| 33>     H       17.3997305   19.0891413   15.1279103
| 34>     H       16.1698102   19.8499433   16.1556477
| 35>     H       17.1363942   20.1612348   18.0906809
| 36>     H       19.5434009   17.7114293   20.1839325
| 37>     H       19.4935683   16.1228669   18.2940634
| 38>     H       19.0543287   13.9850841   19.0856414
| 39>     H       17.8144691   12.4459935   20.5886672
| 40>     H       15.8096666   13.2704615   21.8269977
| 41>     H       14.5354773   15.0019813   22.2561605
| 42>     H       16.3027490   17.1647991   20.0788811
| 43> *
| 44>
| 45>                          ****END OF INPUT****

CARTESIAN COORDINATES (ANGSTROEM)
---------------------------------
  C     15.283880   14.597971   17.473202
  C     16.151983   14.479144   16.211276
  O     17.521694   14.837047   16.497707
  C     17.934853   16.085646   16.135960
  O     17.803901   16.439371   14.977056
  C     17.862011   17.056768   17.278697
  C     17.375470   18.315989   17.141993
  C     16.678375   18.904313   15.934402
  N     17.539210   19.241699   18.176834
  C     18.374506   19.062376   19.248251
  S     18.676125   20.270972   20.336012
  N     18.953385   17.823434   19.369295
  C     18.565808   16.637699   18.580585
  C     17.764197   15.683807   19.461605
  C     18.183104   14.349340   19.623711
  C     17.482615   13.476458   20.473437
  C     16.354452   13.941147   21.170674
  C     15.936582   15.270004   21.016515
  O     14.846052   15.721026   21.685615
  C     16.637277   16.137292   20.172453
  H     15.670942   13.955594   18.271610
  H     14.255274   14.284479   17.258497
  H     15.252084   15.634027   17.829182
  H     16.125820   13.435898   15.871257
  H     15.734146   15.097612   15.404870
  H     15.923661   18.209954   15.544720
  H     17.399731   19.089141   15.127910
  H     16.169810   19.849943   16.155648
  H     17.136394   20.161235   18.090681
  H     19.543401   17.711429   20.183932
  H     19.493568   16.122867   18.294063
  H     19.054329   13.985084   19.085641
  H     17.814469   12.445994   20.588667
  H     15.809667   13.270461   21.826998
  H     14.535477   15.001981   22.256160
  H     16.302749   17.164799   20.078881

 Total Charge           Charge          ....    0
 Multiplicity           Mult            ....    1
 Number of Electrons    NEL             ....  154
 Basis Dimension        Dim             ....  828

ORBITAL ENERGIES
----------------

  NO   OCC          E(Eh)            E(eV)
   0   2.0000     -91.890313     -2500.4625
   1   2.0000     -20.597883      -560.4969
   2   2.0000     -20.582018      -560.0652
   3   2.0000     -20.556908      -559.3819
   4   2.0000     -15.629325      -425.2956
   5   2.0000     -15.609437      -424.7544
   6   2.0000     -11.395322      -310.0825
   7   2.0000     -11.385003      -309.8017
   8   2.0000     -11.334191      -308.4190
   9   2.0000     -11.314857      -307.8929
  10   2.0000     -11.313547      -307.8573
  11   2.0000     -11.297784      -307.4283
  12   2.0000     -11.261280      -306.4350
  13   2.0000     -11.261088      -306.4298
  14   2.0000     -11.256178      -306.2962
  15   2.0000     -11.254989      -306.2638
  16   2.0000     -11.244807      -305.9868
  17   2.0000     -11.239481      -305.8418
  18   2.0000     -11.239394      -305.8395
  19   2.0000     -11.220720      -305.3313
  20   2.0000      -8.895343      -242.0546
  21   2.0000      -6.576913      -178.9669
  22   2.0000      -6.574914      -178.9125
  23   2.0000      -6.574321      -178.8964
  24   2.0000      -1.452086       -39.5133
  25   2.0000      -1.417642       -38.5760
  26   2.0000      -1.354030       -36.8450
  27   2.0000      -1.341007       -36.4907
  28   2.0000      -1.239668       -33.7331
  29   2.0000      -1.158351       -31.5203
  30   2.0000      -1.121094       -30.5065
  31   2.0000      -1.044049       -28.4100
  32   2.0000      -1.033388       -28.1199
  33   2.0000      -1.016564       -27.6621
  34   2.0000      -0.999435       -27.1960
  35   2.0000      -0.986044       -26.8316
  36   2.0000      -0.924769       -25.1642
  37   2.0000      -0.887684       -24.1551
  38   2.0000      -0.847671       -23.0663
  39   2.0000      -0.840826       -22.8800
  40   2.0000      -0.835592       -22.7376
  41   2.0000      -0.820020       -22.3139
  42   2.0000      -0.757887       -20.6232
  43   2.0000      -0.733369       -19.9560
  44   2.0000      -0.724926       -19.7262
  45   2.0000      -0.697396       -18.9771
  46   2.0000      -0.690324       -18.7847
  47   2.0000      -0.681075       -18.5330
  48   2.0000      -0.671493       -18.2723
  49   2.0000      -0.666274       -18.1302
  50   2.0000      -0.649858       -17.6835
  51   2.0000      -0.646780       -17.5998
  52   2.0000      -0.636356       -17.3161
  53   2.0000      -0.608146       -16.5485
  54   2.0000      -0.602581       -16.3971
  55   2.0000      -0.600736       -16.3469
  56   2.0000      -0.586930       -15.9712
  57   2.0000      -0.579702       -15.7745
  58   2.0000      -0.576787       -15.6952
  59   2.0000      -0.571516       -15.5517
  60   2.0000      -0.564486       -15.3604
  61   2.0000      -0.550470       -14.9791
  62   2.0000      -0.539948       -14.6927
  63   2.0000      -0.525488       -14.2993
  64   2.0000      -0.514871       -14.0103
  65   2.0000      -0.513596       -13.9757
  66   2.0000      -0.505117       -13.7449
  67   2.0000      -0.502303       -13.6684
  68   2.0000      -0.477307       -12.9882
  69   2.0000      -0.463965       -12.6251
  70   2.0000      -0.453745       -12.3470
  71   2.0000      -0.447779       -12.1847
  72   2.0000      -0.357130        -9.7180
  73   2.0000      -0.348570        -9.4851
  74   2.0000      -0.329422        -8.9640
  75   2.0000      -0.323327        -8.7982
  76   2.0000      -0.317292        -8.6340
  77   0.0000       0.069201         1.8831
  78   0.0000       0.103724         2.8225
  79   0.0000       0.115607         3.1458
  80   0.0000       0.129927         3.5355
  81   0.0000       0.131173         3.5694

MULLIKEN ATOMIC CHARGES
-----------------------
   0 C :   -0.309899
   1 C :    0.039167
   2 O :   -0.374143
   3 C :    0.457901
   4 O :   -0.392855
   5 C :   -0.218167
   6 C :    0.154191
   7 C :   -0.276263
   8 N :   -0.122462
   9 C :    0.194433
  10 S :   -0.434183
  11 N :   -0.192123
  12 C :    0.023469
  13 C :    0.080760
  14 C :   -0.173467
  15 C :   -0.139920
  16 C :   -0.280272
  17 C :    0.325339
  18 O :   -0.358931
  19 C :   -0.288275
  20 H :    0.111001
  21 H :    0.115408
  22 H :    0.100337
  23 H :    0.109315
  24 H :    0.102649
  25 H :    0.120007
  26 H :    0.140644
  27 H :    0.095546
  28 H :    0.197948
  29 H :    0.191285
  30 H :    0.148646
  31 H :    0.144870
  32 H :    0.162110
  33 H :    0.131851
  34 H :    0.240990
  35 H :    0.173094
Sum of atomic charges:   -0.0000000

LOEWDIN ATOMIC CHARGES
----------------------
   0 C :    0.103975
   1 C :   -0.013171
   2 O :    0.283710
   3 C :   -0.418397
   4 O :    0.133806
   5 C :   -0.094017
   6 C :   -0.069557
   7 C :    0.128513
   8 N :    0.405687
   9 C :   -0.458724
  10 S :   -0.032849
  11 N :    0.396749
  12 C :   -0.052190
  13 C :   -0.038632
  14 C :    0.016041
  15 C :    0.039144
  16 C :   -0.002299
  17 C :   -0.190990
  18 O :    0.396322
  19 C :    0.034707
  20 H :   -0.023897
  21 H :   -0.026446
  22 H :   -0.033166
  23 H :   -0.024580
  24 H :   -0.030106
  25 H :   -0.009154
  26 H :   -0.003796
  27 H :   -0.022377
  28 H :   -0.058141
  29 H :   -0.064934
  30 H :   -0.007737
  31 H :   -0.029473
  32 H :   -0.020733
  33 H :   -0.035273
  34 H :   -0.153564
  35 H :   -0.024450

  Mayer bond orders larger than 0.100000
B(  0-C ,  1-C ) :   0.9679 B(  0-C , 20-H ) :   0.9718 B(  0-C , 21-H ) :   0.9772
B(  0-C , 22-H ) :   0.9720 B(  1-C ,  2-O ) :   0.8819 B(  1-C , 23-H ) :   0.9873
B(  1-C , 24-H ) :   0.9759 B(  2-O ,  3-C ) :   1.1091 B(  3-C ,  4-O ) :   2.0312
B(  3-C ,  5-C ) :   1.0219 B(  5-C ,  6-C ) :   1.6756 B(  5-C , 12-C ) :   0.9709
B(  6-C ,  7-C ) :   0.9624 B(  6-C ,  8-N ) :   1.1310 B(  7-C , 25-H ) :   0.9703
B(  7-C , 26-H ) :   0.9578 B(  7-C , 27-H ) :   0.9867 B(  8-N ,  9-C ) :   1.1826
B(  8-N , 28-H ) :   0.9493 B(  9-C , 10-S ) :   1.6190 B(  9-C , 11-N ) :   1.2935
B( 11-N , 12-C ) :   0.9957 B( 11-N , 29-H ) :   0.9531 B( 12-C , 13-C ) :   0.9372
B( 12-C , 30-H ) :   1.0093 B( 13-C , 14-C ) :   1.3645 B( 13-C , 19-C ) :   1.3545
B( 14-C , 15-C ) :   1.3939 B( 14-C , 31-H ) :   0.9716 B( 15-C , 16-C ) :   1.3594
B( 15-C , 32-H ) :   0.9712 B( 16-C , 17-C ) :   1.3319 B( 16-C , 33-H ) :   0.9849
B( 17-C , 18-O ) :   1.1113 B( 17-C , 19-C ) :   1.3659 B( 18-O , 34-H ) :   0.9796
B( 19-C , 35-H ) :   0.9576

MP2 TOTAL ENERGY:    -1274.316730657 Eh
FINAL SINGLE POINT ENERGY     -1274.316730657031

DIPOLE MOMENT
-------------
                                X             Y             Z
Electronic contribution:      9.56190       8.84681       5.65185
Nuclear contribution   :    -10.64383     -10.49001      -5.81226
                        -----------------------------------------
Total Dipole Moment    :     -1.08193      -1.64320      -0.16041
                        -----------------------------------------
Magnitude (a.u.)       :      1.97393
Magnitude (Debye)      :      5.01734

Rotational constants in cm-1:     0.011758     0.009903     0.006551
Rotational constants in MHz :   352.484968   296.874621   196.388865

                             ****ORCA TERMINATED NORMALLY****
TOTAL RUN TIME: 0 days 1 hours 58 minutes 53 seconds 16 msec
