                         Program Version 4.2.0 -  RELEASE  -
|  1> ! ri-mp2 cc-pvtz cc-pvtz/c TightSCF  NoKeepInts
|  2>
|  3> %scf
|  4>   MaxCore 4096
|  5> end
|  6> *xyz  0  1
|  7>     C       15.7972229   14.0150537   14.6740023
|  8>     C       15.0291830   14.9480047   15.6371485
|  9>     O       15.8817063   15.9578666   16.2232248
| 10>     C       17.0400307   15.6762673   16.8959364
| 11>     O       17.4599560   14.5427550   17.0564428
| 12>     C       17.5964358   16.8403627   17.6674808
| 13>     C       17.3012064   18.1466719   17.4333811
| 14>     C       16.3875176   18.7243603   16.3715246
| 15>     N       17.9356025   19.1461997   18.1789787
| 16>     C       18.9747685   18.9372558   19.0465969
| 17>     S       19.7606541   20.1918024   19.7843346
| 18>     N       19.3297581   17.6314988   19.2699487
| 19>     C       18.5773598   16.4600100   18.7834361
| 20>     C       17.8558170   15.7720614   19.9397302
| 21>     C       18.0538386   14.4011553   20.1879263
| 22>     C       17.3919039   13.7618698   21.2495713
| 23>     C       16.5232549   14.4990742   22.0720882
| 24>     C       16.3200573   15.8637639   21.8263120
| 25>     O       15.4772387   16.5770700   22.6151922
| 26>     C       16.9800326   16.4971817   20.7686247
| 27>     H       16.4612664   14.5911585   14.0179740
| 28>     H       15.0916890   13.4623355   14.0421211
| 29>     H       16.3959986   13.2736735   15.2162572
| 30>     H       14.2217535   15.4463733   15.0856336
| 31>     H       14.5687318   14.3445717   16.4307989
| 32>     H       15.3387368   18.4946827   16.5976078
| 33>     H       16.6215346   18.3046417   15.3852958
| 34>     H       16.4747790   19.8141779   16.2847516
| 35>     H       17.6888382   20.1113655   18.0292340
| 36>     H       20.0776806   17.5014909   19.9389456
| 37>     H       19.3051129   15.7511315   18.3626899
| 38>     H       18.7115816   13.8247683   19.5418774
| 39>     H       17.5490354   12.6994103   21.4262483
| 40>     H       16.0084684   14.0089103   22.8915795
| 41>     H       15.1474754   15.9781834   23.3016755
| 42>     H       16.8107729   17.5548398   20.5994290
| 43> *
| 44>
| 45>                          ****END OF INPUT****

CARTESIAN COORDINATES (ANGSTROEM)
---------------------------------
  C     15.797223   14.015054   14.674002
  C     15.029183   14.948005   15.637148
  O     15.881706   15.957867   16.223225
  C     17.040031   15.676267   16.895936
  O     17.459956   14.542755   17.056443
  C     17.596436   16.840363   17.667481
  C     17.301206   18.146672   17.433381
  C     16.387518   18.724360   16.371525
  N     17.935603   19.146200   18.178979
  C     18.974768   18.937256   19.046597
  S     19.760654   20.191802   19.784335
  N     19.329758   17.631499   19.269949
  C     18.577360   16.460010   18.783436
  C     17.855817   15.772061   19.939730
  C     18.053839   14.401155   20.187926
  C     17.391904   13.761870   21.249571
  C     16.523255   14.499074   22.072088
  C     16.320057   15.863764   21.826312
  O     15.477239   16.577070   22.615192
  C     16.980033   16.497182   20.768625
  H     16.461266   14.591158   14.017974
  H     15.091689   13.462335   14.042121
  H     16.395999   13.273673   15.216257
  H     14.221754   15.446373   15.085634
  H     14.568732   14.344572   16.430799
  H     15.338737   18.494683   16.597608
  H     16.621535   18.304642   15.385296
  H     16.474779   19.814178   16.284752
  H     17.688838   20.111366   18.029234
  H     20.077681   17.501491   19.938946
  H     19.305113   15.751131   18.362690
  H     18.711582   13.824768   19.541877
  H     17.549035   12.699410   21.426248
  H     16.008468   14.008910   22.891579
  H     15.147475   15.978183   23.301676
  H     16.810773   17.554840   20.599429

 Total Charge           Charge          ....    0
 Multiplicity           Mult            ....    1
 Number of Electrons    NEL             ....  154
 Basis Dimension        Dim             ....  828

ORBITAL ENERGIES
----------------

  NO   OCC          E(Eh)            E(eV)
   0   2.0000     -91.887433     -2500.3842
   1   2.0000     -20.602557      -560.6241
   2   2.0000     -20.590648      -560.3000
   3   2.0000     -20.545522      -559.0721
   4   2.0000     -15.627526      -425.2466
   5   2.0000     -15.606048      -424.6621
   6   2.0000     -11.397608      -310.1447
   7   2.0000     -11.382260      -309.7271
   8   2.0000     -11.335197      -308.4464
   9   2.0000     -11.306440      -307.6639
  10   2.0000     -11.304888      -307.6216
  11   2.0000     -11.304372      -307.6076
  12   2.0000     -11.259981      -306.3996
  13   2.0000     -11.258298      -306.3539
  14   2.0000     -11.252441      -306.1945
  15   2.0000     -11.246654      -306.0370
  16   2.0000     -11.236262      -305.7542
  17   2.0000     -11.232324      -305.6471
  18   2.0000     -11.229405      -305.5676
  19   2.0000     -11.224761      -305.4413
  20   2.0000      -8.892501      -241.9773
  21   2.0000      -6.574080      -178.8898
  22   2.0000      -6.572073      -178.8352
  23   2.0000      -6.571488      -178.8193
  24   2.0000      -1.450293       -39.4645
  25   2.0000      -1.410378       -38.3783
  26   2.0000      -1.357519       -36.9400
  27   2.0000      -1.338608       -36.4254
  28   2.0000      -1.236225       -33.6394
  29   2.0000      -1.151050       -31.3217
  30   2.0000      -1.118509       -30.4362
  31   2.0000      -1.041392       -28.3377
  32   2.0000      -1.034021       -28.1371
  33   2.0000      -1.008433       -27.4409
  34   2.0000      -0.996330       -27.1115
  35   2.0000      -0.981902       -26.7189
  36   2.0000      -0.920710       -25.0538
  37   2.0000      -0.895754       -24.3747
  38   2.0000      -0.847249       -23.0548
  39   2.0000      -0.834841       -22.7172
  40   2.0000      -0.826874       -22.5004
  41   2.0000      -0.816982       -22.2312
  42   2.0000      -0.747727       -20.3467
  43   2.0000      -0.731243       -19.8981
  44   2.0000      -0.723977       -19.7004
  45   2.0000      -0.690097       -18.7785
  46   2.0000      -0.684240       -18.6191
  47   2.0000      -0.678881       -18.4733
  48   2.0000      -0.670106       -18.2345
  49   2.0000      -0.663436       -18.0530
  50   2.0000      -0.645312       -17.5598
  51   2.0000      -0.641484       -17.4557
  52   2.0000      -0.632585       -17.2135
  53   2.0000      -0.609036       -16.5727
  54   2.0000      -0.599159       -16.3039
  55   2.0000      -0.598390       -16.2830
  56   2.0000      -0.593768       -16.1573
  57   2.0000      -0.585868       -15.9423
  58   2.0000      -0.571934       -15.5631
  59   2.0000      -0.566875       -15.4254
  60   2.0000      -0.559451       -15.2234
  61   2.0000      -0.544180       -14.8079
  62   2.0000      -0.535978       -14.5847
  63   2.0000      -0.521904       -14.2017
  64   2.0000      -0.516274       -14.0485
  65   2.0000      -0.510989       -13.9047
  66   2.0000      -0.501081       -13.6351
  67   2.0000      -0.494721       -13.4620
  68   2.0000      -0.479628       -13.0513
  69   2.0000      -0.461689       -12.5632
  70   2.0000      -0.456839       -12.4312
  71   2.0000      -0.449909       -12.2426
  72   2.0000      -0.353437        -9.6175
  73   2.0000      -0.342968        -9.3326
  74   2.0000      -0.326572        -8.8865
  75   2.0000      -0.314865        -8.5679
  76   2.0000      -0.312832        -8.5126
  77   0.0000       0.077103         2.0981
  78   0.0000       0.114372         3.1122
  79   0.0000       0.121103         3.2954
  80   0.0000       0.136752         3.7212
  81   0.0000       0.140827         3.8321

MULLIKEN ATOMIC CHARGES
-----------------------
   0 C :   -0.305578
   1 C :    0.047101
   2 O :   -0.348583
   3 C :    0.445177
   4 O :   -0.434689
   5 C :   -0.158116
   6 C :    0.141442
   7 C :   -0.285666
   8 N :   -0.120819
   9 C :    0.201154
  10 S :   -0.440214
  11 N :   -0.196139
  12 C :    0.032642
  13 C :    0.058027
  14 C :   -0.161254
  15 C :   -0.134082
  16 C :   -0.278906
  17 C :    0.311539
  18 O :   -0.359113
  19 C :   -0.270571
  20 H :    0.091004
  21 H :    0.096565
  22 H :    0.129894
  23 H :    0.102732
  24 H :    0.095315
  25 H :    0.129173
  26 H :    0.123415
  27 H :    0.102107
  28 H :    0.196609
  29 H :    0.193137
  30 H :    0.153452
  31 H :    0.152925
  32 H :    0.158560
  33 H :    0.127642
  34 H :    0.239853
  35 H :    0.164265
Sum of atomic charges:   -0.0000000

LOEWDIN ATOMIC CHARGES
----------------------
   0 C :    0.103775
   1 C :   -0.011587
   2 O :    0.298804
   3 C :   -0.412962
   4 O :    0.109408
   5 C :   -0.089846
   6 C :   -0.066169
   7 C :    0.124581
   8 N :    0.404615
   9 C :   -0.459052
  10 S :   -0.036703
  11 N :    0.397834
  12 C :   -0.046329
  13 C :   -0.038523
  14 C :    0.021724
  15 C :    0.040664
  16 C :   -0.002376
  17 C :   -0.192361
  18 O :    0.393014
  19 C :    0.028948
  20 H :   -0.029294
  21 H :   -0.028345
  22 H :   -0.025372
  23 H :   -0.024960
  24 H :   -0.027397
  25 H :   -0.009357
  26 H :   -0.009499
  27 H :   -0.021150
  28 H :   -0.059319
  29 H :   -0.063730
  30 H :   -0.005299
  31 H :   -0.025591
  32 H :   -0.021444
  33 H :   -0.036538
  34 H :   -0.155067
  35 H :   -0.025096

  Mayer bond orders larger than 0.100000
B(  0-C ,  1-C ) :   0.9667 B(  0-C , 20-H ) :   0.9759 B(  0-C , 21-H ) :   0.9775
B(  0-C , 22-H ) :   0.9708 B(  1-C ,  2-O ) :   0.9061 B(  1-C , 23-H ) :   0.9842
B(  1-C , 24-H ) :   0.9796 B(  2-O ,  3-C ) :   1.1578 B(  3-C ,  4-O ) :   1.9573
B(  3-C ,  5-C ) :   1.0626 B(  5-C ,  6-C ) :   1.6450 B(  5-C , 12-C ) :   0.9656
B(  6-C ,  7-C ) :   0.9553 B(  6-C ,  8-N ) :   1.1495 B(  7-C , 25-H ) :   0.9628
B(  7-C , 26-H ) :   0.9665 B(  7-C , 27-H ) :   0.9918 B(  8-N ,  9-C ) :   1.1785
B(  8-N , 28-H ) :   0.9492 B(  9-C , 10-S ) :   1.6101 B(  9-C , 11-N ) :   1.3040
B( 11-N , 12-C ) :   0.9943 B( 11-N , 29-H ) :   0.9520 B( 12-C , 13-C ) :   0.9474
B( 12-C , 30-H ) :   1.0000 B( 13-C , 14-C ) :   1.3752 B( 13-C , 19-C ) :   1.3702
B( 14-C , 15-C ) :   1.3948 B( 14-C , 31-H ) :   0.9652 B( 15-C , 16-C ) :   1.3628
B( 15-C , 32-H ) :   0.9715 B( 16-C , 17-C ) :   1.3314 B( 16-C , 33-H ) :   0.9861
B( 17-C , 18-O ) :   1.1079 B( 17-C , 19-C ) :   1.3795 B( 18-O , 34-H ) :   0.9808
B( 19-C , 35-H ) :   0.9584

MP2 TOTAL ENERGY:    -1274.342626846 Eh
FINAL SINGLE POINT ENERGY     -1274.342626846353

DIPOLE MOMENT
-------------
                                X             Y             Z
Electronic contribution:      9.55449       9.64774      11.84012
Nuclear contribution   :    -11.23229     -10.78267     -12.83273
                        -----------------------------------------
Total Dipole Moment    :     -1.67780      -1.13493      -0.99261
                        -----------------------------------------
Magnitude (a.u.)       :      2.25574
Magnitude (Debye)      :      5.73363

Rotational constants in cm-1:     0.010572     0.008831     0.005785
Rotational constants in MHz :   316.937978   264.740370   173.418277

                             ****ORCA TERMINATED NORMALLY****
TOTAL RUN TIME: 0 days 1 hours 36 minutes 31 seconds 536 msec
