                         Program Version 4.2.0 -  RELEASE  -
|  1> ! ri-mp2 cc-pvtz cc-pvtz/c TightSCF  NoKeepInts
|  2>
|  3> %scf
|  4>   MaxCore 4096
|  5> end
|  6> *xyz  0  1
|  7>     C       14.3759933   14.8371248   16.2252562
|  8>     C       15.7408872   14.7066757   15.5279831
|  9>     O       16.4981916   15.8875730   15.8511123
| 10>     C       17.6304721   15.7898322   16.6075790
| 11>     O       18.2532250   14.7463885   16.7184628
| 12>     C       17.8597207   16.9595132   17.5214490
| 13>     C       17.3297277   18.1989715   17.3488921
| 14>     C       16.4359387   18.6841824   16.2258773
| 15>     N       17.6585640   19.2248117   18.2413022
| 16>     C       18.6071392   19.1342234   19.2254504
| 17>     S       19.0245270   20.4360338   20.1564418
| 18>     N       19.1932761   17.9061475   19.3977676
| 19>     C       18.7681469   16.6667090   18.7208339
| 20>     C       18.0805839   15.7281576   19.7090778
| 21>     C       18.5472985   14.4124448   19.8853660
| 22>     C       17.9140564   13.5425110   20.7887857
| 23>     C       16.8030868   13.9908284   21.5232244
| 24>     C       16.3324715   15.2991781   21.3477517
| 25>     O       15.2554815   15.7328778   22.0501493
| 26>     C       16.9648092   16.1627069   20.4478504
| 27>     H       14.5028978   14.8839091   17.3144309
| 28>     H       13.7410633   13.9738647   15.9916120
| 29>     H       13.8565207   15.7455725   15.8962641
| 30>     H       16.2394660   13.7840148   15.8547981
| 31>     H       15.5939181   14.6487459   14.4418494
| 32>     H       16.8461428   18.3980361   15.2493623
| 33>     H       16.3205370   19.7747871   16.2176714
| 34>     H       15.4337937   18.2460880   16.3127939
| 35>     H       17.2393818   20.1342466   18.1310425
| 36>     H       19.8666249   17.8573716   20.1515058
| 37>     H       19.6720979   16.1674932   18.3428566
| 38>     H       19.3950982   14.0575174   19.3044565
| 39>     H       18.2814110   12.5252014   20.9110133
| 40>     H       16.3097610   13.3215452   22.2200650
| 41>     H       14.9883880   15.0145469   22.6429907
| 42>     H       16.5863004   17.1721678   20.3306745
| 43> *
| 44>
| 45>                          ****END OF INPUT****

CARTESIAN COORDINATES (ANGSTROEM)
---------------------------------
  C     14.375993   14.837125   16.225256
  C     15.740887   14.706676   15.527983
  O     16.498192   15.887573   15.851112
  C     17.630472   15.789832   16.607579
  O     18.253225   14.746389   16.718463
  C     17.859721   16.959513   17.521449
  C     17.329728   18.198971   17.348892
  C     16.435939   18.684182   16.225877
  N     17.658564   19.224812   18.241302
  C     18.607139   19.134223   19.225450
  S     19.024527   20.436034   20.156442
  N     19.193276   17.906147   19.397768
  C     18.768147   16.666709   18.720834
  C     18.080584   15.728158   19.709078
  C     18.547299   14.412445   19.885366
  C     17.914056   13.542511   20.788786
  C     16.803087   13.990828   21.523224
  C     16.332472   15.299178   21.347752
  O     15.255481   15.732878   22.050149
  C     16.964809   16.162707   20.447850
  H     14.502898   14.883909   17.314431
  H     13.741063   13.973865   15.991612
  H     13.856521   15.745572   15.896264
  H     16.239466   13.784015   15.854798
  H     15.593918   14.648746   14.441849
  H     16.846143   18.398036   15.249362
  H     16.320537   19.774787   16.217671
  H     15.433794   18.246088   16.312794
  H     17.239382   20.134247   18.131042
  H     19.866625   17.857372   20.151506
  H     19.672098   16.167493   18.342857
  H     19.395098   14.057517   19.304456
  H     18.281411   12.525201   20.911013
  H     16.309761   13.321545   22.220065
  H     14.988388   15.014547   22.642991
  H     16.586300   17.172168   20.330675

 Total Charge           Charge          ....    0
 Multiplicity           Mult            ....    1
 Number of Electrons    NEL             ....  154
 Basis Dimension        Dim             ....  828

ORBITAL ENERGIES
----------------

  NO   OCC          E(Eh)            E(eV)
   0   2.0000     -91.888139     -2500.4034
   1   2.0000     -20.600761      -560.5752
   2   2.0000     -20.592651      -560.3545
   3   2.0000     -20.546672      -559.1034
   4   2.0000     -15.628359      -425.2693
   5   2.0000     -15.606938      -424.6864
   6   2.0000     -11.396161      -310.1053
   7   2.0000     -11.383116      -309.7503
   8   2.0000     -11.335816      -308.4632
   9   2.0000     -11.308531      -307.7208
  10   2.0000     -11.306011      -307.6522
  11   2.0000     -11.298604      -307.4506
  12   2.0000     -11.260447      -306.4124
  13   2.0000     -11.259034      -306.3739
  14   2.0000     -11.254233      -306.2432
  15   2.0000     -11.248582      -306.0895
  16   2.0000     -11.238234      -305.8079
  17   2.0000     -11.234347      -305.7021
  18   2.0000     -11.231602      -305.6274
  19   2.0000     -11.231318      -305.6197
  20   2.0000      -8.893202      -241.9963
  21   2.0000      -6.574780      -178.9089
  22   2.0000      -6.572772      -178.8542
  23   2.0000      -6.572187      -178.8383
  24   2.0000      -1.453404       -39.5491
  25   2.0000      -1.412404       -38.4335
  26   2.0000      -1.357382       -36.9362
  27   2.0000      -1.339355       -36.4457
  28   2.0000      -1.237097       -33.6631
  29   2.0000      -1.152963       -31.3737
  30   2.0000      -1.119822       -30.4719
  31   2.0000      -1.043830       -28.4041
  32   2.0000      -1.036487       -28.2042
  33   2.0000      -1.010336       -27.4926
  34   2.0000      -0.998088       -27.1594
  35   2.0000      -0.983587       -26.7648
  36   2.0000      -0.921571       -25.0772
  37   2.0000      -0.890970       -24.2445
  38   2.0000      -0.847274       -23.0555
  39   2.0000      -0.835507       -22.7353
  40   2.0000      -0.828738       -22.5511
  41   2.0000      -0.816137       -22.2082
  42   2.0000      -0.760398       -20.6915
  43   2.0000      -0.736304       -20.0359
  44   2.0000      -0.725453       -19.7406
  45   2.0000      -0.691654       -18.8209
  46   2.0000      -0.685060       -18.6414
  47   2.0000      -0.678824       -18.4717
  48   2.0000      -0.674109       -18.3434
  49   2.0000      -0.660118       -17.9627
  50   2.0000      -0.649484       -17.6734
  51   2.0000      -0.644342       -17.5334
  52   2.0000      -0.634533       -17.2665
  53   2.0000      -0.602702       -16.4004
  54   2.0000      -0.600717       -16.3463
  55   2.0000      -0.596457       -16.2304
  56   2.0000      -0.592725       -16.1289
  57   2.0000      -0.583991       -15.8912
  58   2.0000      -0.574291       -15.6273
  59   2.0000      -0.562508       -15.3066
  60   2.0000      -0.560206       -15.2440
  61   2.0000      -0.558047       -15.1852
  62   2.0000      -0.538610       -14.6563
  63   2.0000      -0.525685       -14.3046
  64   2.0000      -0.518098       -14.0982
  65   2.0000      -0.510279       -13.8854
  66   2.0000      -0.499452       -13.5908
  67   2.0000      -0.495984       -13.4964
  68   2.0000      -0.481382       -13.0991
  69   2.0000      -0.463276       -12.6064
  70   2.0000      -0.457731       -12.4555
  71   2.0000      -0.454806       -12.3759
  72   2.0000      -0.354182        -9.6378
  73   2.0000      -0.344805        -9.3826
  74   2.0000      -0.327300        -8.9063
  75   2.0000      -0.316068        -8.6007
  76   2.0000      -0.314466        -8.5571
  77   0.0000       0.075533         2.0553
  78   0.0000       0.111161         3.0249
  79   0.0000       0.120031         3.2662
  80   0.0000       0.135222         3.6796
  81   0.0000       0.140606         3.8261

MULLIKEN ATOMIC CHARGES
-----------------------
   0 C :   -0.275021
   1 C :    0.019572
   2 O :   -0.348555
   3 C :    0.448381
   4 O :   -0.424178
   5 C :   -0.178141
   6 C :    0.142081
   7 C :   -0.285206
   8 N :   -0.123222
   9 C :    0.202621
  10 S :   -0.439583
  11 N :   -0.197828
  12 C :    0.040827
  13 C :    0.055140
  14 C :   -0.160274
  15 C :   -0.133479
  16 C :   -0.280155
  17 C :    0.312347
  18 O :   -0.359182
  19 C :   -0.276690
  20 H :    0.105139
  21 H :    0.099033
  22 H :    0.088928
  23 H :    0.118273
  24 H :    0.101000
  25 H :    0.126829
  26 H :    0.103136
  27 H :    0.126410
  28 H :    0.196912
  29 H :    0.193820
  30 H :    0.153891
  31 H :    0.153555
  32 H :    0.159404
  33 H :    0.128563
  34 H :    0.240275
  35 H :    0.165378
Sum of atomic charges:   -0.0000000

LOEWDIN ATOMIC CHARGES
----------------------
   0 C :    0.103697
   1 C :   -0.012666
   2 O :    0.306291
   3 C :   -0.414917
   4 O :    0.106317
   5 C :   -0.091899
   6 C :   -0.067373
   7 C :    0.125062
   8 N :    0.404672
   9 C :   -0.458547
  10 S :   -0.036169
  11 N :    0.397743
  12 C :   -0.046302
  13 C :   -0.039057
  14 C :    0.022158
  15 C :    0.041051
  16 C :   -0.002443
  17 C :   -0.193253
  18 O :    0.393017
  19 C :    0.028101
  20 H :   -0.024493
  21 H :   -0.024933
  22 H :   -0.030677
  23 H :   -0.026329
  24 H :   -0.029536
  25 H :   -0.008090
  26 H :   -0.020799
  27 H :   -0.010540
  28 H :   -0.059098
  29 H :   -0.063751
  30 H :   -0.004920
  31 H :   -0.025173
  32 H :   -0.021095
  33 H :   -0.036299
  34 H :   -0.154769
  35 H :   -0.024981

  Mayer bond orders larger than 0.100000
B(  0-C ,  1-C ) :   0.9705 B(  0-C , 20-H ) :   0.9754 B(  0-C , 21-H ) :   0.9771
B(  0-C , 22-H ) :   0.9796 B(  1-C ,  2-O ) :   0.8878 B(  1-C , 23-H ) :   0.9723
B(  1-C , 24-H ) :   0.9836 B(  2-O ,  3-C ) :   1.1540 B(  3-C ,  4-O ) :   1.9930
B(  3-C ,  5-C ) :   1.0388 B(  5-C ,  6-C ) :   1.6543 B(  5-C , 12-C ) :   0.9650
B(  6-C ,  7-C ) :   0.9551 B(  6-C ,  8-N ) :   1.1458 B(  7-C , 25-H ) :   0.9668
B(  7-C , 26-H ) :   0.9903 B(  7-C , 27-H ) :   0.9639 B(  8-N ,  9-C ) :   1.1800
B(  8-N , 28-H ) :   0.9489 B(  9-C , 10-S ) :   1.6103 B(  9-C , 11-N ) :   1.3036
B( 11-N , 12-C ) :   0.9920 B( 11-N , 29-H ) :   0.9520 B( 12-C , 13-C ) :   0.9468
B( 12-C , 30-H ) :   0.9994 B( 13-C , 14-C ) :   1.3764 B( 13-C , 19-C ) :   1.3679
B( 14-C , 15-C ) :   1.3943 B( 14-C , 31-H ) :   0.9647 B( 15-C , 16-C ) :   1.3628
B( 15-C , 32-H ) :   0.9713 B( 16-C , 17-C ) :   1.3318 B( 16-C , 33-H ) :   0.9858
B( 17-C , 18-O ) :   1.1082 B( 17-C , 19-C ) :   1.3775 B( 18-O , 34-H ) :   0.9804
B( 19-C , 35-H ) :   0.9584

MP2 TOTAL ENERGY:    -1274.343902568 Eh
FINAL SINGLE POINT ENERGY     -1274.343902567673

DIPOLE MOMENT
-------------
                                X             Y             Z
Electronic contribution:     11.60600       8.80005       8.78193
Nuclear contribution   :    -13.04447     -10.12329      -9.75220
                        -----------------------------------------
Total Dipole Moment    :     -1.43847      -1.32324      -0.97027
                        -----------------------------------------
Magnitude (a.u.)       :      2.18211
Magnitude (Debye)      :      5.54647

Rotational constants in cm-1:     0.010686     0.009230     0.006272
Rotational constants in MHz :   320.354279   276.709306   188.031402

                             ****ORCA TERMINATED NORMALLY****
TOTAL RUN TIME: 0 days 1 hours 36 minutes 6 seconds 408 msec
