                         Program Version 5.0.0 -  RELEASE  -
|  1> ! ri-mp2 cc-pvtz cc-pvtz/c TightSCF NoKeepInts
|  2>
|  3> %scf
|  4>   MaxCore 4096
|  5> end
|  6> *xyz  0  1
|  7>     C       15.4627536   13.7732524   15.2905932
|  8>     C       15.6701304   14.3433337   16.7046918
|  9>     O       16.7898060   15.2447159   16.6602113
| 10>     C       16.5549812   16.5900340   16.6234916
| 11>     O       15.5717862   17.0562725   16.0733137
| 12>     C       17.4492053   17.3600885   17.5561208
| 13>     C       17.3805851   18.7101452   17.6784115
| 14>     C       16.4484869   19.6505230   16.9446216
| 15>     N       18.2615976   19.3829002   18.5303417
| 16>     C       19.3008491   18.7982294   19.2034490
| 17>     S       20.3591321   19.6819597   20.1171774
| 18>     N       19.4234730   17.4380241   19.0778044
| 19>     C       18.4594623   16.5574491   18.3932536
| 20>     C       17.7702217   15.6587309   19.4164034
| 21>     C       18.0481530   14.2793017   19.4541730
| 22>     C       17.4099828   13.4466015   20.3887456
| 23>     C       16.4890278   13.9979028   21.2958308
| 24>     C       16.2146774   15.3721171   21.2652797
| 25>     O       15.3272382   15.9076216   22.1407748
| 26>     C       16.8504326   16.1980338   20.3332249
| 27>     H       15.2139304   14.5760672   14.5848066
| 28>     H       14.6412644   13.0468223   15.2850945
| 29>     H       16.3712413   13.2700603   14.9374491
| 30>     H       14.7598468   14.8453678   17.0611200
| 31>     H       15.8951821   13.5188941   17.3935098
| 32>     H       15.4043249   19.4418501   17.2109372
| 33>     H       16.5412447   19.5184415   15.8591310
| 34>     H       16.6430296   20.7065635   17.1654390
| 35>     H       18.1877031   20.3824233   18.6333089
| 36>     H       20.1776109   17.0313754   19.6161031
| 37>     H       19.0308026   15.9215077   17.7023694
| 38>     H       18.7566341   13.8499753   18.7506715
| 39>     H       17.6308760   12.3807438   20.4093790
| 40>     H       15.9945980   13.3593492   22.0205559
| 41>     H       15.0275138   15.1953932   22.7254077
| 42>     H       16.6292152   17.2599284   20.3308037
| 43> *
| 44>
| 45>                          ****END OF INPUT****

CARTESIAN COORDINATES (ANGSTROEM)
---------------------------------
  C     15.462754   13.773252   15.290593
  C     15.670130   14.343334   16.704692
  O     16.789806   15.244716   16.660211
  C     16.554981   16.590034   16.623492
  O     15.571786   17.056272   16.073314
  C     17.449205   17.360088   17.556121
  C     17.380585   18.710145   17.678411
  C     16.448487   19.650523   16.944622
  N     18.261598   19.382900   18.530342
  C     19.300849   18.798229   19.203449
  S     20.359132   19.681960   20.117177
  N     19.423473   17.438024   19.077804
  C     18.459462   16.557449   18.393254
  C     17.770222   15.658731   19.416403
  C     18.048153   14.279302   19.454173
  C     17.409983   13.446601   20.388746
  C     16.489028   13.997903   21.295831
  C     16.214677   15.372117   21.265280
  O     15.327238   15.907622   22.140775
  C     16.850433   16.198034   20.333225
  H     15.213930   14.576067   14.584807
  H     14.641264   13.046822   15.285094
  H     16.371241   13.270060   14.937449
  H     14.759847   14.845368   17.061120
  H     15.895182   13.518894   17.393510
  H     15.404325   19.441850   17.210937
  H     16.541245   19.518441   15.859131
  H     16.643030   20.706563   17.165439
  H     18.187703   20.382423   18.633309
  H     20.177611   17.031375   19.616103
  H     19.030803   15.921508   17.702369
  H     18.756634   13.849975   18.750671
  H     17.630876   12.380744   20.409379
  H     15.994598   13.359349   22.020556
  H     15.027514   15.195393   22.725408
  H     16.629215   17.259928   20.330804

 Total Charge           Charge          ....    0
 Multiplicity           Mult            ....    1
 Number of Electrons    NEL             ....  154
 Basis Dimension        Dim             ....  828

ORBITAL ENERGIES
----------------

  NO   OCC          E(Eh)            E(eV)
   0   2.0000     -91.889377     -2500.4371
   1   2.0000     -20.597937      -560.4984
   2   2.0000     -20.594668      -560.4094
   3   2.0000     -20.544210      -559.0364
   4   2.0000     -15.629642      -425.3042
   5   2.0000     -15.608785      -424.7366
   6   2.0000     -11.394959      -310.0726
   7   2.0000     -11.384509      -309.7882
   8   2.0000     -11.336299      -308.4764
   9   2.0000     -11.315345      -307.9062
  10   2.0000     -11.309855      -307.7568
  11   2.0000     -11.295235      -307.3590
  12   2.0000     -11.261080      -306.4296
  13   2.0000     -11.259112      -306.3760
  14   2.0000     -11.256815      -306.3135
  15   2.0000     -11.252720      -306.2021
  16   2.0000     -11.244425      -305.9764
  17   2.0000     -11.239710      -305.8481
  18   2.0000     -11.239447      -305.8409
  19   2.0000     -11.221426      -305.3505
  20   2.0000      -8.894435      -242.0299
  21   2.0000      -6.576008      -178.9423
  22   2.0000      -6.574005      -178.8878
  23   2.0000      -6.573417      -178.8718
  24   2.0000      -1.450905       -39.4811
  25   2.0000      -1.417581       -38.5744
  26   2.0000      -1.354441       -36.8562
  27   2.0000      -1.340598       -36.4795
  28   2.0000      -1.239128       -33.7184
  29   2.0000      -1.158867       -31.5344
  30   2.0000      -1.120863       -30.5002
  31   2.0000      -1.043647       -28.3991
  32   2.0000      -1.035122       -28.1671
  33   2.0000      -1.016570       -27.6623
  34   2.0000      -0.995762       -27.0961
  35   2.0000      -0.984397       -26.7868
  36   2.0000      -0.923353       -25.1257
  37   2.0000      -0.887408       -24.1476
  38   2.0000      -0.847779       -23.0692
  39   2.0000      -0.839024       -22.8310
  40   2.0000      -0.835352       -22.7311
  41   2.0000      -0.821263       -22.3477
  42   2.0000      -0.759528       -20.6678
  43   2.0000      -0.733240       -19.9525
  44   2.0000      -0.723611       -19.6905
  45   2.0000      -0.696912       -18.9640
  46   2.0000      -0.689024       -18.7493
  47   2.0000      -0.679785       -18.4979
  48   2.0000      -0.671514       -18.2728
  49   2.0000      -0.654099       -17.7989
  50   2.0000      -0.647119       -17.6090
  51   2.0000      -0.644637       -17.5415
  52   2.0000      -0.629619       -17.1328
  53   2.0000      -0.611681       -16.6447
  54   2.0000      -0.608332       -16.5536
  55   2.0000      -0.600461       -16.3394
  56   2.0000      -0.599616       -16.3164
  57   2.0000      -0.580125       -15.7860
  58   2.0000      -0.572688       -15.5836
  59   2.0000      -0.569845       -15.5063
  60   2.0000      -0.564594       -15.3634
  61   2.0000      -0.539419       -14.6783
  62   2.0000      -0.534438       -14.5428
  63   2.0000      -0.526193       -14.3184
  64   2.0000      -0.519782       -14.1440
  65   2.0000      -0.514196       -13.9920
  66   2.0000      -0.501858       -13.6563
  67   2.0000      -0.496933       -13.5222
  68   2.0000      -0.487806       -13.2739
  69   2.0000      -0.464255       -12.6330
  70   2.0000      -0.454172       -12.3586
  71   2.0000      -0.447591       -12.1796
  72   2.0000      -0.354618        -9.6496
  73   2.0000      -0.350729        -9.5438
  74   2.0000      -0.328840        -8.9482
  75   2.0000      -0.322896        -8.7865
  76   2.0000      -0.316675        -8.6172
  77   0.0000       0.073875         2.0103
  78   0.0000       0.104582         2.8458
  79   0.0000       0.124769         3.3951
  80   0.0000       0.131735         3.5847
  81   0.0000       0.137198         3.7333

MULLIKEN ATOMIC CHARGES
-----------------------
   0 C :   -0.272314
   1 C :    0.040049
   2 O :   -0.366146
   3 C :    0.452973
   4 O :   -0.426001
   5 C :   -0.222899
   6 C :    0.156786
   7 C :   -0.271893
   8 N :   -0.122434
   9 C :    0.212404
  10 S :   -0.439528
  11 N :   -0.206002
  12 C :    0.064860
  13 C :    0.064852
  14 C :   -0.201511
  15 C :   -0.126385
  16 C :   -0.280770
  17 C :    0.315914
  18 O :   -0.356006
  19 C :   -0.266998
  20 H :    0.110143
  21 H :    0.089857
  22 H :    0.090462
  23 H :    0.097198
  24 H :    0.109460
  25 H :    0.132488
  26 H :    0.130079
  27 H :    0.095518
  28 H :    0.197583
  29 H :    0.194954
  30 H :    0.150262
  31 H :    0.152111
  32 H :    0.163302
  33 H :    0.131050
  34 H :    0.240972
  35 H :    0.165613
Sum of atomic charges:    0.0000000

LOEWDIN ATOMIC CHARGES
----------------------
   0 C :    0.104557
   1 C :   -0.015904
   2 O :    0.304564
   3 C :   -0.416039
   4 O :    0.101893
   5 C :   -0.095853
   6 C :   -0.058907
   7 C :    0.131601
   8 N :    0.406687
   9 C :   -0.456149
  10 S :   -0.035014
  11 N :    0.396269
  12 C :   -0.052225
  13 C :   -0.037817
  14 C :    0.014602
  15 C :    0.038678
  16 C :   -0.002333
  17 C :   -0.189388
  18 O :    0.395573
  19 C :    0.031124
  20 H :   -0.023865
  21 H :   -0.028799
  22 H :   -0.029459
  23 H :   -0.027939
  24 H :   -0.028063
  25 H :   -0.004596
  26 H :   -0.004015
  27 H :   -0.023212
  28 H :   -0.057474
  29 H :   -0.064656
  30 H :   -0.010164
  31 H :   -0.029829
  32 H :   -0.021157
  33 H :   -0.035408
  34 H :   -0.153612
  35 H :   -0.023668

  Mayer bond orders larger than 0.100000
B(  0-C ,  1-C ) :   0.9787 B(  0-C , 20-H ) :   0.9768 B(  0-C , 21-H ) :   0.9774
B(  0-C , 22-H ) :   0.9777 B(  1-C ,  2-O ) :   0.8793 B(  1-C , 23-H ) :   0.9722
B(  1-C , 24-H ) :   0.9762 B(  2-O ,  3-C ) :   1.1375 B(  3-C ,  4-O ) :   1.9745
B(  3-C ,  5-C ) :   1.0665 B(  5-C ,  6-C ) :   1.6514 B(  5-C , 12-C ) :   0.9715
B(  6-C ,  7-C ) :   0.9669 B(  6-C ,  8-N ) :   1.1616 B(  7-C , 25-H ) :   0.9594
B(  7-C , 26-H ) :   0.9611 B(  7-C , 27-H ) :   0.9906 B(  8-N ,  9-C ) :   1.1829
B(  8-N , 28-H ) :   0.9477 B(  9-C , 10-S ) :   1.6072 B(  9-C , 11-N ) :   1.3059
B( 11-N , 12-C ) :   0.9820 B( 11-N , 29-H ) :   0.9516 B( 12-C , 13-C ) :   0.9361
B( 12-C , 30-H ) :   1.0023 B( 13-C , 14-C ) :   1.3489 B( 13-C , 19-C ) :   1.3822
B( 14-C , 15-C ) :   1.3874 B( 14-C , 31-H ) :   0.9727 B( 15-C , 16-C ) :   1.3632
B( 15-C , 32-H ) :   0.9699 B( 16-C , 17-C ) :   1.3308 B( 16-C , 33-H ) :   0.9847
B( 17-C , 18-O ) :   1.1111 B( 17-C , 19-C ) :   1.3711 B( 18-O , 34-H ) :   0.9796
B( 19-C , 35-H ) :   0.9584

MP2 TOTAL ENERGY:    -1274.343273515 Eh
FINAL SINGLE POINT ENERGY     -1274.343273514892

DIPOLE MOMENT
-------------
                                X             Y             Z
Electronic contribution:      9.98636      10.16076       8.99541
Nuclear contribution   :    -11.04335     -11.75056      -9.19544
                        -----------------------------------------
Total Dipole Moment    :     -1.05699      -1.58980      -0.20003
                        -----------------------------------------
Magnitude (a.u.)       :      1.91955
Magnitude (Debye)      :      4.87912

Rotational constants in cm-1:     0.011766     0.008615     0.006128
Rotational constants in MHz :   352.740071   258.282577   183.703646

                             ****ORCA TERMINATED NORMALLY****
TOTAL RUN TIME: 0 days 2 hours 5 minutes 33 seconds 454 msec
