                         Program Version 4.2.0 -  RELEASE  -
|  1> ! ri-mp2 cc-pvtz cc-pvtz/c TightSCF  NoKeepInts
|  2>
|  3> %scf
|  4>   MaxCore 4096
|  5> end
|  6> *xyz  0  1
|  7>     C       14.9246306   15.0053593   16.2193780
|  8>     C       16.1467652   14.4035132   16.9433288
|  9>     O       17.3743260   14.8700558   16.3361711
| 10>     C       17.5938839   16.1998666   16.1090917
| 11>     O       17.4025458   16.6573452   14.9971390
| 12>     C       17.7450521   17.0513152   17.3397500
| 13>     C       17.3408008   18.3465115   17.3667409
| 14>     C       16.5365562   19.0772401   16.3133748
| 15>     N       17.7190797   19.1737842   18.4285866
| 16>     C       18.6981702   18.8624924   19.3355808
| 17>     S       19.2563255   19.9631207   20.4364257
| 18>     N       19.2014471   17.5867560   19.2732903
| 19>     C       18.5971751   16.4903211   18.4931572
| 20>     C       17.8441736   15.5717233   19.4469458
| 21>     C       18.2557734   14.2361973   19.6179494
| 22>     C       17.5640995   13.3817576   20.4928739
| 23>     C       16.4558229   13.8670969   21.2077246
| 24>     C       16.0490582   15.1986519   21.0480010
| 25>     O       14.9781168   15.6697931   21.7343700
| 26>     C       16.7371876   16.0463933   20.1745243
| 27>     H       14.8430398   16.0832728   16.4033472
| 28>     H       14.0005761   14.5336271   16.5748675
| 29>     H       14.9967230   14.8415423   15.1363555
| 30>     H       16.0804839   14.6667011   17.9999965
| 31>     H       16.1087737   13.3088642   16.8731517
| 32>     H       15.7059236   18.4575550   15.9539457
| 33>     H       17.1666781   19.3108840   15.4452904
| 34>     H       16.1077158   20.0163442   16.6821942
| 35>     H       17.3774760   20.1210231   18.4679813
| 36>     H       19.9092367   17.3791290   19.9662548
| 37>     H       19.4174016   15.9136420   18.0424104
| 38>     H       19.1108706   13.8557765   19.0647940
| 39>     H       17.8887962   12.3497242   20.6165857
| 40>     H       15.9195136   13.2107059   21.8854861
| 41>     H       14.6839217   14.9689856   22.3358899
| 42>     H       16.4088795   17.0749282   20.0710454
| 43> *
| 44>
| 45>                          ****END OF INPUT****

CARTESIAN COORDINATES (ANGSTROEM)
---------------------------------
  C     14.924631   15.005359   16.219378
  C     16.146765   14.403513   16.943329
  O     17.374326   14.870056   16.336171
  C     17.593884   16.199867   16.109092
  O     17.402546   16.657345   14.997139
  C     17.745052   17.051315   17.339750
  C     17.340801   18.346511   17.366741
  C     16.536556   19.077240   16.313375
  N     17.719080   19.173784   18.428587
  C     18.698170   18.862492   19.335581
  S     19.256325   19.963121   20.436426
  N     19.201447   17.586756   19.273290
  C     18.597175   16.490321   18.493157
  C     17.844174   15.571723   19.446946
  C     18.255773   14.236197   19.617949
  C     17.564099   13.381758   20.492874
  C     16.455823   13.867097   21.207725
  C     16.049058   15.198652   21.048001
  O     14.978117   15.669793   21.734370
  C     16.737188   16.046393   20.174524
  H     14.843040   16.083273   16.403347
  H     14.000576   14.533627   16.574867
  H     14.996723   14.841542   15.136356
  H     16.080484   14.666701   17.999997
  H     16.108774   13.308864   16.873152
  H     15.705924   18.457555   15.953946
  H     17.166678   19.310884   15.445290
  H     16.107716   20.016344   16.682194
  H     17.377476   20.121023   18.467981
  H     19.909237   17.379129   19.966255
  H     19.417402   15.913642   18.042410
  H     19.110871   13.855776   19.064794
  H     17.888796   12.349724   20.616586
  H     15.919514   13.210706   21.885486
  H     14.683922   14.968986   22.335890
  H     16.408880   17.074928   20.071045

 Total Charge           Charge          ....    0
 Multiplicity           Mult            ....    1
 Number of Electrons    NEL             ....  154
 Basis Dimension        Dim             ....  828

ORBITAL ENERGIES
----------------

  NO   OCC          E(Eh)            E(eV)
   0   2.0000     -91.891749     -2500.5016
   1   2.0000     -20.602854      -560.6322
   2   2.0000     -20.581648      -560.0551
   3   2.0000     -20.551013      -559.2215
   4   2.0000     -15.631200      -425.3466
   5   2.0000     -15.610918      -424.7947
   6   2.0000     -11.393368      -310.0293
   7   2.0000     -11.386387      -309.8393
   8   2.0000     -11.336381      -308.4786
   9   2.0000     -11.321093      -308.0626
  10   2.0000     -11.315445      -307.9089
  11   2.0000     -11.296932      -307.4052
  12   2.0000     -11.265585      -306.5522
  13   2.0000     -11.262132      -306.4582
  14   2.0000     -11.259932      -306.3983
  15   2.0000     -11.255205      -306.2697
  16   2.0000     -11.250222      -306.1341
  17   2.0000     -11.244597      -305.9810
  18   2.0000     -11.244327      -305.9737
  19   2.0000     -11.226206      -305.4806
  20   2.0000      -8.896760      -242.0931
  21   2.0000      -6.578322      -179.0052
  22   2.0000      -6.576331      -178.9511
  23   2.0000      -6.575732      -178.9348
  24   2.0000      -1.444048       -39.2946
  25   2.0000      -1.422574       -38.7102
  26   2.0000      -1.352486       -36.8030
  27   2.0000      -1.342900       -36.5422
  28   2.0000      -1.241632       -33.7865
  29   2.0000      -1.163606       -31.6633
  30   2.0000      -1.122424       -30.5427
  31   2.0000      -1.048009       -28.5178
  32   2.0000      -1.031201       -28.0604
  33   2.0000      -1.021994       -27.8099
  34   2.0000      -1.001011       -27.2389
  35   2.0000      -0.987655       -26.8755
  36   2.0000      -0.927192       -25.2302
  37   2.0000      -0.890564       -24.2335
  38   2.0000      -0.850591       -23.1458
  39   2.0000      -0.845614       -23.0103
  40   2.0000      -0.840413       -22.8688
  41   2.0000      -0.828469       -22.5438
  42   2.0000      -0.750606       -20.4250
  43   2.0000      -0.736583       -20.0434
  44   2.0000      -0.716199       -19.4888
  45   2.0000      -0.701869       -19.0988
  46   2.0000      -0.692001       -18.8303
  47   2.0000      -0.680212       -18.5095
  48   2.0000      -0.671057       -18.2604
  49   2.0000      -0.665509       -18.1094
  50   2.0000      -0.653316       -17.7776
  51   2.0000      -0.649801       -17.6820
  52   2.0000      -0.637593       -17.3498
  53   2.0000      -0.618301       -16.8248
  54   2.0000      -0.612804       -16.6752
  55   2.0000      -0.605033       -16.4638
  56   2.0000      -0.602368       -16.3913
  57   2.0000      -0.582745       -15.8573
  58   2.0000      -0.575521       -15.6607
  59   2.0000      -0.566968       -15.4280
  60   2.0000      -0.551022       -14.9941
  61   2.0000      -0.546307       -14.8658
  62   2.0000      -0.539406       -14.6780
  63   2.0000      -0.531251       -14.4561
  64   2.0000      -0.526779       -14.3344
  65   2.0000      -0.518504       -14.1092
  66   2.0000      -0.506509       -13.7828
  67   2.0000      -0.497631       -13.5412
  68   2.0000      -0.476744       -12.9729
  69   2.0000      -0.469388       -12.7727
  70   2.0000      -0.452825       -12.3220
  71   2.0000      -0.445099       -12.1118
  72   2.0000      -0.359623        -9.7858
  73   2.0000      -0.354770        -9.6538
  74   2.0000      -0.331891        -9.0312
  75   2.0000      -0.328403        -8.9363
  76   2.0000      -0.318756        -8.6738
  77   0.0000       0.070103         1.9076
  78   0.0000       0.100986         2.7480
  79   0.0000       0.120877         3.2892
  80   0.0000       0.127035         3.4568
  81   0.0000       0.131572         3.5803

MULLIKEN ATOMIC CHARGES
-----------------------
   0 C :   -0.290276
   1 C :    0.034615
   2 O :   -0.372084
   3 C :    0.439638
   4 O :   -0.379455
   5 C :   -0.235157
   6 C :    0.156231
   7 C :   -0.276170
   8 N :   -0.126857
   9 C :    0.203058
  10 S :   -0.432917
  11 N :   -0.188458
  12 C :    0.033686
  13 C :    0.037343
  14 C :   -0.177282
  15 C :   -0.131149
  16 C :   -0.273120
  17 C :    0.302193
  18 O :   -0.355699
  19 C :   -0.250885
  20 H :    0.082905
  21 H :    0.104942
  22 H :    0.117234
  23 H :    0.102848
  24 H :    0.116493
  25 H :    0.123296
  26 H :    0.141387
  27 H :    0.094605
  28 H :    0.198420
  29 H :    0.190481
  30 H :    0.148903
  31 H :    0.153052
  32 H :    0.163758
  33 H :    0.134256
  34 H :    0.241790
  35 H :    0.168372
Sum of atomic charges:   -0.0000000

LOEWDIN ATOMIC CHARGES
----------------------
   0 C :    0.105798
   1 C :   -0.014568
   2 O :    0.280292
   3 C :   -0.423715
   4 O :    0.131027
   5 C :   -0.097445
   6 C :   -0.064694
   7 C :    0.130015
   8 N :    0.406215
   9 C :   -0.457721
  10 S :   -0.030761
  11 N :    0.396604
  12 C :   -0.052314
  13 C :   -0.042687
  14 C :    0.015296
  15 C :    0.043106
  16 C :   -0.000136
  17 C :   -0.191369
  18 O :    0.397057
  19 C :    0.030390
  20 H :   -0.033083
  21 H :   -0.025383
  22 H :   -0.021281
  23 H :   -0.038634
  24 H :   -0.021434
  25 H :   -0.009680
  26 H :   -0.002542
  27 H :   -0.022358
  28 H :   -0.057422
  29 H :   -0.065106
  30 H :   -0.005609
  31 H :   -0.028424
  32 H :   -0.019196
  33 H :   -0.033922
  34 H :   -0.152423
  35 H :   -0.023894

  Mayer bond orders larger than 0.100000
B(  0-C ,  1-C ) :   0.9768 B(  0-C , 20-H ) :   0.9748 B(  0-C , 21-H ) :   0.9766
B(  0-C , 22-H ) :   0.9745 B(  1-C ,  2-O ) :   0.8892 B(  1-C , 23-H ) :   0.9616
B(  1-C , 24-H ) :   0.9808 B(  2-O ,  3-C ) :   1.1205 B(  3-C ,  4-O ) :   2.0689
B(  3-C ,  5-C ) :   1.0014 B(  5-C ,  6-C ) :   1.6713 B(  5-C , 12-C ) :   0.9682
B(  6-C ,  7-C ) :   0.9681 B(  6-C ,  8-N ) :   1.1432 B(  7-C , 25-H ) :   0.9697
B(  7-C , 26-H ) :   0.9553 B(  7-C , 27-H ) :   0.9858 B(  8-N ,  9-C ) :   1.1792
B(  8-N , 28-H ) :   0.9494 B(  9-C , 10-S ) :   1.6209 B(  9-C , 11-N ) :   1.2941
B( 11-N , 12-C ) :   0.9868 B( 11-N , 29-H ) :   0.9544 B( 12-C , 13-C ) :   0.9452
B( 12-C , 30-H ) :   1.0059 B( 13-C , 14-C ) :   1.3648 B( 13-C , 19-C ) :   1.3691
B( 14-C , 15-C ) :   1.3849 B( 14-C , 31-H ) :   0.9700 B( 15-C , 16-C ) :   1.3693
B( 15-C , 32-H ) :   0.9699 B( 16-C , 17-C ) :   1.3260 B( 16-C , 33-H ) :   0.9833
B( 17-C , 18-O ) :   1.1156 B( 17-C , 19-C ) :   1.3786 B( 18-O , 34-H ) :   0.9788
B( 19-C , 35-H ) :   0.9573

MP2 TOTAL ENERGY:    -1274.326210492 Eh
FINAL SINGLE POINT ENERGY     -1274.326210491846

DIPOLE MOMENT
-------------
                                X             Y             Z
Electronic contribution:     10.72551       7.56769       6.82246
Nuclear contribution   :    -11.96652      -9.16099      -6.44133
                        -----------------------------------------
Total Dipole Moment    :     -1.24101      -1.59330       0.38113
                        -----------------------------------------
Magnitude (a.u.)       :      2.05523
Magnitude (Debye)      :      5.22397

Rotational constants in cm-1:     0.011307     0.009892     0.006555
Rotational constants in MHz :   338.961847   296.561587   196.499816

                             ****ORCA TERMINATED NORMALLY****
TOTAL RUN TIME: 0 days 1 hours 55 minutes 0 seconds 140 msec
