                         Program Version 5.0.0 -  RELEASE  -
|  1> ! ri-mp2 cc-pvtz cc-pvtz/c TightSCF NoKeepInts
|  2>
|  3> %scf
|  4>   MaxCore 4096
|  5> end
|  6> *xyz  0  1
|  7>     C       15.1007130   15.5149151   17.5354206
|  8>     C       15.5659226   15.3419362   16.0750296
|  9>     O       16.9654570   14.9891607   15.9670960
| 10>     C       18.0893435   15.6002791   16.4788831
| 11>     O       19.1355570   14.9779896   16.4799904
| 12>     C       17.9308872   16.7871963   17.3746402
| 13>     C       17.4050083   17.9609321   16.9494212
| 14>     C       16.9195052   18.3005422   15.5569995
| 15>     N       17.3895192   19.0676826   17.8012461
| 16>     C       18.0224516   19.1264385   19.0148546
| 17>     S       18.0333328   20.5082674   19.9228002
| 18>     N       18.6522367   17.9817721   19.4357689
| 19>     C       18.5808789   16.6714484   18.7583578
| 20>     C       17.8817392   15.6282011   19.6280382
| 21>     C       18.3218798   14.2916122   19.6089060
| 22>     C       17.6855544   13.3141094   20.3915611
| 23>     C       16.5978593   13.6738708   21.2046289
| 24>     C       16.1548945   15.0028295   21.2285387
| 25>     O       15.0980829   15.3517997   22.0043560
| 26>     C       16.7898346   15.9742540   20.4480372
| 27>     H       15.5140185   14.7190988   18.1677514
| 28>     H       14.0075770   15.4449200   17.5897704
| 29>     H       15.3788911   16.4862179   17.9547796
| 30>     H       14.9844656   14.5246882   15.6285866
| 31>     H       15.3327845   16.2405919   15.4964033
| 32>     H       17.1627891   17.5182512   14.8277861
| 33>     H       17.3977430   19.2193287   15.1934950
| 34>     H       15.8349091   18.4624636   15.5431849
| 35>     H       16.9537761   19.9252568   17.5001675
| 36>     H       19.1020851   18.0494360   20.3400530
| 37>     H       19.6153165   16.3291153   18.6058718
| 38>     H       19.1573961   14.0061053   18.9728831
| 39>     H       18.0349789   12.2834056   20.3616374
| 40>     H       16.1022692   12.9211842   21.8088157
| 41>     H       14.8265215   14.5627901   22.4972323
| 42>     H       16.4208212   16.9939093   20.4810075
| 43> *
| 44>
| 45>                          ****END OF INPUT****

CARTESIAN COORDINATES (ANGSTROEM)
---------------------------------
  C     15.100713   15.514915   17.535421
  C     15.565923   15.341936   16.075030
  O     16.965457   14.989161   15.967096
  C     18.089343   15.600279   16.478883
  O     19.135557   14.977990   16.479990
  C     17.930887   16.787196   17.374640
  C     17.405008   17.960932   16.949421
  C     16.919505   18.300542   15.556999
  N     17.389519   19.067683   17.801246
  C     18.022452   19.126438   19.014855
  S     18.033333   20.508267   19.922800
  N     18.652237   17.981772   19.435769
  C     18.580879   16.671448   18.758358
  C     17.881739   15.628201   19.628038
  C     18.321880   14.291612   19.608906
  C     17.685554   13.314109   20.391561
  C     16.597859   13.673871   21.204629
  C     16.154895   15.002829   21.228539
  O     15.098083   15.351800   22.004356
  C     16.789835   15.974254   20.448037
  H     15.514019   14.719099   18.167751
  H     14.007577   15.444920   17.589770
  H     15.378891   16.486218   17.954780
  H     14.984466   14.524688   15.628587
  H     15.332785   16.240592   15.496403
  H     17.162789   17.518251   14.827786
  H     17.397743   19.219329   15.193495
  H     15.834909   18.462464   15.543185
  H     16.953776   19.925257   17.500167
  H     19.102085   18.049436   20.340053
  H     19.615316   16.329115   18.605872
  H     19.157396   14.006105   18.972883
  H     18.034979   12.283406   20.361637
  H     16.102269   12.921184   21.808816
  H     14.826522   14.562790   22.497232
  H     16.420821   16.993909   20.481008

 Total Charge           Charge          ....    0
 Multiplicity           Mult            ....    1
 Number of Electrons    NEL             ....  154
 Basis Dimension        Dim             ....  828

ORBITAL ENERGIES
----------------

  NO   OCC          E(Eh)            E(eV)
   0   2.0000     -91.890704     -2500.4732
   1   2.0000     -20.599282      -560.5350
   2   2.0000     -20.597454      -560.4852
   3   2.0000     -20.548023      -559.1401
   4   2.0000     -15.628520      -425.2737
   5   2.0000     -15.611390      -424.8075
   6   2.0000     -11.400819      -310.2321
   7   2.0000     -11.387089      -309.8585
   8   2.0000     -11.331819      -308.3545
   9   2.0000     -11.314162      -307.8740
  10   2.0000     -11.313994      -307.8694
  11   2.0000     -11.309950      -307.7594
  12   2.0000     -11.271554      -306.7146
  13   2.0000     -11.267448      -306.6028
  14   2.0000     -11.261569      -306.4429
  15   2.0000     -11.254546      -306.2518
  16   2.0000     -11.243841      -305.9605
  17   2.0000     -11.239230      -305.8350
  18   2.0000     -11.236136      -305.7508
  19   2.0000     -11.230056      -305.5854
  20   2.0000      -8.895806      -242.0672
  21   2.0000      -6.577394      -178.9800
  22   2.0000      -6.575368      -178.9249
  23   2.0000      -6.574791      -178.9092
  24   2.0000      -1.444281       -39.3009
  25   2.0000      -1.417275       -38.5660
  26   2.0000      -1.356376       -36.9089
  27   2.0000      -1.341788       -36.5119
  28   2.0000      -1.240758       -33.7627
  29   2.0000      -1.158976       -31.5373
  30   2.0000      -1.125489       -30.6261
  31   2.0000      -1.047906       -28.5150
  32   2.0000      -1.039011       -28.2729
  33   2.0000      -1.017201       -27.6794
  34   2.0000      -1.006102       -27.3774
  35   2.0000      -0.990389       -26.9499
  36   2.0000      -0.928220       -25.2581
  37   2.0000      -0.897770       -24.4296
  38   2.0000      -0.855370       -23.2758
  39   2.0000      -0.840918       -22.8826
  40   2.0000      -0.834395       -22.7050
  41   2.0000      -0.829359       -22.5680
  42   2.0000      -0.746739       -20.3198
  43   2.0000      -0.739576       -20.1249
  44   2.0000      -0.730518       -19.8784
  45   2.0000      -0.695272       -18.9193
  46   2.0000      -0.687274       -18.7017
  47   2.0000      -0.679125       -18.4799
  48   2.0000      -0.674972       -18.3669
  49   2.0000      -0.662611       -18.0306
  50   2.0000      -0.652572       -17.7574
  51   2.0000      -0.650988       -17.7143
  52   2.0000      -0.640356       -17.4250
  53   2.0000      -0.617356       -16.7991
  54   2.0000      -0.610409       -16.6101
  55   2.0000      -0.605840       -16.4858
  56   2.0000      -0.602008       -16.3815
  57   2.0000      -0.590699       -16.0737
  58   2.0000      -0.578403       -15.7392
  59   2.0000      -0.571751       -15.5581
  60   2.0000      -0.565769       -15.3954
  61   2.0000      -0.556176       -15.1343
  62   2.0000      -0.540892       -14.7184
  63   2.0000      -0.530769       -14.4430
  64   2.0000      -0.520154       -14.1541
  65   2.0000      -0.513182       -13.9644
  66   2.0000      -0.501647       -13.6505
  67   2.0000      -0.501227       -13.6391
  68   2.0000      -0.483093       -13.1456
  69   2.0000      -0.465562       -12.6686
  70   2.0000      -0.454437       -12.3659
  71   2.0000      -0.450556       -12.2603
  72   2.0000      -0.357452        -9.7268
  73   2.0000      -0.348391        -9.4802
  74   2.0000      -0.330277        -8.9873
  75   2.0000      -0.322975        -8.7886
  76   2.0000      -0.319087        -8.6828
  77   0.0000       0.082927         2.2566
  78   0.0000       0.107582         2.9275
  79   0.0000       0.112959         3.0738
  80   0.0000       0.130637         3.5548
  81   0.0000       0.130966         3.5638

MULLIKEN ATOMIC CHARGES
-----------------------
   0 C :   -0.329132
   1 C :    0.022112
   2 O :   -0.323409
   3 C :    0.420061
   4 O :   -0.385745
   5 C :   -0.208774
   6 C :    0.148011
   7 C :   -0.336235
   8 N :   -0.136835
   9 C :    0.201871
  10 S :   -0.439833
  11 N :   -0.223908
  12 C :    0.084451
  13 C :    0.020926
  14 C :   -0.210885
  15 C :   -0.135432
  16 C :   -0.278023
  17 C :    0.318009
  18 O :   -0.358514
  19 C :   -0.271673
  20 H :    0.128573
  21 H :    0.115822
  22 H :    0.108442
  23 H :    0.133850
  24 H :    0.087162
  25 H :    0.128709
  26 H :    0.140727
  27 H :    0.121494
  28 H :    0.196880
  29 H :    0.201881
  30 H :    0.168057
  31 H :    0.176271
  32 H :    0.163834
  33 H :    0.131958
  34 H :    0.241053
  35 H :    0.178244
Sum of atomic charges:    0.0000000

LOEWDIN ATOMIC CHARGES
----------------------
   0 C :    0.103449
   1 C :   -0.018522
   2 O :    0.298204
   3 C :   -0.414527
   4 O :    0.121916
   5 C :   -0.078679
   6 C :   -0.098221
   7 C :    0.122713
   8 N :    0.402437
   9 C :   -0.458311
  10 S :   -0.037004
  11 N :    0.398476
  12 C :   -0.042356
  13 C :   -0.042597
  14 C :    0.020341
  15 C :    0.043287
  16 C :   -0.001814
  17 C :   -0.193855
  18 O :    0.395305
  19 C :    0.028829
  20 H :   -0.018412
  21 H :   -0.024496
  22 H :   -0.036637
  23 H :   -0.017289
  24 H :   -0.040357
  25 H :   -0.008165
  26 H :   -0.008606
  27 H :   -0.018100
  28 H :   -0.057494
  29 H :   -0.063216
  30 H :   -0.001487
  31 H :   -0.021823
  32 H :   -0.018628
  33 H :   -0.034998
  34 H :   -0.153590
  35 H :   -0.025773

  Mayer bond orders larger than 0.100000
B(  0-C ,  1-C ) :   0.9539 B(  0-C , 20-H ) :   0.9681 B(  0-C , 21-H ) :   0.9767
B(  0-C , 22-H ) :   0.9725 B(  1-C ,  2-O ) :   0.9076 B(  1-C , 23-H ) :   0.9819
B(  1-C , 24-H ) :   0.9737 B(  2-O ,  3-C ) :   1.1817 B(  3-C ,  4-O ) :   2.0761
B(  3-C ,  5-C ) :   0.9245 B(  5-C ,  6-C ) :   1.6930 B(  5-C , 12-C ) :   0.9534
B(  6-C ,  7-C ) :   0.9454 B(  6-C ,  8-N ) :   1.1050 B(  7-C , 25-H ) :   0.9806
B(  7-C , 26-H ) :   0.9703 B(  7-C , 27-H ) :   0.9657 B(  8-N ,  9-C ) :   1.1942
B(  8-N , 28-H ) :   0.9523 B(  9-C , 10-S ) :   1.6103 B(  9-C , 11-N ) :   1.2888
B( 11-N , 12-C ) :   0.9883 B( 11-N , 29-H ) :   0.9482 B( 12-C , 13-C ) :   0.9495
B( 12-C , 30-H ) :   0.9950 B( 13-C , 14-C ) :   1.3908 B( 13-C , 19-C ) :   1.3391
B( 14-C , 15-C ) :   1.4008 B( 14-C , 31-H ) :   0.9577 B( 15-C , 16-C ) :   1.3585
B( 15-C , 32-H ) :   0.9703 B( 16-C , 17-C ) :   1.3305 B( 16-C , 33-H ) :   0.9849
B( 17-C , 18-O ) :   1.1099 B( 17-C , 19-C ) :   1.3705 B( 18-O , 34-H ) :   0.9797
B( 19-C , 35-H ) :   0.9565

MP2 TOTAL ENERGY:    -1274.327653252 Eh
FINAL SINGLE POINT ENERGY     -1274.327653251604

DIPOLE MOMENT
-------------
                                X             Y             Z
Electronic contribution:      9.15281       6.02621       6.26474
Nuclear contribution   :    -10.70851      -7.01186      -6.94253
                        -----------------------------------------
Total Dipole Moment    :     -1.55570      -0.98565      -0.67779
                        -----------------------------------------
Magnitude (a.u.)       :      1.96243
Magnitude (Debye)      :      4.98810

Rotational constants in cm-1:     0.011793     0.009615     0.006824
Rotational constants in MHz :   353.553198   288.262838   204.570077

                             ****ORCA TERMINATED NORMALLY****
TOTAL RUN TIME: 0 days 2 hours 16 minutes 51 seconds 79 msec
