                         Program Version 5.0.0 -  RELEASE  -
|  1> ! ri-mp2 cc-pvtz cc-pvtz/c TightSCF NoKeepInts
|  2>
|  3> %scf
|  4>   MaxCore 4096
|  5> end
|  6> *xyz  0  1
|  7>     C       14.9231178   13.8497176   16.5765122
|  8>     C       15.6780320   15.1030451   17.0472551
|  9>     O       16.9354313   15.1251215   16.3463733
| 10>     C       17.5625681   16.3157036   16.1158730
| 11>     O       17.5972251   16.7555928   14.9818179
| 12>     C       17.7676822   17.1840476   17.3223237
| 13>     C       17.4194866   18.4934332   17.3186509
| 14>     C       16.6330308   19.2174152   16.2480228
| 15>     N       17.8267333   19.3283255   18.3624490
| 16>     C       18.7595010   18.9858811   19.3059947
| 17>     S       19.3230591   20.0750878   20.4151270
| 18>     N       19.2068672   17.6878371   19.2816036
| 19>     C       18.6171680   16.6066765   18.4675679
| 20>     C       17.8760139   15.6324593   19.3746948
| 21>     C       18.1537809   14.2537862   19.3107332
| 22>     C       17.4700561   13.3476003   20.1384232
| 23>     C       16.5046743   13.8228264   21.0422060
| 24>     C       16.2302345   15.1951217   21.1146284
| 25>     O       15.2943829   15.6564362   21.9813175
| 26>     C       16.9093554   16.0952084   20.2873482
| 27>     H       13.9374889   13.7908511   17.0537523
| 28>     H       15.4848191   12.9431418   16.8340147
| 29>     H       14.7792865   13.8708002   15.4888021
| 30>     H       15.0838808   15.9906008   16.7908256
| 31>     H       15.8009025   15.0676413   18.1313470
| 32>     H       15.8110454   18.5944983   15.8741072
| 33>     H       17.2795904   19.4490138   15.3913953
| 34>     H       16.1958162   20.1565480   16.6070478
| 35>     H       17.5279119   20.2906932   18.3770683
| 36>     H       19.8800349   17.4608507   20.0027598
| 37>     H       19.4509646   16.0598036   18.0046142
| 38>     H       18.8941896   13.8802482   18.6076776
| 39>     H       17.6890686   12.2826777   20.0773137
| 40>     H       15.9744193   13.1258268   21.6831484
| 41>     H       14.9875331   14.9039082   22.5096110
| 42>     H       16.6816477   17.1535733   20.3615924
| 43> *
| 44>
| 45>                          ****END OF INPUT****

CARTESIAN COORDINATES (ANGSTROEM)
---------------------------------
  C     14.923118   13.849718   16.576512
  C     15.678032   15.103045   17.047255
  O     16.935431   15.125122   16.346373
  C     17.562568   16.315704   16.115873
  O     17.597225   16.755593   14.981818
  C     17.767682   17.184048   17.322324
  C     17.419487   18.493433   17.318651
  C     16.633031   19.217415   16.248023
  N     17.826733   19.328325   18.362449
  C     18.759501   18.985881   19.305995
  S     19.323059   20.075088   20.415127
  N     19.206867   17.687837   19.281604
  C     18.617168   16.606676   18.467568
  C     17.876014   15.632459   19.374695
  C     18.153781   14.253786   19.310733
  C     17.470056   13.347600   20.138423
  C     16.504674   13.822826   21.042206
  C     16.230235   15.195122   21.114628
  O     15.294383   15.656436   21.981317
  C     16.909355   16.095208   20.287348
  H     13.937489   13.790851   17.053752
  H     15.484819   12.943142   16.834015
  H     14.779286   13.870800   15.488802
  H     15.083881   15.990601   16.790826
  H     15.800902   15.067641   18.131347
  H     15.811045   18.594498   15.874107
  H     17.279590   19.449014   15.391395
  H     16.195816   20.156548   16.607048
  H     17.527912   20.290693   18.377068
  H     19.880035   17.460851   20.002760
  H     19.450965   16.059804   18.004614
  H     18.894190   13.880248   18.607678
  H     17.689069   12.282678   20.077314
  H     15.974419   13.125827   21.683148
  H     14.987533   14.903908   22.509611
  H     16.681648   17.153573   20.361592

 Total Charge           Charge          ....    0
 Multiplicity           Mult            ....    1
 Number of Electrons    NEL             ....  154
 Basis Dimension        Dim             ....  828

ORBITAL ENERGIES
----------------

  NO   OCC          E(Eh)            E(eV)
   0   2.0000     -91.891320     -2500.4899
   1   2.0000     -20.602893      -560.6332
   2   2.0000     -20.585177      -560.1511
   3   2.0000     -20.554872      -559.3265
   4   2.0000     -15.629273      -425.2941
   5   2.0000     -15.611621      -424.8138
   6   2.0000     -11.393525      -310.0336
   7   2.0000     -11.386490      -309.8421
   8   2.0000     -11.333033      -308.3875
   9   2.0000     -11.321189      -308.0652
  10   2.0000     -11.317456      -307.9636
  11   2.0000     -11.296371      -307.3899
  12   2.0000     -11.266551      -306.5784
  13   2.0000     -11.262475      -306.4675
  14   2.0000     -11.259788      -306.3944
  15   2.0000     -11.256085      -306.2936
  16   2.0000     -11.250837      -306.1508
  17   2.0000     -11.245333      -306.0011
  18   2.0000     -11.245225      -305.9981
  19   2.0000     -11.227208      -305.5079
  20   2.0000      -8.896367      -242.0824
  21   2.0000      -6.577938      -178.9948
  22   2.0000      -6.575935      -178.9403
  23   2.0000      -6.575344      -178.9242
  24   2.0000      -1.448403       -39.4130
  25   2.0000      -1.422694       -38.7135
  26   2.0000      -1.356586       -36.9146
  27   2.0000      -1.341630       -36.5076
  28   2.0000      -1.241224       -33.7754
  29   2.0000      -1.164243       -31.6807
  30   2.0000      -1.123194       -30.5637
  31   2.0000      -1.048865       -28.5411
  32   2.0000      -1.034709       -28.1559
  33   2.0000      -1.022632       -27.8272
  34   2.0000      -1.001420       -27.2500
  35   2.0000      -0.987959       -26.8837
  36   2.0000      -0.927818       -25.2472
  37   2.0000      -0.875792       -23.8315
  38   2.0000      -0.852059       -23.1857
  39   2.0000      -0.844636       -22.9837
  40   2.0000      -0.841317       -22.8934
  41   2.0000      -0.835864       -22.7450
  42   2.0000      -0.759485       -20.6666
  43   2.0000      -0.737267       -20.0621
  44   2.0000      -0.728335       -19.8190
  45   2.0000      -0.702063       -19.1041
  46   2.0000      -0.692279       -18.8379
  47   2.0000      -0.681796       -18.5526
  48   2.0000      -0.675156       -18.3719
  49   2.0000      -0.662344       -18.0233
  50   2.0000      -0.650868       -17.7110
  51   2.0000      -0.649448       -17.6724
  52   2.0000      -0.639731       -17.4080
  53   2.0000      -0.613534       -16.6951
  54   2.0000      -0.608307       -16.5529
  55   2.0000      -0.603950       -16.4343
  56   2.0000      -0.598780       -16.2936
  57   2.0000      -0.582590       -15.8531
  58   2.0000      -0.576052       -15.6752
  59   2.0000      -0.566448       -15.4138
  60   2.0000      -0.557712       -15.1761
  61   2.0000      -0.551380       -15.0038
  62   2.0000      -0.542850       -14.7717
  63   2.0000      -0.530456       -14.4344
  64   2.0000      -0.519254       -14.1296
  65   2.0000      -0.515448       -14.0261
  66   2.0000      -0.506325       -13.7778
  67   2.0000      -0.501229       -13.6391
  68   2.0000      -0.482241       -13.1225
  69   2.0000      -0.470835       -12.8121
  70   2.0000      -0.453433       -12.3385
  71   2.0000      -0.450482       -12.2583
  72   2.0000      -0.358031        -9.7425
  73   2.0000      -0.354765        -9.6536
  74   2.0000      -0.331400        -9.0179
  75   2.0000      -0.328893        -8.9496
  76   2.0000      -0.319006        -8.6806
  77   0.0000       0.075347         2.0503
  78   0.0000       0.100334         2.7302
  79   0.0000       0.118566         3.2263
  80   0.0000       0.126104         3.4315
  81   0.0000       0.128802         3.5049

MULLIKEN ATOMIC CHARGES
-----------------------
   0 C :   -0.259740
   1 C :    0.026556
   2 O :   -0.339765
   3 C :    0.400680
   4 O :   -0.364405
   5 C :   -0.213019
   6 C :    0.153113
   7 C :   -0.280378
   8 N :   -0.125617
   9 C :    0.197377
  10 S :   -0.434246
  11 N :   -0.194906
  12 C :    0.028362
  13 C :    0.026812
  14 C :   -0.169785
  15 C :   -0.139749
  16 C :   -0.270506
  17 C :    0.301285
  18 O :   -0.355452
  19 C :   -0.245542
  20 H :    0.086544
  21 H :    0.096246
  22 H :    0.106541
  23 H :    0.090811
  24 H :    0.115021
  25 H :    0.119698
  26 H :    0.142831
  27 H :    0.095890
  28 H :    0.198043
  29 H :    0.192021
  30 H :    0.153083
  31 H :    0.149491
  32 H :    0.164392
  33 H :    0.134635
  34 H :    0.241486
  35 H :    0.172193
Sum of atomic charges:   -0.0000000

LOEWDIN ATOMIC CHARGES
----------------------
   0 C :    0.111386
   1 C :   -0.020272
   2 O :    0.293342
   3 C :   -0.423834
   4 O :    0.137123
   5 C :   -0.093345
   6 C :   -0.074302
   7 C :    0.129430
   8 N :    0.405129
   9 C :   -0.458009
  10 S :   -0.032696
  11 N :    0.396594
  12 C :   -0.052812
  13 C :   -0.044414
  14 C :    0.016305
  15 C :    0.043122
  16 C :    0.000080
  17 C :   -0.192644
  18 O :    0.397307
  19 C :    0.031269
  20 H :   -0.026365
  21 H :   -0.027123
  22 H :   -0.023913
  23 H :   -0.034488
  24 H :   -0.036669
  25 H :   -0.010108
  26 H :   -0.003111
  27 H :   -0.021664
  28 H :   -0.057628
  29 H :   -0.064654
  30 H :   -0.007479
  31 H :   -0.028246
  32 H :   -0.018928
  33 H :   -0.033720
  34 H :   -0.152449
  35 H :   -0.022212

  Mayer bond orders larger than 0.100000
B(  0-C ,  1-C ) :   0.9843 B(  0-C , 20-H ) :   0.9763 B(  0-C , 21-H ) :   0.9788
B(  0-C , 22-H ) :   0.9787 B(  1-C ,  2-O ) :   0.8854 B(  1-C , 23-H ) :   0.9778
B(  1-C , 24-H ) :   0.9610 B(  2-O ,  3-C ) :   1.1603 B(  3-C ,  4-O ) :   2.1048
B(  3-C ,  5-C ) :   0.9562 B(  5-C ,  6-C ) :   1.6955 B(  5-C , 12-C ) :   0.9670
B(  6-C ,  7-C ) :   0.9572 B(  6-C ,  8-N ) :   1.1318 B(  7-C , 25-H ) :   0.9727
B(  7-C , 26-H ) :   0.9572 B(  7-C , 27-H ) :   0.9852 B(  8-N ,  9-C ) :   1.1868
B(  8-N , 28-H ) :   0.9498 B(  9-C , 10-S ) :   1.6194 B(  9-C , 11-N ) :   1.2879
B( 11-N , 12-C ) :   0.9960 B( 11-N , 29-H ) :   0.9523 B( 12-C , 13-C ) :   0.9331
B( 12-C , 30-H ) :   1.0117 B( 13-C , 14-C ) :   1.3731 B( 13-C , 19-C ) :   1.3656
B( 14-C , 15-C ) :   1.3899 B( 14-C , 31-H ) :   0.9702 B( 15-C , 16-C ) :   1.3656
B( 15-C , 32-H ) :   0.9699 B( 16-C , 17-C ) :   1.3274 B( 16-C , 33-H ) :   0.9834
B( 17-C , 18-O ) :   1.1150 B( 17-C , 19-C ) :   1.3740 B( 18-O , 34-H ) :   0.9789
B( 19-C , 35-H ) :   0.9572

MP2 TOTAL ENERGY:    -1274.323525151 Eh
FINAL SINGLE POINT ENERGY     -1274.323525150689

DIPOLE MOMENT
-------------
                                X             Y             Z
Electronic contribution:     11.12460       9.46640       6.35164
Nuclear contribution   :    -12.46419     -10.98169      -6.04480
                        -----------------------------------------
Total Dipole Moment    :     -1.33959      -1.51529       0.30684
                        -----------------------------------------
Magnitude (a.u.)       :      2.04567
Magnitude (Debye)      :      5.19967

Rotational constants in cm-1:     0.011869     0.009399     0.006269
Rotational constants in MHz :   355.821182   281.763536   187.927495

                             ****ORCA TERMINATED NORMALLY****
TOTAL RUN TIME: 0 days 1 hours 50 minutes 33 seconds 814 msec
