                         Program Version 4.2.0 -  RELEASE  -
|  1> ! ri-mp2 cc-pvtz cc-pvtz/c TightSCF  NoKeepInts
|  2>
|  3> %scf
|  4>   MaxCore 4096
|  5> end
|  6> *xyz  0  1
|  7>     C       15.2969984   13.7470918   16.3959497
|  8>     C       15.2084754   15.2733074   16.5990396
|  9>     O       16.3192033   15.9481461   15.9723875
| 10>     C       17.5693927   15.8332041   16.5092569
| 11>     O       18.1277015   14.7558746   16.6238893
| 12>     C       17.9117157   16.9910208   17.3965207
| 13>     C       17.5255786   18.2692920   17.1576456
| 14>     C       16.7445424   18.7869314   15.9679031
| 15>     N       17.9176718   19.2882145   18.0310319
| 16>     C       18.7857218   19.1290977   19.0794274
| 17>     S       19.2763989   20.4088535   20.0049402
| 18>     N       19.2252365   17.8520174   19.3239859
| 19>     C       18.7326470   16.6409071   18.6402484
| 20>     C       17.9091788   15.7799198   19.5945319
| 21>     C       18.2249197   14.4218252   19.7827563
| 22>     C       17.4552135   13.6195821   20.6416045
| 23>     C       16.3581480   14.1789527   21.3184319
| 24>     C       16.0374922   15.5300782   21.1304486
| 25>     O       14.9719238   16.0707802   21.7731237
| 26>     C       16.8049910   16.3259316   20.2743695
| 27>     H       16.0771948   13.3064585   17.0288142
| 28>     H       15.5200986   13.5058313   15.3492089
| 29>     H       14.3461900   13.2707324   16.6630079
| 30>     H       14.2772569   15.6330330   16.1430932
| 31>     H       15.1711196   15.5069616   17.6719387
| 32>     H       17.0792322   18.3073129   15.0393943
| 33>     H       16.8626134   19.8684509   15.8281851
| 34>     H       15.6740853   18.5784413   16.0859798
| 35>     H       17.6075143   20.2329196   17.8676847
| 36>     H       19.8415376   17.7589141   20.1212528
| 37>     H       19.6075300   16.0598080   18.3141236
| 38>     H       19.0600755   13.9815063   19.2431023
| 39>     H       17.7069010   12.5686817   20.7732659
| 40>     H       15.7595548   13.5619697   21.9803618
| 41>     H       14.6126543   15.3901956   22.3622150
| 42>     H       16.5402907   17.3697547   20.1448790
| 43> *
| 44>
| 45>                          ****END OF INPUT****

CARTESIAN COORDINATES (ANGSTROEM)
---------------------------------
  C     15.296998   13.747092   16.395950
  C     15.208475   15.273307   16.599040
  O     16.319203   15.948146   15.972387
  C     17.569393   15.833204   16.509257
  O     18.127702   14.755875   16.623889
  C     17.911716   16.991021   17.396521
  C     17.525579   18.269292   17.157646
  C     16.744542   18.786931   15.967903
  N     17.917672   19.288214   18.031032
  C     18.785722   19.129098   19.079427
  S     19.276399   20.408853   20.004940
  N     19.225237   17.852017   19.323986
  C     18.732647   16.640907   18.640248
  C     17.909179   15.779920   19.594532
  C     18.224920   14.421825   19.782756
  C     17.455213   13.619582   20.641604
  C     16.358148   14.178953   21.318432
  C     16.037492   15.530078   21.130449
  O     14.971924   16.070780   21.773124
  C     16.804991   16.325932   20.274369
  H     16.077195   13.306458   17.028814
  H     15.520099   13.505831   15.349209
  H     14.346190   13.270732   16.663008
  H     14.277257   15.633033   16.143093
  H     15.171120   15.506962   17.671939
  H     17.079232   18.307313   15.039394
  H     16.862613   19.868451   15.828185
  H     15.674085   18.578441   16.085980
  H     17.607514   20.232920   17.867685
  H     19.841538   17.758914   20.121253
  H     19.607530   16.059808   18.314124
  H     19.060075   13.981506   19.243102
  H     17.706901   12.568682   20.773266
  H     15.759555   13.561970   21.980362
  H     14.612654   15.390196   22.362215
  H     16.540291   17.369755   20.144879

 Total Charge           Charge          ....    0
 Multiplicity           Mult            ....    1
 Number of Electrons    NEL             ....  154
 Basis Dimension        Dim             ....  828

ORBITAL ENERGIES
----------------

  NO   OCC          E(Eh)            E(eV)
   0   2.0000     -91.889217     -2500.4327
   1   2.0000     -20.596783      -560.4670
   2   2.0000     -20.583792      -560.1135
   3   2.0000     -20.555955      -559.3560
   4   2.0000     -15.628772      -425.2805
   5   2.0000     -15.608713      -424.7347
   6   2.0000     -11.395775      -310.0948
   7   2.0000     -11.384692      -309.7932
   8   2.0000     -11.333985      -308.4134
   9   2.0000     -11.313090      -307.8448
  10   2.0000     -11.308699      -307.7254
  11   2.0000     -11.302327      -307.5520
  12   2.0000     -11.260259      -306.4072
  13   2.0000     -11.259127      -306.3764
  14   2.0000     -11.258544      -306.3606
  15   2.0000     -11.253177      -306.2145
  16   2.0000     -11.242760      -305.9310
  17   2.0000     -11.238668      -305.8197
  18   2.0000     -11.235847      -305.7429
  19   2.0000     -11.218981      -305.2840
  20   2.0000      -8.894290      -242.0259
  21   2.0000      -6.575868      -178.9385
  22   2.0000      -6.573858      -178.8838
  23   2.0000      -6.573274      -178.8679
  24   2.0000      -1.449557       -39.4444
  25   2.0000      -1.416590       -38.5474
  26   2.0000      -1.357986       -36.9527
  27   2.0000      -1.339917       -36.4610
  28   2.0000      -1.238226       -33.6938
  29   2.0000      -1.157155       -31.4878
  30   2.0000      -1.121505       -30.5177
  31   2.0000      -1.044686       -28.4273
  32   2.0000      -1.030150       -28.0318
  33   2.0000      -1.014654       -27.6102
  34   2.0000      -0.999385       -27.1946
  35   2.0000      -0.984685       -26.7946
  36   2.0000      -0.923934       -25.1415
  37   2.0000      -0.885919       -24.1071
  38   2.0000      -0.849745       -23.1227
  39   2.0000      -0.839551       -22.8453
  40   2.0000      -0.833222       -22.6731
  41   2.0000      -0.826107       -22.4795
  42   2.0000      -0.747612       -20.3435
  43   2.0000      -0.730199       -19.8697
  44   2.0000      -0.728813       -19.8320
  45   2.0000      -0.695051       -18.9133
  46   2.0000      -0.686222       -18.6730
  47   2.0000      -0.681282       -18.5386
  48   2.0000      -0.672385       -18.2965
  49   2.0000      -0.666879       -18.1467
  50   2.0000      -0.647583       -17.6216
  51   2.0000      -0.645591       -17.5674
  52   2.0000      -0.636783       -17.3278
  53   2.0000      -0.605790       -16.4844
  54   2.0000      -0.604553       -16.4507
  55   2.0000      -0.600661       -16.3448
  56   2.0000      -0.596570       -16.2335
  57   2.0000      -0.578724       -15.7479
  58   2.0000      -0.574940       -15.6449
  59   2.0000      -0.572690       -15.5837
  60   2.0000      -0.561434       -15.2774
  61   2.0000      -0.549752       -14.9595
  62   2.0000      -0.535166       -14.5626
  63   2.0000      -0.522653       -14.2221
  64   2.0000      -0.518713       -14.1149
  65   2.0000      -0.512052       -13.9336
  66   2.0000      -0.500879       -13.6296
  67   2.0000      -0.495443       -13.4817
  68   2.0000      -0.480867       -13.0851
  69   2.0000      -0.466319       -12.6892
  70   2.0000      -0.454842       -12.3769
  71   2.0000      -0.448484       -12.2039
  72   2.0000      -0.354756        -9.6534
  73   2.0000      -0.348738        -9.4897
  74   2.0000      -0.328541        -8.9401
  75   2.0000      -0.320252        -8.7145
  76   2.0000      -0.316284        -8.6065
  77   0.0000       0.071360         1.9418
  78   0.0000       0.104436         2.8418
  79   0.0000       0.120025         3.2661
  80   0.0000       0.131324         3.5735
  81   0.0000       0.136392         3.7114

MULLIKEN ATOMIC CHARGES
-----------------------
   0 C :   -0.271192
   1 C :    0.032623
   2 O :   -0.380045
   3 C :    0.462125
   4 O :   -0.398460
   5 C :   -0.200467
   6 C :    0.141786
   7 C :   -0.281214
   8 N :   -0.124242
   9 C :    0.202624
  10 S :   -0.439187
  11 N :   -0.202320
  12 C :    0.057701
  13 C :    0.051214
  14 C :   -0.169279
  15 C :   -0.132994
  16 C :   -0.279353
  17 C :    0.320620
  18 O :   -0.359970
  19 C :   -0.297403
  20 H :    0.114374
  21 H :    0.099688
  22 H :    0.089269
  23 H :    0.105366
  24 H :    0.092997
  25 H :    0.126190
  26 H :    0.104891
  27 H :    0.123564
  28 H :    0.197218
  29 H :    0.194538
  30 H :    0.155488
  31 H :    0.158955
  32 H :    0.162288
  33 H :    0.131176
  34 H :    0.241056
  35 H :    0.170375
Sum of atomic charges:    0.0000000

LOEWDIN ATOMIC CHARGES
----------------------
   0 C :    0.106634
   1 C :   -0.016894
   2 O :    0.283934
   3 C :   -0.413974
   4 O :    0.134471
   5 C :   -0.094929
   6 C :   -0.073513
   7 C :    0.126201
   8 N :    0.404238
   9 C :   -0.457544
  10 S :   -0.035953
  11 N :    0.397039
  12 C :   -0.045780
  13 C :   -0.041357
  14 C :    0.021492
  15 C :    0.042027
  16 C :   -0.001920
  17 C :   -0.194625
  18 O :    0.393596
  19 C :    0.027825
  20 H :   -0.027306
  21 H :   -0.024680
  22 H :   -0.030016
  23 H :   -0.024328
  24 H :   -0.031831
  25 H :   -0.007236
  26 H :   -0.019521
  27 H :   -0.010160
  28 H :   -0.058600
  29 H :   -0.064064
  30 H :   -0.004871
  31 H :   -0.024456
  32 H :   -0.020152
  33 H :   -0.035439
  34 H :   -0.153787
  35 H :   -0.024519

  Mayer bond orders larger than 0.100000
B(  0-C ,  1-C ) :   0.9832 B(  0-C , 20-H ) :   0.9706 B(  0-C , 21-H ) :   0.9758
B(  0-C , 22-H ) :   0.9750 B(  1-C ,  2-O ) :   0.8982 B(  1-C , 23-H ) :   0.9816
B(  1-C , 24-H ) :   0.9682 B(  2-O ,  3-C ) :   1.0783 B(  3-C ,  4-O ) :   2.0270
B(  3-C ,  5-C ) :   1.0220 B(  5-C ,  6-C ) :   1.6693 B(  5-C , 12-C ) :   0.9612
B(  6-C ,  7-C ) :   0.9522 B(  6-C ,  8-N ) :   1.1404 B(  7-C , 25-H ) :   0.9696
B(  7-C , 26-H ) :   0.9880 B(  7-C , 27-H ) :   0.9640 B(  8-N ,  9-C ) :   1.1841
B(  8-N , 28-H ) :   0.9496 B(  9-C , 10-S ) :   1.6114 B(  9-C , 11-N ) :   1.2996
B( 11-N , 12-C ) :   0.9938 B( 11-N , 29-H ) :   0.9516 B( 12-C , 13-C ) :   0.9435
B( 12-C , 30-H ) :   0.9987 B( 13-C , 14-C ) :   1.3777 B( 13-C , 19-C ) :   1.3599
B( 14-C , 15-C ) :   1.3934 B( 14-C , 31-H ) :   0.9629 B( 15-C , 16-C ) :   1.3637
B( 15-C , 32-H ) :   0.9702 B( 16-C , 17-C ) :   1.3314 B( 16-C , 33-H ) :   0.9847
B( 17-C , 18-O ) :   1.1091 B( 17-C , 19-C ) :   1.3675 B( 18-O , 34-H ) :   0.9797
B( 19-C , 35-H ) :   0.9589

MP2 TOTAL ENERGY:    -1274.326173940 Eh
FINAL SINGLE POINT ENERGY     -1274.326173939929

DIPOLE MOMENT
-------------
                                X             Y             Z
Electronic contribution:     10.42636      10.28714       7.05595
Nuclear contribution   :    -11.91860     -11.38254      -7.55629
                        -----------------------------------------
Total Dipole Moment    :     -1.49223      -1.09541      -0.50034
                        -----------------------------------------
Magnitude (a.u.)       :      1.91755
Magnitude (Debye)      :      4.87403

Rotational constants in cm-1:     0.012159     0.009057     0.006483
Rotational constants in MHz :   364.518072   271.533018   194.354280

                             ****ORCA TERMINATED NORMALLY****
TOTAL RUN TIME: 0 days 1 hours 42 minutes 34 seconds 890 msec
