                         Program Version 4.2.0 -  RELEASE  -
|  1> ! ri-mp2 cc-pvtz cc-pvtz/c TightSCF  NoKeepInts
|  2>
|  3> %scf
|  4>   MaxCore 4096
|  5> end
|  6> *xyz  0  1
|  7>     C       15.4513798   13.6890805   15.7511377
|  8>     C       15.3408264   15.1528364   15.2713900
|  9>     O       16.2892747   16.0895838   15.8498383
| 10>     C       17.3060081   15.8160751   16.7273894
| 11>     O       17.8407462   14.7257203   16.8341636
| 12>     C       17.7115406   16.9790781   17.5920672
| 13>     C       17.3217401   18.2708397   17.4181609
| 14>     C       16.4193721   18.8463724   16.3452057
| 15>     N       17.8219096   19.2667009   18.2644617
| 16>     C       18.8112155   19.0846780   19.1938471
| 17>     S       19.4361634   20.3468997   20.0610169
| 18>     N       19.2549573   17.7991322   19.3676675
| 19>     C       18.6406030   16.6069661   18.7547783
| 20>     C       17.8992358   15.7868805   19.8078868
| 21>     C       18.1896922   14.4209551   19.9812346
| 22>     C       17.5079466   13.6597331   20.9453967
| 23>     C       16.5259448   14.2687047   21.7449987
| 24>     C       16.2306902   15.6278973   21.5733338
| 25>     O       15.2784072   16.2173915   22.3395359
| 26>     C       16.9104713   16.3827800   20.6123063
| 27>     H       16.3855079   13.2285079   15.4058040
| 28>     H       14.6228278   13.0949420   15.3475318
| 29>     H       15.4074117   13.6260981   16.8459403
| 30>     H       15.4539647   15.1678465   14.1796952
| 31>     H       14.3271408   15.5113871   15.4916888
| 32>     H       15.3976059   18.4614152   16.4509754
| 33>     H       16.7832060   18.5769891   15.3457799
| 34>     H       16.3613181   19.9409772   16.3812075
| 35>     H       17.5094196   20.2177850   18.1523907
| 36>     H       19.9629060   17.6848519   20.0815202
| 37>     H       19.4547162   15.9892047   18.3486580
| 38>     H       18.9363861   13.9434013   19.3513018
| 39>     H       17.7381398   12.6025641   21.0645147
| 40>     H       15.9957450   13.6841212   22.4893261
| 41>     H       14.9542341   15.5498189   22.9624358
| 42>     H       16.6683454   17.4337848   20.4994126
| 43> *
| 44>
| 45>                          ****END OF INPUT****

CARTESIAN COORDINATES (ANGSTROEM)
---------------------------------
  C     15.451380   13.689080   15.751138
  C     15.340826   15.152836   15.271390
  O     16.289275   16.089584   15.849838
  C     17.306008   15.816075   16.727389
  O     17.840746   14.725720   16.834164
  C     17.711541   16.979078   17.592067
  C     17.321740   18.270840   17.418161
  C     16.419372   18.846372   16.345206
  N     17.821910   19.266701   18.264462
  C     18.811215   19.084678   19.193847
  S     19.436163   20.346900   20.061017
  N     19.254957   17.799132   19.367667
  C     18.640603   16.606966   18.754778
  C     17.899236   15.786880   19.807887
  C     18.189692   14.420955   19.981235
  C     17.507947   13.659733   20.945397
  C     16.525945   14.268705   21.744999
  C     16.230690   15.627897   21.573334
  O     15.278407   16.217392   22.339536
  C     16.910471   16.382780   20.612306
  H     16.385508   13.228508   15.405804
  H     14.622828   13.094942   15.347532
  H     15.407412   13.626098   16.845940
  H     15.453965   15.167846   14.179695
  H     14.327141   15.511387   15.491689
  H     15.397606   18.461415   16.450975
  H     16.783206   18.576989   15.345780
  H     16.361318   19.940977   16.381207
  H     17.509420   20.217785   18.152391
  H     19.962906   17.684852   20.081520
  H     19.454716   15.989205   18.348658
  H     18.936386   13.943401   19.351302
  H     17.738140   12.602564   21.064515
  H     15.995745   13.684121   22.489326
  H     14.954234   15.549819   22.962436
  H     16.668345   17.433785   20.499413

 Total Charge           Charge          ....    0
 Multiplicity           Mult            ....    1
 Number of Electrons    NEL             ....  154
 Basis Dimension        Dim             ....  828

ORBITAL ENERGIES
----------------

  NO   OCC          E(Eh)            E(eV)
   0   2.0000     -91.887392     -2500.3831
   1   2.0000     -20.599217      -560.5332
   2   2.0000     -20.591468      -560.3223
   3   2.0000     -20.543647      -559.0211
   4   2.0000     -15.627570      -425.2478
   5   2.0000     -15.605922      -424.6587
   6   2.0000     -11.398535      -310.1699
   7   2.0000     -11.382048      -309.7213
   8   2.0000     -11.335734      -308.4610
   9   2.0000     -11.307536      -307.6937
  10   2.0000     -11.307243      -307.6857
  11   2.0000     -11.304252      -307.6043
  12   2.0000     -11.259706      -306.3922
  13   2.0000     -11.257992      -306.3455
  14   2.0000     -11.253001      -306.2097
  15   2.0000     -11.247403      -306.0574
  16   2.0000     -11.237052      -305.7757
  17   2.0000     -11.233089      -305.6679
  18   2.0000     -11.229956      -305.5826
  19   2.0000     -11.225662      -305.4658
  20   2.0000      -8.892462      -241.9762
  21   2.0000      -6.574041      -178.8888
  22   2.0000      -6.572033      -178.8341
  23   2.0000      -6.571449      -178.8182
  24   2.0000      -1.444967       -39.3196
  25   2.0000      -1.411208       -38.4009
  26   2.0000      -1.356128       -36.9021
  27   2.0000      -1.338646       -36.4264
  28   2.0000      -1.236229       -33.6395
  29   2.0000      -1.151554       -31.3354
  30   2.0000      -1.117970       -30.4215
  31   2.0000      -1.041679       -28.3455
  32   2.0000      -1.034519       -28.1507
  33   2.0000      -1.009110       -27.4593
  34   2.0000      -0.996671       -27.1208
  35   2.0000      -0.981878       -26.7183
  36   2.0000      -0.920951       -25.0604
  37   2.0000      -0.897440       -24.4206
  38   2.0000      -0.847573       -23.0636
  39   2.0000      -0.835421       -22.7330
  40   2.0000      -0.827553       -22.5189
  41   2.0000      -0.817220       -22.2377
  42   2.0000      -0.742506       -20.2046
  43   2.0000      -0.726263       -19.7626
  44   2.0000      -0.723868       -19.6974
  45   2.0000      -0.689589       -18.7647
  46   2.0000      -0.683705       -18.6046
  47   2.0000      -0.676987       -18.4217
  48   2.0000      -0.673894       -18.3376
  49   2.0000      -0.664008       -18.0686
  50   2.0000      -0.647166       -17.6103
  51   2.0000      -0.643378       -17.5072
  52   2.0000      -0.633730       -17.2447
  53   2.0000      -0.609117       -16.5749
  54   2.0000      -0.600330       -16.3358
  55   2.0000      -0.599035       -16.3006
  56   2.0000      -0.594969       -16.1899
  57   2.0000      -0.577635       -15.7183
  58   2.0000      -0.573169       -15.5967
  59   2.0000      -0.568237       -15.4625
  60   2.0000      -0.557616       -15.1735
  61   2.0000      -0.541935       -14.7468
  62   2.0000      -0.537952       -14.6384
  63   2.0000      -0.525851       -14.3091
  64   2.0000      -0.516497       -14.0546
  65   2.0000      -0.510634       -13.8951
  66   2.0000      -0.499576       -13.5942
  67   2.0000      -0.494598       -13.4587
  68   2.0000      -0.478724       -13.0268
  69   2.0000      -0.462423       -12.5832
  70   2.0000      -0.452929       -12.3248
  71   2.0000      -0.447709       -12.1828
  72   2.0000      -0.353249        -9.6124
  73   2.0000      -0.343651        -9.3512
  74   2.0000      -0.326571        -8.8864
  75   2.0000      -0.315163        -8.5760
  76   2.0000      -0.313251        -8.5240
  77   0.0000       0.076294         2.0761
  78   0.0000       0.113193         3.0801
  79   0.0000       0.121743         3.3128
  80   0.0000       0.136009         3.7010
  81   0.0000       0.139249         3.7892

MULLIKEN ATOMIC CHARGES
-----------------------
   0 C :   -0.293991
   1 C :    0.050564
   2 O :   -0.359637
   3 C :    0.444824
   4 O :   -0.425510
   5 C :   -0.167826
   6 C :    0.144508
   7 C :   -0.283795
   8 N :   -0.121612
   9 C :    0.200812
  10 S :   -0.440252
  11 N :   -0.197637
  12 C :    0.036714
  13 C :    0.057198
  14 C :   -0.164531
  15 C :   -0.134520
  16 C :   -0.279491
  17 C :    0.311730
  18 O :   -0.359117
  19 C :   -0.274269
  20 H :    0.119468
  21 H :    0.097297
  22 H :    0.107683
  23 H :    0.093448
  24 H :    0.090076
  25 H :    0.124843
  26 H :    0.128426
  27 H :    0.102604
  28 H :    0.196447
  29 H :    0.193687
  30 H :    0.154683
  31 H :    0.154837
  32 H :    0.159304
  33 H :    0.128114
  34 H :    0.239999
  35 H :    0.164921
Sum of atomic charges:   -0.0000000

LOEWDIN ATOMIC CHARGES
----------------------
   0 C :    0.103724
   1 C :   -0.008259
   2 O :    0.292615
   3 C :   -0.413994
   4 O :    0.113322
   5 C :   -0.090984
   6 C :   -0.064737
   7 C :    0.124343
   8 N :    0.404709
   9 C :   -0.459481
  10 S :   -0.036797
  11 N :    0.398072
  12 C :   -0.046811
  13 C :   -0.038976
  14 C :    0.021753
  15 C :    0.040126
  16 C :   -0.002750
  17 C :   -0.192867
  18 O :    0.392918
  19 C :    0.028164
  20 H :   -0.023945
  21 H :   -0.027198
  22 H :   -0.024510
  23 H :   -0.028129
  24 H :   -0.028897
  25 H :   -0.010200
  26 H :   -0.008011
  27 H :   -0.021531
  28 H :   -0.059497
  29 H :   -0.063664
  30 H :   -0.005536
  31 H :   -0.025149
  32 H :   -0.021306
  33 H :   -0.036494
  34 H :   -0.154962
  35 H :   -0.025065

  Mayer bond orders larger than 0.100000
B(  0-C ,  1-C ) :   0.9787 B(  0-C , 20-H ) :   0.9721 B(  0-C , 21-H ) :   0.9726
B(  0-C , 22-H ) :   0.9738 B(  1-C ,  2-O ) :   0.9007 B(  1-C , 23-H ) :   0.9789
B(  1-C , 24-H ) :   0.9785 B(  2-O ,  3-C ) :   1.1462 B(  3-C ,  4-O ) :   1.9843
B(  3-C ,  5-C ) :   1.0468 B(  5-C ,  6-C ) :   1.6511 B(  5-C , 12-C ) :   0.9655
B(  6-C ,  7-C ) :   0.9540 B(  6-C ,  8-N ) :   1.1470 B(  7-C , 25-H ) :   0.9651
B(  7-C , 26-H ) :   0.9646 B(  7-C , 27-H ) :   0.9924 B(  8-N ,  9-C ) :   1.1790
B(  8-N , 28-H ) :   0.9486 B(  9-C , 10-S ) :   1.6097 B(  9-C , 11-N ) :   1.3052
B( 11-N , 12-C ) :   0.9908 B( 11-N , 29-H ) :   0.9521 B( 12-C , 13-C ) :   0.9458
B( 12-C , 30-H ) :   1.0005 B( 13-C , 14-C ) :   1.3748 B( 13-C , 19-C ) :   1.3694
B( 14-C , 15-C ) :   1.3944 B( 14-C , 31-H ) :   0.9644 B( 15-C , 16-C ) :   1.3620
B( 15-C , 32-H ) :   0.9714 B( 16-C , 17-C ) :   1.3317 B( 16-C , 33-H ) :   0.9860
B( 17-C , 18-O ) :   1.1080 B( 17-C , 19-C ) :   1.3785 B( 18-O , 34-H ) :   0.9806
B( 19-C , 35-H ) :   0.9584

MP2 TOTAL ENERGY:    -1274.336683196 Eh
FINAL SINGLE POINT ENERGY     -1274.336683195574

DIPOLE MOMENT
-------------
                                X             Y             Z
Electronic contribution:     10.09351      10.42211      10.05758
Nuclear contribution   :    -11.75615     -11.64041     -11.10380
                        -----------------------------------------
Total Dipole Moment    :     -1.66264      -1.21830      -1.04621
                        -----------------------------------------
Magnitude (a.u.)       :      2.31153
Magnitude (Debye)      :      5.87545

Rotational constants in cm-1:     0.010737     0.009031     0.005927
Rotational constants in MHz :   321.881478   270.747388   177.680667

                             ****ORCA TERMINATED NORMALLY****
TOTAL RUN TIME: 0 days 1 hours 39 minutes 57 seconds 207 msec
