                         Program Version 4.2.0 -  RELEASE  -
|  1> ! ri-mp2 cc-pvtz cc-pvtz/c TightSCF  NoKeepInts
|  2>
|  3> %scf
|  4>   MaxCore 4096
|  5> end
|  6> *xyz  0  1
|  7>     C       15.2484874   13.8373110   16.5906738
|  8>     C       15.3080270   15.3751964   16.6628317
|  9>     O       16.4332895   15.8558077   15.9019942
| 10>     C       17.6682704   15.7987438   16.4777278
| 11>     O       18.2592586   14.7402764   16.6013400
| 12>     C       17.9446461   16.9678982   17.3732481
| 13>     C       17.5257705   18.2320880   17.1169223
| 14>     C       16.7666495   18.7190135   15.9004607
| 15>     N       17.8588321   19.2658926   17.9971860
| 16>     C       18.7035787   19.1383770   19.0688423
| 17>     S       19.1280047   20.4364516   20.0013671
| 18>     N       19.1765597   17.8766701   19.3310475
| 19>     C       18.7376003   16.6476047   18.6425265
| 20>     C       17.9084710   15.7700706   19.5768263
| 21>     C       18.2316222   14.4120971   19.7527486
| 22>     C       17.4552835   13.5931052   20.5894599
| 23>     C       16.3438327   14.1353486   21.2565779
| 24>     C       16.0158973   15.4863439   21.0812545
| 25>     O       14.9360190   16.0105962   21.7134407
| 26>     C       16.7900477   16.2989573   20.2471672
| 27>     H       16.0840004   13.3847194   17.1393652
| 28>     H       15.2926434   13.4952590   15.5492113
| 29>     H       14.3165675   13.4683225   17.0352939
| 30>     H       14.3856802   15.7812452   16.2282503
| 31>     H       15.3658194   15.7067847   17.7085719
| 32>     H       17.1375784   18.2377329   14.9866047
| 33>     H       16.8657283   19.8013309   15.7519965
| 34>     H       15.6980476   18.4889061   15.9905240
| 35>     H       17.5244620   20.1999638   17.8205340
| 36>     H       19.7755979   17.8064479   20.1437583
| 37>     H       19.6371770   16.0882191   18.3467744
| 38>     H       19.0778811   13.9846366   19.2198589
| 39>     H       17.7129987   12.5424295   20.7111902
| 40>     H       15.7399064   13.5052346   21.9011085
| 41>     H       14.5742551   15.3207322   22.2901957
| 42>     H       16.5185090   17.3421859   20.1271190
| 43> *
| 44>
| 45>                          ****END OF INPUT****

CARTESIAN COORDINATES (ANGSTROEM)
---------------------------------
  C     15.248487   13.837311   16.590674
  C     15.308027   15.375196   16.662832
  O     16.433290   15.855808   15.901994
  C     17.668270   15.798744   16.477728
  O     18.259259   14.740276   16.601340
  C     17.944646   16.967898   17.373248
  C     17.525771   18.232088   17.116922
  C     16.766649   18.719013   15.900461
  N     17.858832   19.265893   17.997186
  C     18.703579   19.138377   19.068842
  S     19.128005   20.436452   20.001367
  N     19.176560   17.876670   19.331048
  C     18.737600   16.647605   18.642526
  C     17.908471   15.770071   19.576826
  C     18.231622   14.412097   19.752749
  C     17.455284   13.593105   20.589460
  C     16.343833   14.135349   21.256578
  C     16.015897   15.486344   21.081255
  O     14.936019   16.010596   21.713441
  C     16.790048   16.298957   20.247167
  H     16.084000   13.384719   17.139365
  H     15.292643   13.495259   15.549211
  H     14.316567   13.468322   17.035294
  H     14.385680   15.781245   16.228250
  H     15.365819   15.706785   17.708572
  H     17.137578   18.237733   14.986605
  H     16.865728   19.801331   15.751996
  H     15.698048   18.488906   15.990524
  H     17.524462   20.199964   17.820534
  H     19.775598   17.806448   20.143758
  H     19.637177   16.088219   18.346774
  H     19.077881   13.984637   19.219859
  H     17.712999   12.542430   20.711190
  H     15.739906   13.505235   21.901108
  H     14.574255   15.320732   22.290196
  H     16.518509   17.342186   20.127119

 Total Charge           Charge          ....    0
 Multiplicity           Mult            ....    1
 Number of Electrons    NEL             ....  154
 Basis Dimension        Dim             ....  828

ORBITAL ENERGIES
----------------

  NO   OCC          E(Eh)            E(eV)
   0   2.0000     -91.890204     -2500.4596
   1   2.0000     -20.597586      -560.4888
   2   2.0000     -20.582413      -560.0759
   3   2.0000     -20.556819      -559.3795
   4   2.0000     -15.629993      -425.3137
   5   2.0000     -15.609617      -424.7593
   6   2.0000     -11.395128      -310.0772
   7   2.0000     -11.385728      -309.8214
   8   2.0000     -11.335486      -308.4543
   9   2.0000     -11.313972      -307.8688
  10   2.0000     -11.309548      -307.7485
  11   2.0000     -11.301734      -307.5358
  12   2.0000     -11.261747      -306.4477
  13   2.0000     -11.259965      -306.3992
  14   2.0000     -11.259510      -306.3869
  15   2.0000     -11.253916      -306.2346
  16   2.0000     -11.243526      -305.9519
  17   2.0000     -11.239565      -305.8441
  18   2.0000     -11.236484      -305.7603
  19   2.0000     -11.219500      -305.2981
  20   2.0000      -8.895273      -242.0527
  21   2.0000      -6.576849      -178.9651
  22   2.0000      -6.574841      -178.9105
  23   2.0000      -6.574254      -178.8945
  24   2.0000      -1.450592       -39.4726
  25   2.0000      -1.417405       -38.5696
  26   2.0000      -1.358297       -36.9611
  27   2.0000      -1.341030       -36.4913
  28   2.0000      -1.239219       -33.7209
  29   2.0000      -1.158103       -31.5136
  30   2.0000      -1.122503       -30.5449
  31   2.0000      -1.045570       -28.4514
  32   2.0000      -1.029875       -28.0243
  33   2.0000      -1.015622       -27.6365
  34   2.0000      -1.000709       -27.2307
  35   2.0000      -0.986131       -26.8340
  36   2.0000      -0.924924       -25.1685
  37   2.0000      -0.883582       -24.0435
  38   2.0000      -0.851280       -23.1645
  39   2.0000      -0.840802       -22.8794
  40   2.0000      -0.834091       -22.6968
  41   2.0000      -0.829090       -22.5607
  42   2.0000      -0.748949       -20.3799
  43   2.0000      -0.731696       -19.9105
  44   2.0000      -0.729835       -19.8598
  45   2.0000      -0.695926       -18.9371
  46   2.0000      -0.687032       -18.6951
  47   2.0000      -0.680885       -18.5278
  48   2.0000      -0.673748       -18.3336
  49   2.0000      -0.666753       -18.1433
  50   2.0000      -0.648314       -17.6415
  51   2.0000      -0.647857       -17.6291
  52   2.0000      -0.638060       -17.3625
  53   2.0000      -0.606709       -16.5094
  54   2.0000      -0.605744       -16.4831
  55   2.0000      -0.601590       -16.3701
  56   2.0000      -0.595447       -16.2029
  57   2.0000      -0.579165       -15.7599
  58   2.0000      -0.574812       -15.6414
  59   2.0000      -0.573700       -15.6112
  60   2.0000      -0.561787       -15.2870
  61   2.0000      -0.552076       -15.0228
  62   2.0000      -0.536075       -14.5873
  63   2.0000      -0.523558       -14.2467
  64   2.0000      -0.517922       -14.0934
  65   2.0000      -0.512900       -13.9567
  66   2.0000      -0.501559       -13.6481
  67   2.0000      -0.495841       -13.4925
  68   2.0000      -0.481582       -13.1045
  69   2.0000      -0.467394       -12.7184
  70   2.0000      -0.455292       -12.3891
  71   2.0000      -0.449861       -12.2413
  72   2.0000      -0.356128        -9.6907
  73   2.0000      -0.349538        -9.5114
  74   2.0000      -0.329481        -8.9656
  75   2.0000      -0.321169        -8.7394
  76   2.0000      -0.317475        -8.6389
  77   0.0000       0.070112         1.9078
  78   0.0000       0.103701         2.8219
  79   0.0000       0.119326         3.2470
  80   0.0000       0.130646         3.5550
  81   0.0000       0.135338         3.6827

MULLIKEN ATOMIC CHARGES
-----------------------
   0 C :   -0.264857
   1 C :    0.020957
   2 O :   -0.377817
   3 C :    0.472363
   4 O :   -0.393197
   5 C :   -0.224986
   6 C :    0.148500
   7 C :   -0.283378
   8 N :   -0.123952
   9 C :    0.200344
  10 S :   -0.437449
  11 N :   -0.202773
  12 C :    0.059553
  13 C :    0.051490
  14 C :   -0.173689
  15 C :   -0.132857
  16 C :   -0.278161
  17 C :    0.324082
  18 O :   -0.360078
  19 C :   -0.306173
  20 H :    0.112863
  21 H :    0.099302
  22 H :    0.087939
  23 H :    0.108208
  24 H :    0.096835
  25 H :    0.128818
  26 H :    0.107207
  27 H :    0.122498
  28 H :    0.197342
  29 H :    0.194666
  30 H :    0.156465
  31 H :    0.161109
  32 H :    0.162964
  33 H :    0.131612
  34 H :    0.241229
  35 H :    0.173022
Sum of atomic charges:   -0.0000000

LOEWDIN ATOMIC CHARGES
----------------------
   0 C :    0.108207
   1 C :   -0.019310
   2 O :    0.285318
   3 C :   -0.417128
   4 O :    0.135333
   5 C :   -0.095969
   6 C :   -0.073821
   7 C :    0.126824
   8 N :    0.404475
   9 C :   -0.457816
  10 S :   -0.034718
  11 N :    0.397042
  12 C :   -0.045878
  13 C :   -0.042007
  14 C :    0.021839
  15 C :    0.042882
  16 C :   -0.001473
  17 C :   -0.194915
  18 O :    0.393742
  19 C :    0.027337
  20 H :   -0.026373
  21 H :   -0.025037
  22 H :   -0.029543
  23 H :   -0.025628
  24 H :   -0.033309
  25 H :   -0.006500
  26 H :   -0.018916
  27 H :   -0.010598
  28 H :   -0.058397
  29 H :   -0.063951
  30 H :   -0.004348
  31 H :   -0.024010
  32 H :   -0.019848
  33 H :   -0.035220
  34 H :   -0.153515
  35 H :   -0.024770

  Mayer bond orders larger than 0.100000
B(  0-C ,  1-C ) :   0.9869 B(  0-C , 20-H ) :   0.9702 B(  0-C , 21-H ) :   0.9765
B(  0-C , 22-H ) :   0.9752 B(  1-C ,  2-O ) :   0.8927 B(  1-C , 23-H ) :   0.9807
B(  1-C , 24-H ) :   0.9648 B(  2-O ,  3-C ) :   1.0890 B(  3-C ,  4-O ) :   2.0410
B(  3-C ,  5-C ) :   1.0063 B(  5-C ,  6-C ) :   1.6658 B(  5-C , 12-C ) :   0.9602
B(  6-C ,  7-C ) :   0.9529 B(  6-C ,  8-N ) :   1.1414 B(  7-C , 25-H ) :   0.9690
B(  7-C , 26-H ) :   0.9873 B(  7-C , 27-H ) :   0.9646 B(  8-N ,  9-C ) :   1.1829
B(  8-N , 28-H ) :   0.9494 B(  9-C , 10-S ) :   1.6136 B(  9-C , 11-N ) :   1.2989
B( 11-N , 12-C ) :   0.9941 B( 11-N , 29-H ) :   0.9516 B( 12-C , 13-C ) :   0.9435
B( 12-C , 30-H ) :   0.9989 B( 13-C , 14-C ) :   1.3793 B( 13-C , 19-C ) :   1.3526
B( 14-C , 15-C ) :   1.3940 B( 14-C , 31-H ) :   0.9619 B( 15-C , 16-C ) :   1.3640
B( 15-C , 32-H ) :   0.9700 B( 16-C , 17-C ) :   1.3314 B( 16-C , 33-H ) :   0.9844
B( 17-C , 18-O ) :   1.1096 B( 17-C , 19-C ) :   1.3647 B( 18-O , 34-H ) :   0.9796
B( 19-C , 35-H ) :   0.9591

MP2 TOTAL ENERGY:    -1274.326983227 Eh
FINAL SINGLE POINT ENERGY     -1274.326983227475

DIPOLE MOMENT
-------------
                                X             Y             Z
Electronic contribution:     10.39819       9.97629       6.58818
Nuclear contribution   :    -11.84640     -10.99922      -7.01870
                        -----------------------------------------
Total Dipole Moment    :     -1.44821      -1.02292      -0.43052
                        -----------------------------------------
Magnitude (a.u.)       :      1.82456
Magnitude (Debye)      :      4.63767

Rotational constants in cm-1:     0.012273     0.009157     0.006595
Rotational constants in MHz :   367.945199   274.506989   197.699807

                             ****ORCA TERMINATED NORMALLY****
TOTAL RUN TIME: 0 days 1 hours 46 minutes 48 seconds 399 msec
