                         Program Version 4.2.0 -  RELEASE  -
|  1> ! ri-mp2 cc-pvtz cc-pvtz/c TightSCF  NoKeepInts
|  2>
|  3> %scf
|  4>   MaxCore 4096
|  5> end
|  6> *xyz  0  1
|  7>     C       14.8858081   14.7094032   14.4083743
|  8>     C       15.3458613   14.5171708   15.8632468
|  9>     O       16.2107715   15.6216685   16.1855072
| 10>     C       17.3021170   15.4301573   16.9835961
| 11>     O       17.7238294   14.3188769   17.2596677
| 12>     C       17.7860069   16.6684799   17.6843791
| 13>     C       17.4791257   17.9428046   17.3233745
| 14>     C       16.6184058   18.4067214   16.1657353
| 15>     N       18.0451109   19.0164634   18.0192781
| 16>     C       19.0292129   18.9064294   18.9657440
| 17>     S       19.7398215   20.2371906   19.6438121
| 18>     N       19.3946405   17.6331044   19.3208834
| 19>     C       18.7008464   16.4062322   18.8866947
| 20>     C       17.9210012   15.7952285   20.0482424
| 21>     C       18.1350226   14.4560248   20.4236102
| 22>     C       17.4192393   13.8875049   21.4905621
| 23>     C       16.4800532   14.6642137   22.1900149
| 24>     C       16.2609509   15.9972965   21.8172596
| 25>     O       15.3503568   16.7482055   22.4868629
| 26>     C       16.9745752   16.5602166   20.7545465
| 27>     H       14.3449891   15.6570847   14.2949253
| 28>     H       14.2177827   13.8938334   14.1056871
| 29>     H       15.7472396   14.7170777   13.7288666
| 30>     H       14.4864637   14.4932271   16.5458104
| 31>     H       15.8720047   13.5554024   15.9338686
| 32>     H       16.9311081   17.9259849   15.2303715
| 33>     H       16.6734820   19.4899865   16.0036547
| 34>     H       15.5653704   18.1530767   16.3406743
| 35>     H       17.7901484   19.9593796   17.7726892
| 36>     H       20.0998515   17.5782535   20.0444661
| 37>     H       19.4692137   15.6853089   18.5718898
| 38>     H       18.8484756   13.8479396   19.8727281
| 39>     H       17.5900223   12.8485238   21.7664870
| 40>     H       15.9237657   14.2285730   23.0132050
| 41>     H       14.9924561   16.2000464   23.2011142
| 42>     H       16.7918692   17.5949084   20.4861702
| 43> *
| 44>
| 45>                          ****END OF INPUT****

CARTESIAN COORDINATES (ANGSTROEM)
---------------------------------
  C     14.885808   14.709403   14.408374
  C     15.345861   14.517171   15.863247
  O     16.210771   15.621668   16.185507
  C     17.302117   15.430157   16.983596
  O     17.723829   14.318877   17.259668
  C     17.786007   16.668480   17.684379
  C     17.479126   17.942805   17.323374
  C     16.618406   18.406721   16.165735
  N     18.045111   19.016463   18.019278
  C     19.029213   18.906429   18.965744
  S     19.739822   20.237191   19.643812
  N     19.394641   17.633104   19.320883
  C     18.700846   16.406232   18.886695
  C     17.921001   15.795228   20.048242
  C     18.135023   14.456025   20.423610
  C     17.419239   13.887505   21.490562
  C     16.480053   14.664214   22.190015
  C     16.260951   15.997296   21.817260
  O     15.350357   16.748206   22.486863
  C     16.974575   16.560217   20.754547
  H     14.344989   15.657085   14.294925
  H     14.217783   13.893833   14.105687
  H     15.747240   14.717078   13.728867
  H     14.486464   14.493227   16.545810
  H     15.872005   13.555402   15.933869
  H     16.931108   17.925985   15.230372
  H     16.673482   19.489987   16.003655
  H     15.565370   18.153077   16.340674
  H     17.790148   19.959380   17.772689
  H     20.099851   17.578253   20.044466
  H     19.469214   15.685309   18.571890
  H     18.848476   13.847940   19.872728
  H     17.590022   12.848524   21.766487
  H     15.923766   14.228573   23.013205
  H     14.992456   16.200046   23.201114
  H     16.791869   17.594908   20.486170

 Total Charge           Charge          ....    0
 Multiplicity           Mult            ....    1
 Number of Electrons    NEL             ....  154
 Basis Dimension        Dim             ....  828

ORBITAL ENERGIES
----------------

  NO   OCC          E(Eh)            E(eV)
   0   2.0000     -91.887928     -2500.3976
   1   2.0000     -20.603120      -560.6394
   2   2.0000     -20.591152      -560.3137
   3   2.0000     -20.545637      -559.0752
   4   2.0000     -15.628328      -425.2684
   5   2.0000     -15.606472      -424.6737
   6   2.0000     -11.396129      -310.1044
   7   2.0000     -11.382780      -309.7412
   8   2.0000     -11.336365      -308.4782
   9   2.0000     -11.306914      -307.6768
  10   2.0000     -11.305233      -307.6310
  11   2.0000     -11.298548      -307.4491
  12   2.0000     -11.260500      -306.4138
  13   2.0000     -11.258974      -306.3723
  14   2.0000     -11.252867      -306.2061
  15   2.0000     -11.247023      -306.0470
  16   2.0000     -11.236690      -305.7659
  17   2.0000     -11.233487      -305.6787
  18   2.0000     -11.232837      -305.6610
  19   2.0000     -11.229780      -305.5778
  20   2.0000      -8.892992      -241.9906
  21   2.0000      -6.574570      -178.9031
  22   2.0000      -6.572563      -178.8485
  23   2.0000      -6.571977      -178.8326
  24   2.0000      -1.453800       -39.5599
  25   2.0000      -1.410884       -38.3921
  26   2.0000      -1.357413       -36.9371
  27   2.0000      -1.339231       -36.4423
  28   2.0000      -1.236779       -33.6545
  29   2.0000      -1.151577       -31.3360
  30   2.0000      -1.119267       -30.4568
  31   2.0000      -1.044485       -28.4219
  32   2.0000      -1.036670       -28.2092
  33   2.0000      -1.008940       -27.4547
  34   2.0000      -0.997344       -27.1391
  35   2.0000      -0.982959       -26.7477
  36   2.0000      -0.920770       -25.0554
  37   2.0000      -0.888857       -24.1870
  38   2.0000      -0.847007       -23.0482
  39   2.0000      -0.834621       -22.7112
  40   2.0000      -0.827251       -22.5107
  41   2.0000      -0.817924       -22.2568
  42   2.0000      -0.761685       -20.7265
  43   2.0000      -0.735910       -20.0251
  44   2.0000      -0.724451       -19.7133
  45   2.0000      -0.689874       -18.7724
  46   2.0000      -0.684107       -18.6155
  47   2.0000      -0.680017       -18.5042
  48   2.0000      -0.674813       -18.3626
  49   2.0000      -0.653458       -17.7815
  50   2.0000      -0.651710       -17.7339
  51   2.0000      -0.642534       -17.4842
  52   2.0000      -0.633136       -17.2285
  53   2.0000      -0.607232       -16.5236
  54   2.0000      -0.600324       -16.3356
  55   2.0000      -0.599189       -16.3047
  56   2.0000      -0.594489       -16.1769
  57   2.0000      -0.580486       -15.7958
  58   2.0000      -0.572688       -15.5836
  59   2.0000      -0.562909       -15.3175
  60   2.0000      -0.561979       -15.2922
  61   2.0000      -0.544189       -14.8081
  62   2.0000      -0.543204       -14.7813
  63   2.0000      -0.528720       -14.3872
  64   2.0000      -0.516667       -14.0592
  65   2.0000      -0.509071       -13.8525
  66   2.0000      -0.499371       -13.5886
  67   2.0000      -0.494839       -13.4653
  68   2.0000      -0.481310       -13.0971
  69   2.0000      -0.462270       -12.5790
  70   2.0000      -0.462153       -12.5758
  71   2.0000      -0.452822       -12.3219
  72   2.0000      -0.354124        -9.6362
  73   2.0000      -0.343473        -9.3464
  74   2.0000      -0.327038        -8.8991
  75   2.0000      -0.315375        -8.5818
  76   2.0000      -0.313283        -8.5249
  77   0.0000       0.075858         2.0642
  78   0.0000       0.113513         3.0888
  79   0.0000       0.120663         3.2834
  80   0.0000       0.135952         3.6994
  81   0.0000       0.138942         3.7808

MULLIKEN ATOMIC CHARGES
-----------------------
   0 C :   -0.266240
   1 C :    0.022620
   2 O :   -0.344880
   3 C :    0.453717
   4 O :   -0.428140
   5 C :   -0.181056
   6 C :    0.142074
   7 C :   -0.287539
   8 N :   -0.121902
   9 C :    0.201297
  10 S :   -0.439370
  11 N :   -0.196913
  12 C :    0.034869
  13 C :    0.057083
  14 C :   -0.160223
  15 C :   -0.133890
  16 C :   -0.278922
  17 C :    0.311346
  18 O :   -0.359248
  19 C :   -0.272194
  20 H :    0.090483
  21 H :    0.096148
  22 H :    0.097612
  23 H :    0.097412
  24 H :    0.120443
  25 H :    0.126383
  26 H :    0.103628
  27 H :    0.127441
  28 H :    0.196762
  29 H :    0.193554
  30 H :    0.153638
  31 H :    0.153071
  32 H :    0.158800
  33 H :    0.127806
  34 H :    0.239987
  35 H :    0.164343
Sum of atomic charges:   -0.0000000

LOEWDIN ATOMIC CHARGES
----------------------
   0 C :    0.104721
   1 C :   -0.011638
   2 O :    0.306115
   3 C :   -0.413952
   4 O :    0.104045
   5 C :   -0.091164
   6 C :   -0.065784
   7 C :    0.124805
   8 N :    0.404817
   9 C :   -0.458954
  10 S :   -0.036059
  11 N :    0.397875
  12 C :   -0.046488
  13 C :   -0.038776
  14 C :    0.022277
  15 C :    0.040959
  16 C :   -0.002352
  17 C :   -0.192627
  18 O :    0.392910
  19 C :    0.028393
  20 H :   -0.030379
  21 H :   -0.024420
  22 H :   -0.025884
  23 H :   -0.030404
  24 H :   -0.027083
  25 H :   -0.008730
  26 H :   -0.020993
  27 H :   -0.010034
  28 H :   -0.059200
  29 H :   -0.063663
  30 H :   -0.005037
  31 H :   -0.025346
  32 H :   -0.021295
  33 H :   -0.036478
  34 H :   -0.154979
  35 H :   -0.025198

  Mayer bond orders larger than 0.100000
B(  0-C ,  1-C ) :   0.9728 B(  0-C , 20-H ) :   0.9795 B(  0-C , 21-H ) :   0.9770
B(  0-C , 22-H ) :   0.9777 B(  1-C ,  2-O ) :   0.8875 B(  1-C , 23-H ) :   0.9781
B(  1-C , 24-H ) :   0.9750 B(  2-O ,  3-C ) :   1.1612 B(  3-C ,  4-O ) :   1.9886
B(  3-C ,  5-C ) :   1.0497 B(  5-C ,  6-C ) :   1.6462 B(  5-C , 12-C ) :   0.9659
B(  6-C ,  7-C ) :   0.9543 B(  6-C ,  8-N ) :   1.1479 B(  7-C , 25-H ) :   0.9661
B(  7-C , 26-H ) :   0.9921 B(  7-C , 27-H ) :   0.9634 B(  8-N ,  9-C ) :   1.1782
B(  8-N , 28-H ) :   0.9489 B(  9-C , 10-S ) :   1.6107 B(  9-C , 11-N ) :   1.3044
B( 11-N , 12-C ) :   0.9922 B( 11-N , 29-H ) :   0.9520 B( 12-C , 13-C ) :   0.9479
B( 12-C , 30-H ) :   0.9998 B( 13-C , 14-C ) :   1.3763 B( 13-C , 19-C ) :   1.3691
B( 14-C , 15-C ) :   1.3948 B( 14-C , 31-H ) :   0.9649 B( 15-C , 16-C ) :   1.3626
B( 15-C , 32-H ) :   0.9715 B( 16-C , 17-C ) :   1.3315 B( 16-C , 33-H ) :   0.9861
B( 17-C , 18-O ) :   1.1078 B( 17-C , 19-C ) :   1.3794 B( 18-O , 34-H ) :   0.9807
B( 19-C , 35-H ) :   0.9585

MP2 TOTAL ENERGY:    -1274.346096978 Eh
FINAL SINGLE POINT ENERGY     -1274.346096977537

DIPOLE MOMENT
-------------
                                X             Y             Z
Electronic contribution:     11.36594       8.54693      12.13738
Nuclear contribution   :    -13.01432      -9.74123     -13.04052
                        -----------------------------------------
Total Dipole Moment    :     -1.64838      -1.19429      -0.90314
                        -----------------------------------------
Magnitude (a.u.)       :      2.22692
Magnitude (Debye)      :      5.66037

Rotational constants in cm-1:     0.010434     0.008726     0.005738
Rotational constants in MHz :   312.797980   261.584836   172.006222

                             ****ORCA TERMINATED NORMALLY****
TOTAL RUN TIME: 0 days 1 hours 37 minutes 35 seconds 941 msec
