                         Program Version 4.2.0 -  RELEASE  -
|  1> ! ri-mp2 cc-pvtz cc-pvtz/c TightSCF  NoKeepInts
|  2>
|  3> %scf
|  4>   MaxCore 4096
|  5> end
|  6> *xyz  0  1
|  7>     C       15.7220678   13.2669930   15.9203177
|  8>     C       15.5629560   14.5397207   16.7680191
|  9>     O       16.7295325   15.3517887   16.5444383
| 10>     C       16.5872878   16.7083979   16.4885190
| 11>     O       15.6458516   17.2277156   15.9142518
| 12>     C       17.4789667   17.4254933   17.4658428
| 13>     C       17.4603159   18.7752393   17.6103963
| 14>     C       16.5876274   19.7653024   16.8687923
| 15>     N       18.3432183   19.3980279   18.4976601
| 16>     C       19.3457487   18.7628514   19.1804817
| 17>     S       20.4161154   19.5892654   20.1329251
| 18>     N       19.4219036   17.4019485   19.0293114
| 19>     C       18.4371765   16.5707327   18.3135832
| 20>     C       17.6957371   15.6867687   19.3124978
| 21>     C       17.9521712   14.3036003   19.3644143
| 22>     C       17.2655588   13.4828135   20.2748279
| 23>     C       16.3181043   14.0499800   21.1440242
| 24>     C       16.0661580   15.4281022   21.1006538
| 25>     O       15.1531596   15.9788816   21.9395046
| 26>     C       16.7495496   16.2421212   20.1921407
| 27>     H       14.8559400   12.6070862   16.0509886
| 28>     H       16.6231615   12.7158059   16.2161438
| 29>     H       15.8032606   13.5208551   14.8559091
| 30>     H       14.6465091   15.0574982   16.4534080
| 31>     H       15.4693323   14.2891329   17.8328132
| 32>     H       15.5283493   19.5904304   17.0969503
| 33>     H       16.7108629   19.6530839   15.7840739
| 34>     H       16.8133725   20.8084348   17.1193149
| 35>     H       18.3040709   20.3975460   18.6183454
| 36>     H       20.1500103   16.9578243   19.5738018
| 37>     H       18.9955981   15.9206566   17.6252199
| 38>     H       18.6807322   13.8618348   18.6896770
| 39>     H       17.4694457   12.4137774   20.3058559
| 40>     H       15.7863195   13.4205435   21.8501060
| 41>     H       14.8260579   15.2745121   22.5190806
| 42>     H       16.5447707   17.3072335   20.1797093
| 43> *
| 44>
| 45>                          ****END OF INPUT****

CARTESIAN COORDINATES (ANGSTROEM)
---------------------------------
  C     15.722068   13.266993   15.920318
  C     15.562956   14.539721   16.768019
  O     16.729533   15.351789   16.544438
  C     16.587288   16.708398   16.488519
  O     15.645852   17.227716   15.914252
  C     17.478967   17.425493   17.465843
  C     17.460316   18.775239   17.610396
  C     16.587627   19.765302   16.868792
  N     18.343218   19.398028   18.497660
  C     19.345749   18.762851   19.180482
  S     20.416115   19.589265   20.132925
  N     19.421904   17.401948   19.029311
  C     18.437176   16.570733   18.313583
  C     17.695737   15.686769   19.312498
  C     17.952171   14.303600   19.364414
  C     17.265559   13.482813   20.274828
  C     16.318104   14.049980   21.144024
  C     16.066158   15.428102   21.100654
  O     15.153160   15.978882   21.939505
  C     16.749550   16.242121   20.192141
  H     14.855940   12.607086   16.050989
  H     16.623161   12.715806   16.216144
  H     15.803261   13.520855   14.855909
  H     14.646509   15.057498   16.453408
  H     15.469332   14.289133   17.832813
  H     15.528349   19.590430   17.096950
  H     16.710863   19.653084   15.784074
  H     16.813372   20.808435   17.119315
  H     18.304071   20.397546   18.618345
  H     20.150010   16.957824   19.573802
  H     18.995598   15.920657   17.625220
  H     18.680732   13.861835   18.689677
  H     17.469446   12.413777   20.305856
  H     15.786319   13.420544   21.850106
  H     14.826058   15.274512   22.519081
  H     16.544771   17.307233   20.179709

 Total Charge           Charge          ....    0
 Multiplicity           Mult            ....    1
 Number of Electrons    NEL             ....  154
 Basis Dimension        Dim             ....  828

ORBITAL ENERGIES
----------------

  NO   OCC          E(Eh)            E(eV)
   0   2.0000     -91.889683     -2500.4454
   1   2.0000     -20.599541      -560.5420
   2   2.0000     -20.591411      -560.3208
   3   2.0000     -20.544234      -559.0370
   4   2.0000     -15.629918      -425.3117
   5   2.0000     -15.609160      -424.7468
   6   2.0000     -11.393900      -310.0438
   7   2.0000     -11.384768      -309.7953
   8   2.0000     -11.336453      -308.4806
   9   2.0000     -11.317306      -307.9596
  10   2.0000     -11.310496      -307.7742
  11   2.0000     -11.292576      -307.2866
  12   2.0000     -11.262467      -306.4673
  13   2.0000     -11.259049      -306.3743
  14   2.0000     -11.258580      -306.3615
  15   2.0000     -11.252721      -306.2021
  16   2.0000     -11.246205      -306.0248
  17   2.0000     -11.241310      -305.8916
  18   2.0000     -11.240898      -305.8804
  19   2.0000     -11.226042      -305.4761
  20   2.0000      -8.894740      -242.0382
  21   2.0000      -6.576313      -178.9506
  22   2.0000      -6.574310      -178.8961
  23   2.0000      -6.573721      -178.8800
  24   2.0000      -1.449525       -39.4436
  25   2.0000      -1.419200       -38.6184
  26   2.0000      -1.353534       -36.8315
  27   2.0000      -1.340958       -36.4893
  28   2.0000      -1.239590       -33.7310
  29   2.0000      -1.160371       -31.5753
  30   2.0000      -1.121083       -30.5062
  31   2.0000      -1.044662       -28.4267
  32   2.0000      -1.036523       -28.2052
  33   2.0000      -1.018298       -27.7093
  34   2.0000      -0.996555       -27.1176
  35   2.0000      -0.984989       -26.8029
  36   2.0000      -0.924076       -25.1454
  37   2.0000      -0.883562       -24.0429
  38   2.0000      -0.848042       -23.0764
  39   2.0000      -0.840064       -22.8593
  40   2.0000      -0.836738       -22.7688
  41   2.0000      -0.822309       -22.3762
  42   2.0000      -0.762404       -20.7461
  43   2.0000      -0.734825       -19.9956
  44   2.0000      -0.724102       -19.7038
  45   2.0000      -0.698379       -19.0039
  46   2.0000      -0.689043       -18.7498
  47   2.0000      -0.678848       -18.4724
  48   2.0000      -0.673255       -18.3202
  49   2.0000      -0.655330       -17.8324
  50   2.0000      -0.647555       -17.6209
  51   2.0000      -0.642796       -17.4914
  52   2.0000      -0.629528       -17.1303
  53   2.0000      -0.618726       -16.8364
  54   2.0000      -0.610002       -16.5990
  55   2.0000      -0.602285       -16.3890
  56   2.0000      -0.600098       -16.3295
  57   2.0000      -0.580079       -15.7847
  58   2.0000      -0.571740       -15.5578
  59   2.0000      -0.565784       -15.3958
  60   2.0000      -0.561045       -15.2668
  61   2.0000      -0.539991       -14.6939
  62   2.0000      -0.533528       -14.5180
  63   2.0000      -0.527791       -14.3619
  64   2.0000      -0.522656       -14.2222
  65   2.0000      -0.514840       -14.0095
  66   2.0000      -0.503224       -13.6934
  67   2.0000      -0.495798       -13.4914
  68   2.0000      -0.488521       -13.2933
  69   2.0000      -0.464619       -12.6429
  70   2.0000      -0.456380       -12.4187
  71   2.0000      -0.446421       -12.1477
  72   2.0000      -0.355071        -9.6620
  73   2.0000      -0.352430        -9.5901
  74   2.0000      -0.329383        -8.9630
  75   2.0000      -0.324691        -8.8353
  76   2.0000      -0.317104        -8.6288
  77   0.0000       0.072497         1.9727
  78   0.0000       0.103357         2.8125
  79   0.0000       0.123543         3.3618
  80   0.0000       0.129969         3.5366
  81   0.0000       0.134387         3.6569

MULLIKEN ATOMIC CHARGES
-----------------------
   0 C :   -0.261102
   1 C :    0.011634
   2 O :   -0.376435
   3 C :    0.489156
   4 O :   -0.420615
   5 C :   -0.265168
   6 C :    0.161611
   7 C :   -0.269693
   8 N :   -0.123681
   9 C :    0.213131
  10 S :   -0.439413
  11 N :   -0.206305
  12 C :    0.069651
  13 C :    0.037492
  14 C :   -0.182310
  15 C :   -0.132215
  16 C :   -0.278525
  17 C :    0.310566
  18 O :   -0.355545
  19 C :   -0.251615
  20 H :    0.087357
  21 H :    0.089396
  22 H :    0.101346
  23 H :    0.121458
  24 H :    0.116092
  25 H :    0.132157
  26 H :    0.130754
  27 H :    0.095237
  28 H :    0.197773
  29 H :    0.195050
  30 H :    0.149158
  31 H :    0.150784
  32 H :    0.162166
  33 H :    0.132400
  34 H :    0.241248
  35 H :    0.167006
Sum of atomic charges:   -0.0000000

LOEWDIN ATOMIC CHARGES
----------------------
   0 C :    0.106749
   1 C :   -0.015503
   2 O :    0.301338
   3 C :   -0.416000
   4 O :    0.105512
   5 C :   -0.097288
   6 C :   -0.058808
   7 C :    0.131584
   8 N :    0.406795
   9 C :   -0.456074
  10 S :   -0.034842
  11 N :    0.396201
  12 C :   -0.052409
  13 C :   -0.037892
  14 C :    0.013763
  15 C :    0.039175
  16 C :   -0.002833
  17 C :   -0.189763
  18 O :    0.396253
  19 C :    0.030980
  20 H :   -0.026454
  21 H :   -0.030740
  22 H :   -0.024514
  23 H :   -0.028532
  24 H :   -0.030820
  25 H :   -0.004630
  26 H :   -0.003832
  27 H :   -0.023259
  28 H :   -0.057421
  29 H :   -0.064764
  30 H :   -0.009767
  31 H :   -0.029910
  32 H :   -0.020557
  33 H :   -0.035012
  34 H :   -0.153226
  35 H :   -0.023499

  Mayer bond orders larger than 0.100000
B(  0-C ,  1-C ) :   0.9799 B(  0-C , 20-H ) :   0.9765 B(  0-C , 21-H ) :   0.9796
B(  0-C , 22-H ) :   0.9788 B(  1-C ,  2-O ) :   0.8703 B(  1-C , 23-H ) :   0.9746
B(  1-C , 24-H ) :   0.9672 B(  2-O ,  3-C ) :   1.1282 B(  3-C ,  4-O ) :   1.9996
B(  3-C ,  5-C ) :   1.0672 B(  5-C ,  6-C ) :   1.6500 B(  5-C , 12-C ) :   0.9709
B(  6-C ,  7-C ) :   0.9662 B(  6-C ,  8-N ) :   1.1610 B(  7-C , 25-H ) :   0.9595
B(  7-C , 26-H ) :   0.9609 B(  7-C , 27-H ) :   0.9904 B(  8-N ,  9-C ) :   1.1831
B(  8-N , 28-H ) :   0.9477 B(  9-C , 10-S ) :   1.6069 B(  9-C , 11-N ) :   1.3063
B( 11-N , 12-C ) :   0.9803 B( 11-N , 29-H ) :   0.9519 B( 12-C , 13-C ) :   0.9367
B( 12-C , 30-H ) :   1.0018 B( 13-C , 14-C ) :   1.3555 B( 13-C , 19-C ) :   1.3822
B( 14-C , 15-C ) :   1.3924 B( 14-C , 31-H ) :   0.9736 B( 15-C , 16-C ) :   1.3604
B( 15-C , 32-H ) :   0.9707 B( 16-C , 17-C ) :   1.3303 B( 16-C , 33-H ) :   0.9846
B( 17-C , 18-O ) :   1.1131 B( 17-C , 19-C ) :   1.3722 B( 18-O , 34-H ) :   0.9793
B( 19-C , 35-H ) :   0.9574

MP2 TOTAL ENERGY:    -1274.340700270 Eh
FINAL SINGLE POINT ENERGY     -1274.340700270348

DIPOLE MOMENT
-------------
                                X             Y             Z
Electronic contribution:      9.52931      10.94490       7.38159
Nuclear contribution   :    -10.62562     -12.48168      -7.48119
                        -----------------------------------------
Total Dipole Moment    :     -1.09631      -1.53678      -0.09960
                        -----------------------------------------
Magnitude (a.u.)       :      1.89037
Magnitude (Debye)      :      4.80494

Rotational constants in cm-1:     0.012315     0.008479     0.006258
Rotational constants in MHz :   369.202355   254.194929   187.603121

                             ****ORCA TERMINATED NORMALLY****
TOTAL RUN TIME: 0 days 1 hours 42 minutes 10 seconds 903 msec
