                         Program Version 4.2.0 -  RELEASE  -
|  1> ! ri-mp2 cc-pvtz cc-pvtz/c TightSCF  NoKeepInts
|  2>
|  3> %scf
|  4>   MaxCore 4096
|  5> end
|  6> *xyz  0  1
|  7>     C       15.3313824   13.5094594   16.7307995
|  8>     C       15.6927005   14.9929761   16.9087713
|  9>     O       16.9706048   15.2020402   16.2798765
| 10>     C       17.3635101   16.4857173   16.0450285
| 11>     O       17.0454482   17.0102142   14.9938888
| 12>     C       17.6850666   17.2696282   17.2884870
| 13>     C       17.4014087   18.5916414   17.4067168
| 14>     C       16.5913732   19.4448616   16.4547771
| 15>     N       17.9219762   19.3235572   18.4783257
| 16>     C       18.9162628   18.8759298   19.3082937
| 17>     S       19.6323795   19.8593510   20.4283562
| 18>     N       19.2928104   17.5647484   19.1554879
| 19>     C       18.5559515   16.5723518   18.3501674
| 20>     C       17.7869341   15.6454517   19.2849013
| 21>     C       18.0321628   14.2592431   19.2692119
| 22>     C       17.3248110   13.3979681   20.1245953
| 23>     C       16.3679045   13.9262958   21.0075683
| 24>     C       16.1271493   15.3065740   21.0331738
| 25>     O       15.2014967   15.8196691   21.8816251
| 26>     C       16.8309115   16.1616378   20.1793737
| 27>     H       14.3443070   13.2994583   17.1599532
| 28>     H       16.0676787   12.8705850   17.2336680
| 29>     H       15.3090137   13.2422182   15.6667939
| 30>     H       14.9297364   15.6030170   16.4060864
| 31>     H       15.6931320   15.2604968   17.9683522
| 32>     H       15.6656859   18.9328384   16.1635795
| 33>     H       17.1595308   19.6382987   15.5355799
| 34>     H       16.3082563   20.4123438   16.8857013
| 35>     H       17.6713312   20.2935580   18.5869788
| 36>     H       20.0130079   17.2558436   19.7960758
| 37>     H       19.3006739   15.9672495   17.8138359
| 38>     H       18.7663954   13.8451891   18.5827491
| 39>     H       17.5192618   12.3268679   20.1013345
| 40>     H       15.8192108   13.2644968   21.6698888
| 41>     H       14.8757190   15.0930227   22.4341712
| 42>     H       16.6318142   17.2272000   20.2198258
| 43> *
| 44>
| 45>                          ****END OF INPUT****

CARTESIAN COORDINATES (ANGSTROEM)
---------------------------------
  C     15.331382   13.509459   16.730799
  C     15.692701   14.992976   16.908771
  O     16.970605   15.202040   16.279877
  C     17.363510   16.485717   16.045029
  O     17.045448   17.010214   14.993889
  C     17.685067   17.269628   17.288487
  C     17.401409   18.591641   17.406717
  C     16.591373   19.444862   16.454777
  N     17.921976   19.323557   18.478326
  C     18.916263   18.875930   19.308294
  S     19.632379   19.859351   20.428356
  N     19.292810   17.564748   19.155488
  C     18.555951   16.572352   18.350167
  C     17.786934   15.645452   19.284901
  C     18.032163   14.259243   19.269212
  C     17.324811   13.397968   20.124595
  C     16.367905   13.926296   21.007568
  C     16.127149   15.306574   21.033174
  O     15.201497   15.819669   21.881625
  C     16.830911   16.161638   20.179374
  H     14.344307   13.299458   17.159953
  H     16.067679   12.870585   17.233668
  H     15.309014   13.242218   15.666794
  H     14.929736   15.603017   16.406086
  H     15.693132   15.260497   17.968352
  H     15.665686   18.932838   16.163580
  H     17.159531   19.638299   15.535580
  H     16.308256   20.412344   16.885701
  H     17.671331   20.293558   18.586979
  H     20.013008   17.255844   19.796076
  H     19.300674   15.967249   17.813836
  H     18.766395   13.845189   18.582749
  H     17.519262   12.326868   20.101335
  H     15.819211   13.264497   21.669889
  H     14.875719   15.093023   22.434171
  H     16.631814   17.227200   20.219826

 Total Charge           Charge          ....    0
 Multiplicity           Mult            ....    1
 Number of Electrons    NEL             ....  154
 Basis Dimension        Dim             ....  828

ORBITAL ENERGIES
----------------

  NO   OCC          E(Eh)            E(eV)
   0   2.0000     -91.891851     -2500.5044
   1   2.0000     -20.602051      -560.6103
   2   2.0000     -20.580887      -560.0344
   3   2.0000     -20.553641      -559.2930
   4   2.0000     -15.631149      -425.3452
   5   2.0000     -15.611071      -424.7989
   6   2.0000     -11.392534      -310.0066
   7   2.0000     -11.386501      -309.8424
   8   2.0000     -11.336489      -308.4816
   9   2.0000     -11.320143      -308.0367
  10   2.0000     -11.315382      -307.9072
  11   2.0000     -11.294791      -307.3469
  12   2.0000     -11.265221      -306.5422
  13   2.0000     -11.261285      -306.4351
  14   2.0000     -11.260280      -306.4078
  15   2.0000     -11.254764      -306.2577
  16   2.0000     -11.249446      -306.1130
  17   2.0000     -11.243966      -305.9639
  18   2.0000     -11.243683      -305.9562
  19   2.0000     -11.226199      -305.4804
  20   2.0000      -8.896870      -242.0961
  21   2.0000      -6.578434      -179.0083
  22   2.0000      -6.576440      -178.9540
  23   2.0000      -6.575842      -178.9378
  24   2.0000      -1.449210       -39.4350
  25   2.0000      -1.421816       -38.6896
  26   2.0000      -1.354264       -36.8514
  27   2.0000      -1.342785       -36.5390
  28   2.0000      -1.241540       -33.7840
  29   2.0000      -1.162943       -31.6453
  30   2.0000      -1.122195       -30.5365
  31   2.0000      -1.047412       -28.5015
  32   2.0000      -1.033613       -28.1260
  33   2.0000      -1.021494       -27.7963
  34   2.0000      -1.000043       -27.2126
  35   2.0000      -0.987216       -26.8635
  36   2.0000      -0.926919       -25.2227
  37   2.0000      -0.875900       -23.8345
  38   2.0000      -0.850640       -23.1471
  39   2.0000      -0.844368       -22.9764
  40   2.0000      -0.839970       -22.8568
  41   2.0000      -0.833488       -22.6804
  42   2.0000      -0.760627       -20.6977
  43   2.0000      -0.736700       -20.0466
  44   2.0000      -0.726305       -19.7638
  45   2.0000      -0.701307       -19.0835
  46   2.0000      -0.692078       -18.8324
  47   2.0000      -0.681708       -18.5502
  48   2.0000      -0.673923       -18.3384
  49   2.0000      -0.658296       -17.9132
  50   2.0000      -0.649628       -17.6773
  51   2.0000      -0.644436       -17.5360
  52   2.0000      -0.638352       -17.3704
  53   2.0000      -0.617537       -16.8040
  54   2.0000      -0.611107       -16.6291
  55   2.0000      -0.604149       -16.4397
  56   2.0000      -0.601453       -16.3664
  57   2.0000      -0.582230       -15.8433
  58   2.0000      -0.574266       -15.6266
  59   2.0000      -0.565527       -15.3888
  60   2.0000      -0.554443       -15.0872
  61   2.0000      -0.545050       -14.8316
  62   2.0000      -0.536919       -14.6103
  63   2.0000      -0.530076       -14.4241
  64   2.0000      -0.518324       -14.1043
  65   2.0000      -0.515976       -14.0404
  66   2.0000      -0.506718       -13.7885
  67   2.0000      -0.500601       -13.6220
  68   2.0000      -0.481702       -13.1078
  69   2.0000      -0.468957       -12.7610
  70   2.0000      -0.457747       -12.4559
  71   2.0000      -0.446583       -12.1522
  72   2.0000      -0.359063        -9.7706
  73   2.0000      -0.353679        -9.6241
  74   2.0000      -0.331393        -9.0177
  75   2.0000      -0.327904        -8.9227
  76   2.0000      -0.319105        -8.6833
  77   0.0000       0.069157         1.8819
  78   0.0000       0.100846         2.7441
  79   0.0000       0.119237         3.2446
  80   0.0000       0.126148         3.4327
  81   0.0000       0.130239         3.5440

MULLIKEN ATOMIC CHARGES
-----------------------
   0 C :   -0.265703
   1 C :    0.020665
   2 O :   -0.362783
   3 C :    0.452150
   4 O :   -0.377592
   5 C :   -0.251845
   6 C :    0.151876
   7 C :   -0.272659
   8 N :   -0.125090
   9 C :    0.198449
  10 S :   -0.432409
  11 N :   -0.189296
  12 C :    0.034082
  13 C :    0.026974
  14 C :   -0.156307
  15 C :   -0.148600
  16 C :   -0.265718
  17 C :    0.299810
  18 O :   -0.355641
  19 C :   -0.252120
  20 H :    0.088540
  21 H :    0.092782
  22 H :    0.108446
  23 H :    0.104613
  24 H :    0.116106
  25 H :    0.124345
  26 H :    0.139534
  27 H :    0.094307
  28 H :    0.198368
  29 H :    0.190741
  30 H :    0.148002
  31 H :    0.151738
  32 H :    0.167379
  33 H :    0.134403
  34 H :    0.241487
  35 H :    0.170967
Sum of atomic charges:   -0.0000000

LOEWDIN ATOMIC CHARGES
----------------------
   0 C :    0.111335
   1 C :   -0.018395
   2 O :    0.287135
   3 C :   -0.424460
   4 O :    0.134306
   5 C :   -0.098013
   6 C :   -0.064723
   7 C :    0.129836
   8 N :    0.406038
   9 C :   -0.458579
  10 S :   -0.030857
  11 N :    0.396406
  12 C :   -0.052611
  13 C :   -0.042110
  14 C :    0.016881
  15 C :    0.043979
  16 C :   -0.000371
  17 C :   -0.191998
  18 O :    0.396931
  19 C :    0.030531
  20 H :   -0.025622
  21 H :   -0.030245
  22 H :   -0.024133
  23 H :   -0.032222
  24 H :   -0.038358
  25 H :   -0.007248
  26 H :   -0.003132
  27 H :   -0.022647
  28 H :   -0.057484
  29 H :   -0.064894
  30 H :   -0.006632
  31 H :   -0.028707
  32 H :   -0.019697
  33 H :   -0.034071
  34 H :   -0.152625
  35 H :   -0.023545

  Mayer bond orders larger than 0.100000
B(  0-C ,  1-C ) :   0.9830 B(  0-C , 20-H ) :   0.9759 B(  0-C , 21-H ) :   0.9776
B(  0-C , 22-H ) :   0.9785 B(  1-C ,  2-O ) :   0.8766 B(  1-C , 23-H ) :   0.9796
B(  1-C , 24-H ) :   0.9587 B(  2-O ,  3-C ) :   1.1323 B(  3-C ,  4-O ) :   2.0747
B(  3-C ,  5-C ) :   1.0001 B(  5-C ,  6-C ) :   1.6779 B(  5-C , 12-C ) :   0.9661
B(  6-C ,  7-C ) :   0.9654 B(  6-C ,  8-N ) :   1.1399 B(  7-C , 25-H ) :   0.9687
B(  7-C , 26-H ) :   0.9561 B(  7-C , 27-H ) :   0.9865 B(  8-N ,  9-C ) :   1.1801
B(  8-N , 28-H ) :   0.9491 B(  9-C , 10-S ) :   1.6215 B(  9-C , 11-N ) :   1.2936
B( 11-N , 12-C ) :   0.9914 B( 11-N , 29-H ) :   0.9538 B( 12-C , 13-C ) :   0.9429
B( 12-C , 30-H ) :   1.0078 B( 13-C , 14-C ) :   1.3670 B( 13-C , 19-C ) :   1.3656
B( 14-C , 15-C ) :   1.3831 B( 14-C , 31-H ) :   0.9701 B( 15-C , 16-C ) :   1.3668
B( 15-C , 32-H ) :   0.9686 B( 16-C , 17-C ) :   1.3272 B( 16-C , 33-H ) :   0.9831
B( 17-C , 18-O ) :   1.1152 B( 17-C , 19-C ) :   1.3798 B( 18-O , 34-H ) :   0.9790
B( 19-C , 35-H ) :   0.9564

MP2 TOTAL ENERGY:    -1274.323472614 Eh
FINAL SINGLE POINT ENERGY     -1274.323472613893

DIPOLE MOMENT
-------------
                                X             Y             Z
Electronic contribution:     10.51398      10.10411       5.66773
Nuclear contribution   :    -11.76695     -11.56872      -5.38248
                        -----------------------------------------
Total Dipole Moment    :     -1.25297      -1.46461       0.28525
                        -----------------------------------------
Magnitude (a.u.)       :      1.94843
Magnitude (Debye)      :      4.95252

Rotational constants in cm-1:     0.012125     0.009351     0.006330
Rotational constants in MHz :   363.508721   280.346094   189.770826

                             ****ORCA TERMINATED NORMALLY****
TOTAL RUN TIME: 0 days 2 hours 13 minutes 24 seconds 698 msec
