                         Program Version 4.2.0 -  RELEASE  -
|  1> ! ri-mp2 cc-pvtz cc-pvtz/c TightSCF  NoKeepInts
|  2>
|  3> %scf
|  4>   MaxCore 4096
|  5> end
|  6> *xyz  0  1
|  7>     C       15.0896959   14.1534100   14.7712987
|  8>     C       15.2138555   14.7313622   16.1912191
|  9>     O       16.2106946   15.7687752   16.1519352
| 10>     C       17.3803894   15.6027456   16.8356656
| 11>     O       17.8425844   14.4966887   17.0635176
| 12>     C       17.8090183   16.8182986   17.6056370
| 13>     C       17.4619371   18.0940661   17.2930765
| 14>     C       16.6170820   18.5701500   16.1291074
| 15>     N       17.9674688   19.1563486   18.0497226
| 16>     C       18.9282023   19.0401576   19.0194194
| 17>     S       19.5643158   20.3643279   19.7793476
| 18>     N       19.3356404   17.7667613   19.3266445
| 19>     C       18.7093707   16.5339588   18.8130883
| 20>     C       17.9317031   15.8286409   19.9213543
| 21>     C       18.1979608   14.4825035   20.2329604
| 22>     C       17.4825173   13.8269573   21.2489874
| 23>     C       16.4908571   14.5227019   21.9611353
| 24>     C       16.2196329   15.8623350   21.6514965
| 25>     O       15.2580521   16.5350271   22.3328064
| 26>     C       16.9329371   16.5119069   20.6392031
| 27>     H       14.8238682   14.9390379   14.0533092
| 28>     H       14.3145596   13.3782859   14.7375582
| 29>     H       16.0392631   13.7018792   14.4569253
| 30>     H       14.2502097   15.1609574   16.4935497
| 31>     H       15.4698300   13.9368743   16.9060327
| 32>     H       16.9315494   18.0879415   15.1950293
| 33>     H       16.6890146   19.6529001   15.9698309
| 34>     H       15.5597122   18.3283862   16.2939477
| 35>     H       17.6814678   20.0990244   17.8385432
| 36>     H       20.0224937   17.7062782   20.0672706
| 37>     H       19.5161870   15.8653910   18.4794452
| 38>     H       18.9524457   13.9369858   19.6712749
| 39>     H       17.6945456   12.7836871   21.4759004
| 40>     H       15.9348516   14.0197468   22.7452478
| 41>     H       14.9137521   15.9374945   23.0134175
| 42>     H       16.7093340   17.5500062   20.4190945
| 43> *
| 44>
| 45>                          ****END OF INPUT****

CARTESIAN COORDINATES (ANGSTROEM)
---------------------------------
  C     15.089696   14.153410   14.771299
  C     15.213855   14.731362   16.191219
  O     16.210695   15.768775   16.151935
  C     17.380389   15.602746   16.835666
  O     17.842584   14.496689   17.063518
  C     17.809018   16.818299   17.605637
  C     17.461937   18.094066   17.293077
  C     16.617082   18.570150   16.129107
  N     17.967469   19.156349   18.049723
  C     18.928202   19.040158   19.019419
  S     19.564316   20.364328   19.779348
  N     19.335640   17.766761   19.326645
  C     18.709371   16.533959   18.813088
  C     17.931703   15.828641   19.921354
  C     18.197961   14.482503   20.232960
  C     17.482517   13.826957   21.248987
  C     16.490857   14.522702   21.961135
  C     16.219633   15.862335   21.651496
  O     15.258052   16.535027   22.332806
  C     16.932937   16.511907   20.639203
  H     14.823868   14.939038   14.053309
  H     14.314560   13.378286   14.737558
  H     16.039263   13.701879   14.456925
  H     14.250210   15.160957   16.493550
  H     15.469830   13.936874   16.906033
  H     16.931549   18.087941   15.195029
  H     16.689015   19.652900   15.969831
  H     15.559712   18.328386   16.293948
  H     17.681468   20.099024   17.838543
  H     20.022494   17.706278   20.067271
  H     19.516187   15.865391   18.479445
  H     18.952446   13.936986   19.671275
  H     17.694546   12.783687   21.475900
  H     15.934852   14.019747   22.745248
  H     14.913752   15.937494   23.013417
  H     16.709334   17.550006   20.419094

 Total Charge           Charge          ....    0
 Multiplicity           Mult            ....    1
 Number of Electrons    NEL             ....  154
 Basis Dimension        Dim             ....  828

ORBITAL ENERGIES
----------------

  NO   OCC          E(Eh)            E(eV)
   0   2.0000     -91.888182     -2500.4045
   1   2.0000     -20.597396      -560.4837
   2   2.0000     -20.592540      -560.3515
   3   2.0000     -20.549029      -559.1675
   4   2.0000     -15.628331      -425.2685
   5   2.0000     -15.607027      -424.6888
   6   2.0000     -11.396358      -310.1107
   7   2.0000     -11.383219      -309.7531
   8   2.0000     -11.335351      -308.4506
   9   2.0000     -11.308460      -307.7188
  10   2.0000     -11.306354      -307.6615
  11   2.0000     -11.299425      -307.4730
  12   2.0000     -11.260361      -306.4100
  13   2.0000     -11.259238      -306.3795
  14   2.0000     -11.254368      -306.2469
  15   2.0000     -11.248659      -306.0916
  16   2.0000     -11.238260      -305.8086
  17   2.0000     -11.234323      -305.7015
  18   2.0000     -11.231421      -305.6225
  19   2.0000     -11.227665      -305.5203
  20   2.0000      -8.893247      -241.9976
  21   2.0000      -6.574825      -178.9101
  22   2.0000      -6.572817      -178.8554
  23   2.0000      -6.572232      -178.8395
  24   2.0000      -1.453663       -39.5562
  25   2.0000      -1.412278       -38.4300
  26   2.0000      -1.357497       -36.9394
  27   2.0000      -1.339315       -36.4446
  28   2.0000      -1.237097       -33.6631
  29   2.0000      -1.152966       -31.3738
  30   2.0000      -1.119951       -30.4754
  31   2.0000      -1.043241       -28.3880
  32   2.0000      -1.035380       -28.1741
  33   2.0000      -1.010351       -27.4931
  34   2.0000      -0.997717       -27.1493
  35   2.0000      -0.983110       -26.7518
  36   2.0000      -0.921590       -25.0777
  37   2.0000      -0.887733       -24.1564
  38   2.0000      -0.847681       -23.0666
  39   2.0000      -0.836104       -22.7516
  40   2.0000      -0.828809       -22.5530
  41   2.0000      -0.820646       -22.3309
  42   2.0000      -0.758100       -20.6290
  43   2.0000      -0.735535       -20.0149
  44   2.0000      -0.725705       -19.7474
  45   2.0000      -0.691221       -18.8091
  46   2.0000      -0.685451       -18.6521
  47   2.0000      -0.680353       -18.5133
  48   2.0000      -0.672295       -18.2941
  49   2.0000      -0.656963       -17.8769
  50   2.0000      -0.646690       -17.5973
  51   2.0000      -0.641357       -17.4522
  52   2.0000      -0.628070       -17.0907
  53   2.0000      -0.616767       -16.7831
  54   2.0000      -0.600945       -16.3525
  55   2.0000      -0.600697       -16.3458
  56   2.0000      -0.595817       -16.2130
  57   2.0000      -0.582733       -15.8570
  58   2.0000      -0.573936       -15.6176
  59   2.0000      -0.564418       -15.3586
  60   2.0000      -0.561445       -15.2777
  61   2.0000      -0.546640       -14.8748
  62   2.0000      -0.533682       -14.5222
  63   2.0000      -0.525346       -14.2954
  64   2.0000      -0.518007       -14.0957
  65   2.0000      -0.510240       -13.8843
  66   2.0000      -0.501222       -13.6390
  67   2.0000      -0.495969       -13.4960
  68   2.0000      -0.480894       -13.0858
  69   2.0000      -0.462665       -12.5898
  70   2.0000      -0.458526       -12.4771
  71   2.0000      -0.454033       -12.3549
  72   2.0000      -0.354030        -9.6337
  73   2.0000      -0.344789        -9.3822
  74   2.0000      -0.327347        -8.9076
  75   2.0000      -0.316024        -8.5995
  76   2.0000      -0.314566        -8.5598
  77   0.0000       0.074657         2.0315
  78   0.0000       0.111199         3.0259
  79   0.0000       0.120914         3.2902
  80   0.0000       0.135188         3.6787
  81   0.0000       0.139473         3.7952

MULLIKEN ATOMIC CHARGES
-----------------------
   0 C :   -0.268571
   1 C :    0.037168
   2 O :   -0.357121
   3 C :    0.442274
   4 O :   -0.419930
   5 C :   -0.174800
   6 C :    0.143961
   7 C :   -0.283727
   8 N :   -0.123605
   9 C :    0.201741
  10 S :   -0.439533
  11 N :   -0.198159
  12 C :    0.040758
  13 C :    0.054227
  14 C :   -0.163542
  15 C :   -0.134108
  16 C :   -0.279378
  17 C :    0.311292
  18 O :   -0.358909
  19 C :   -0.272251
  20 H :    0.090425
  21 H :    0.090553
  22 H :    0.104647
  23 H :    0.098250
  24 H :    0.110501
  25 H :    0.126033
  26 H :    0.102715
  27 H :    0.126537
  28 H :    0.196967
  29 H :    0.193849
  30 H :    0.153964
  31 H :    0.154380
  32 H :    0.159615
  33 H :    0.128463
  34 H :    0.240171
  35 H :    0.165143
Sum of atomic charges:   -0.0000000

LOEWDIN ATOMIC CHARGES
----------------------
   0 C :    0.104448
   1 C :   -0.013107
   2 O :    0.302929
   3 C :   -0.414766
   4 O :    0.109364
   5 C :   -0.091801
   6 C :   -0.068198
   7 C :    0.125225
   8 N :    0.404606
   9 C :   -0.458541
  10 S :   -0.036192
  11 N :    0.397583
  12 C :   -0.046053
  13 C :   -0.039191
  14 C :    0.021511
  15 C :    0.040603
  16 C :   -0.002362
  17 C :   -0.192744
  18 O :    0.393070
  19 C :    0.028437
  20 H :   -0.029572
  21 H :   -0.027242
  22 H :   -0.023688
  23 H :   -0.029881
  24 H :   -0.025887
  25 H :   -0.008381
  26 H :   -0.020547
  27 H :   -0.009735
  28 H :   -0.059001
  29 H :   -0.063794
  30 H :   -0.004875
  31 H :   -0.025194
  32 H :   -0.021110
  33 H :   -0.036295
  34 H :   -0.154770
  35 H :   -0.024847

  Mayer bond orders larger than 0.100000
B(  0-C ,  1-C ) :   0.9727 B(  0-C , 20-H ) :   0.9788 B(  0-C , 21-H ) :   0.9760
B(  0-C , 22-H ) :   0.9774 B(  1-C ,  2-O ) :   0.8877 B(  1-C , 23-H ) :   0.9815
B(  1-C , 24-H ) :   0.9721 B(  2-O ,  3-C ) :   1.1234 B(  3-C ,  4-O ) :   1.9916
B(  3-C ,  5-C ) :   1.0486 B(  5-C ,  6-C ) :   1.6559 B(  5-C , 12-C ) :   0.9648
B(  6-C ,  7-C ) :   0.9534 B(  6-C ,  8-N ) :   1.1425 B(  7-C , 25-H ) :   0.9677
B(  7-C , 26-H ) :   0.9904 B(  7-C , 27-H ) :   0.9635 B(  8-N ,  9-C ) :   1.1808
B(  8-N , 28-H ) :   0.9491 B(  9-C , 10-S ) :   1.6106 B(  9-C , 11-N ) :   1.3028
B( 11-N , 12-C ) :   0.9913 B( 11-N , 29-H ) :   0.9518 B( 12-C , 13-C ) :   0.9469
B( 12-C , 30-H ) :   0.9992 B( 13-C , 14-C ) :   1.3760 B( 13-C , 19-C ) :   1.3696
B( 14-C , 15-C ) :   1.3944 B( 14-C , 31-H ) :   0.9646 B( 15-C , 16-C ) :   1.3628
B( 15-C , 32-H ) :   0.9713 B( 16-C , 17-C ) :   1.3313 B( 16-C , 33-H ) :   0.9859
B( 17-C , 18-O ) :   1.1083 B( 17-C , 19-C ) :   1.3783 B( 18-O , 34-H ) :   0.9805
B( 19-C , 35-H ) :   0.9584

MP2 TOTAL ENERGY:    -1274.339257425 Eh
FINAL SINGLE POINT ENERGY     -1274.339257425020

DIPOLE MOMENT
-------------
                                X             Y             Z
Electronic contribution:     10.96539       9.84478      11.00950
Nuclear contribution   :    -12.58108     -11.04252     -11.75530
                        -----------------------------------------
Total Dipole Moment    :     -1.61569      -1.19774      -0.74580
                        -----------------------------------------
Magnitude (a.u.)       :      2.14506
Magnitude (Debye)      :      5.45230

Rotational constants in cm-1:     0.010615     0.008929     0.005881
Rotational constants in MHz :   318.228340   267.691983   176.321564

                             ****ORCA TERMINATED NORMALLY****
TOTAL RUN TIME: 0 days 1 hours 38 minutes 58 seconds 695 msec
