                         Program Version 4.2.0 -  RELEASE  -
|  1> ! ri-mp2 cc-pvtz cc-pvtz/c TightSCF  NoKeepInts
|  2>
|  3> %scf
|  4>   MaxCore 4096
|  5> end
|  6> *xyz  0  1
|  7>     C       14.9574762   14.5356214   16.0923910
|  8>     C       16.2442274   14.2430244   16.8916941
|  9>     O       17.3724668   14.9923589   16.3795686
| 10>     C       17.2872913   16.3417945   16.1786118
| 11>     O       16.7497227   16.7894547   15.1815358
| 12>     C       17.6907885   17.1721580   17.3683415
| 13>     C       17.3946945   18.4945707   17.4604901
| 14>     C       16.5510456   19.3174073   16.5104560
| 15>     N       17.9311320   19.2604233   18.5005483
| 16>     C       18.9298818   18.8390632   19.3381273
| 17>     S       19.6543052   19.8570601   20.4217659
| 18>     N       19.3095215   17.5260829   19.2191659
| 19>     C       18.5754200   16.5117412   18.4411294
| 20>     C       17.8008635   15.6220271   19.4059597
| 21>     C       18.2239856   14.3007556   19.6454601
| 22>     C       17.5146300   13.4727431   20.5316028
| 23>     C       16.3772721   13.9713293   21.1894112
| 24>     C       15.9602390   15.2900606   20.9630440
| 25>     O       14.8634486   15.7750477   21.5970653
| 26>     C       16.6661693   16.1111371   20.0784283
| 27>     H       14.6036202   15.5592164   16.2674810
| 28>     H       14.1570125   13.8489238   16.3927541
| 29>     H       15.1318113   14.4071860   15.0164148
| 30>     H       16.0539687   14.4844499   17.9420547
| 31>     H       16.4723677   13.1710810   16.8337196
| 32>     H       15.5797412   18.8364743   16.3386483
| 33>     H       17.0474537   19.4077502   15.5355954
| 34>     H       16.3542307   20.3305538   16.8800315
| 35>     H       17.6756052   20.2313250   18.5863334
| 36>     H       20.0332854   17.2372033   19.8646454
| 37>     H       19.3180296   15.8906917   17.9201969
| 38>     H       19.1030977   13.9118341   19.1379315
| 39>     H       17.8486054   12.4516112   20.7090889
| 40>     H       15.8274493   13.3360009   21.8763281
| 41>     H       14.5549816   15.0926487   22.2123978
| 42>     H       16.3311578   17.1311885   19.9255816
| 43> *
| 44>
| 45>                          ****END OF INPUT****

CARTESIAN COORDINATES (ANGSTROEM)
---------------------------------
  C     14.957476   14.535621   16.092391
  C     16.244227   14.243024   16.891694
  O     17.372467   14.992359   16.379569
  C     17.287291   16.341794   16.178612
  O     16.749723   16.789455   15.181536
  C     17.690789   17.172158   17.368341
  C     17.394694   18.494571   17.460490
  C     16.551046   19.317407   16.510456
  N     17.931132   19.260423   18.500548
  C     18.929882   18.839063   19.338127
  S     19.654305   19.857060   20.421766
  N     19.309521   17.526083   19.219166
  C     18.575420   16.511741   18.441129
  C     17.800863   15.622027   19.405960
  C     18.223986   14.300756   19.645460
  C     17.514630   13.472743   20.531603
  C     16.377272   13.971329   21.189411
  C     15.960239   15.290061   20.963044
  O     14.863449   15.775048   21.597065
  C     16.666169   16.111137   20.078428
  H     14.603620   15.559216   16.267481
  H     14.157012   13.848924   16.392754
  H     15.131811   14.407186   15.016415
  H     16.053969   14.484450   17.942055
  H     16.472368   13.171081   16.833720
  H     15.579741   18.836474   16.338648
  H     17.047454   19.407750   15.535595
  H     16.354231   20.330554   16.880032
  H     17.675605   20.231325   18.586333
  H     20.033285   17.237203   19.864645
  H     19.318030   15.890692   17.920197
  H     19.103098   13.911834   19.137932
  H     17.848605   12.451611   20.709089
  H     15.827449   13.336001   21.876328
  H     14.554982   15.092649   22.212398
  H     16.331158   17.131189   19.925582

 Total Charge           Charge          ....    0
 Multiplicity           Mult            ....    1
 Number of Electrons    NEL             ....  154
 Basis Dimension        Dim             ....  828

ORBITAL ENERGIES
----------------

  NO   OCC          E(Eh)            E(eV)
   0   2.0000     -91.891116     -2500.4844
   1   2.0000     -20.602403      -560.6199
   2   2.0000     -20.581611      -560.0541
   3   2.0000     -20.547397      -559.1231
   4   2.0000     -15.631528      -425.3555
   5   2.0000     -15.610003      -424.7698
   6   2.0000     -11.393360      -310.0291
   7   2.0000     -11.385676      -309.8200
   8   2.0000     -11.337737      -308.5155
   9   2.0000     -11.320432      -308.0446
  10   2.0000     -11.312447      -307.8273
  11   2.0000     -11.296804      -307.4017
  12   2.0000     -11.264562      -306.5243
  13   2.0000     -11.261521      -306.4416
  14   2.0000     -11.259330      -306.3819
  15   2.0000     -11.254034      -306.2378
  16   2.0000     -11.249331      -306.1099
  17   2.0000     -11.243805      -305.9595
  18   2.0000     -11.243421      -305.9490
  19   2.0000     -11.220908      -305.3364
  20   2.0000      -8.896137      -242.0762
  21   2.0000      -6.577702      -178.9884
  22   2.0000      -6.575709      -178.9341
  23   2.0000      -6.575112      -178.9179
  24   2.0000      -1.443147       -39.2700
  25   2.0000      -1.422083       -38.6968
  26   2.0000      -1.351619       -36.7794
  27   2.0000      -1.342682       -36.5362
  28   2.0000      -1.241064       -33.7711
  29   2.0000      -1.162897       -31.6440
  30   2.0000      -1.121707       -30.5232
  31   2.0000      -1.046835       -28.4858
  32   2.0000      -1.030189       -28.0329
  33   2.0000      -1.021218       -27.7887
  34   2.0000      -0.998746       -27.1772
  35   2.0000      -0.986353       -26.8400
  36   2.0000      -0.925991       -25.1975
  37   2.0000      -0.888595       -24.1799
  38   2.0000      -0.849916       -23.1274
  39   2.0000      -0.844223       -22.9725
  40   2.0000      -0.839421       -22.8418
  41   2.0000      -0.826162       -22.4810
  42   2.0000      -0.749494       -20.3948
  43   2.0000      -0.735589       -20.0164
  44   2.0000      -0.716280       -19.4910
  45   2.0000      -0.701187       -19.0803
  46   2.0000      -0.691554       -18.8181
  47   2.0000      -0.678115       -18.4524
  48   2.0000      -0.666805       -18.1447
  49   2.0000      -0.666193       -18.1280
  50   2.0000      -0.652115       -17.7449
  51   2.0000      -0.648445       -17.6451
  52   2.0000      -0.638829       -17.3834
  53   2.0000      -0.612884       -16.6774
  54   2.0000      -0.611917       -16.6511
  55   2.0000      -0.603278       -16.4160
  56   2.0000      -0.601865       -16.3776
  57   2.0000      -0.582223       -15.8431
  58   2.0000      -0.573213       -15.5979
  59   2.0000      -0.567980       -15.4555
  60   2.0000      -0.554971       -15.1015
  61   2.0000      -0.541748       -14.7417
  62   2.0000      -0.536182       -14.5902
  63   2.0000      -0.529955       -14.4208
  64   2.0000      -0.523813       -14.2537
  65   2.0000      -0.517082       -14.0705
  66   2.0000      -0.505639       -13.7591
  67   2.0000      -0.496016       -13.4973
  68   2.0000      -0.480040       -13.0626
  69   2.0000      -0.464205       -12.6317
  70   2.0000      -0.453856       -12.3501
  71   2.0000      -0.442525       -12.0417
  72   2.0000      -0.358385        -9.7521
  73   2.0000      -0.354806        -9.6548
  74   2.0000      -0.331335        -9.0161
  75   2.0000      -0.327445        -8.9102
  76   2.0000      -0.318002        -8.6533
  77   0.0000       0.069159         1.8819
  78   0.0000       0.100782         2.7424
  79   0.0000       0.121638         3.3100
  80   0.0000       0.127695         3.4748
  81   0.0000       0.132379         3.6022

MULLIKEN ATOMIC CHARGES
-----------------------
   0 C :   -0.279741
   1 C :    0.032207
   2 O :   -0.385599
   3 C :    0.479575
   4 O :   -0.397817
   5 C :   -0.257914
   6 C :    0.153136
   7 C :   -0.270295
   8 N :   -0.125265
   9 C :    0.211510
  10 S :   -0.435572
  11 N :   -0.198014
  12 C :    0.047203
  13 C :    0.031943
  14 C :   -0.173850
  15 C :   -0.131158
  16 C :   -0.274612
  17 C :    0.304978
  18 O :   -0.356311
  19 C :   -0.248589
  20 H :    0.092277
  21 H :    0.098275
  22 H :    0.113691
  23 H :    0.102904
  24 H :    0.107595
  25 H :    0.126628
  26 H :    0.137456
  27 H :    0.094672
  28 H :    0.198683
  29 H :    0.192287
  30 H :    0.150984
  31 H :    0.152464
  32 H :    0.163330
  33 H :    0.133681
  34 H :    0.241949
  35 H :    0.167310
Sum of atomic charges:   -0.0000000

LOEWDIN ATOMIC CHARGES
----------------------
   0 C :    0.104967
   1 C :   -0.015954
   2 O :    0.279315
   3 C :   -0.418795
   4 O :    0.123767
   5 C :   -0.099064
   6 C :   -0.058658
   7 C :    0.130773
   8 N :    0.406931
   9 C :   -0.456643
  10 S :   -0.032023
  11 N :    0.396504
  12 C :   -0.052908
  13 C :   -0.039947
  14 C :    0.014588
  15 C :    0.042388
  16 C :   -0.000981
  17 C :   -0.190903
  18 O :    0.396732
  19 C :    0.029340
  20 H :   -0.030557
  21 H :   -0.027638
  22 H :   -0.022280
  23 H :   -0.035118
  24 H :   -0.022758
  25 H :   -0.006418
  26 H :   -0.002595
  27 H :   -0.023104
  28 H :   -0.057367
  29 H :   -0.065299
  30 H :   -0.006483
  31 H :   -0.028920
  32 H :   -0.019569
  33 H :   -0.034182
  34 H :   -0.152464
  35 H :   -0.024676

  Mayer bond orders larger than 0.100000
B(  0-C ,  1-C ) :   0.9808 B(  0-C , 20-H ) :   0.9735 B(  0-C , 21-H ) :   0.9750
B(  0-C , 22-H ) :   0.9755 B(  1-C ,  2-O ) :   0.8901 B(  1-C , 23-H ) :   0.9652
B(  1-C , 24-H ) :   0.9807 B(  2-O ,  3-C ) :   1.0967 B(  3-C ,  4-O ) :   2.0335
B(  3-C ,  5-C ) :   1.0464 B(  5-C ,  6-C ) :   1.6552 B(  5-C , 12-C ) :   0.9680
B(  6-C ,  7-C ) :   0.9705 B(  6-C ,  8-N ) :   1.1547 B(  7-C , 25-H ) :   0.9652
B(  7-C , 26-H ) :   0.9558 B(  7-C , 27-H ) :   0.9883 B(  8-N ,  9-C ) :   1.1785
B(  8-N , 28-H ) :   0.9482 B(  9-C , 10-S ) :   1.6140 B(  9-C , 11-N ) :   1.3021
B( 11-N , 12-C ) :   0.9730 B( 11-N , 29-H ) :   0.9541 B( 12-C , 13-C ) :   0.9464
B( 12-C , 30-H ) :   1.0019 B( 13-C , 14-C ) :   1.3560 B( 13-C , 19-C ) :   1.3734
B( 14-C , 15-C ) :   1.3881 B( 14-C , 31-H ) :   0.9721 B( 15-C , 16-C ) :   1.3663
B( 15-C , 32-H ) :   0.9700 B( 16-C , 17-C ) :   1.3275 B( 16-C , 33-H ) :   0.9837
B( 17-C , 18-O ) :   1.1152 B( 17-C , 19-C ) :   1.3768 B( 18-O , 34-H ) :   0.9788
B( 19-C , 35-H ) :   0.9573

MP2 TOTAL ENERGY:    -1274.330664269 Eh
FINAL SINGLE POINT ENERGY     -1274.330664268668

DIPOLE MOMENT
-------------
                                X             Y             Z
Electronic contribution:     10.60445       8.68622       6.86558
Nuclear contribution   :    -11.72200     -10.26952      -6.56566
                        -----------------------------------------
Total Dipole Moment    :     -1.11755      -1.58330       0.29992
                        -----------------------------------------
Magnitude (a.u.)       :      1.96105
Magnitude (Debye)      :      4.98458

Rotational constants in cm-1:     0.011681     0.009417     0.006473
Rotational constants in MHz :   350.180719   282.325694   194.043421

                             ****ORCA TERMINATED NORMALLY****
TOTAL RUN TIME: 0 days 1 hours 53 minutes 33 seconds 994 msec
