                         Program Version 4.2.0 -  RELEASE  -
|  1> ! ri-mp2 cc-pvtz cc-pvtz/c TightSCF  NoKeepInts
|  2>
|  3> %scf
|  4>   MaxCore 4096
|  5> end
|  6> *xyz  0  1
|  7>     C       14.9255838   15.6900309   17.4746162
|  8>     C       15.6567933   15.0788609   16.2614173
|  9>     O       17.0346002   14.7890517   16.5657518
| 10>     C       18.0586983   15.6923086   16.4537157
| 11>     O       19.1708860   15.2472109   16.2406052
| 12>     C       17.9438712   16.8536191   17.3781726
| 13>     C       17.4052270   18.0244981   16.9726323
| 14>     C       16.8132739   18.3189707   15.6112465
| 15>     N       17.4015863   19.1241340   17.8334076
| 16>     C       18.0319478   19.1599502   19.0503561
| 17>     S       18.0381535   20.5250972   19.9835492
| 18>     N       18.6558632   18.0055758   19.4577528
| 19>     C       18.6033869   16.7093913   18.7502973
| 20>     C       17.9234251   15.6329631   19.5923315
| 21>     C       18.3979457   14.3090218   19.5494386
| 22>     C       17.7811454   13.3005802   20.3081504
| 23>     C       16.6784201   13.6169647   21.1192532
| 24>     C       16.1996585   14.9331100   21.1629772
| 25>     O       15.1265853   15.2390856   21.9347493
| 26>     C       16.8149024   15.9354128   20.4061334
| 27>     H       15.0501201   15.0456456   18.3536022
| 28>     H       13.8510094   15.7634512   17.2681904
| 29>     H       15.2791834   16.6916811   17.7296944
| 30>     H       15.1570977   14.1352404   16.0060744
| 31>     H       15.5802501   15.7376264   15.3873709
| 32>     H       17.2065909   17.6468607   14.8385990
| 33>     H       17.0532462   19.3396511   15.2868114
| 34>     H       15.7211393   18.2205866   15.6275153
| 35>     H       16.9611043   19.9847104   17.5485977
| 36>     H       19.0981737   18.0570108   20.3666814
| 37>     H       19.6412316   16.3873121   18.5789157
| 38>     H       19.2408988   14.0582204   18.9087299
| 39>     H       18.1553960   12.2795040   20.2593490
| 40>     H       16.1973165   12.8402498   21.7042763
| 41>     H       14.8728327   14.4339213   22.4106031
| 42>     H       16.4194553   16.9444905   20.4524348
| 43> *
| 44>
| 45>                          ****END OF INPUT****

CARTESIAN COORDINATES (ANGSTROEM)
---------------------------------
  C     14.925584   15.690031   17.474616
  C     15.656793   15.078861   16.261417
  O     17.034600   14.789052   16.565752
  C     18.058698   15.692309   16.453716
  O     19.170886   15.247211   16.240605
  C     17.943871   16.853619   17.378173
  C     17.405227   18.024498   16.972632
  C     16.813274   18.318971   15.611246
  N     17.401586   19.124134   17.833408
  C     18.031948   19.159950   19.050356
  S     18.038153   20.525097   19.983549
  N     18.655863   18.005576   19.457753
  C     18.603387   16.709391   18.750297
  C     17.923425   15.632963   19.592332
  C     18.397946   14.309022   19.549439
  C     17.781145   13.300580   20.308150
  C     16.678420   13.616965   21.119253
  C     16.199659   14.933110   21.162977
  O     15.126585   15.239086   21.934749
  C     16.814902   15.935413   20.406133
  H     15.050120   15.045646   18.353602
  H     13.851009   15.763451   17.268190
  H     15.279183   16.691681   17.729694
  H     15.157098   14.135240   16.006074
  H     15.580250   15.737626   15.387371
  H     17.206591   17.646861   14.838599
  H     17.053246   19.339651   15.286811
  H     15.721139   18.220587   15.627515
  H     16.961104   19.984710   17.548598
  H     19.098174   18.057011   20.366681
  H     19.641232   16.387312   18.578916
  H     19.240899   14.058220   18.908730
  H     18.155396   12.279504   20.259349
  H     16.197316   12.840250   21.704276
  H     14.872833   14.433921   22.410603
  H     16.419455   16.944491   20.452435

 Total Charge           Charge          ....    0
 Multiplicity           Mult            ....    1
 Number of Electrons    NEL             ....  154
 Basis Dimension        Dim             ....  828

ORBITAL ENERGIES
----------------

  NO   OCC          E(Eh)            E(eV)
   0   2.0000     -91.887651     -2500.3901
   1   2.0000     -20.597720      -560.4925
   2   2.0000     -20.596665      -560.4638
   3   2.0000     -20.560258      -559.4731
   4   2.0000     -15.623329      -425.1324
   5   2.0000     -15.610104      -424.7725
   6   2.0000     -11.396929      -310.1262
   7   2.0000     -11.384494      -309.7878
   8   2.0000     -11.321498      -308.0736
   9   2.0000     -11.315412      -307.9080
  10   2.0000     -11.312781      -307.8364
  11   2.0000     -11.309185      -307.7386
  12   2.0000     -11.270273      -306.6797
  13   2.0000     -11.263697      -306.5008
  14   2.0000     -11.260498      -306.4137
  15   2.0000     -11.253386      -306.2202
  16   2.0000     -11.242696      -305.9293
  17   2.0000     -11.238267      -305.8088
  18   2.0000     -11.235947      -305.7457
  19   2.0000     -11.229838      -305.5794
  20   2.0000      -8.892783      -241.9849
  21   2.0000      -6.574380      -178.8980
  22   2.0000      -6.572346      -178.8426
  23   2.0000      -6.571780      -178.8272
  24   2.0000      -1.454221       -39.5714
  25   2.0000      -1.416496       -38.5448
  26   2.0000      -1.362171       -37.0666
  27   2.0000      -1.337285       -36.3894
  28   2.0000      -1.237568       -33.6759
  29   2.0000      -1.157745       -31.5038
  30   2.0000      -1.123775       -30.5795
  31   2.0000      -1.046997       -28.4902
  32   2.0000      -1.038989       -28.2723
  33   2.0000      -1.015665       -27.6376
  34   2.0000      -1.003541       -27.3077
  35   2.0000      -0.988190       -26.8900
  36   2.0000      -0.926236       -25.2042
  37   2.0000      -0.894918       -24.3519
  38   2.0000      -0.851468       -23.1696
  39   2.0000      -0.838586       -22.8191
  40   2.0000      -0.833419       -22.6785
  41   2.0000      -0.829963       -22.5844
  42   2.0000      -0.754476       -20.5303
  43   2.0000      -0.736766       -20.0484
  44   2.0000      -0.729768       -19.8580
  45   2.0000      -0.694193       -18.8899
  46   2.0000      -0.687942       -18.7198
  47   2.0000      -0.681269       -18.5383
  48   2.0000      -0.675678       -18.3861
  49   2.0000      -0.665465       -18.1082
  50   2.0000      -0.650938       -17.7129
  51   2.0000      -0.645218       -17.5573
  52   2.0000      -0.639207       -17.3937
  53   2.0000      -0.612846       -16.6764
  54   2.0000      -0.606927       -16.5153
  55   2.0000      -0.603336       -16.4176
  56   2.0000      -0.601105       -16.3569
  57   2.0000      -0.589419       -16.0389
  58   2.0000      -0.585941       -15.9443
  59   2.0000      -0.574160       -15.6237
  60   2.0000      -0.564676       -15.3656
  61   2.0000      -0.556837       -15.1523
  62   2.0000      -0.543565       -14.7912
  63   2.0000      -0.526065       -14.3150
  64   2.0000      -0.516451       -14.0533
  65   2.0000      -0.511841       -13.9279
  66   2.0000      -0.500168       -13.6103
  67   2.0000      -0.499857       -13.6018
  68   2.0000      -0.488018       -13.2796
  69   2.0000      -0.463715       -12.6183
  70   2.0000      -0.457903       -12.4602
  71   2.0000      -0.453868       -12.3504
  72   2.0000      -0.353799        -9.6274
  73   2.0000      -0.347144        -9.4463
  74   2.0000      -0.327462        -8.9107
  75   2.0000      -0.320739        -8.7278
  76   2.0000      -0.315528        -8.5860
  77   0.0000       0.089800         2.4436
  78   0.0000       0.099010         2.6942
  79   0.0000       0.111758         3.0411
  80   0.0000       0.128099         3.4857
  81   0.0000       0.130920         3.5625

MULLIKEN ATOMIC CHARGES
-----------------------
   0 C :   -0.315808
   1 C :    0.008093
   2 O :   -0.319295
   3 C :    0.381786
   4 O :   -0.357379
   5 C :   -0.143585
   6 C :    0.121568
   7 C :   -0.331900
   8 N :   -0.136229
   9 C :    0.209250
  10 S :   -0.445054
  11 N :   -0.224825
  12 C :    0.064638
  13 C :    0.055393
  14 C :   -0.199656
  15 C :   -0.135001
  16 C :   -0.274952
  17 C :    0.314847
  18 O :   -0.360801
  19 C :   -0.285886
  20 H :    0.126320
  21 H :    0.112354
  22 H :    0.101644
  23 H :    0.129609
  24 H :    0.088151
  25 H :    0.122592
  26 H :    0.130590
  27 H :    0.124986
  28 H :    0.194974
  29 H :    0.201414
  30 H :    0.168673
  31 H :    0.162350
  32 H :    0.162007
  33 H :    0.131637
  34 H :    0.240949
  35 H :    0.176545
Sum of atomic charges:    0.0000000

LOEWDIN ATOMIC CHARGES
----------------------
   0 C :    0.104646
   1 C :   -0.024790
   2 O :    0.313059
   3 C :   -0.421965
   4 O :    0.145048
   5 C :   -0.077247
   6 C :   -0.112908
   7 C :    0.122949
   8 N :    0.399818
   9 C :   -0.455447
  10 S :   -0.041277
  11 N :    0.398444
  12 C :   -0.041204
  13 C :   -0.040623
  14 C :    0.024520
  15 C :    0.044289
  16 C :   -0.002304
  17 C :   -0.194773
  18 O :    0.394792
  19 C :    0.029895
  20 H :   -0.020441
  21 H :   -0.026255
  22 H :   -0.038065
  23 H :   -0.018822
  24 H :   -0.039043
  25 H :   -0.011221
  26 H :   -0.011157
  27 H :   -0.017431
  28 H :   -0.060199
  29 H :   -0.063822
  30 H :   -0.002099
  31 H :   -0.022826
  32 H :   -0.019251
  33 H :   -0.035386
  34 H :   -0.153813
  35 H :   -0.025092

  Mayer bond orders larger than 0.100000
B(  0-C ,  1-C ) :   0.9601 B(  0-C , 20-H ) :   0.9714 B(  0-C , 21-H ) :   0.9773
B(  0-C , 22-H ) :   0.9746 B(  1-C ,  2-O ) :   0.9133 B(  1-C , 23-H ) :   0.9838
B(  1-C , 24-H ) :   0.9801 B(  2-O ,  3-C ) :   1.1025 B(  3-C ,  4-O ) :   2.1004
B(  3-C ,  5-C ) :   0.9193 B(  5-C ,  6-C ) :   1.7252 B(  5-C , 12-C ) :   0.9585
B(  6-C ,  7-C ) :   0.9343 B(  6-C ,  8-N ) :   1.0942 B(  7-C , 25-H ) :   0.9812
B(  7-C , 26-H ) :   0.9781 B(  7-C , 27-H ) :   0.9649 B(  8-N ,  9-C ) :   1.2014
B(  8-N , 28-H ) :   0.9535 B(  9-C , 10-S ) :   1.6046 B(  9-C , 11-N ) :   1.2839
B( 11-N , 12-C ) :   0.9879 B( 11-N , 29-H ) :   0.9470 B( 12-C , 13-C ) :   0.9496
B( 12-C , 30-H ) :   0.9972 B( 13-C , 14-C ) :   1.3822 B( 13-C , 19-C ) :   1.3399
B( 14-C , 15-C ) :   1.4016 B( 14-C , 31-H ) :   0.9648 B( 15-C , 16-C ) :   1.3586
B( 15-C , 32-H ) :   0.9706 B( 16-C , 17-C ) :   1.3314 B( 16-C , 33-H ) :   0.9850
B( 17-C , 18-O ) :   1.1062 B( 17-C , 19-C ) :   1.3664 B( 18-O , 34-H ) :   0.9797
B( 19-C , 35-H ) :   0.9582

MP2 TOTAL ENERGY:    -1274.312805813 Eh
FINAL SINGLE POINT ENERGY     -1274.312805812780

DIPOLE MOMENT
-------------
                                X             Y             Z
Electronic contribution:      9.70218       5.92255       6.54580
Nuclear contribution   :    -11.25381      -7.21060      -7.43129
                        -----------------------------------------
Total Dipole Moment    :     -1.55163      -1.28805      -0.88550
                        -----------------------------------------
Magnitude (a.u.)       :      2.20244
Magnitude (Debye)      :      5.59815

Rotational constants in cm-1:     0.012165     0.009461     0.006918
Rotational constants in MHz :   364.695505   283.622941   207.395962

                             ****ORCA TERMINATED NORMALLY****
TOTAL RUN TIME: 0 days 1 hours 51 minutes 24 seconds 311 msec
