                         Program Version 4.2.0 -  RELEASE  -
|  1> ! ri-mp2 cc-pvtz cc-pvtz/c TightSCF  NoKeepInts
|  2>
|  3> %scf
|  4>   MaxCore 4096
|  5> end
|  6> *xyz  0  1
|  7>     C       16.1123549   13.3637008   15.4125605
|  8>     C       15.3627932   14.5104111   16.1112960
|  9>     O       16.3507633   15.3332272   16.7561882
| 10>     C       16.1964890   16.6914569   16.8020132
| 11>     O       15.2804136   17.2671625   16.2395231
| 12>     C       17.2705997   17.3685080   17.6081681
| 13>     C       17.3599760   18.7186462   17.7153634
| 14>     C       16.4471363   19.7507239   17.0884775
| 15>     N       18.4051072   19.2965959   18.4424020
| 16>     C       19.4508793   18.6065344   18.9949524
| 17>     S       20.7019362   19.3756973   19.7559692
| 18>     N       19.4097713   17.2402142   18.8829129
| 19>     C       18.2792240   16.4662255   18.3379887
| 20>     C       17.6175477   15.6623371   19.4537700
| 21>     C       17.6571597   14.2553382   19.4399857
| 22>     C       17.0475737   13.5126893   20.4651930
| 23>     C       16.3952578   14.1819157   21.5147599
| 24>     C       16.3569241   15.5829174   21.5335354
| 25>     O       15.7282954   16.2319213   22.5458124
| 26>     C       16.9641579   16.3192603   20.5116729
| 27>     H       15.4060555   12.6991840   14.9001629
| 28>     H       16.6761928   12.7693763   16.1421443
| 29>     H       16.8146428   13.7581465   14.6676001
| 30>     H       14.8040391   15.0720169   15.3502011
| 31>     H       14.6502580   14.1206234   16.8498890
| 32>     H       15.4164423   19.6176179   17.4415354
| 33>     H       16.4351298   19.6432612   15.9964013
| 34>     H       16.7439946   20.7811773   17.3161254
| 35>     H       18.4523863   20.2988336   18.5336202
| 36>     H       20.1753346   16.7565514   19.3343712
| 37>     H       18.6925319   15.7630963   17.6012706
| 38>     H       18.1552802   13.7355367   18.6260419
| 39>     H       17.0811295   12.4248814   20.4439732
| 40>     H       15.9230123   13.6129063   22.3087472
| 41>     H       15.3970016   15.5605723   23.1608414
| 42>     H       16.9292082   17.4027354   20.5485302
| 43> *
| 44>
| 45>                          ****END OF INPUT****

CARTESIAN COORDINATES (ANGSTROEM)
---------------------------------
  C     16.112355   13.363701   15.412560
  C     15.362793   14.510411   16.111296
  O     16.350763   15.333227   16.756188
  C     16.196489   16.691457   16.802013
  O     15.280414   17.267163   16.239523
  C     17.270600   17.368508   17.608168
  C     17.359976   18.718646   17.715363
  C     16.447136   19.750724   17.088477
  N     18.405107   19.296596   18.442402
  C     19.450879   18.606534   18.994952
  S     20.701936   19.375697   19.755969
  N     19.409771   17.240214   18.882913
  C     18.279224   16.466226   18.337989
  C     17.617548   15.662337   19.453770
  C     17.657160   14.255338   19.439986
  C     17.047574   13.512689   20.465193
  C     16.395258   14.181916   21.514760
  C     16.356924   15.582917   21.533535
  O     15.728295   16.231921   22.545812
  C     16.964158   16.319260   20.511673
  H     15.406055   12.699184   14.900163
  H     16.676193   12.769376   16.142144
  H     16.814643   13.758147   14.667600
  H     14.804039   15.072017   15.350201
  H     14.650258   14.120623   16.849889
  H     15.416442   19.617618   17.441535
  H     16.435130   19.643261   15.996401
  H     16.743995   20.781177   17.316125
  H     18.452386   20.298834   18.533620
  H     20.175335   16.756551   19.334371
  H     18.692532   15.763096   17.601271
  H     18.155280   13.735537   18.626042
  H     17.081129   12.424881   20.443973
  H     15.923012   13.612906   22.308747
  H     15.397002   15.560572   23.160841
  H     16.929208   17.402735   20.548530

 Total Charge           Charge          ....    0
 Multiplicity           Mult            ....    1
 Number of Electrons    NEL             ....  154
 Basis Dimension        Dim             ....  828

ORBITAL ENERGIES
----------------

  NO   OCC          E(Eh)            E(eV)
   0   2.0000     -91.888593     -2500.4157
   1   2.0000     -20.603025      -560.6368
   2   2.0000     -20.595273      -560.4259
   3   2.0000     -20.541174      -558.9538
   4   2.0000     -15.628739      -425.2796
   5   2.0000     -15.607889      -424.7123
   6   2.0000     -11.395110      -310.0767
   7   2.0000     -11.383661      -309.7652
   8   2.0000     -11.335658      -308.4589
   9   2.0000     -11.312331      -307.8242
  10   2.0000     -11.308415      -307.7176
  11   2.0000     -11.295942      -307.3782
  12   2.0000     -11.258703      -306.3649
  13   2.0000     -11.258381      -306.3561
  14   2.0000     -11.253824      -306.2321
  15   2.0000     -11.251623      -306.1722
  16   2.0000     -11.241796      -305.9048
  17   2.0000     -11.237340      -305.7836
  18   2.0000     -11.237107      -305.7772
  19   2.0000     -11.231865      -305.6346
  20   2.0000      -8.893655      -242.0087
  21   2.0000      -6.575230      -178.9211
  22   2.0000      -6.573225      -178.8666
  23   2.0000      -6.572638      -178.8506
  24   2.0000      -1.451677       -39.5021
  25   2.0000      -1.414932       -38.5022
  26   2.0000      -1.355051       -36.8728
  27   2.0000      -1.339694       -36.4549
  28   2.0000      -1.238088       -33.6901
  29   2.0000      -1.156500       -31.4700
  30   2.0000      -1.119940       -30.4751
  31   2.0000      -1.043526       -28.3958
  32   2.0000      -1.039902       -28.2972
  33   2.0000      -1.013829       -27.5877
  34   2.0000      -0.995504       -27.0890
  35   2.0000      -0.984042       -26.7771
  36   2.0000      -0.921890       -25.0859
  37   2.0000      -0.890172       -24.2228
  38   2.0000      -0.846329       -23.0298
  39   2.0000      -0.836540       -22.7634
  40   2.0000      -0.832811       -22.6619
  41   2.0000      -0.817145       -22.2356
  42   2.0000      -0.765306       -20.8250
  43   2.0000      -0.731435       -19.9034
  44   2.0000      -0.721169       -19.6240
  45   2.0000      -0.694446       -18.8968
  46   2.0000      -0.685722       -18.6595
  47   2.0000      -0.679626       -18.4936
  48   2.0000      -0.677475       -18.4350
  49   2.0000      -0.661734       -18.0067
  50   2.0000      -0.645634       -17.5686
  51   2.0000      -0.644458       -17.5366
  52   2.0000      -0.635011       -17.2795
  53   2.0000      -0.605492       -16.4763
  54   2.0000      -0.600247       -16.3336
  55   2.0000      -0.597937       -16.2707
  56   2.0000      -0.594948       -16.1893
  57   2.0000      -0.577230       -15.7072
  58   2.0000      -0.570337       -15.5197
  59   2.0000      -0.569245       -15.4899
  60   2.0000      -0.562165       -15.2973
  61   2.0000      -0.549828       -14.9616
  62   2.0000      -0.540006       -14.6943
  63   2.0000      -0.526003       -14.3133
  64   2.0000      -0.524014       -14.2592
  65   2.0000      -0.512904       -13.9568
  66   2.0000      -0.501589       -13.6489
  67   2.0000      -0.497612       -13.5407
  68   2.0000      -0.484652       -13.1881
  69   2.0000      -0.464628       -12.6432
  70   2.0000      -0.458436       -12.4747
  71   2.0000      -0.447642       -12.1810
  72   2.0000      -0.354052        -9.6342
  73   2.0000      -0.348300        -9.4777
  74   2.0000      -0.327874        -8.9219
  75   2.0000      -0.320036        -8.7086
  76   2.0000      -0.315562        -8.5869
  77   0.0000       0.076780         2.0893
  78   0.0000       0.107795         2.9332
  79   0.0000       0.123902         3.3715
  80   0.0000       0.132299         3.6000
  81   0.0000       0.135952         3.6995

MULLIKEN ATOMIC CHARGES
-----------------------
   0 C :   -0.265116
   1 C :    0.018679
   2 O :   -0.343106
   3 C :    0.470117
   4 O :   -0.435305
   5 C :   -0.220503
   6 C :    0.148568
   7 C :   -0.274809
   8 N :   -0.120327
   9 C :    0.209989
  10 S :   -0.439906
  11 N :   -0.202546
  12 C :    0.044211
  13 C :    0.067525
  14 C :   -0.179008
  15 C :   -0.133428
  16 C :   -0.277758
  17 C :    0.315820
  18 O :   -0.356777
  19 C :   -0.269184
  20 H :    0.094403
  21 H :    0.090882
  22 H :    0.096139
  23 H :    0.121765
  24 H :    0.096956
  25 H :    0.132405
  26 H :    0.130620
  27 H :    0.094754
  28 H :    0.197312
  29 H :    0.194256
  30 H :    0.151129
  31 H :    0.148924
  32 H :    0.159074
  33 H :    0.129180
  34 H :    0.240477
  35 H :    0.164588
Sum of atomic charges:   -0.0000000

LOEWDIN ATOMIC CHARGES
----------------------
   0 C :    0.105046
   1 C :   -0.012442
   2 O :    0.310884
   3 C :   -0.413141
   4 O :    0.094804
   5 C :   -0.094405
   6 C :   -0.058938
   7 C :    0.131446
   8 N :    0.406487
   9 C :   -0.456839
  10 S :   -0.035575
  11 N :    0.396601
  12 C :   -0.052903
  13 C :   -0.038915
  14 C :    0.014075
  15 C :    0.038914
  16 C :   -0.001387
  17 C :   -0.189523
  18 O :    0.395021
  19 C :    0.031692
  20 H :   -0.024596
  21 H :   -0.030749
  22 H :   -0.026439
  23 H :   -0.027319
  24 H :   -0.029525
  25 H :   -0.004382
  26 H :   -0.004124
  27 H :   -0.023506
  28 H :   -0.057612
  29 H :   -0.064541
  30 H :   -0.011513
  31 H :   -0.031318
  32 H :   -0.021706
  33 H :   -0.035727
  34 H :   -0.154104
  35 H :   -0.023741

  Mayer bond orders larger than 0.100000
B(  0-C ,  1-C ) :   0.9721 B(  0-C , 20-H ) :   0.9771 B(  0-C , 21-H ) :   0.9795
B(  0-C , 22-H ) :   0.9772 B(  1-C ,  2-O ) :   0.8922 B(  1-C , 23-H ) :   0.9767
B(  1-C , 24-H ) :   0.9778 B(  2-O ,  3-C ) :   1.1820 B(  3-C ,  4-O ) :   1.9701
B(  3-C ,  5-C ) :   1.0539 B(  5-C ,  6-C ) :   1.6587 B(  5-C , 12-C ) :   0.9711
B(  6-C ,  7-C ) :   0.9676 B(  6-C ,  8-N ) :   1.1648 B(  7-C , 25-H ) :   0.9607
B(  7-C , 26-H ) :   0.9602 B(  7-C , 27-H ) :   0.9903 B(  8-N ,  9-C ) :   1.1826
B(  8-N , 28-H ) :   0.9480 B(  9-C , 10-S ) :   1.6080 B(  9-C , 11-N ) :   1.3043
B( 11-N , 12-C ) :   0.9900 B( 11-N , 29-H ) :   0.9517 B( 12-C , 13-C ) :   0.9362
B( 12-C , 30-H ) :   1.0040 B( 13-C , 14-C ) :   1.3568 B( 13-C , 19-C ) :   1.3817
B( 14-C , 15-C ) :   1.3925 B( 14-C , 31-H ) :   0.9708 B( 15-C , 16-C ) :   1.3641
B( 15-C , 32-H ) :   0.9710 B( 16-C , 17-C ) :   1.3322 B( 16-C , 33-H ) :   0.9853
B( 17-C , 18-O ) :   1.1098 B( 17-C , 19-C ) :   1.3738 B( 18-O , 34-H ) :   0.9801
B( 19-C , 35-H ) :   0.9583

MP2 TOTAL ENERGY:    -1274.350817096 Eh
FINAL SINGLE POINT ENERGY     -1274.350817095777

DIPOLE MOMENT
-------------
                                X             Y             Z
Electronic contribution:      8.85005      10.37436       9.20198
Nuclear contribution   :    -10.08178     -11.95053      -9.61087
                        -----------------------------------------
Total Dipole Moment    :     -1.23173      -1.57617      -0.40890
                        -----------------------------------------
Magnitude (a.u.)       :      2.04173
Magnitude (Debye)      :      5.18967

Rotational constants in cm-1:     0.011040     0.008609     0.006119
Rotational constants in MHz :   330.965465   258.081480   183.437464

                             ****ORCA TERMINATED NORMALLY****
TOTAL RUN TIME: 0 days 1 hours 38 minutes 55 seconds 752 msec
