                         Program Version 4.2.0 -  RELEASE  -
|  1> ! ri-mp2 cc-pvtz cc-pvtz/c TightSCF  NoKeepInts
|  2>
|  3> %scf
|  4>   MaxCore 4096
|  5> end
|  6> *xyz  0  1
|  7>     C       15.0383821   15.1424764   17.5619550
|  8>     C       15.5498452   15.4795059   16.1512659
|  9>     O       16.9130884   15.0317243   16.0013430
| 10>     C       18.0614969   15.6367941   16.4570286
| 11>     O       19.1015205   15.0048141   16.4380651
| 12>     C       17.9217230   16.8218812   17.3586582
| 13>     C       17.4593068   18.0187871   16.9244378
| 14>     C       17.0501080   18.3890548   15.5137771
| 15>     N       17.4724010   19.1237535   17.7782749
| 16>     C       18.0793191   19.1533610   19.0060250
| 17>     S       18.1271094   20.5313565   19.9185761
| 18>     N       18.6555804   17.9840548   19.4354301
| 19>     C       18.5533683   16.6797073   18.7502363
| 20>     C       17.8371772   15.6418729   19.6146804
| 21>     C       18.2119466   14.2873417   19.5355764
| 22>     C       17.5641359   13.3144218   20.3143664
| 23>     C       16.5317892   13.6964423   21.1868903
| 24>     C       16.1567279   15.0433165   21.2749480
| 25>     O       15.1547470   15.4149564   22.1106471
| 26>     C       16.8034928   16.0104590   20.4986690
| 27>     H       15.3450047   15.9117617   18.2764592
| 28>     H       15.4208657   14.1709206   17.9010746
| 29>     H       13.9425342   15.1016093   17.5726752
| 30>     H       14.9374569   14.9179222   15.4337536
| 31>     H       15.4077437   16.5385916   15.9303488
| 32>     H       17.1896089   17.5637621   14.8048835
| 33>     H       17.6612866   19.2221819   15.1428952
| 34>     H       15.9997959   18.7027373   15.4714675
| 35>     H       17.0817298   20.0000734   17.4693146
| 36>     H       19.0910580   18.0323437   20.3480043
| 37>     H       19.5809221   16.3157181   18.6008784
| 38>     H       19.0070166   13.9840354   18.8575393
| 39>     H       17.8628868   12.2703669   20.2365216
| 40>     H       16.0274356   12.9476238   21.7886267
| 41>     H       14.8637504   14.6221789   22.5860670
| 42>     H       16.4846382   17.0440917   20.5826399
| 43> *
| 44>
| 45>                          ****END OF INPUT****

CARTESIAN COORDINATES (ANGSTROEM)
---------------------------------
  C     15.038382   15.142476   17.561955
  C     15.549845   15.479506   16.151266
  O     16.913088   15.031724   16.001343
  C     18.061497   15.636794   16.457029
  O     19.101520   15.004814   16.438065
  C     17.921723   16.821881   17.358658
  C     17.459307   18.018787   16.924438
  C     17.050108   18.389055   15.513777
  N     17.472401   19.123753   17.778275
  C     18.079319   19.153361   19.006025
  S     18.127109   20.531357   19.918576
  N     18.655580   17.984055   19.435430
  C     18.553368   16.679707   18.750236
  C     17.837177   15.641873   19.614680
  C     18.211947   14.287342   19.535576
  C     17.564136   13.314422   20.314366
  C     16.531789   13.696442   21.186890
  C     16.156728   15.043316   21.274948
  O     15.154747   15.414956   22.110647
  C     16.803493   16.010459   20.498669
  H     15.345005   15.911762   18.276459
  H     15.420866   14.170921   17.901075
  H     13.942534   15.101609   17.572675
  H     14.937457   14.917922   15.433754
  H     15.407744   16.538592   15.930349
  H     17.189609   17.563762   14.804884
  H     17.661287   19.222182   15.142895
  H     15.999796   18.702737   15.471467
  H     17.081730   20.000073   17.469315
  H     19.091058   18.032344   20.348004
  H     19.580922   16.315718   18.600878
  H     19.007017   13.984035   18.857539
  H     17.862887   12.270367   20.236522
  H     16.027436   12.947624   21.788627
  H     14.863750   14.622179   22.586067
  H     16.484638   17.044092   20.582640

 Total Charge           Charge          ....    0
 Multiplicity           Mult            ....    1
 Number of Electrons    NEL             ....  154
 Basis Dimension        Dim             ....  828

ORBITAL ENERGIES
----------------

  NO   OCC          E(Eh)            E(eV)
   0   2.0000     -91.890686     -2500.4727
   1   2.0000     -20.601618      -560.5985
   2   2.0000     -20.597575      -560.4885
   3   2.0000     -20.549928      -559.1920
   4   2.0000     -15.627923      -425.2574
   5   2.0000     -15.611691      -424.8157
   6   2.0000     -11.401010      -310.2372
   7   2.0000     -11.387181      -309.8610
   8   2.0000     -11.332632      -308.3766
   9   2.0000     -11.315451      -307.9091
  10   2.0000     -11.314326      -307.8785
  11   2.0000     -11.306487      -307.6652
  12   2.0000     -11.272284      -306.7345
  13   2.0000     -11.269016      -306.6455
  14   2.0000     -11.262626      -306.4716
  15   2.0000     -11.254667      -306.2550
  16   2.0000     -11.243695      -305.9565
  17   2.0000     -11.239447      -305.8409
  18   2.0000     -11.235885      -305.7440
  19   2.0000     -11.225732      -305.4677
  20   2.0000      -8.895791      -242.0668
  21   2.0000      -6.577381      -178.9796
  22   2.0000      -6.575352      -178.9244
  23   2.0000      -6.574777      -178.9088
  24   2.0000      -1.447567       -39.3903
  25   2.0000      -1.417378       -38.5688
  26   2.0000      -1.359351       -36.9898
  27   2.0000      -1.341690       -36.5092
  28   2.0000      -1.240908       -33.7668
  29   2.0000      -1.158936       -31.5363
  30   2.0000      -1.125760       -30.6335
  31   2.0000      -1.048085       -28.5198
  32   2.0000      -1.038331       -28.2544
  33   2.0000      -1.017638       -27.6913
  34   2.0000      -1.005911       -27.3722
  35   2.0000      -0.990324       -26.9481
  36   2.0000      -0.928129       -25.2557
  37   2.0000      -0.893145       -24.3037
  38   2.0000      -0.855749       -23.2861
  39   2.0000      -0.841163       -22.8892
  40   2.0000      -0.834265       -22.7015
  41   2.0000      -0.831692       -22.6315
  42   2.0000      -0.751016       -20.4362
  43   2.0000      -0.741087       -20.1660
  44   2.0000      -0.730443       -19.8764
  45   2.0000      -0.695476       -18.9249
  46   2.0000      -0.688072       -18.7234
  47   2.0000      -0.680636       -18.5211
  48   2.0000      -0.675640       -18.3851
  49   2.0000      -0.663426       -18.0527
  50   2.0000      -0.653082       -17.7713
  51   2.0000      -0.642708       -17.4890
  52   2.0000      -0.638970       -17.3872
  53   2.0000      -0.621988       -16.9251
  54   2.0000      -0.611588       -16.6422
  55   2.0000      -0.606057       -16.4916
  56   2.0000      -0.601521       -16.3682
  57   2.0000      -0.590269       -16.0620
  58   2.0000      -0.578032       -15.7291
  59   2.0000      -0.569660       -15.5012
  60   2.0000      -0.566050       -15.4030
  61   2.0000      -0.554768       -15.0960
  62   2.0000      -0.537241       -14.6191
  63   2.0000      -0.535626       -14.5751
  64   2.0000      -0.518009       -14.0957
  65   2.0000      -0.512534       -13.9468
  66   2.0000      -0.504148       -13.7186
  67   2.0000      -0.501492       -13.6463
  68   2.0000      -0.482955       -13.1419
  69   2.0000      -0.467676       -12.7261
  70   2.0000      -0.454570       -12.3695
  71   2.0000      -0.449909       -12.2427
  72   2.0000      -0.359048        -9.7702
  73   2.0000      -0.348336        -9.4787
  74   2.0000      -0.330323        -8.9885
  75   2.0000      -0.323032        -8.7901
  76   2.0000      -0.319440        -8.6924
  77   0.0000       0.085130         2.3165
  78   0.0000       0.107019         2.9121
  79   0.0000       0.111521         3.0347
  80   0.0000       0.128746         3.5034
  81   0.0000       0.131154         3.5689

MULLIKEN ATOMIC CHARGES
-----------------------
   0 C :   -0.310653
   1 C :    0.014454
   2 O :   -0.316711
   3 C :    0.415731
   4 O :   -0.384779
   5 C :   -0.224801
   6 C :    0.152167
   7 C :   -0.325869
   8 N :   -0.138931
   9 C :    0.205897
  10 S :   -0.440881
  11 N :   -0.232185
  12 C :    0.102445
  13 C :    0.020040
  14 C :   -0.217528
  15 C :   -0.140049
  16 C :   -0.274616
  17 C :    0.326085
  18 O :   -0.357327
  19 C :   -0.277192
  20 H :    0.104704
  21 H :    0.122553
  22 H :    0.109266
  23 H :    0.126167
  24 H :    0.088629
  25 H :    0.124658
  26 H :    0.143673
  27 H :    0.119719
  28 H :    0.195612
  29 H :    0.204167
  30 H :    0.167963
  31 H :    0.177864
  32 H :    0.165158
  33 H :    0.131899
  34 H :    0.240998
  35 H :    0.181676
Sum of atomic charges:   -0.0000000

LOEWDIN ATOMIC CHARGES
----------------------
   0 C :    0.106246
   1 C :   -0.023228
   2 O :    0.306335
   3 C :   -0.415087
   4 O :    0.122643
   5 C :   -0.077616
   6 C :   -0.102057
   7 C :    0.120824
   8 N :    0.401957
   9 C :   -0.457793
  10 S :   -0.037494
  11 N :    0.398259
  12 C :   -0.041522
  13 C :   -0.041233
  14 C :    0.020620
  15 C :    0.043751
  16 C :   -0.001461
  17 C :   -0.192276
  18 O :    0.395632
  19 C :    0.026923
  20 H :   -0.034602
  21 H :   -0.018976
  22 H :   -0.026350
  23 H :   -0.020799
  24 H :   -0.039532
  25 H :   -0.008771
  26 H :   -0.007905
  27 H :   -0.018361
  28 H :   -0.057582
  29 H :   -0.063326
  30 H :   -0.001726
  31 H :   -0.022288
  32 H :   -0.018634
  33 H :   -0.035076
  34 H :   -0.153456
  35 H :   -0.026038

  Mayer bond orders larger than 0.100000
B(  0-C ,  1-C ) :   0.9581 B(  0-C , 20-H ) :   0.9724 B(  0-C , 21-H ) :   0.9692
B(  0-C , 22-H ) :   0.9779 B(  1-C ,  2-O ) :   0.9049 B(  1-C , 23-H ) :   0.9859
B(  1-C , 24-H ) :   0.9718 B(  2-O ,  3-C ) :   1.1755 B(  3-C ,  4-O ) :   2.0784
B(  3-C ,  5-C ) :   0.9259 B(  5-C ,  6-C ) :   1.6939 B(  5-C , 12-C ) :   0.9419
B(  6-C ,  7-C ) :   0.9411 B(  6-C ,  8-N ) :   1.1100 B(  7-C , 25-H ) :   0.9813
B(  7-C , 26-H ) :   0.9671 B(  7-C , 27-H ) :   0.9678 B(  8-N ,  9-C ) :   1.1980
B(  8-N , 28-H ) :   0.9527 B(  9-C , 10-S ) :   1.6073 B(  9-C , 11-N ) :   1.2891
B( 11-N , 12-C ) :   0.9838 B( 11-N , 29-H ) :   0.9467 B( 12-C , 13-C ) :   0.9573
B( 12-C , 30-H ) :   0.9934 B( 13-C , 14-C ) :   1.3871 B( 13-C , 19-C ) :   1.3355
B( 14-C , 15-C ) :   1.4043 B( 14-C , 31-H ) :   0.9573 B( 15-C , 16-C ) :   1.3563
B( 15-C , 32-H ) :   0.9695 B( 16-C , 17-C ) :   1.3322 B( 16-C , 33-H ) :   0.9848
B( 17-C , 18-O ) :   1.1090 B( 17-C , 19-C ) :   1.3628 B( 18-O , 34-H ) :   0.9796
B( 19-C , 35-H ) :   0.9576

MP2 TOTAL ENERGY:    -1274.329370777 Eh
FINAL SINGLE POINT ENERGY     -1274.329370777348

DIPOLE MOMENT
-------------
                                X             Y             Z
Electronic contribution:      9.17482       6.63428       6.20320
Nuclear contribution   :    -10.69424      -7.57991      -6.90383
                        -----------------------------------------
Total Dipole Moment    :     -1.51942      -0.94562      -0.70063
                        -----------------------------------------
Magnitude (a.u.)       :      1.92191
Magnitude (Debye)      :      4.88510

Rotational constants in cm-1:     0.011880     0.009518     0.006692
Rotational constants in MHz :   356.168247   285.335221   200.625360

                             ****ORCA TERMINATED NORMALLY****
TOTAL RUN TIME: 0 days 1 hours 45 minutes 57 seconds 53 msec
