                         Program Version 5.0.0 -  RELEASE  -
|  1> ! ri-mp2 cc-pvtz cc-pvtz/c TightSCF NoKeepInts
|  2>
|  3> %scf
|  4>   MaxCore 4096
|  5> end
|  6> *xyz  0  1
|  7>     C       16.1852407   13.0840945   16.0740438
|  8>     C       15.8207789   14.4735728   15.4924952
|  9>     O       16.5638653   15.4251687   16.2764405
| 10>     C       16.0415744   16.5979919   16.7560122
| 11>     O       14.9721422   17.0492748   16.3825397
| 12>     C       17.0882265   17.3487171   17.5302706
| 13>     C       17.1100979   18.6964999   17.7044275
| 14>     C       16.1225214   19.7202966   17.1937900
| 15>     N       18.2028550   19.2902135   18.3497537
| 16>     C       19.3594291   18.6339078   18.6815662
| 17>     S       20.7341897   19.4469947   19.1113653
| 18>     N       19.3328647   17.2664437   18.5855560
| 19>     C       18.1466292   16.4763689   18.2215930
| 20>     C       17.5769483   15.7484852   19.4445046
| 21>     C       17.9564157   14.4157515   19.6899084
| 22>     C       17.5054169   13.7292677   20.8306751
| 23>     C       16.6486399   14.3753504   21.7359731
| 24>     C       16.2370154   15.6911110   21.4867310
| 25>     O       15.3862824   16.2983365   22.3554043
| 26>     C       16.7015715   16.3777145   20.3553973
| 27>     H       16.8734004   12.5519800   15.4034500
| 28>     H       15.2968986   12.4580618   16.2195395
| 29>     H       16.6856164   13.1689898   17.0474187
| 30>     H       16.0804479   14.5280354   14.4247584
| 31>     H       14.7378663   14.6332902   15.6093679
| 32>     H       15.9944029   19.6314058   16.1070803
| 33>     H       16.4367567   20.7532370   17.4129076
| 34>     H       15.1454132   19.5669072   17.6691433
| 35>     H       18.2454168   20.2926364   18.4415554
| 36>     H       20.1904585   16.7987037   18.8552673
| 37>     H       18.4968731   15.7131240   17.5143026
| 38>     H       18.6197684   13.9098298   18.9973765
| 39>     H       17.8169934   12.7016069   21.0121549
| 40>     H       16.3110778   13.8574917   22.6293072
| 41>     H       15.1444011   15.6400183   23.0280801
| 42>     H       16.3785033   17.4011204   20.2038429
| 43> *
| 44>
| 45>                          ****END OF INPUT****

CARTESIAN COORDINATES (ANGSTROEM)
---------------------------------
  C     16.185241   13.084095   16.074044
  C     15.820779   14.473573   15.492495
  O     16.563865   15.425169   16.276440
  C     16.041574   16.597992   16.756012
  O     14.972142   17.049275   16.382540
  C     17.088226   17.348717   17.530271
  C     17.110098   18.696500   17.704427
  C     16.122521   19.720297   17.193790
  N     18.202855   19.290214   18.349754
  C     19.359429   18.633908   18.681566
  S     20.734190   19.446995   19.111365
  N     19.332865   17.266444   18.585556
  C     18.146629   16.476369   18.221593
  C     17.576948   15.748485   19.444505
  C     17.956416   14.415751   19.689908
  C     17.505417   13.729268   20.830675
  C     16.648640   14.375350   21.735973
  C     16.237015   15.691111   21.486731
  O     15.386282   16.298337   22.355404
  C     16.701572   16.377714   20.355397
  H     16.873400   12.551980   15.403450
  H     15.296899   12.458062   16.219539
  H     16.685616   13.168990   17.047419
  H     16.080448   14.528035   14.424758
  H     14.737866   14.633290   15.609368
  H     15.994403   19.631406   16.107080
  H     16.436757   20.753237   17.412908
  H     15.145413   19.566907   17.669143
  H     18.245417   20.292636   18.441555
  H     20.190458   16.798704   18.855267
  H     18.496873   15.713124   17.514303
  H     18.619768   13.909830   18.997376
  H     17.816993   12.701607   21.012155
  H     16.311078   13.857492   22.629307
  H     15.144401   15.640018   23.028080
  H     16.378503   17.401120   20.203843

 Total Charge           Charge          ....    0
 Multiplicity           Mult            ....    1
 Number of Electrons    NEL             ....  154
 Basis Dimension        Dim             ....  828

ORBITAL ENERGIES
----------------

  NO   OCC          E(Eh)            E(eV)
   0   2.0000     -91.886984     -2500.3720
   1   2.0000     -20.600738      -560.5746
   2   2.0000     -20.597870      -560.4966
   3   2.0000     -20.544695      -559.0496
   4   2.0000     -15.627025      -425.2330
   5   2.0000     -15.606849      -424.6840
   6   2.0000     -11.396521      -310.1151
   7   2.0000     -11.381900      -309.7173
   8   2.0000     -11.334781      -308.4351
   9   2.0000     -11.315862      -307.9203
  10   2.0000     -11.306326      -307.6608
  11   2.0000     -11.300296      -307.4967
  12   2.0000     -11.262554      -306.4697
  13   2.0000     -11.258367      -306.3558
  14   2.0000     -11.257230      -306.3248
  15   2.0000     -11.254435      -306.2487
  16   2.0000     -11.244645      -305.9824
  17   2.0000     -11.241268      -305.8905
  18   2.0000     -11.240459      -305.8684
  19   2.0000     -11.228866      -305.5530
  20   2.0000      -8.892086      -241.9660
  21   2.0000      -6.573670      -178.8786
  22   2.0000      -6.571656      -178.8238
  23   2.0000      -6.571078      -178.8081
  24   2.0000      -1.449105       -39.4322
  25   2.0000      -1.415961       -38.5303
  26   2.0000      -1.355437       -36.8833
  27   2.0000      -1.338343       -36.4182
  28   2.0000      -1.236610       -33.6499
  29   2.0000      -1.158208       -31.5164
  30   2.0000      -1.119868       -30.4732
  31   2.0000      -1.043134       -28.3851
  32   2.0000      -1.039952       -28.2985
  33   2.0000      -1.015839       -27.6424
  34   2.0000      -0.996396       -27.1133
  35   2.0000      -0.982513       -26.7355
  36   2.0000      -0.921989       -25.0886
  37   2.0000      -0.892008       -24.2728
  38   2.0000      -0.845503       -23.0073
  39   2.0000      -0.838478       -22.8162
  40   2.0000      -0.833519       -22.6812
  41   2.0000      -0.817674       -22.2500
  42   2.0000      -0.762933       -20.7605
  43   2.0000      -0.732092       -19.9212
  44   2.0000      -0.720995       -19.6193
  45   2.0000      -0.697467       -18.9790
  46   2.0000      -0.689115       -18.7518
  47   2.0000      -0.678796       -18.4710
  48   2.0000      -0.674454       -18.3528
  49   2.0000      -0.664838       -18.0912
  50   2.0000      -0.646041       -17.5797
  51   2.0000      -0.641621       -17.4594
  52   2.0000      -0.636346       -17.3159
  53   2.0000      -0.610023       -16.5996
  54   2.0000      -0.601763       -16.3748
  55   2.0000      -0.598273       -16.2798
  56   2.0000      -0.594045       -16.1648
  57   2.0000      -0.579522       -15.7696
  58   2.0000      -0.571397       -15.5485
  59   2.0000      -0.566642       -15.4191
  60   2.0000      -0.563197       -15.3254
  61   2.0000      -0.550232       -14.9726
  62   2.0000      -0.534390       -14.5415
  63   2.0000      -0.529454       -14.4072
  64   2.0000      -0.525042       -14.2871
  65   2.0000      -0.512043       -13.9334
  66   2.0000      -0.502419       -13.6715
  67   2.0000      -0.492848       -13.4111
  68   2.0000      -0.487342       -13.2612
  69   2.0000      -0.462527       -12.5860
  70   2.0000      -0.456536       -12.4230
  71   2.0000      -0.445957       -12.1351
  72   2.0000      -0.356395        -9.6980
  73   2.0000      -0.350124        -9.5274
  74   2.0000      -0.327261        -8.9052
  75   2.0000      -0.322363        -8.7719
  76   2.0000      -0.314717        -8.5639
  77   0.0000       0.078977         2.1491
  78   0.0000       0.107052         2.9130
  79   0.0000       0.123160         3.3514
  80   0.0000       0.130714         3.5569
  81   0.0000       0.133598         3.6354

MULLIKEN ATOMIC CHARGES
-----------------------
   0 C :   -0.288837
   1 C :    0.041954
   2 O :   -0.350193
   3 C :    0.452712
   4 O :   -0.421831
   5 C :   -0.196709
   6 C :    0.128656
   7 C :   -0.270556
   8 N :   -0.121616
   9 C :    0.224903
  10 S :   -0.447255
  11 N :   -0.210353
  12 C :    0.024819
  13 C :    0.098072
  14 C :   -0.225528
  15 C :   -0.127492
  16 C :   -0.274168
  17 C :    0.312831
  18 O :   -0.358122
  19 C :   -0.255830
  20 H :    0.091583
  21 H :    0.099020
  22 H :    0.109542
  23 H :    0.095033
  24 H :    0.107698
  25 H :    0.130682
  26 H :    0.094390
  27 H :    0.131606
  28 H :    0.195793
  29 H :    0.196535
  30 H :    0.158119
  31 H :    0.155860
  32 H :    0.160057
  33 H :    0.129561
  34 H :    0.242900
  35 H :    0.166164
Sum of atomic charges:    0.0000000

LOEWDIN ATOMIC CHARGES
----------------------
   0 C :    0.104440
   1 C :   -0.005615
   2 O :    0.305998
   3 C :   -0.412158
   4 O :    0.094153
   5 C :   -0.091431
   6 C :   -0.063226
   7 C :    0.131631
   8 N :    0.405344
   9 C :   -0.453241
  10 S :   -0.039661
  11 N :    0.395916
  12 C :   -0.056368
  13 C :   -0.033058
  14 C :    0.009278
  15 C :    0.041929
  16 C :   -0.000222
  17 C :   -0.185328
  18 O :    0.389679
  19 C :    0.032655
  20 H :   -0.030713
  21 H :   -0.028014
  22 H :   -0.025857
  23 H :   -0.028157
  24 H :   -0.027780
  25 H :   -0.003879
  26 H :   -0.019119
  27 H :   -0.005406
  28 H :   -0.059432
  29 H :   -0.064232
  30 H :   -0.014006
  31 H :   -0.033411
  32 H :   -0.020222
  33 H :   -0.033955
  34 H :   -0.149761
  35 H :   -0.026770

  Mayer bond orders larger than 0.100000
B(  0-C ,  1-C ) :   0.9364 B(  0-C , 20-H ) :   0.9863 B(  0-C , 21-H ) :   0.9853
B(  0-C , 22-H ) :   0.9734 B(  1-C ,  2-O ) :   0.8931 B(  1-C , 23-H ) :   0.9850
B(  1-C , 24-H ) :   0.9842 B(  2-O ,  3-C ) :   1.1749 B(  3-C ,  4-O ) :   2.0013
B(  3-C ,  5-C ) :   1.0222 B(  5-C ,  6-C ) :   1.6663 B(  5-C , 12-C ) :   0.9691
B(  6-C ,  7-C ) :   0.9618 B(  6-C ,  8-N ) :   1.1599 B(  7-C , 25-H ) :   0.9614
B(  7-C , 26-H ) :   0.9916 B(  7-C , 27-H ) :   0.9621 B(  8-N ,  9-C ) :   1.1814
B(  8-N , 28-H ) :   0.9493 B(  9-C , 10-S ) :   1.5946 B(  9-C , 11-N ) :   1.3120
B( 11-N , 12-C ) :   0.9620 B( 11-N , 29-H ) :   0.9504 B( 12-C , 13-C ) :   0.9450
B( 12-C , 30-H ) :   0.9991 B( 13-C , 14-C ) :   1.3478 B( 13-C , 19-C ) :   1.3753
B( 14-C , 15-C ) :   1.3885 B( 14-C , 31-H ) :   0.9716 B( 15-C , 16-C ) :   1.3677
B( 15-C , 32-H ) :   0.9703 B( 16-C , 17-C ) :   1.3283 B( 16-C , 33-H ) :   0.9861
B( 17-C , 18-O ) :   1.1105 B( 17-C , 19-C ) :   1.3764 B( 18-O , 34-H ) :   0.9780
B( 19-C , 35-H ) :   0.9570

MP2 TOTAL ENERGY:    -1274.336931878 Eh
FINAL SINGLE POINT ENERGY     -1274.336931877613

DIPOLE MOMENT
-------------
                                X             Y             Z
Electronic contribution:      7.86145      10.99956       6.68163
Nuclear contribution   :     -8.95027     -12.63352      -6.75253
                        -----------------------------------------
Total Dipole Moment    :     -1.08882      -1.63396      -0.07090
                        -----------------------------------------
Magnitude (a.u.)       :      1.96478
Magnitude (Debye)      :      4.99408

Rotational constants in cm-1:     0.010438     0.008607     0.006332
Rotational constants in MHz :   312.927892   258.038723   189.822879

                             ****ORCA TERMINATED NORMALLY****
TOTAL RUN TIME: 0 days 1 hours 29 minutes 16 seconds 946 msec
