                         Program Version 5.0.0 -  RELEASE  -
|  1> ! ri-mp2 cc-pvtz cc-pvtz/c TightSCF NoKeepInts
|  2>
|  3> %scf
|  4>   MaxCore 4096
|  5> end
|  6> *xyz  0  1
|  7>     C       14.7615837   14.0737564   16.0942980
|  8>     C       15.6789754   14.9028766   15.1822925
|  9>     O       16.1609519   15.9952949   15.9897579
| 10>     C       17.2613409   15.8433530   16.7858695
| 11>     O       17.6839974   14.7283856   17.0356325
| 12>     C       17.7013459   17.0354789   17.6001432
| 13>     C       17.3504943   18.3313629   17.3788285
| 14>     C       16.4281141   18.8962080   16.3136630
| 15>     N       17.9109202   19.3416276   18.1781703
| 16>     C       18.8290834   19.1091058   19.1824187
| 17>     S       19.4676165   20.3398950   20.0617642
| 18>     N       19.2217285   17.8165467   19.4306339
| 19>     C       18.6699930   16.6601401   18.7380785
| 20>     C       17.9953476   15.7654792   19.7665543
| 21>     C       18.4780229   14.4689578   20.0021172
| 22>     C       17.8360116   13.6357465   20.9287455
| 23>     C       16.7113636   14.1034950   21.6339402
| 24>     C       16.2276683   15.4039592   21.4111636
| 25>     O       15.1379137   15.9069107   22.0725674
| 26>     C       16.8732738   16.2263998   20.4797573
| 27>     H       15.3689930   13.6026038   16.8869470
| 28>     H       14.2927629   13.2670544   15.5239787
| 29>     H       13.9935935   14.6892460   16.5734180
| 30>     H       16.4538454   14.3006559   14.6919266
| 31>     H       15.0234966   15.3312340   14.4017933
| 32>     H       15.9802697   18.1742367   15.6324360
| 33>     H       16.9715628   19.5888358   15.6667314
| 34>     H       15.5870135   19.4150650   16.7832975
| 35>     H       17.6633512   20.3163493   18.0193508
| 36>     H       19.8861041   17.6569519   20.1902613
| 37>     H       19.5262579   16.1344503   18.2897535
| 38>     H       19.3382859   14.0982261   19.4506651
| 39>     H       18.2118931   12.6297516   21.0946411
| 40>     H       16.2256907   13.4513091   22.3477345
| 41>     H       14.7409569   15.2809944   22.7026736
| 42>     H       16.4971764   17.2300562   20.3119955
| 43> *
| 44>
| 45>                          ****END OF INPUT****

CARTESIAN COORDINATES (ANGSTROEM)
---------------------------------
  C     14.761584   14.073756   16.094298
  C     15.678975   14.902877   15.182293
  O     16.160952   15.995295   15.989758
  C     17.261341   15.843353   16.785870
  O     17.683997   14.728386   17.035632
  C     17.701346   17.035479   17.600143
  C     17.350494   18.331363   17.378829
  C     16.428114   18.896208   16.313663
  N     17.910920   19.341628   18.178170
  C     18.829083   19.109106   19.182419
  S     19.467616   20.339895   20.061764
  N     19.221729   17.816547   19.430634
  C     18.669993   16.660140   18.738078
  C     17.995348   15.765479   19.766554
  C     18.478023   14.468958   20.002117
  C     17.836012   13.635746   20.928745
  C     16.711364   14.103495   21.633940
  C     16.227668   15.403959   21.411164
  O     15.137914   15.906911   22.072567
  C     16.873274   16.226400   20.479757
  H     15.368993   13.602604   16.886947
  H     14.292763   13.267054   15.523979
  H     13.993593   14.689246   16.573418
  H     16.453845   14.300656   14.691927
  H     15.023497   15.331234   14.401793
  H     15.980270   18.174237   15.632436
  H     16.971563   19.588836   15.666731
  H     15.587013   19.415065   16.783297
  H     17.663351   20.316349   18.019351
  H     19.886104   17.656952   20.190261
  H     19.526258   16.134450   18.289753
  H     19.338286   14.098226   19.450665
  H     18.211893   12.629752   21.094641
  H     16.225691   13.451309   22.347735
  H     14.740957   15.280994   22.702674
  H     16.497176   17.230056   20.311995

 Total Charge           Charge          ....    0
 Multiplicity           Mult            ....    1
 Number of Electrons    NEL             ....  154
 Basis Dimension        Dim             ....  828

ORBITAL ENERGIES
----------------

  NO   OCC          E(Eh)            E(eV)
   0   2.0000     -91.884922     -2500.3158
   1   2.0000     -20.601736      -560.6017
   2   2.0000     -20.588125      -560.2314
   3   2.0000     -20.542738      -558.9963
   4   2.0000     -15.629071      -425.2886
   5   2.0000     -15.605960      -424.6598
   6   2.0000     -11.395505      -310.0875
   7   2.0000     -11.382730      -309.7398
   8   2.0000     -11.337643      -308.5130
   9   2.0000     -11.307442      -307.6911
  10   2.0000     -11.301394      -307.5266
  11   2.0000     -11.300584      -307.5045
  12   2.0000     -11.264891      -306.5333
  13   2.0000     -11.254994      -306.2640
  14   2.0000     -11.249075      -306.1029
  15   2.0000     -11.243584      -305.9535
  16   2.0000     -11.234952      -305.7186
  17   2.0000     -11.230950      -305.6097
  18   2.0000     -11.227226      -305.5083
  19   2.0000     -11.220423      -305.3232
  20   2.0000      -8.890614      -241.9259
  21   2.0000      -6.572235      -178.8396
  22   2.0000      -6.570201      -178.7843
  23   2.0000      -6.569596      -178.7678
  24   2.0000      -1.454345       -39.5747
  25   2.0000      -1.398271       -38.0489
  26   2.0000      -1.355108       -36.8744
  27   2.0000      -1.333955       -36.2988
  28   2.0000      -1.238298       -33.6958
  29   2.0000      -1.149386       -31.2764
  30   2.0000      -1.116283       -30.3756
  31   2.0000      -1.039930       -28.2979
  32   2.0000      -1.032604       -28.0986
  33   2.0000      -1.007402       -27.4128
  34   2.0000      -0.996714       -27.1220
  35   2.0000      -0.984024       -26.7767
  36   2.0000      -0.918091       -24.9825
  37   2.0000      -0.888214       -24.1695
  38   2.0000      -0.845022       -22.9942
  39   2.0000      -0.831213       -22.6185
  40   2.0000      -0.825584       -22.4653
  41   2.0000      -0.814683       -22.1686
  42   2.0000      -0.754788       -20.5388
  43   2.0000      -0.736075       -20.0296
  44   2.0000      -0.725075       -19.7303
  45   2.0000      -0.687202       -18.6997
  46   2.0000      -0.682110       -18.5612
  47   2.0000      -0.679804       -18.4984
  48   2.0000      -0.670278       -18.2392
  49   2.0000      -0.653196       -17.7744
  50   2.0000      -0.646904       -17.6031
  51   2.0000      -0.640227       -17.4215
  52   2.0000      -0.630230       -17.1494
  53   2.0000      -0.610897       -16.6233
  54   2.0000      -0.603673       -16.4268
  55   2.0000      -0.596448       -16.2302
  56   2.0000      -0.587817       -15.9953
  57   2.0000      -0.582188       -15.8421
  58   2.0000      -0.568631       -15.4732
  59   2.0000      -0.560214       -15.2442
  60   2.0000      -0.558542       -15.1987
  61   2.0000      -0.540731       -14.7140
  62   2.0000      -0.530516       -14.4361
  63   2.0000      -0.522117       -14.2075
  64   2.0000      -0.514211       -13.9924
  65   2.0000      -0.505998       -13.7689
  66   2.0000      -0.500084       -13.6080
  67   2.0000      -0.490858       -13.3569
  68   2.0000      -0.481785       -13.1100
  69   2.0000      -0.463076       -12.6009
  70   2.0000      -0.454127       -12.3574
  71   2.0000      -0.446701       -12.1554
  72   2.0000      -0.353483        -9.6188
  73   2.0000      -0.340643        -9.2694
  74   2.0000      -0.325294        -8.8517
  75   2.0000      -0.314255        -8.5513
  76   2.0000      -0.312094        -8.4925
  77   0.0000       0.079359         2.1595
  78   0.0000       0.115590         3.1454
  79   0.0000       0.121482         3.3057
  80   0.0000       0.136985         3.7276
  81   0.0000       0.142624         3.8810

MULLIKEN ATOMIC CHARGES
-----------------------
   0 C :   -0.289168
   1 C :    0.038143
   2 O :   -0.349994
   3 C :    0.449010
   4 O :   -0.426781
   5 C :   -0.225811
   6 C :    0.178197
   7 C :   -0.306074
   8 N :   -0.139647
   9 C :    0.211246
  10 S :   -0.442908
  11 N :   -0.192996
  12 C :    0.061424
  13 C :    0.036398
  14 C :   -0.134545
  15 C :   -0.135611
  16 C :   -0.275338
  17 C :    0.298767
  18 O :   -0.367741
  19 C :   -0.258947
  20 H :    0.118746
  21 H :    0.091140
  22 H :    0.097235
  23 H :    0.108739
  24 H :    0.096780
  25 H :    0.144123
  26 H :    0.113764
  27 H :    0.114312
  28 H :    0.202118
  29 H :    0.201359
  30 H :    0.145778
  31 H :    0.144298
  32 H :    0.157205
  33 H :    0.134529
  34 H :    0.241111
  35 H :    0.161140
Sum of atomic charges:    0.0000000

LOEWDIN ATOMIC CHARGES
----------------------
   0 C :    0.102064
   1 C :   -0.016807
   2 O :    0.305227
   3 C :   -0.416117
   4 O :    0.115138
   5 C :   -0.085973
   6 C :   -0.069896
   7 C :    0.129548
   8 N :    0.394567
   9 C :   -0.459899
  10 S :   -0.027145
  11 N :    0.394012
  12 C :   -0.057884
  13 C :   -0.041187
  14 C :    0.023133
  15 C :    0.040081
  16 C :    0.000579
  17 C :   -0.180087
  18 O :    0.378361
  19 C :    0.029943
  20 H :   -0.020284
  21 H :   -0.031436
  22 H :   -0.029017
  23 H :   -0.028083
  24 H :   -0.024646
  25 H :   -0.020841
  26 H :   -0.017599
  27 H :   -0.015315
  28 H :   -0.047119
  29 H :   -0.049338
  30 H :   -0.007962
  31 H :   -0.026156
  32 H :   -0.022685
  33 H :   -0.038207
  34 H :   -0.153433
  35 H :   -0.025534

  Mayer bond orders larger than 0.100000
B(  0-C ,  1-C ) :   0.9649 B(  0-C , 20-H ) :   0.9744 B(  0-C , 21-H ) :   0.9764
B(  0-C , 22-H ) :   0.9767 B(  1-C ,  2-O ) :   0.8860 B(  1-C , 23-H ) :   0.9759
B(  1-C , 24-H ) :   0.9866 B(  2-O ,  3-C ) :   1.1553 B(  3-C ,  4-O ) :   1.9700
B(  3-C ,  5-C ) :   1.0737 B(  5-C ,  6-C ) :   1.6227 B(  5-C , 12-C ) :   0.9719
B(  6-C ,  7-C ) :   0.9541 B(  6-C ,  8-N ) :   1.1584 B(  7-C , 25-H ) :   0.9688
B(  7-C , 26-H ) :   0.9688 B(  7-C , 27-H ) :   0.9693 B(  8-N ,  9-C ) :   1.1769
B(  8-N , 28-H ) :   0.9462 B(  9-C , 10-S ) :   1.6181 B(  9-C , 11-N ) :   1.3058
B( 11-N , 12-C ) :   0.9975 B( 11-N , 29-H ) :   0.9465 B( 12-C , 13-C ) :   0.9478
B( 12-C , 30-H ) :   1.0018 B( 13-C , 14-C ) :   1.3681 B( 13-C , 19-C ) :   1.3775
B( 14-C , 15-C ) :   1.4010 B( 14-C , 31-H ) :   0.9694 B( 15-C , 16-C ) :   1.3611
B( 15-C , 32-H ) :   0.9727 B( 16-C , 17-C ) :   1.3471 B( 16-C , 33-H ) :   0.9803
B( 17-C , 18-O ) :   1.1054 B( 17-C , 19-C ) :   1.3687 B( 18-O , 34-H ) :   0.9784
B( 19-C , 35-H ) :   0.9589

MP2 TOTAL ENERGY:    -1274.336706974 Eh
FINAL SINGLE POINT ENERGY     -1274.336706973515

DIPOLE MOMENT
-------------
                                X             Y             Z
Electronic contribution:     10.68667       9.76511       9.60218
Nuclear contribution   :    -12.01117     -10.88356     -10.86166
                        -----------------------------------------
Total Dipole Moment    :     -1.32450      -1.11845      -1.25947
                        -----------------------------------------
Magnitude (a.u.)       :      2.14278
Magnitude (Debye)      :      5.44650

Rotational constants in cm-1:     0.010908     0.008997     0.006001
Rotational constants in MHz :   327.007151   269.733455   179.902253

                             ****ORCA TERMINATED NORMALLY****
TOTAL RUN TIME: 0 days 1 hours 46 minutes 34 seconds 801 msec
