                         Program Version 4.2.0 -  RELEASE  -
|  1> ! ri-mp2 cc-pvtz cc-pvtz/c TightSCF  NoKeepInts
|  2>
|  3> %scf
|  4>   MaxCore 4096
|  5> end
|  6> *xyz  0  1
|  7>     C       15.1377302   14.1039635   15.3948546
|  8>     C       16.1287591   13.9669171   16.5706294
|  9>     O       17.0462292   15.0788761   16.7181290
| 10>     C       16.7259601   16.4078818   16.5955455
| 11>     O       15.8005944   16.8269337   15.9239315
| 12>     C       17.5331198   17.2675443   17.5318073
| 13>     C       17.4200073   18.6205061   17.5593245
| 14>     C       16.5180123   19.4851463   16.7043127
| 15>     N       18.2187877   19.3744259   18.4244176
| 16>     C       19.2183743   18.8680655   19.2110294
| 17>     S       20.1809921   19.8422720   20.1385490
| 18>     N       19.3844206   17.5071589   19.1884318
| 19>     C       18.5006825   16.5543885   18.4925378
| 20>     C       17.7616848   15.6982571   19.5176022
| 21>     C       18.0707866   14.3323874   19.6606460
| 22>     C       17.3880524   13.5391044   20.5980499
| 23>     C       16.3904034   14.1166820   21.4018160
| 24>     C       16.0843090   15.4778173   21.2663352
| 25>     O       15.1230624   16.0387444   22.0423906
| 26>     C       16.7648728   16.2644467   20.3319548
| 27>     H       14.3375463   14.8171116   15.6282007
| 28>     H       14.6635656   13.1379913   15.1841595
| 29>     H       15.6527173   14.4358502   14.4846183
| 30>     H       15.5520402   13.8540246   17.4982580
| 31>     H       16.7147964   13.0485229   16.4386771
| 32>     H       15.4635517   19.2538379   16.9026502
| 33>     H       16.6988261   19.2967373   15.6384243
| 34>     H       16.6606459   20.5581263   16.8778635
| 35>     H       18.1116304   20.3757693   18.4533209
| 36>     H       20.1046842   17.1601233   19.8085478
| 37>     H       19.1425492   15.8970889   17.8892585
| 38>     H       18.8394643   13.8829416   19.0376609
| 39>     H       17.6337230   12.4835376   20.7009589
| 40>     H       15.8611762   13.5087888   22.1282966
| 41>     H       14.7956604   15.3528304   22.6433284
| 42>     H       16.5175820   17.3171990   20.2474814
| 43> *
| 44>
| 45>                          ****END OF INPUT****

CARTESIAN COORDINATES (ANGSTROEM)
---------------------------------
  C     15.137730   14.103964   15.394855
  C     16.128759   13.966917   16.570629
  O     17.046229   15.078876   16.718129
  C     16.725960   16.407882   16.595546
  O     15.800594   16.826934   15.923932
  C     17.533120   17.267544   17.531807
  C     17.420007   18.620506   17.559324
  C     16.518012   19.485146   16.704313
  N     18.218788   19.374426   18.424418
  C     19.218374   18.868066   19.211029
  S     20.180992   19.842272   20.138549
  N     19.384421   17.507159   19.188432
  C     18.500682   16.554389   18.492538
  C     17.761685   15.698257   19.517602
  C     18.070787   14.332387   19.660646
  C     17.388052   13.539104   20.598050
  C     16.390403   14.116682   21.401816
  C     16.084309   15.477817   21.266335
  O     15.123062   16.038744   22.042391
  C     16.764873   16.264447   20.331955
  H     14.337546   14.817112   15.628201
  H     14.663566   13.137991   15.184159
  H     15.652717   14.435850   14.484618
  H     15.552040   13.854025   17.498258
  H     16.714796   13.048523   16.438677
  H     15.463552   19.253838   16.902650
  H     16.698826   19.296737   15.638424
  H     16.660646   20.558126   16.877864
  H     18.111630   20.375769   18.453321
  H     20.104684   17.160123   19.808548
  H     19.142549   15.897089   17.889259
  H     18.839464   13.882942   19.037661
  H     17.633723   12.483538   20.700959
  H     15.861176   13.508789   22.128297
  H     14.795660   15.352830   22.643328
  H     16.517582   17.317199   20.247481

 Total Charge           Charge          ....    0
 Multiplicity           Mult            ....    1
 Number of Electrons    NEL             ....  154
 Basis Dimension        Dim             ....  828

ORBITAL ENERGIES
----------------

  NO   OCC          E(Eh)            E(eV)
   0   2.0000     -91.888223     -2500.4057
   1   2.0000     -20.597095      -560.4755
   2   2.0000     -20.595419      -560.4298
   3   2.0000     -20.541847      -558.9721
   4   2.0000     -15.628270      -425.2668
   5   2.0000     -15.607510      -424.7019
   6   2.0000     -11.397166      -310.1327
   7   2.0000     -11.383248      -309.7539
   8   2.0000     -11.334904      -308.4384
   9   2.0000     -11.314352      -307.8792
  10   2.0000     -11.308135      -307.7100
  11   2.0000     -11.301399      -307.5267
  12   2.0000     -11.259973      -306.3994
  13   2.0000     -11.257951      -306.3444
  14   2.0000     -11.255827      -306.2866
  15   2.0000     -11.251523      -306.1695
  16   2.0000     -11.243446      -305.9497
  17   2.0000     -11.238635      -305.8188
  18   2.0000     -11.238420      -305.8130
  19   2.0000     -11.220096      -305.3143
  20   2.0000      -8.893295      -241.9989
  21   2.0000      -6.574872      -178.9114
  22   2.0000      -6.572865      -178.8568
  23   2.0000      -6.572280      -178.8408
  24   2.0000      -1.443523       -39.2803
  25   2.0000      -1.416737       -38.5514
  26   2.0000      -1.354509       -36.8581
  27   2.0000      -1.339367       -36.4460
  28   2.0000      -1.237884       -33.6845
  29   2.0000      -1.157685       -31.5022
  30   2.0000      -1.119240       -30.4561
  31   2.0000      -1.042382       -28.3647
  32   2.0000      -1.034831       -28.1592
  33   2.0000      -1.015478       -27.6326
  34   2.0000      -0.994694       -27.0670
  35   2.0000      -0.983034       -26.7497
  36   2.0000      -0.922060       -25.0905
  37   2.0000      -0.894802       -24.3488
  38   2.0000      -0.846856       -23.0441
  39   2.0000      -0.838133       -22.8067
  40   2.0000      -0.834345       -22.7037
  41   2.0000      -0.819322       -22.2949
  42   2.0000      -0.747028       -20.3277
  43   2.0000      -0.730781       -19.8856
  44   2.0000      -0.718507       -19.5516
  45   2.0000      -0.695906       -18.9366
  46   2.0000      -0.687793       -18.7158
  47   2.0000      -0.678046       -18.4506
  48   2.0000      -0.668186       -18.1823
  49   2.0000      -0.658754       -17.9256
  50   2.0000      -0.650474       -17.7003
  51   2.0000      -0.644770       -17.5451
  52   2.0000      -0.634803       -17.2739
  53   2.0000      -0.607328       -16.5262
  54   2.0000      -0.600924       -16.3520
  55   2.0000      -0.598831       -16.2950
  56   2.0000      -0.596246       -16.2247
  57   2.0000      -0.582259       -15.8441
  58   2.0000      -0.575578       -15.6623
  59   2.0000      -0.570357       -15.5202
  60   2.0000      -0.562142       -15.2967
  61   2.0000      -0.538577       -14.6554
  62   2.0000      -0.534907       -14.5556
  63   2.0000      -0.524740       -14.2789
  64   2.0000      -0.521876       -14.2010
  65   2.0000      -0.512601       -13.9486
  66   2.0000      -0.501032       -13.6338
  67   2.0000      -0.498462       -13.5638
  68   2.0000      -0.484043       -13.1715
  69   2.0000      -0.463346       -12.6083
  70   2.0000      -0.453346       -12.3362
  71   2.0000      -0.439036       -11.9468
  72   2.0000      -0.353259        -9.6127
  73   2.0000      -0.349675        -9.5151
  74   2.0000      -0.327761        -8.9188
  75   2.0000      -0.321864        -8.7584
  76   2.0000      -0.315546        -8.5864
  77   0.0000       0.075949         2.0667
  78   0.0000       0.106374         2.8946
  79   0.0000       0.124863         3.3977
  80   0.0000       0.132603         3.6083
  81   0.0000       0.137995         3.7550

MULLIKEN ATOMIC CHARGES
-----------------------
   0 C :   -0.280820
   1 C :    0.046524
   2 O :   -0.374350
   3 C :    0.459926
   4 O :   -0.428072
   5 C :   -0.210181
   6 C :    0.151112
   7 C :   -0.272211
   8 N :   -0.121268
   9 C :    0.213042
  10 S :   -0.441434
  11 N :   -0.205703
  12 C :    0.063250
  13 C :    0.063109
  14 C :   -0.191690
  15 C :   -0.130267
  16 C :   -0.280981
  17 C :    0.316053
  18 O :   -0.356145
  19 C :   -0.268932
  20 H :    0.114039
  21 H :    0.093398
  22 H :    0.101266
  23 H :    0.094948
  24 H :    0.098415
  25 H :    0.131900
  26 H :    0.130050
  27 H :    0.095118
  28 H :    0.197229
  29 H :    0.194568
  30 H :    0.149027
  31 H :    0.151296
  32 H :    0.160857
  33 H :    0.130620
  34 H :    0.240754
  35 H :    0.165550
Sum of atomic charges:   -0.0000000

LOEWDIN ATOMIC CHARGES
----------------------
   0 C :    0.102600
   1 C :   -0.011408
   2 O :    0.293385
   3 C :   -0.412074
   4 O :    0.110189
   5 C :   -0.094498
   6 C :   -0.059421
   7 C :    0.130712
   8 N :    0.406412
   9 C :   -0.456484
  10 S :   -0.036541
  11 N :    0.396289
  12 C :   -0.052533
  13 C :   -0.037726
  14 C :    0.014248
  15 C :    0.038633
  16 C :   -0.002881
  17 C :   -0.189694
  18 O :    0.395442
  19 C :    0.030910
  20 H :   -0.026483
  21 H :   -0.029641
  22 H :   -0.024772
  23 H :   -0.028670
  24 H :   -0.024995
  25 H :   -0.004954
  26 H :   -0.004327
  27 H :   -0.023561
  28 H :   -0.057730
  29 H :   -0.064792
  30 H :   -0.010986
  31 H :   -0.030210
  32 H :   -0.021336
  33 H :   -0.035627
  34 H :   -0.153841
  35 H :   -0.023634

  Mayer bond orders larger than 0.100000
B(  0-C ,  1-C ) :   0.9811 B(  0-C , 20-H ) :   0.9727 B(  0-C , 21-H ) :   0.9758
B(  0-C , 22-H ) :   0.9756 B(  1-C ,  2-O ) :   0.8915 B(  1-C , 23-H ) :   0.9719
B(  1-C , 24-H ) :   0.9819 B(  2-O ,  3-C ) :   1.1252 B(  3-C ,  4-O ) :   1.9800
B(  3-C ,  5-C ) :   1.0703 B(  5-C ,  6-C ) :   1.6546 B(  5-C , 12-C ) :   0.9747
B(  6-C ,  7-C ) :   0.9671 B(  6-C ,  8-N ) :   1.1607 B(  7-C , 25-H ) :   0.9597
B(  7-C , 26-H ) :   0.9609 B(  7-C , 27-H ) :   0.9910 B(  8-N ,  9-C ) :   1.1837
B(  8-N , 28-H ) :   0.9478 B(  9-C , 10-S ) :   1.6054 B(  9-C , 11-N ) :   1.3062
B( 11-N , 12-C ) :   0.9834 B( 11-N , 29-H ) :   0.9516 B( 12-C , 13-C ) :   0.9352
B( 12-C , 30-H ) :   1.0021 B( 13-C , 14-C ) :   1.3528 B( 13-C , 19-C ) :   1.3840
B( 14-C , 15-C ) :   1.3909 B( 14-C , 31-H ) :   0.9726 B( 15-C , 16-C ) :   1.3626
B( 15-C , 32-H ) :   0.9706 B( 16-C , 17-C ) :   1.3312 B( 16-C , 33-H ) :   0.9850
B( 17-C , 18-O ) :   1.1110 B( 17-C , 19-C ) :   1.3712 B( 18-O , 34-H ) :   0.9798
B( 19-C , 35-H ) :   0.9582

MP2 TOTAL ENERGY:    -1274.338318899 Eh
FINAL SINGLE POINT ENERGY     -1274.338318898769

DIPOLE MOMENT
-------------
                                X             Y             Z
Electronic contribution:     10.11507      10.00817       9.06824
Nuclear contribution   :    -11.13295     -11.76226      -9.36950
                        -----------------------------------------
Total Dipole Moment    :     -1.01788      -1.75409      -0.30126
                        -----------------------------------------
Magnitude (a.u.)       :      2.05028
Magnitude (Debye)      :      5.21141

Rotational constants in cm-1:     0.011646     0.008702     0.006110
Rotational constants in MHz :   349.142272   260.889457   183.170473

                             ****ORCA TERMINATED NORMALLY****
TOTAL RUN TIME: 0 days 1 hours 39 minutes 54 seconds 828 msec
