                         Program Version 4.2.0 -  RELEASE  -
|  1> ! ri-mp2 cc-pvtz cc-pvtz/c TightSCF  NoKeepInts
|  2>
|  3> %scf
|  4>   MaxCore 4096
|  5> end
|  6> *xyz  0  1
|  7>     C       15.1316810   14.2109414   16.7346925
|  8>     C       15.5905403   14.9471798   15.4548531
|  9>     O       16.4472421   16.0624191   15.7785403
| 10>     C       17.5496678   15.8977436   16.5674788
| 11>     O       18.1455799   14.8354181   16.6415466
| 12>     C       17.8313945   17.0467206   17.4913597
| 13>     C       17.3718767   18.3142695   17.3243171
| 14>     C       16.5275214   18.8581605   16.1902522
| 15>     N       17.7335420   19.3094893   18.2382994
| 16>     C       18.6391169   19.1513044   19.2539400
| 17>     S       19.0921010   20.4136100   20.2219542
| 18>     N       19.1500747   17.8901483   19.4270468
| 19>     C       18.6940073   16.6873945   18.7055804
| 20>     C       17.9376381   15.7523650   19.6457400
| 21>     C       18.3376385   14.4112543   19.7918680
| 22>     C       17.6344755   13.5425085   20.6431164
| 23>     C       16.5201175   14.0176963   21.3551385
| 24>     C       16.1160475   15.3516976   21.2095946
| 25>     O       15.0354809   15.8114878   21.8894521
| 26>     C       16.8178380   16.2139514   20.3614765
| 27>     H       15.9568771   13.6668843   17.2106071
| 28>     H       14.3523942   13.4787955   16.4915610
| 29>     H       14.7177990   14.9185492   17.4639542
| 30>     H       16.1255685   14.2423853   14.8041563
| 31>     H       14.7123510   15.3133071   14.9078923
| 32>     H       15.5014726   18.4748933   16.2537657
| 33>     H       16.9405268   18.5593788   15.2186696
| 34>     H       16.4722831   19.9535016   16.1915138
| 35>     H       17.3694203   20.2424348   18.1288280
| 36>     H       19.7915275   17.7930556   20.2035958
| 37>     H       19.5868275   16.1607270   18.3384661
| 38>     H       19.1870489   14.0361088   19.2261453
| 39>     H       17.9505894   12.5056237   20.7420435
| 40>     H       15.9727671   13.3494899   22.0115178
| 41>     H       14.7168386   15.0881614   22.4499094
| 42>     H       16.4891269   17.2429436   20.2651268
| 43> *
| 44>
| 45>                          ****END OF INPUT****

CARTESIAN COORDINATES (ANGSTROEM)
---------------------------------
  C     15.131681   14.210941   16.734693
  C     15.590540   14.947180   15.454853
  O     16.447242   16.062419   15.778540
  C     17.549668   15.897744   16.567479
  O     18.145580   14.835418   16.641547
  C     17.831394   17.046721   17.491360
  C     17.371877   18.314270   17.324317
  C     16.527521   18.858161   16.190252
  N     17.733542   19.309489   18.238299
  C     18.639117   19.151304   19.253940
  S     19.092101   20.413610   20.221954
  N     19.150075   17.890148   19.427047
  C     18.694007   16.687394   18.705580
  C     17.937638   15.752365   19.645740
  C     18.337638   14.411254   19.791868
  C     17.634476   13.542509   20.643116
  C     16.520118   14.017696   21.355138
  C     16.116048   15.351698   21.209595
  O     15.035481   15.811488   21.889452
  C     16.817838   16.213951   20.361476
  H     15.956877   13.666884   17.210607
  H     14.352394   13.478795   16.491561
  H     14.717799   14.918549   17.463954
  H     16.125568   14.242385   14.804156
  H     14.712351   15.313307   14.907892
  H     15.501473   18.474893   16.253766
  H     16.940527   18.559379   15.218670
  H     16.472283   19.953502   16.191514
  H     17.369420   20.242435   18.128828
  H     19.791528   17.793056   20.203596
  H     19.586827   16.160727   18.338466
  H     19.187049   14.036109   19.226145
  H     17.950589   12.505624   20.742044
  H     15.972767   13.349490   22.011518
  H     14.716839   15.088161   22.449909
  H     16.489127   17.242944   20.265127

 Total Charge           Charge          ....    0
 Multiplicity           Mult            ....    1
 Number of Electrons    NEL             ....  154
 Basis Dimension        Dim             ....  828

ORBITAL ENERGIES
----------------

  NO   OCC          E(Eh)            E(eV)
   0   2.0000     -91.888263     -2500.4068
   1   2.0000     -20.597691      -560.4917
   2   2.0000     -20.593331      -560.3730
   3   2.0000     -20.546672      -559.1034
   4   2.0000     -15.628356      -425.2692
   5   2.0000     -15.607245      -424.6947
   6   2.0000     -11.395954      -310.0997
   7   2.0000     -11.383345      -309.7566
   8   2.0000     -11.335763      -308.4618
   9   2.0000     -11.309277      -307.7411
  10   2.0000     -11.306272      -307.6593
  11   2.0000     -11.302076      -307.5451
  12   2.0000     -11.260117      -306.4034
  13   2.0000     -11.258666      -306.3639
  14   2.0000     -11.254882      -306.2609
  15   2.0000     -11.249437      -306.1127
  16   2.0000     -11.239087      -305.8311
  17   2.0000     -11.235079      -305.7220
  18   2.0000     -11.232115      -305.6414
  19   2.0000     -11.224766      -305.4414
  20   2.0000      -8.893328      -241.9998
  21   2.0000      -6.574906      -178.9123
  22   2.0000      -6.572899      -178.8577
  23   2.0000      -6.572314      -178.8417
  24   2.0000      -1.451077       -39.4858
  25   2.0000      -1.413092       -38.4522
  26   2.0000      -1.356053       -36.9001
  27   2.0000      -1.339361       -36.4459
  28   2.0000      -1.237246       -33.6672
  29   2.0000      -1.153776       -31.3958
  30   2.0000      -1.120034       -30.4777
  31   2.0000      -1.042390       -28.3649
  32   2.0000      -1.032472       -28.0950
  33   2.0000      -1.011062       -27.5124
  34   2.0000      -0.998040       -27.1581
  35   2.0000      -0.983544       -26.7636
  36   2.0000      -0.922210       -25.0946
  37   2.0000      -0.895591       -24.3703
  38   2.0000      -0.847901       -23.0725
  39   2.0000      -0.836210       -22.7544
  40   2.0000      -0.829558       -22.5734
  41   2.0000      -0.815847       -22.2003
  42   2.0000      -0.748208       -20.3598
  43   2.0000      -0.734694       -19.9920
  44   2.0000      -0.725923       -19.7534
  45   2.0000      -0.691695       -18.8220
  46   2.0000      -0.685518       -18.6539
  47   2.0000      -0.677874       -18.4459
  48   2.0000      -0.671723       -18.2785
  49   2.0000      -0.656332       -17.8597
  50   2.0000      -0.653638       -17.7864
  51   2.0000      -0.644790       -17.5456
  52   2.0000      -0.632535       -17.2122
  53   2.0000      -0.616089       -16.7646
  54   2.0000      -0.601499       -16.3676
  55   2.0000      -0.600835       -16.3496
  56   2.0000      -0.596776       -16.2391
  57   2.0000      -0.578770       -15.7491
  58   2.0000      -0.574756       -15.6399
  59   2.0000      -0.563851       -15.3432
  60   2.0000      -0.555644       -15.1198
  61   2.0000      -0.545554       -14.8453
  62   2.0000      -0.536147       -14.5893
  63   2.0000      -0.527940       -14.3660
  64   2.0000      -0.518073       -14.0975
  65   2.0000      -0.509617       -13.8674
  66   2.0000      -0.499079       -13.5806
  67   2.0000      -0.495322       -13.4784
  68   2.0000      -0.480668       -13.0796
  69   2.0000      -0.463766       -12.6197
  70   2.0000      -0.458715       -12.4823
  71   2.0000      -0.450405       -12.2561
  72   2.0000      -0.353988        -9.6325
  73   2.0000      -0.345533        -9.4024
  74   2.0000      -0.327462        -8.9107
  75   2.0000      -0.316588        -8.6148
  76   2.0000      -0.314910        -8.5691
  77   0.0000       0.075162         2.0453
  78   0.0000       0.110235         2.9996
  79   0.0000       0.120830         3.2880
  80   0.0000       0.134310         3.6548
  81   0.0000       0.142333         3.8731

MULLIKEN ATOMIC CHARGES
-----------------------
   0 C :   -0.315229
   1 C :    0.042867
   2 O :   -0.362112
   3 C :    0.448525
   4 O :   -0.426988
   5 C :   -0.175838
   6 C :    0.144826
   7 C :   -0.282391
   8 N :   -0.122712
   9 C :    0.203626
  10 S :   -0.439632
  11 N :   -0.200455
  12 C :    0.047463
  13 C :    0.052798
  14 C :   -0.166223
  15 C :   -0.133968
  16 C :   -0.279806
  17 C :    0.313767
  18 O :   -0.359357
  19 C :   -0.276141
  20 H :    0.129416
  21 H :    0.099591
  22 H :    0.097805
  23 H :    0.103394
  24 H :    0.106499
  25 H :    0.125261
  26 H :    0.127290
  27 H :    0.101812
  28 H :    0.196886
  29 H :    0.194278
  30 H :    0.153633
  31 H :    0.155275
  32 H :    0.160455
  33 H :    0.129098
  34 H :    0.240357
  35 H :    0.165929
Sum of atomic charges:   -0.0000000

LOEWDIN ATOMIC CHARGES
----------------------
   0 C :    0.106021
   1 C :   -0.014862
   2 O :    0.297674
   3 C :   -0.414637
   4 O :    0.108509
   5 C :   -0.091655
   6 C :   -0.067273
   7 C :    0.125443
   8 N :    0.404693
   9 C :   -0.458182
  10 S :   -0.036182
  11 N :    0.397761
  12 C :   -0.046118
  13 C :   -0.039601
  14 C :    0.022030
  15 C :    0.040545
  16 C :   -0.002230
  17 C :   -0.192930
  18 O :    0.393242
  19 C :    0.028769
  20 H :   -0.023844
  21 H :   -0.026507
  22 H :   -0.028642
  23 H :   -0.028491
  24 H :   -0.025193
  25 H :   -0.010067
  26 H :   -0.007784
  27 H :   -0.020939
  28 H :   -0.059028
  29 H :   -0.063741
  30 H :   -0.005145
  31 H :   -0.025115
  32 H :   -0.021000
  33 H :   -0.036125
  34 H :   -0.154620
  35 H :   -0.024779

  Mayer bond orders larger than 0.100000
B(  0-C ,  1-C ) :   0.9592 B(  0-C , 20-H ) :   0.9703 B(  0-C , 21-H ) :   0.9766
B(  0-C , 22-H ) :   0.9741 B(  1-C ,  2-O ) :   0.8978 B(  1-C , 23-H ) :   0.9826
B(  1-C , 24-H ) :   0.9839 B(  2-O ,  3-C ) :   1.1312 B(  3-C ,  4-O ) :   1.9914
B(  3-C ,  5-C ) :   1.0468 B(  5-C ,  6-C ) :   1.6507 B(  5-C , 12-C ) :   0.9649
B(  6-C ,  7-C ) :   0.9544 B(  6-C ,  8-N ) :   1.1479 B(  7-C , 25-H ) :   0.9636
B(  7-C , 26-H ) :   0.9664 B(  7-C , 27-H ) :   0.9906 B(  8-N ,  9-C ) :   1.1805
B(  8-N , 28-H ) :   0.9489 B(  9-C , 10-S ) :   1.6102 B(  9-C , 11-N ) :   1.3035
B( 11-N , 12-C ) :   0.9922 B( 11-N , 29-H ) :   0.9516 B( 12-C , 13-C ) :   0.9444
B( 12-C , 30-H ) :   0.9997 B( 13-C , 14-C ) :   1.3755 B( 13-C , 19-C ) :   1.3691
B( 14-C , 15-C ) :   1.3934 B( 14-C , 31-H ) :   0.9643 B( 15-C , 16-C ) :   1.3623
B( 15-C , 32-H ) :   0.9709 B( 16-C , 17-C ) :   1.3319 B( 16-C , 33-H ) :   0.9855
B( 17-C , 18-O ) :   1.1083 B( 17-C , 19-C ) :   1.3756 B( 18-O , 34-H ) :   0.9803
B( 19-C , 35-H ) :   0.9583

MP2 TOTAL ENERGY:    -1274.343892225 Eh
FINAL SINGLE POINT ENERGY     -1274.343892225474

DIPOLE MOMENT
-------------
                                X             Y             Z
Electronic contribution:     10.09806       9.92476       7.91463
Nuclear contribution   :    -11.58812     -11.19248      -8.87117
                        -----------------------------------------
Total Dipole Moment    :     -1.49006      -1.26771      -0.95654
                        -----------------------------------------
Magnitude (a.u.)       :      2.17770
Magnitude (Debye)      :      5.53526

Rotational constants in cm-1:     0.011412     0.009242     0.006323
Rotational constants in MHz :   342.129169   277.078349   189.571829

                             ****ORCA TERMINATED NORMALLY****
TOTAL RUN TIME: 0 days 1 hours 38 minutes 53 seconds 11 msec
