                         Program Version 4.2.0 -  RELEASE  -
|  1> ! ri-mp2 cc-pvtz cc-pvtz/c TightSCF  NoKeepInts
|  2>
|  3> %scf
|  4>   MaxCore 4096
|  5> end
|  6> *xyz  0  1
|  7>     C       15.3961504   14.0339742   17.1893778
|  8>     C       16.4858560   14.0658869   16.1011663
|  9>     O       17.4761768   15.0558380   16.4428122
| 10>     C       17.2002923   16.3761084   16.2175022
| 11>     O       16.4461171   16.7269982   15.3258807
| 12>     C       17.6534035   17.2697540   17.3400412
| 13>     C       17.3677046   18.5969948   17.3744275
| 14>     C       16.5479296   19.3878064   16.3771755
| 15>     N       17.8899954   19.3995185   18.3934820
| 16>     C       18.8267281   18.9917915   19.3053717
| 17>     S       19.5073131   20.0387260   20.3901728
| 18>     N       19.1823233   17.6678588   19.2639000
| 19>     C       18.5068904   16.6384241   18.4533253
| 20>     C       17.7016264   15.7276602   19.3747048
| 21>     C       18.1760811   14.4400660   19.6887648
| 22>     C       17.4556619   13.6049022   20.5595170
| 23>     C       16.2510686   14.0609040   21.1218406
| 24>     C       15.7783021   15.3443401   20.8151847
| 25>     O       14.6164585   15.7880334   21.3573451
| 26>     C       16.4987973   16.1743481   19.9508763
| 27>     H       15.8210280   13.7418534   18.1556784
| 28>     H       14.6178909   13.3068466   16.9287528
| 29>     H       14.9195922   15.0160731   17.2999143
| 30>     H       16.9634140   13.0790908   16.0510468
| 31>     H       16.0418859   14.2739024   15.1179126
| 32>     H       15.5279856   18.9874783   16.3136361
| 33>     H       16.9889402   19.3197585   15.3745283
| 34>     H       16.4700213   20.4510965   16.6324127
| 35>     H       17.6456834   20.3761780   18.4320357
| 36>     H       19.8515270   17.3895200   19.9698427
| 37>     H       19.2880173   16.0349622   17.9698388
| 38>     H       19.1072074   14.0850346   19.2553503
| 39>     H       17.8311589   12.6108332   20.7961980
| 40>     H       15.6909598   13.4197715   21.7945780
| 41>     H       14.2943539   15.1005064   21.9594458
| 42>     H       16.1224577   17.1691606   19.7399602
| 43> *
| 44>
| 45>                          ****END OF INPUT****

CARTESIAN COORDINATES (ANGSTROEM)
---------------------------------
  C     15.396150   14.033974   17.189378
  C     16.485856   14.065887   16.101166
  O     17.476177   15.055838   16.442812
  C     17.200292   16.376108   16.217502
  O     16.446117   16.726998   15.325881
  C     17.653403   17.269754   17.340041
  C     17.367705   18.596995   17.374427
  C     16.547930   19.387806   16.377175
  N     17.889995   19.399518   18.393482
  C     18.826728   18.991792   19.305372
  S     19.507313   20.038726   20.390173
  N     19.182323   17.667859   19.263900
  C     18.506890   16.638424   18.453325
  C     17.701626   15.727660   19.374705
  C     18.176081   14.440066   19.688765
  C     17.455662   13.604902   20.559517
  C     16.251069   14.060904   21.121841
  C     15.778302   15.344340   20.815185
  O     14.616459   15.788033   21.357345
  C     16.498797   16.174348   19.950876
  H     15.821028   13.741853   18.155678
  H     14.617891   13.306847   16.928753
  H     14.919592   15.016073   17.299914
  H     16.963414   13.079091   16.051047
  H     16.041886   14.273902   15.117913
  H     15.527986   18.987478   16.313636
  H     16.988940   19.319758   15.374528
  H     16.470021   20.451096   16.632413
  H     17.645683   20.376178   18.432036
  H     19.851527   17.389520   19.969843
  H     19.288017   16.034962   17.969839
  H     19.107207   14.085035   19.255350
  H     17.831159   12.610833   20.796198
  H     15.690960   13.419771   21.794578
  H     14.294354   15.100506   21.959446
  H     16.122458   17.169161   19.739960

 Total Charge           Charge          ....    0
 Multiplicity           Mult            ....    1
 Number of Electrons    NEL             ....  154
 Basis Dimension        Dim             ....  828

ORBITAL ENERGIES
----------------

  NO   OCC          E(Eh)            E(eV)
   0   2.0000     -91.889482     -2500.4399
   1   2.0000     -20.598662      -560.5181
   2   2.0000     -20.594957      -560.4173
   3   2.0000     -20.542865      -558.9998
   4   2.0000     -15.630045      -425.3151
   5   2.0000     -15.608562      -424.7306
   6   2.0000     -11.394572      -310.0621
   7   2.0000     -11.384347      -309.7838
   8   2.0000     -11.336977      -308.4948
   9   2.0000     -11.315895      -307.9212
  10   2.0000     -11.309896      -307.7579
  11   2.0000     -11.294320      -307.3341
  12   2.0000     -11.261320      -306.4361
  13   2.0000     -11.259732      -306.3929
  14   2.0000     -11.257461      -306.3311
  15   2.0000     -11.252659      -306.2004
  16   2.0000     -11.244960      -305.9909
  17   2.0000     -11.239779      -305.8499
  18   2.0000     -11.239538      -305.8434
  19   2.0000     -11.220418      -305.3231
  20   2.0000      -8.894525      -242.0323
  21   2.0000      -6.576096      -178.9447
  22   2.0000      -6.574096      -178.8902
  23   2.0000      -6.573506      -178.8742
  24   2.0000      -1.449452       -39.4416
  25   2.0000      -1.418306       -38.5941
  26   2.0000      -1.352783       -36.8111
  27   2.0000      -1.341023       -36.4911
  28   2.0000      -1.239382       -33.7253
  29   2.0000      -1.159162       -31.5424
  30   2.0000      -1.120851       -30.4999
  31   2.0000      -1.043691       -28.4003
  32   2.0000      -1.033041       -28.1105
  33   2.0000      -1.017018       -27.6745
  34   2.0000      -0.996545       -27.1174
  35   2.0000      -0.984829       -26.7986
  36   2.0000      -0.923630       -25.1333
  37   2.0000      -0.892609       -24.2891
  38   2.0000      -0.847698       -23.0670
  39   2.0000      -0.839767       -22.8512
  40   2.0000      -0.835392       -22.7322
  41   2.0000      -0.814440       -22.1620
  42   2.0000      -0.755301       -20.5528
  43   2.0000      -0.733709       -19.9652
  44   2.0000      -0.722809       -19.6686
  45   2.0000      -0.697859       -18.9897
  46   2.0000      -0.689632       -18.7658
  47   2.0000      -0.677922       -18.4472
  48   2.0000      -0.669240       -18.2110
  49   2.0000      -0.665150       -18.0996
  50   2.0000      -0.648640       -17.6504
  51   2.0000      -0.643186       -17.5020
  52   2.0000      -0.635132       -17.2828
  53   2.0000      -0.609473       -16.5846
  54   2.0000      -0.605386       -16.4734
  55   2.0000      -0.600656       -16.3447
  56   2.0000      -0.599759       -16.3203
  57   2.0000      -0.579340       -15.7646
  58   2.0000      -0.571111       -15.5407
  59   2.0000      -0.566401       -15.4126
  60   2.0000      -0.556075       -15.1316
  61   2.0000      -0.545022       -14.8308
  62   2.0000      -0.535499       -14.5717
  63   2.0000      -0.529043       -14.3960
  64   2.0000      -0.527028       -14.3412
  65   2.0000      -0.513874       -13.9832
  66   2.0000      -0.503145       -13.6913
  67   2.0000      -0.499586       -13.5944
  68   2.0000      -0.477589       -12.9959
  69   2.0000      -0.464441       -12.6381
  70   2.0000      -0.452869       -12.3232
  71   2.0000      -0.445254       -12.1160
  72   2.0000      -0.355836        -9.6828
  73   2.0000      -0.351458        -9.5637
  74   2.0000      -0.329029        -8.9533
  75   2.0000      -0.323797        -8.8110
  76   2.0000      -0.316744        -8.6191
  77   0.0000       0.073434         1.9982
  78   0.0000       0.104987         2.8568
  79   0.0000       0.122963         3.3460
  80   0.0000       0.131331         3.5737
  81   0.0000       0.136201         3.7062

MULLIKEN ATOMIC CHARGES
-----------------------
   0 C :   -0.313273
   1 C :    0.027896
   2 O :   -0.370180
   3 C :    0.457660
   4 O :   -0.427604
   5 C :   -0.228343
   6 C :    0.153274
   7 C :   -0.269719
   8 N :   -0.123391
   9 C :    0.214208
  10 S :   -0.439288
  11 N :   -0.204902
  12 C :    0.053202
  13 C :    0.069853
  14 C :   -0.190113
  15 C :   -0.132212
  16 C :   -0.280749
  17 C :    0.312875
  18 O :   -0.358415
  19 C :   -0.254688
  20 H :    0.106301
  21 H :    0.110500
  22 H :    0.106793
  23 H :    0.109394
  24 H :    0.119731
  25 H :    0.130672
  26 H :    0.132750
  27 H :    0.095019
  28 H :    0.198134
  29 H :    0.194061
  30 H :    0.150340
  31 H :    0.149208
  32 H :    0.161435
  33 H :    0.131379
  34 H :    0.241420
  35 H :    0.166774
Sum of atomic charges:   -0.0000000

LOEWDIN ATOMIC CHARGES
----------------------
   0 C :    0.105131
   1 C :   -0.016205
   2 O :    0.297538
   3 C :   -0.415784
   4 O :    0.101302
   5 C :   -0.095787
   6 C :   -0.058107
   7 C :    0.131239
   8 N :    0.407103
   9 C :   -0.455786
  10 S :   -0.034512
  11 N :    0.396553
  12 C :   -0.052505
  13 C :   -0.036543
  14 C :    0.011595
  15 C :    0.039855
  16 C :   -0.002599
  17 C :   -0.189205
  18 O :    0.396289
  19 C :    0.033166
  20 H :   -0.026651
  21 H :   -0.026619
  22 H :   -0.027296
  23 H :   -0.025468
  24 H :   -0.028668
  25 H :   -0.005163
  26 H :   -0.003468
  27 H :   -0.023353
  28 H :   -0.057489
  29 H :   -0.065165
  30 H :   -0.008720
  31 H :   -0.030004
  32 H :   -0.020766
  33 H :   -0.035356
  34 H :   -0.153325
  35 H :   -0.025226

  Mayer bond orders larger than 0.100000
B(  0-C ,  1-C ) :   0.9600 B(  0-C , 20-H ) :   0.9725 B(  0-C , 21-H ) :   0.9781
B(  0-C , 22-H ) :   0.9743 B(  1-C ,  2-O ) :   0.8858 B(  1-C , 23-H ) :   0.9849
B(  1-C , 24-H ) :   0.9798 B(  2-O ,  3-C ) :   1.1394 B(  3-C ,  4-O ) :   1.9805
B(  3-C ,  5-C ) :   1.0638 B(  5-C ,  6-C ) :   1.6525 B(  5-C , 12-C ) :   0.9738
B(  6-C ,  7-C ) :   0.9683 B(  6-C ,  8-N ) :   1.1609 B(  7-C , 25-H ) :   0.9612
B(  7-C , 26-H ) :   0.9590 B(  7-C , 27-H ) :   0.9901 B(  8-N ,  9-C ) :   1.1813
B(  8-N , 28-H ) :   0.9478 B(  9-C , 10-S ) :   1.6070 B(  9-C , 11-N ) :   1.3066
B( 11-N , 12-C ) :   0.9731 B( 11-N , 29-H ) :   0.9528 B( 12-C , 13-C ) :   0.9407
B( 12-C , 30-H ) :   1.0030 B( 13-C , 14-C ) :   1.3527 B( 13-C , 19-C ) :   1.3744
B( 14-C , 15-C ) :   1.3897 B( 14-C , 31-H ) :   0.9731 B( 15-C , 16-C ) :   1.3602
B( 15-C , 32-H ) :   0.9716 B( 16-C , 17-C ) :   1.3317 B( 16-C , 33-H ) :   0.9852
B( 17-C , 18-O ) :   1.1117 B( 17-C , 19-C ) :   1.3710 B( 18-O , 34-H ) :   0.9794
B( 19-C , 35-H ) :   0.9577

MP2 TOTAL ENERGY:    -1274.346246781 Eh
FINAL SINGLE POINT ENERGY     -1274.346246780919

DIPOLE MOMENT
-------------
                                X             Y             Z
Electronic contribution:      8.96599      10.23355       5.79824
Nuclear contribution   :     -9.82570     -11.94516      -5.99065
                        -----------------------------------------
Total Dipole Moment    :     -0.85972      -1.71161      -0.19241
                        -----------------------------------------
Magnitude (a.u.)       :      1.92503
Magnitude (Debye)      :      4.89304

Rotational constants in cm-1:     0.012330     0.009071     0.006498
Rotational constants in MHz :   369.639314   271.927006   194.796052

                             ****ORCA TERMINATED NORMALLY****
TOTAL RUN TIME: 0 days 1 hours 48 minutes 31 seconds 632 msec
