                         Program Version 4.2.0 -  RELEASE  -
|  1> ! ri-mp2 cc-pvtz cc-pvtz/c TightSCF  NoKeepInts
|  2>
|  3> %scf
|  4>   MaxCore 4096
|  5> end
|  6> *xyz  0  1
|  7>     C       14.2888134   14.7378622   16.6180799
|  8>     C       15.4239846   15.6836404   17.0413129
|  9>     O       16.6140026   15.2448586   16.3606798
| 10>     C       17.8268456   15.8852751   16.4188164
| 11>     O       18.8290796   15.2849162   16.0786404
| 12>     C       17.9212294   17.0020305   17.4046747
| 13>     C       17.3888239   18.2225747   17.1682971
| 14>     C       16.6582400   18.6707442   15.9204492
| 15>     N       17.5715548   19.2516327   18.0942083
| 16>     C       18.3570356   19.1609030   19.2142971
| 17>     S       18.5672494   20.4463727   20.2326547
| 18>     N       18.9586680   17.9486473   19.4510142
| 19>     C       18.7488426   16.7204542   18.6577314
| 20>     C       18.1088480   15.6126772   19.4895182
| 21>     C       18.5197227   14.2784260   19.3152579
| 22>     C       17.9211457   13.2419965   20.0504402
| 23>     C       16.8995625   13.5402284   20.9677817
| 24>     C       16.4825966   14.8666466   21.1406426
| 25>     O       15.4860802   15.1566934   22.0142091
| 26>     C       17.0794986   15.8969472   20.4069947
| 27>     H       13.3494267   15.0166091   17.1107300
| 28>     H       14.5278442   13.7032427   16.8951544
| 29>     H       14.1349570   14.7775153   15.5324859
| 30>     H       15.1505475   16.7055028   16.7607446
| 31>     H       15.5597705   15.6351272   18.1291906
| 32>     H       16.5879709   17.8772474   15.1662423
| 33>     H       17.1831948   19.5104179   15.4468620
| 34>     H       15.6384577   19.0007050   16.1542636
| 35>     H       17.1561231   20.1551992   17.9289535
| 36>     H       19.5189050   17.9072849   20.2932068
| 37>     H       19.7368180   16.3660790   18.3276930
| 38>     H       19.2971462   14.0418848   18.5913833
| 39>     H       18.2456533   12.2134747   19.9011610
| 40>     H       16.4324719   12.7416950   21.5347797
| 41>     H       15.2415497   14.3316278   22.4603864
| 42>     H       16.7343395   16.9148601   20.5550623
| 43> *
| 44>
| 45>                          ****END OF INPUT****

CARTESIAN COORDINATES (ANGSTROEM)
---------------------------------
  C     14.288813   14.737862   16.618080
  C     15.423985   15.683640   17.041313
  O     16.614003   15.244859   16.360680
  C     17.826846   15.885275   16.418816
  O     18.829080   15.284916   16.078640
  C     17.921229   17.002031   17.404675
  C     17.388824   18.222575   17.168297
  C     16.658240   18.670744   15.920449
  N     17.571555   19.251633   18.094208
  C     18.357036   19.160903   19.214297
  S     18.567249   20.446373   20.232655
  N     18.958668   17.948647   19.451014
  C     18.748843   16.720454   18.657731
  C     18.108848   15.612677   19.489518
  C     18.519723   14.278426   19.315258
  C     17.921146   13.241997   20.050440
  C     16.899562   13.540228   20.967782
  C     16.482597   14.866647   21.140643
  O     15.486080   15.156693   22.014209
  C     17.079499   15.896947   20.406995
  H     13.349427   15.016609   17.110730
  H     14.527844   13.703243   16.895154
  H     14.134957   14.777515   15.532486
  H     15.150547   16.705503   16.760745
  H     15.559770   15.635127   18.129191
  H     16.587971   17.877247   15.166242
  H     17.183195   19.510418   15.446862
  H     15.638458   19.000705   16.154264
  H     17.156123   20.155199   17.928953
  H     19.518905   17.907285   20.293207
  H     19.736818   16.366079   18.327693
  H     19.297146   14.041885   18.591383
  H     18.245653   12.213475   19.901161
  H     16.432472   12.741695   21.534780
  H     15.241550   14.331628   22.460386
  H     16.734340   16.914860   20.555062

 Total Charge           Charge          ....    0
 Multiplicity           Mult            ....    1
 Number of Electrons    NEL             ....  154
 Basis Dimension        Dim             ....  828

ORBITAL ENERGIES
----------------

  NO   OCC          E(Eh)            E(eV)
   0   2.0000     -91.889846     -2500.4498
   1   2.0000     -20.601561      -560.5970
   2   2.0000     -20.599980      -560.5539
   3   2.0000     -20.551286      -559.2289
   4   2.0000     -15.626190      -425.2102
   5   2.0000     -15.611862      -424.8204
   6   2.0000     -11.397796      -310.1498
   7   2.0000     -11.386774      -309.8499
   8   2.0000     -11.328120      -308.2538
   9   2.0000     -11.316966      -307.9503
  10   2.0000     -11.316066      -307.9258
  11   2.0000     -11.302170      -307.5477
  12   2.0000     -11.270881      -306.6963
  13   2.0000     -11.265168      -306.5408
  14   2.0000     -11.264177      -306.5139
  15   2.0000     -11.257077      -306.3206
  16   2.0000     -11.246173      -306.0239
  17   2.0000     -11.242224      -305.9165
  18   2.0000     -11.239270      -305.8361
  19   2.0000     -11.232738      -305.6583
  20   2.0000      -8.894969      -242.0444
  21   2.0000      -6.576559      -178.9573
  22   2.0000      -6.574530      -178.9021
  23   2.0000      -6.573958      -178.8865
  24   2.0000      -1.449565       -39.4447
  25   2.0000      -1.419810       -38.6350
  26   2.0000      -1.360402       -37.0184
  27   2.0000      -1.339903       -36.4606
  28   2.0000      -1.239949       -33.7407
  29   2.0000      -1.161555       -31.6075
  30   2.0000      -1.125886       -30.6369
  31   2.0000      -1.049481       -28.5578
  32   2.0000      -1.040418       -28.3112
  33   2.0000      -1.019329       -27.7374
  34   2.0000      -1.005542       -27.3622
  35   2.0000      -0.989477       -26.9250
  36   2.0000      -0.928250       -25.2590
  37   2.0000      -0.880556       -23.9612
  38   2.0000      -0.855912       -23.2906
  39   2.0000      -0.842094       -22.9145
  40   2.0000      -0.837516       -22.7900
  41   2.0000      -0.836713       -22.7681
  42   2.0000      -0.757316       -20.6076
  43   2.0000      -0.739712       -20.1286
  44   2.0000      -0.732100       -19.9215
  45   2.0000      -0.697631       -18.9835
  46   2.0000      -0.688477       -18.7344
  47   2.0000      -0.681317       -18.5396
  48   2.0000      -0.677734       -18.4421
  49   2.0000      -0.664515       -18.0824
  50   2.0000      -0.655935       -17.8489
  51   2.0000      -0.651349       -17.7241
  52   2.0000      -0.639743       -17.4083
  53   2.0000      -0.612531       -16.6678
  54   2.0000      -0.608052       -16.5459
  55   2.0000      -0.603810       -16.4305
  56   2.0000      -0.595138       -16.1945
  57   2.0000      -0.583994       -15.8913
  58   2.0000      -0.577713       -15.7204
  59   2.0000      -0.572150       -15.5690
  60   2.0000      -0.564520       -15.3614
  61   2.0000      -0.558163       -15.1884
  62   2.0000      -0.552174       -15.0254
  63   2.0000      -0.526771       -14.3342
  64   2.0000      -0.520434       -14.1617
  65   2.0000      -0.515388       -14.0244
  66   2.0000      -0.506604       -13.7854
  67   2.0000      -0.502614       -13.6768
  68   2.0000      -0.488121       -13.2824
  69   2.0000      -0.469356       -12.7718
  70   2.0000      -0.453844       -12.3497
  71   2.0000      -0.450952       -12.2710
  72   2.0000      -0.357339        -9.7237
  73   2.0000      -0.351706        -9.5704
  74   2.0000      -0.329578        -8.9683
  75   2.0000      -0.324793        -8.8381
  76   2.0000      -0.318533        -8.6677
  77   0.0000       0.088019         2.3951
  78   0.0000       0.104530         2.8444
  79   0.0000       0.111588         3.0365
  80   0.0000       0.128455         3.4954
  81   0.0000       0.130295         3.5455

MULLIKEN ATOMIC CHARGES
-----------------------
   0 C :   -0.261631
   1 C :    0.022039
   2 O :   -0.303178
   3 C :    0.388186
   4 O :   -0.380242
   5 C :   -0.173073
   6 C :    0.134505
   7 C :   -0.325967
   8 N :   -0.139780
   9 C :    0.205600
  10 S :   -0.441615
  11 N :   -0.220421
  12 C :    0.075531
  13 C :    0.022895
  14 C :   -0.196959
  15 C :   -0.132697
  16 C :   -0.274277
  17 C :    0.324757
  18 O :   -0.358211
  19 C :   -0.288395
  20 H :    0.088815
  21 H :    0.107203
  22 H :    0.099810
  23 H :    0.081389
  24 H :    0.113903
  25 H :    0.121553
  26 H :    0.143344
  27 H :    0.118911
  28 H :    0.195360
  29 H :    0.200347
  30 H :    0.166063
  31 H :    0.168833
  32 H :    0.164111
  33 H :    0.132656
  34 H :    0.241504
  35 H :    0.179133
Sum of atomic charges:   -0.0000000

LOEWDIN ATOMIC CHARGES
----------------------
   0 C :    0.111861
   1 C :   -0.025250
   2 O :    0.310393
   3 C :   -0.416826
   4 O :    0.125289
   5 C :   -0.079532
   6 C :   -0.105969
   7 C :    0.122096
   8 N :    0.401041
   9 C :   -0.455644
  10 S :   -0.038332
  11 N :    0.397416
  12 C :   -0.043216
  13 C :   -0.043359
  14 C :    0.022981
  15 C :    0.046132
  16 C :   -0.000264
  17 C :   -0.194444
  18 O :    0.394984
  19 C :    0.025943
  20 H :   -0.025210
  21 H :   -0.022973
  22 H :   -0.026273
  23 H :   -0.038591
  24 H :   -0.031120
  25 H :   -0.009171
  26 H :   -0.008762
  27 H :   -0.017696
  28 H :   -0.058015
  29 H :   -0.063714
  30 H :   -0.002019
  31 H :   -0.021567
  32 H :   -0.018182
  33 H :   -0.034573
  34 H :   -0.152891
  35 H :   -0.024540

  Mayer bond orders larger than 0.100000
B(  0-C ,  1-C ) :   0.9855 B(  0-C , 20-H ) :   0.9770 B(  0-C , 21-H ) :   0.9793
B(  0-C , 22-H ) :   0.9786 B(  1-C ,  2-O ) :   0.9130 B(  1-C , 23-H ) :   0.9710
B(  1-C , 24-H ) :   0.9602 B(  2-O ,  3-C ) :   1.1807 B(  3-C ,  4-O ) :   2.0937
B(  3-C ,  5-C ) :   0.9186 B(  5-C ,  6-C ) :   1.6906 B(  5-C , 12-C ) :   0.9594
B(  6-C ,  7-C ) :   0.9434 B(  6-C ,  8-N ) :   1.1154 B(  7-C , 25-H ) :   0.9822
B(  7-C , 26-H ) :   0.9664 B(  7-C , 27-H ) :   0.9680 B(  8-N ,  9-C ) :   1.1984
B(  8-N , 28-H ) :   0.9529 B(  9-C , 10-S ) :   1.6094 B(  9-C , 11-N ) :   1.2863
B( 11-N , 12-C ) :   0.9930 B( 11-N , 29-H ) :   0.9479 B( 12-C , 13-C ) :   0.9442
B( 12-C , 30-H ) :   0.9972 B( 13-C , 14-C ) :   1.3873 B( 13-C , 19-C ) :   1.3427
B( 14-C , 15-C ) :   1.3982 B( 14-C , 31-H ) :   0.9612 B( 15-C , 16-C ) :   1.3627
B( 15-C , 32-H ) :   0.9697 B( 16-C , 17-C ) :   1.3303 B( 16-C , 33-H ) :   0.9843
B( 17-C , 18-O ) :   1.1087 B( 17-C , 19-C ) :   1.3625 B( 18-O , 34-H ) :   0.9792
B( 19-C , 35-H ) :   0.9586

MP2 TOTAL ENERGY:    -1274.331211234 Eh
FINAL SINGLE POINT ENERGY     -1274.331211234471

DIPOLE MOMENT
-------------
                                X             Y             Z
Electronic contribution:     11.66988       7.22449       7.19068
Nuclear contribution   :    -13.27287      -8.21653      -7.57381
                        -----------------------------------------
Total Dipole Moment    :     -1.60299      -0.99204      -0.38312
                        -----------------------------------------
Magnitude (a.u.)       :      1.92367
Magnitude (Debye)      :      4.88958

Rotational constants in cm-1:     0.011798     0.009089     0.006702
Rotational constants in MHz :   353.695416   272.490152   200.913837

                             ****ORCA TERMINATED NORMALLY****
TOTAL RUN TIME: 0 days 1 hours 54 minutes 5 seconds 63 msec
