                         Program Version 4.2.0 -  RELEASE  -
|  1> ! ri-mp2 cc-pvtz cc-pvtz/c TightSCF  NoKeepInts
|  2>
|  3> %scf
|  4>   MaxCore 4096
|  5> end
|  6> *xyz  0  1
|  7>     C       15.1916550   13.9823077   15.3592547
|  8>     C       15.8431832   14.1541679   16.7478734
|  9>     O       16.9070014   15.1266148   16.7023926
| 10>     C       16.6469997   16.4661308   16.5910080
| 11>     O       15.6603858   16.9008297   16.0235486
| 12>     C       17.5031587   17.2882770   17.5164716
| 13>     C       17.4130111   18.6414948   17.5798052
| 14>     C       16.4930192   19.5385410   16.7792051
| 15>     N       18.2589159   19.3622658   18.4281295
| 16>     C       19.2868573   18.8225072   19.1538514
| 17>     S       20.3062422   19.7597748   20.0584515
| 18>     N       19.4324425   17.4604696   19.0887324
| 19>     C       18.4996033   16.5376273   18.4169525
| 20>     C       17.7928245   15.6755922   19.4597263
| 21>     C       18.0907244   14.3042362   19.5703007
| 22>     C       17.4364286   13.5048554   20.5226567
| 23>     C       16.4789549   14.0817562   21.3743177
| 24>     C       16.1844520   15.4482577   21.2713025
| 25>     O       15.2617546   16.0084572   22.0932678
| 26>     C       16.8363782   16.2409207   20.3217331
| 27>     H       14.5764113   14.8488715   15.0900580
| 28>     H       14.5394485   13.1008408   15.3529365
| 29>     H       15.9572929   13.8457974   14.5857002
| 30>     H       15.0868555   14.4486604   17.4880185
| 31>     H       16.2623405   13.1897209   17.0618206
| 32>     H       15.4441869   19.3359231   17.0315464
| 33>     H       16.6116562   19.3540554   15.7039619
| 34>     H       16.6764563   20.6054659   16.9519139
| 35>     H       18.1673919   20.3638567   18.4873318
| 36>     H       20.1765581   17.0882601   19.6645377
| 37>     H       19.0989586   15.8799367   17.7717450
| 38>     H       18.8279374   13.8551490   18.9100535
| 39>     H       17.6731447   12.4450360   20.6000047
| 40>     H       15.9719411   13.4690964   22.1125666
| 41>     H       14.9538188   15.3186603   22.7000729
| 42>     H       16.5986090   17.2975855   20.2627506
| 43> *
| 44>
| 45>                          ****END OF INPUT****

CARTESIAN COORDINATES (ANGSTROEM)
---------------------------------
  C     15.191655   13.982308   15.359255
  C     15.843183   14.154168   16.747873
  O     16.907001   15.126615   16.702393
  C     16.647000   16.466131   16.591008
  O     15.660386   16.900830   16.023549
  C     17.503159   17.288277   17.516472
  C     17.413011   18.641495   17.579805
  C     16.493019   19.538541   16.779205
  N     18.258916   19.362266   18.428129
  C     19.286857   18.822507   19.153851
  S     20.306242   19.759775   20.058451
  N     19.432443   17.460470   19.088732
  C     18.499603   16.537627   18.416953
  C     17.792824   15.675592   19.459726
  C     18.090724   14.304236   19.570301
  C     17.436429   13.504855   20.522657
  C     16.478955   14.081756   21.374318
  C     16.184452   15.448258   21.271303
  O     15.261755   16.008457   22.093268
  C     16.836378   16.240921   20.321733
  H     14.576411   14.848871   15.090058
  H     14.539448   13.100841   15.352936
  H     15.957293   13.845797   14.585700
  H     15.086855   14.448660   17.488018
  H     16.262341   13.189721   17.061821
  H     15.444187   19.335923   17.031546
  H     16.611656   19.354055   15.703962
  H     16.676456   20.605466   16.951914
  H     18.167392   20.363857   18.487332
  H     20.176558   17.088260   19.664538
  H     19.098959   15.879937   17.771745
  H     18.827937   13.855149   18.910053
  H     17.673145   12.445036   20.600005
  H     15.971941   13.469096   22.112567
  H     14.953819   15.318660   22.700073
  H     16.598609   17.297585   20.262751

 Total Charge           Charge          ....    0
 Multiplicity           Mult            ....    1
 Number of Electrons    NEL             ....  154
 Basis Dimension        Dim             ....  828

ORBITAL ENERGIES
----------------

  NO   OCC          E(Eh)            E(eV)
   0   2.0000     -91.888863     -2500.4231
   1   2.0000     -20.597620      -560.4897
   2   2.0000     -20.594314      -560.3998
   3   2.0000     -20.544480      -559.0437
   4   2.0000     -15.629029      -425.2875
   5   2.0000     -15.608215      -424.7211
   6   2.0000     -11.396082      -310.1032
   7   2.0000     -11.383936      -309.7727
   8   2.0000     -11.335534      -308.4556
   9   2.0000     -11.314947      -307.8954
  10   2.0000     -11.309217      -307.7394
  11   2.0000     -11.298751      -307.4547
  12   2.0000     -11.260635      -306.4174
  13   2.0000     -11.258775      -306.3668
  14   2.0000     -11.256416      -306.3026
  15   2.0000     -11.252362      -306.1923
  16   2.0000     -11.243959      -305.9637
  17   2.0000     -11.239209      -305.8344
  18   2.0000     -11.238979      -305.8282
  19   2.0000     -11.218154      -305.2615
  20   2.0000      -8.893927      -242.0161
  21   2.0000      -6.575502      -178.9285
  22   2.0000      -6.573497      -178.8739
  23   2.0000      -6.572910      -178.8580
  24   2.0000      -1.448237       -39.4085
  25   2.0000      -1.417267       -38.5658
  26   2.0000      -1.355214       -36.8772
  27   2.0000      -1.340070       -36.4651
  28   2.0000      -1.238591       -33.7038
  29   2.0000      -1.158322       -31.5195
  30   2.0000      -1.120074       -30.4788
  31   2.0000      -1.043045       -28.3827
  32   2.0000      -1.033601       -28.1257
  33   2.0000      -1.016098       -27.6494
  34   2.0000      -0.995076       -27.0774
  35   2.0000      -0.983617       -26.7656
  36   2.0000      -0.922810       -25.1109
  37   2.0000      -0.890658       -24.2360
  38   2.0000      -0.847465       -23.0607
  39   2.0000      -0.838729       -22.8230
  40   2.0000      -0.834912       -22.7191
  41   2.0000      -0.820824       -22.3357
  42   2.0000      -0.753185       -20.4952
  43   2.0000      -0.732111       -19.9218
  44   2.0000      -0.721416       -19.6307
  45   2.0000      -0.696516       -18.9532
  46   2.0000      -0.688734       -18.7414
  47   2.0000      -0.680539       -18.5184
  48   2.0000      -0.669819       -18.2267
  49   2.0000      -0.654626       -17.8133
  50   2.0000      -0.648732       -17.6529
  51   2.0000      -0.645852       -17.5745
  52   2.0000      -0.633436       -17.2367
  53   2.0000      -0.608039       -16.5456
  54   2.0000      -0.602725       -16.4010
  55   2.0000      -0.599339       -16.3088
  56   2.0000      -0.598023       -16.2730
  57   2.0000      -0.581924       -15.8350
  58   2.0000      -0.574753       -15.6398
  59   2.0000      -0.570897       -15.5349
  60   2.0000      -0.563495       -15.3335
  61   2.0000      -0.538854       -14.6630
  62   2.0000      -0.535186       -14.5631
  63   2.0000      -0.525644       -14.3035
  64   2.0000      -0.517854       -14.0915
  65   2.0000      -0.512971       -13.9586
  66   2.0000      -0.501437       -13.6448
  67   2.0000      -0.499107       -13.5814
  68   2.0000      -0.485712       -13.2169
  69   2.0000      -0.463865       -12.6224
  70   2.0000      -0.455992       -12.4082
  71   2.0000      -0.441769       -12.0211
  72   2.0000      -0.353982        -9.6323
  73   2.0000      -0.350281        -9.5316
  74   2.0000      -0.328364        -8.9353
  75   2.0000      -0.322424        -8.7736
  76   2.0000      -0.316139        -8.6026
  77   0.0000       0.074244         2.0203
  78   0.0000       0.105222         2.8632
  79   0.0000       0.124731         3.3941
  80   0.0000       0.131940         3.5903
  81   0.0000       0.137612         3.7446

MULLIKEN ATOMIC CHARGES
-----------------------
   0 C :   -0.287978
   1 C :    0.045784
   2 O :   -0.370250
   3 C :    0.461322
   4 O :   -0.426321
   5 C :   -0.217929
   6 C :    0.153441
   7 C :   -0.272580
   8 N :   -0.121579
   9 C :    0.212943
  10 S :   -0.440456
  11 N :   -0.205944
  12 C :    0.063822
  13 C :    0.057676
  14 C :   -0.188927
  15 C :   -0.128434
  16 C :   -0.281287
  17 C :    0.315465
  18 O :   -0.356111
  19 C :   -0.267087
  20 H :    0.124461
  21 H :    0.091808
  22 H :    0.091768
  23 H :    0.094811
  24 H :    0.103267
  25 H :    0.132553
  26 H :    0.129259
  27 H :    0.095518
  28 H :    0.197283
  29 H :    0.194747
  30 H :    0.149514
  31 H :    0.150001
  32 H :    0.161642
  33 H :    0.130974
  34 H :    0.240930
  35 H :    0.165894
Sum of atomic charges:    0.0000000

LOEWDIN ATOMIC CHARGES
----------------------
   0 C :    0.104735
   1 C :   -0.014494
   2 O :    0.297046
   3 C :   -0.413013
   4 O :    0.109499
   5 C :   -0.095107
   6 C :   -0.059453
   7 C :    0.131008
   8 N :    0.406529
   9 C :   -0.456321
  10 S :   -0.035732
  11 N :    0.396220
  12 C :   -0.052322
  13 C :   -0.037613
  14 C :    0.014553
  15 C :    0.038918
  16 C :   -0.002546
  17 C :   -0.189746
  18 O :    0.395561
  19 C :    0.030830
  20 H :   -0.027117
  21 H :   -0.030121
  22 H :   -0.028368
  23 H :   -0.028472
  24 H :   -0.025115
  25 H :   -0.004776
  26 H :   -0.004351
  27 H :   -0.023296
  28 H :   -0.057601
  29 H :   -0.064754
  30 H :   -0.010339
  31 H :   -0.030087
  32 H :   -0.021222
  33 H :   -0.035515
  34 H :   -0.153705
  35 H :   -0.023711

  Mayer bond orders larger than 0.100000
B(  0-C ,  1-C ) :   0.9792 B(  0-C , 20-H ) :   0.9719 B(  0-C , 21-H ) :   0.9784
B(  0-C , 22-H ) :   0.9755 B(  1-C ,  2-O ) :   0.8882 B(  1-C , 23-H ) :   0.9716
B(  1-C , 24-H ) :   0.9817 B(  2-O ,  3-C ) :   1.1268 B(  3-C ,  4-O ) :   1.9725
B(  3-C ,  5-C ) :   1.0651 B(  5-C ,  6-C ) :   1.6533 B(  5-C , 12-C ) :   0.9727
B(  6-C ,  7-C ) :   0.9670 B(  6-C ,  8-N ) :   1.1616 B(  7-C , 25-H ) :   0.9593
B(  7-C , 26-H ) :   0.9614 B(  7-C , 27-H ) :   0.9909 B(  8-N ,  9-C ) :   1.1830
B(  8-N , 28-H ) :   0.9479 B(  9-C , 10-S ) :   1.6063 B(  9-C , 11-N ) :   1.3061
B( 11-N , 12-C ) :   0.9821 B( 11-N , 29-H ) :   0.9517 B( 12-C , 13-C ) :   0.9354
B( 12-C , 30-H ) :   1.0021 B( 13-C , 14-C ) :   1.3547 B( 13-C , 19-C ) :   1.3839
B( 14-C , 15-C ) :   1.3900 B( 14-C , 31-H ) :   0.9729 B( 15-C , 16-C ) :   1.3639
B( 15-C , 32-H ) :   0.9704 B( 16-C , 17-C ) :   1.3308 B( 16-C , 33-H ) :   0.9847
B( 17-C , 18-O ) :   1.1111 B( 17-C , 19-C ) :   1.3713 B( 18-O , 34-H ) :   0.9796
B( 19-C , 35-H ) :   0.9581

MP2 TOTAL ENERGY:    -1274.340329747 Eh
FINAL SINGLE POINT ENERGY     -1274.340329747236

DIPOLE MOMENT
-------------
                                X             Y             Z
Electronic contribution:     10.40058       9.94640       8.76521
Nuclear contribution   :    -11.43877     -11.58654      -8.98006
                        -----------------------------------------
Total Dipole Moment    :     -1.03819      -1.64014      -0.21485
                        -----------------------------------------
Magnitude (a.u.)       :      1.95297
Magnitude (Debye)      :      4.96404

Rotational constants in cm-1:     0.011751     0.008698     0.006132
Rotational constants in MHz :   352.280832   260.748507   183.820965

                             ****ORCA TERMINATED NORMALLY****
TOTAL RUN TIME: 0 days 1 hours 47 minutes 59 seconds 203 msec
