                         Program Version 4.2.0 -  RELEASE  -
|  1> ! ri-mp2 cc-pvtz cc-pvtz/c TightSCF  NoKeepInts
|  2>
|  3> %scf
|  4>   MaxCore 4096
|  5> end
|  6> *xyz  0  1
|  7>     C       14.7689087   15.7257754   16.5942950
|  8>     C       15.8058902   14.7111402   17.1137197
|  9>     O       17.0357019   14.8142207   16.3640455
| 10>     C       17.8331933   15.9260460   16.2646320
| 11>     O       18.4715250   16.1344455   15.2502398
| 12>     C       17.7897296   16.9325203   17.3685699
| 13>     C       17.3773705   18.1967224   17.1171503
| 14>     C       16.7702631   18.7094427   15.8289232
| 15>     N       17.5487320   19.1965972   18.0761545
| 16>     C       18.2830395   19.0530628   19.2233200
| 17>     S       18.5228753   20.3104706   20.2700280
| 18>     N       18.8168073   17.8105370   19.4601234
| 19>     C       18.5492633   16.5967457   18.6622542
| 20>     C       17.8908100   15.5303770   19.5279565
| 21>     C       18.3303841   14.1950230   19.4567816
| 22>     C       17.7267534   13.2005532   20.2442990
| 23>     C       16.6774220   13.5431952   21.1138500
| 24>     C       16.2393918   14.8720279   21.1917224
| 25>     O       15.2214659   15.2044502   22.0241996
| 26>     C       16.8394520   15.8602608   20.4047328
| 27>     H       14.9806182   16.7361747   16.9584301
| 28>     H       13.7670035   15.4538310   16.9484528
| 29>     H       14.7488600   15.7375490   15.4970586
| 30>     H       15.9498334   14.8471557   18.1852063
| 31>     H       15.4048402   13.6993446   16.9712561
| 32>     H       16.3517040   17.9003857   15.2182564
| 33>     H       17.5369439   19.2041209   15.2188894
| 34>     H       15.9632282   19.4280264   16.0154690
| 35>     H       17.1942022   20.1234846   17.9000346
| 36>     H       19.3422711   17.7342956   20.3220876
| 37>     H       19.5273814   16.1999551   18.3535516
| 38>     H       19.1376404   13.9238007   18.7804001
| 39>     H       18.0729201   12.1700709   20.1790414
| 40>     H       16.2089595   12.7775886   21.7239915
| 41>     H       14.9811950   14.4106392   22.5259391
| 42>     H       16.4804199   16.8819634   20.4789376
| 43> *
| 44>
| 45>                          ****END OF INPUT****

CARTESIAN COORDINATES (ANGSTROEM)
---------------------------------
  C     14.768909   15.725775   16.594295
  C     15.805890   14.711140   17.113720
  O     17.035702   14.814221   16.364045
  C     17.833193   15.926046   16.264632
  O     18.471525   16.134446   15.250240
  C     17.789730   16.932520   17.368570
  C     17.377371   18.196722   17.117150
  C     16.770263   18.709443   15.828923
  N     17.548732   19.196597   18.076154
  C     18.283040   19.053063   19.223320
  S     18.522875   20.310471   20.270028
  N     18.816807   17.810537   19.460123
  C     18.549263   16.596746   18.662254
  C     17.890810   15.530377   19.527956
  C     18.330384   14.195023   19.456782
  C     17.726753   13.200553   20.244299
  C     16.677422   13.543195   21.113850
  C     16.239392   14.872028   21.191722
  O     15.221466   15.204450   22.024200
  C     16.839452   15.860261   20.404733
  H     14.980618   16.736175   16.958430
  H     13.767003   15.453831   16.948453
  H     14.748860   15.737549   15.497059
  H     15.949833   14.847156   18.185206
  H     15.404840   13.699345   16.971256
  H     16.351704   17.900386   15.218256
  H     17.536944   19.204121   15.218889
  H     15.963228   19.428026   16.015469
  H     17.194202   20.123485   17.900035
  H     19.342271   17.734296   20.322088
  H     19.527381   16.199955   18.353552
  H     19.137640   13.923801   18.780400
  H     18.072920   12.170071   20.179041
  H     16.208959   12.777589   21.723992
  H     14.981195   14.410639   22.525939
  H     16.480420   16.881963   20.478938

 Total Charge           Charge          ....    0
 Multiplicity           Mult            ....    1
 Number of Electrons    NEL             ....  154
 Basis Dimension        Dim             ....  828

ORBITAL ENERGIES
----------------

  NO   OCC          E(Eh)            E(eV)
   0   2.0000     -91.889908     -2500.4515
   1   2.0000     -20.604962      -560.6895
   2   2.0000     -20.595901      -560.4430
   3   2.0000     -20.551209      -559.2268
   4   2.0000     -15.625659      -425.1958
   5   2.0000     -15.612099      -424.8268
   6   2.0000     -11.396930      -310.1262
   7   2.0000     -11.386031      -309.8296
   8   2.0000     -11.327444      -308.2354
   9   2.0000     -11.323644      -308.1320
  10   2.0000     -11.320202      -308.0384
  11   2.0000     -11.299922      -307.4865
  12   2.0000     -11.269899      -306.6695
  13   2.0000     -11.264873      -306.5328
  14   2.0000     -11.261506      -306.4412
  15   2.0000     -11.258142      -306.3496
  16   2.0000     -11.253054      -306.2112
  17   2.0000     -11.247723      -306.0661
  18   2.0000     -11.247662      -306.0644
  19   2.0000     -11.232950      -305.6641
  20   2.0000      -8.895007      -242.0454
  21   2.0000      -6.576592      -178.9582
  22   2.0000      -6.574570      -178.9032
  23   2.0000      -6.573994      -178.8875
  24   2.0000      -1.444878       -39.3171
  25   2.0000      -1.424756       -38.7696
  26   2.0000      -1.358059       -36.9547
  27   2.0000      -1.339906       -36.4607
  28   2.0000      -1.240722       -33.7618
  29   2.0000      -1.166720       -31.7481
  30   2.0000      -1.124649       -30.6033
  31   2.0000      -1.051254       -28.6061
  32   2.0000      -1.036916       -28.2159
  33   2.0000      -1.025098       -27.8943
  34   2.0000      -1.003867       -27.3166
  35   2.0000      -0.989353       -26.9217
  36   2.0000      -0.929045       -25.2806
  37   2.0000      -0.896234       -24.3878
  38   2.0000      -0.851986       -23.1837
  39   2.0000      -0.844503       -22.9801
  40   2.0000      -0.843422       -22.9507
  41   2.0000      -0.832903       -22.6644
  42   2.0000      -0.753491       -20.5035
  43   2.0000      -0.738714       -20.1014
  44   2.0000      -0.722769       -19.6676
  45   2.0000      -0.703662       -19.1476
  46   2.0000      -0.693262       -18.8646
  47   2.0000      -0.680936       -18.5292
  48   2.0000      -0.676313       -18.4034
  49   2.0000      -0.665483       -18.1087
  50   2.0000      -0.654127       -17.7997
  51   2.0000      -0.646870       -17.6022
  52   2.0000      -0.636799       -17.3282
  53   2.0000      -0.623696       -16.9716
  54   2.0000      -0.613645       -16.6981
  55   2.0000      -0.608839       -16.5674
  56   2.0000      -0.605460       -16.4754
  57   2.0000      -0.584675       -15.9098
  58   2.0000      -0.578844       -15.7511
  59   2.0000      -0.567749       -15.4492
  60   2.0000      -0.562399       -15.3036
  61   2.0000      -0.551209       -14.9992
  62   2.0000      -0.544146       -14.8070
  63   2.0000      -0.533683       -14.5222
  64   2.0000      -0.529692       -14.4137
  65   2.0000      -0.518270       -14.1028
  66   2.0000      -0.505948       -13.7675
  67   2.0000      -0.504768       -13.7354
  68   2.0000      -0.485954       -13.2235
  69   2.0000      -0.466920       -12.7056
  70   2.0000      -0.453599       -12.3431
  71   2.0000      -0.449134       -12.2216
  72   2.0000      -0.357511        -9.7284
  73   2.0000      -0.355273        -9.6675
  74   2.0000      -0.332558        -9.0494
  75   2.0000      -0.329098        -8.9552
  76   2.0000      -0.318554        -8.6683
  77   0.0000       0.086312         2.3487
  78   0.0000       0.098824         2.6891
  79   0.0000       0.119085         3.2405
  80   0.0000       0.125982         3.4281
  81   0.0000       0.130275         3.5450

MULLIKEN ATOMIC CHARGES
-----------------------
   0 C :   -0.331494
   1 C :    0.039747
   2 O :   -0.323883
   3 C :    0.391235
   4 O :   -0.369444
   5 C :   -0.194778
   6 C :    0.141024
   7 C :   -0.302145
   8 N :   -0.131466
   9 C :    0.204868
  10 S :   -0.440767
  11 N :   -0.214854
  12 C :    0.043082
  13 C :    0.019146
  14 C :   -0.195084
  15 C :   -0.134298
  16 C :   -0.270276
  17 C :    0.302795
  18 O :   -0.354046
  19 C :   -0.243361
  20 H :    0.102674
  21 H :    0.114100
  22 H :    0.114174
  23 H :    0.102200
  24 H :    0.122263
  25 H :    0.121542
  26 H :    0.148270
  27 H :    0.106134
  28 H :    0.197300
  29 H :    0.198555
  30 H :    0.163424
  31 H :    0.154625
  32 H :    0.165193
  33 H :    0.135515
  34 H :    0.241711
  35 H :    0.176322
Sum of atomic charges:    0.0000000

LOEWDIN ATOMIC CHARGES
----------------------
   0 C :    0.102986
   1 C :   -0.016578
   2 O :    0.300666
   3 C :   -0.419875
   4 O :    0.129339
   5 C :   -0.084810
   6 C :   -0.091804
   7 C :    0.127575
   8 N :    0.404172
   9 C :   -0.456745
  10 S :   -0.037109
  11 N :    0.396884
  12 C :   -0.051127
  13 C :   -0.046701
  14 C :    0.017006
  15 C :    0.045475
  16 C :    0.001108
  17 C :   -0.192336
  18 O :    0.397919
  19 C :    0.029244
  20 H :   -0.034460
  21 H :   -0.023047
  22 H :   -0.025270
  23 H :   -0.038745
  24 H :   -0.019972
  25 H :   -0.009732
  26 H :   -0.005070
  27 H :   -0.019246
  28 H :   -0.057131
  29 H :   -0.064333
  30 H :   -0.006736
  31 H :   -0.026622
  32 H :   -0.017864
  33 H :   -0.033301
  34 H :   -0.152077
  35 H :   -0.021686

  Mayer bond orders larger than 0.100000
B(  0-C ,  1-C ) :   0.9595 B(  0-C , 20-H ) :   0.9755 B(  0-C , 21-H ) :   0.9782
B(  0-C , 22-H ) :   0.9753 B(  1-C ,  2-O ) :   0.8980 B(  1-C , 23-H ) :   0.9605
B(  1-C , 24-H ) :   0.9842 B(  2-O ,  3-C ) :   1.1875 B(  3-C ,  4-O ) :   2.1213
B(  3-C ,  5-C ) :   0.8920 B(  5-C ,  6-C ) :   1.7245 B(  5-C , 12-C ) :   0.9595
B(  6-C ,  7-C ) :   0.9533 B(  6-C ,  8-N ) :   1.1184 B(  7-C , 25-H ) :   0.9760
B(  7-C , 26-H ) :   0.9612 B(  7-C , 27-H ) :   0.9760 B(  8-N ,  9-C ) :   1.2010
B(  8-N , 28-H ) :   0.9508 B(  9-C , 10-S ) :   1.6112 B(  9-C , 11-N ) :   1.2823
B( 11-N , 12-C ) :   0.9936 B( 11-N , 29-H ) :   0.9480 B( 12-C , 13-C ) :   0.9409
B( 12-C , 30-H ) :   1.0058 B( 13-C , 14-C ) :   1.3786 B( 13-C , 19-C ) :   1.3550
B( 14-C , 15-C ) :   1.3941 B( 14-C , 31-H ) :   0.9701 B( 15-C , 16-C ) :   1.3653
B( 15-C , 32-H ) :   0.9692 B( 16-C , 17-C ) :   1.3273 B( 16-C , 33-H ) :   0.9832
B( 17-C , 18-O ) :   1.1145 B( 17-C , 19-C ) :   1.3651 B( 18-O , 34-H ) :   0.9786
B( 19-C , 35-H ) :   0.9583

MP2 TOTAL ENERGY:    -1274.329264448 Eh
FINAL SINGLE POINT ENERGY     -1274.329264448053

DIPOLE MOMENT
-------------
                                X             Y             Z
Electronic contribution:     10.01400       5.98171       6.99189
Nuclear contribution   :    -11.43765      -7.64627      -6.72236
                        -----------------------------------------
Total Dipole Moment    :     -1.42365      -1.66456       0.26953
                        -----------------------------------------
Magnitude (a.u.)       :      2.20685
Magnitude (Debye)      :      5.60936

Rotational constants in cm-1:     0.011723     0.009505     0.006534
Rotational constants in MHz :   351.449908   284.960142   195.869452

                             ****ORCA TERMINATED NORMALLY****
TOTAL RUN TIME: 0 days 1 hours 56 minutes 6 seconds 784 msec
