                         Program Version 5.0.0 -  RELEASE  -
|  1> ! ri-mp2 cc-pvtz cc-pvtz/c TightSCF NoKeepInts
|  2>
|  3> %scf
|  4>   MaxCore 4096
|  5> end
|  6> *xyz  0  1
|  7>     C       15.2898132   14.6211392   17.2751185
|  8>     C       16.3669738   14.1311624   16.2874782
|  9>     O       17.6062040   14.8604440   16.4326692
| 10>     C       17.6320200   16.1796215   16.0803781
| 11>     O       17.1455355   16.5305883   15.0194880
| 12>     C       17.7657512   17.0969620   17.2659691
| 13>     C       17.3546799   18.3913064   17.2429257
| 14>     C       16.5917103   19.0979251   16.1429366
| 15>     N       17.6909430   19.2476516   18.2966040
| 16>     C       18.6238495   18.9601884   19.2583745
| 17>     S       19.1333199   20.0911246   20.3523142
| 18>     N       19.1207627   17.6808623   19.2595262
| 19>     C       18.5517737   16.5670080   18.4776752
| 20>     C       17.7303770   15.6758987   19.4042731
| 21>     C       18.0986137   14.3319920   19.6061220
| 22>     C       17.3715595   13.5151918   20.4886501
| 23>     C       16.2699075   14.0469722   21.1805138
| 24>     C       15.9034084   15.3859844   20.9872950
| 25>     O       14.8390372   15.9018271   21.6517326
| 26>     C       16.6275078   16.1959497   20.1068601
| 27>     H       15.5442432   14.3345873   18.2994494
| 28>     H       14.3242867   14.1592459   17.0366546
| 29>     H       15.1600869   15.7090782   17.2300236
| 30>     H       16.5513097   13.0637585   16.4638480
| 31>     H       15.9946894   14.2358734   15.2590827
| 32>     H       17.2084894   19.1808290   15.2388541
| 33>     H       16.2730688   20.1084936   16.4239276
| 34>     H       15.6904459   18.5329730   15.8732410
| 35>     H       17.3457603   20.1942408   18.2977413
| 36>     H       19.7869605   17.4875301   19.9962647
| 37>     H       19.3920488   15.9728912   18.0916821
| 38>     H       18.9507860   13.9176327   19.0738218
| 39>     H       17.6641551   12.4769539   20.6359374
| 40>     H       15.7062707   13.4204601   21.8640479
| 41>     H       14.5080362   15.2157780   22.2507047
| 42>     H       16.3326145   17.2318744   19.9818145
| 43> *
| 44>
| 45>                          ****END OF INPUT****

CARTESIAN COORDINATES (ANGSTROEM)
---------------------------------
  C     15.289813   14.621139   17.275118
  C     16.366974   14.131162   16.287478
  O     17.606204   14.860444   16.432669
  C     17.632020   16.179621   16.080378
  O     17.145536   16.530588   15.019488
  C     17.765751   17.096962   17.265969
  C     17.354680   18.391306   17.242926
  C     16.591710   19.097925   16.142937
  N     17.690943   19.247652   18.296604
  C     18.623849   18.960188   19.258374
  S     19.133320   20.091125   20.352314
  N     19.120763   17.680862   19.259526
  C     18.551774   16.567008   18.477675
  C     17.730377   15.675899   19.404273
  C     18.098614   14.331992   19.606122
  C     17.371560   13.515192   20.488650
  C     16.269907   14.046972   21.180514
  C     15.903408   15.385984   20.987295
  O     14.839037   15.901827   21.651733
  C     16.627508   16.195950   20.106860
  H     15.544243   14.334587   18.299449
  H     14.324287   14.159246   17.036655
  H     15.160087   15.709078   17.230024
  H     16.551310   13.063759   16.463848
  H     15.994689   14.235873   15.259083
  H     17.208489   19.180829   15.238854
  H     16.273069   20.108494   16.423928
  H     15.690446   18.532973   15.873241
  H     17.345760   20.194241   18.297741
  H     19.786960   17.487530   19.996265
  H     19.392049   15.972891   18.091682
  H     18.950786   13.917633   19.073822
  H     17.664155   12.476954   20.635937
  H     15.706271   13.420460   21.864048
  H     14.508036   15.215778   22.250705
  H     16.332614   17.231874   19.981814

 Total Charge           Charge          ....    0
 Multiplicity           Mult            ....    1
 Number of Electrons    NEL             ....  154
 Basis Dimension        Dim             ....  828

ORBITAL ENERGIES
----------------

  NO   OCC          E(Eh)            E(eV)
   0   2.0000     -91.890695     -2500.4729
   1   2.0000     -20.598419      -560.5115
   2   2.0000     -20.585079      -560.1485
   3   2.0000     -20.549322      -559.1755
   4   2.0000     -15.630843      -425.3369
   5   2.0000     -15.609050      -424.7438
   6   2.0000     -11.394482      -310.0596
   7   2.0000     -11.385085      -309.8039
   8   2.0000     -11.336890      -308.4925
   9   2.0000     -11.315719      -307.9164
  10   2.0000     -11.311548      -307.8029
  11   2.0000     -11.297025      -307.4077
  12   2.0000     -11.261140      -306.4312
  13   2.0000     -11.260640      -306.4176
  14   2.0000     -11.257374      -306.3287
  15   2.0000     -11.253766      -306.2305
  16   2.0000     -11.245514      -306.0060
  17   2.0000     -11.239805      -305.8506
  18   2.0000     -11.239742      -305.8489
  19   2.0000     -11.221959      -305.3650
  20   2.0000      -8.895706      -242.0645
  21   2.0000      -6.577269      -178.9766
  22   2.0000      -6.575278      -178.9224
  23   2.0000      -6.574680      -178.9061
  24   2.0000      -1.449183       -39.4343
  25   2.0000      -1.418157       -38.5900
  26   2.0000      -1.351683       -36.7812
  27   2.0000      -1.341874       -36.5142
  28   2.0000      -1.239904       -33.7395
  29   2.0000      -1.158919       -31.5358
  30   2.0000      -1.120874       -30.5005
  31   2.0000      -1.043935       -28.4069
  32   2.0000      -1.031711       -28.0743
  33   2.0000      -1.017057       -27.6755
  34   2.0000      -0.998531       -27.1714
  35   2.0000      -0.985985       -26.8300
  36   2.0000      -0.924320       -25.1520
  37   2.0000      -0.893359       -24.3095
  38   2.0000      -0.847927       -23.0733
  39   2.0000      -0.841124       -22.8881
  40   2.0000      -0.835843       -22.7444
  41   2.0000      -0.815926       -22.2025
  42   2.0000      -0.752378       -20.4733
  43   2.0000      -0.733808       -19.9679
  44   2.0000      -0.723000       -19.6738
  45   2.0000      -0.697926       -18.9915
  46   2.0000      -0.690778       -18.7970
  47   2.0000      -0.677438       -18.4340
  48   2.0000      -0.668021       -18.1778
  49   2.0000      -0.667268       -18.1573
  50   2.0000      -0.649562       -17.6755
  51   2.0000      -0.645205       -17.5569
  52   2.0000      -0.637299       -17.3418
  53   2.0000      -0.609560       -16.5870
  54   2.0000      -0.608409       -16.5557
  55   2.0000      -0.600186       -16.3319
  56   2.0000      -0.600063       -16.3286
  57   2.0000      -0.579363       -15.7653
  58   2.0000      -0.572029       -15.5657
  59   2.0000      -0.564830       -15.3698
  60   2.0000      -0.554930       -15.1004
  61   2.0000      -0.546169       -14.8620
  62   2.0000      -0.540088       -14.6965
  63   2.0000      -0.526939       -14.3387
  64   2.0000      -0.525262       -14.2931
  65   2.0000      -0.515239       -14.0204
  66   2.0000      -0.503431       -13.6990
  67   2.0000      -0.501965       -13.6592
  68   2.0000      -0.474709       -12.9175
  69   2.0000      -0.464876       -12.6499
  70   2.0000      -0.452237       -12.3060
  71   2.0000      -0.444754       -12.1024
  72   2.0000      -0.357542        -9.7292
  73   2.0000      -0.350518        -9.5381
  74   2.0000      -0.329820        -8.9749
  75   2.0000      -0.324343        -8.8258
  76   2.0000      -0.317352        -8.6356
  77   0.0000       0.067620         1.8400
  78   0.0000       0.105506         2.8710
  79   0.0000       0.120649         3.2830
  80   0.0000       0.130080         3.5397
  81   0.0000       0.133883         3.6431

MULLIKEN ATOMIC CHARGES
-----------------------
   0 C :   -0.321083
   1 C :    0.037355
   2 O :   -0.385448
   3 C :    0.473829
   4 O :   -0.410680
   5 C :   -0.228090
   6 C :    0.157945
   7 C :   -0.271924
   8 N :   -0.123965
   9 C :    0.199576
  10 S :   -0.433528
  11 N :   -0.191670
  12 C :    0.026598
  13 C :    0.060037
  14 C :   -0.185452
  15 C :   -0.131041
  16 C :   -0.276814
  17 C :    0.301374
  18 O :   -0.358554
  19 C :   -0.247534
  20 H :    0.111504
  21 H :    0.117004
  22 H :    0.100350
  23 H :    0.111629
  24 H :    0.117955
  25 H :    0.136536
  26 H :    0.094442
  27 H :    0.126434
  28 H :    0.198330
  29 H :    0.190620
  30 H :    0.149481
  31 H :    0.154165
  32 H :    0.161389
  33 H :    0.131811
  34 H :    0.241010
  35 H :    0.166411
Sum of atomic charges:    0.0000000

LOEWDIN ATOMIC CHARGES
----------------------
   0 C :    0.106924
   1 C :   -0.014543
   2 O :    0.282572
   3 C :   -0.417705
   4 O :    0.118299
   5 C :   -0.097279
   6 C :   -0.060363
   7 C :    0.130182
   8 N :    0.406775
   9 C :   -0.458533
  10 S :   -0.031578
  11 N :    0.396715
  12 C :   -0.052596
  13 C :   -0.038396
  14 C :    0.014785
  15 C :    0.038802
  16 C :   -0.002811
  17 C :   -0.191711
  18 O :    0.396513
  19 C :    0.033965
  20 H :   -0.027312
  21 H :   -0.024882
  22 H :   -0.029985
  23 H :   -0.022989
  24 H :   -0.028902
  25 H :   -0.003259
  26 H :   -0.023088
  27 H :   -0.007212
  28 H :   -0.057851
  29 H :   -0.065166
  30 H :   -0.006378
  31 H :   -0.028809
  32 H :   -0.020663
  33 H :   -0.035137
  34 H :   -0.153483
  35 H :   -0.024899

  Mayer bond orders larger than 0.100000
B(  0-C ,  1-C ) :   0.9569 B(  0-C , 20-H ) :   0.9728 B(  0-C , 21-H ) :   0.9782
B(  0-C , 22-H ) :   0.9723 B(  1-C ,  2-O ) :   0.8830 B(  1-C , 23-H ) :   0.9840
B(  1-C , 24-H ) :   0.9832 B(  2-O ,  3-C ) :   1.1046 B(  3-C ,  4-O ) :   2.0030
B(  3-C ,  5-C ) :   1.0620 B(  5-C ,  6-C ) :   1.6551 B(  5-C , 12-C ) :   0.9706
B(  6-C ,  7-C ) :   0.9711 B(  6-C ,  8-N ) :   1.1431 B(  7-C , 25-H ) :   0.9571
B(  7-C , 26-H ) :   0.9883 B(  7-C , 27-H ) :   0.9652 B(  8-N ,  9-C ) :   1.1778
B(  8-N , 28-H ) :   0.9486 B(  9-C , 10-S ) :   1.6196 B(  9-C , 11-N ) :   1.2985
B( 11-N , 12-C ) :   0.9867 B( 11-N , 29-H ) :   0.9542 B( 12-C , 13-C ) :   0.9395
B( 12-C , 30-H ) :   1.0055 B( 13-C , 14-C ) :   1.3627 B( 13-C , 19-C ) :   1.3695
B( 14-C , 15-C ) :   1.3867 B( 14-C , 31-H ) :   0.9690 B( 15-C , 16-C ) :   1.3614
B( 15-C , 32-H ) :   0.9715 B( 16-C , 17-C ) :   1.3306 B( 16-C , 33-H ) :   0.9849
B( 17-C , 18-O ) :   1.1136 B( 17-C , 19-C ) :   1.3793 B( 18-O , 34-H ) :   0.9796
B( 19-C , 35-H ) :   0.9571

MP2 TOTAL ENERGY:    -1274.329560582 Eh
FINAL SINGLE POINT ENERGY     -1274.329560581608

DIPOLE MOMENT
-------------
                                X             Y             Z
Electronic contribution:      9.69227       8.95879       5.54747
Nuclear contribution   :    -10.73051     -10.61048      -5.59659
                        -----------------------------------------
Total Dipole Moment    :     -1.03825      -1.65169      -0.04912
                        -----------------------------------------
Magnitude (a.u.)       :      1.95152
Magnitude (Debye)      :      4.96038

Rotational constants in cm-1:     0.011805     0.009818     0.006597
Rotational constants in MHz :   353.910778   294.342915   197.771146

                             ****ORCA TERMINATED NORMALLY****
TOTAL RUN TIME: 0 days 2 hours 10 minutes 57 seconds 844 msec
