                         Program Version 4.2.0 -  RELEASE  -
|  1> ! ri-mp2 cc-pvtz cc-pvtz/c TightSCF  NoKeepInts
|  2>
|  3> %scf
|  4>   MaxCore 4096
|  5> end
|  6> *xyz  0  1
|  7>     C       14.8364830   15.1068081   17.0471975
|  8>     C       15.7926321   14.7515921   15.8939858
|  9>     O       16.6951208   15.8550034   15.6966261
| 10>     C       17.8625017   15.8759740   16.4024609
| 11>     O       18.5369093   14.8678957   16.5317164
| 12>     C       17.9202350   16.9916252   17.4043230
| 13>     C       17.3310323   18.2022929   17.2306080
| 14>     C       16.5414317   18.6830892   16.0306967
| 15>     N       17.5006087   19.2014947   18.1943784
| 16>     C       18.3678259   19.1264780   19.2527574
| 17>     S       18.6153247   20.4072666   20.2693740
| 18>     N       19.0194315   17.9311277   19.4257837
| 19>     C       18.7246189   16.6957251   18.6747142
| 20>     C       17.9930348   15.6886106   19.5595059
| 21>     C       18.4441447   14.3585902   19.6462902
| 22>     C       17.7685192   13.4225045   20.4468562
| 23>     C       16.6299642   13.8181745   21.1689127
| 24>     C       16.1752759   15.1408939   21.0842218
| 25>     O       15.0700031   15.5238863   21.7716449
| 26>     C       16.8497538   16.0702691   20.2862790
| 27>     H       15.3862318   15.2054441   17.9906793
| 28>     H       14.0841008   14.3194529   17.1765886
| 29>     H       14.3146903   16.0503688   16.8468336
| 30>     H       16.3296763   13.8166367   16.1060783
| 31>     H       15.2028757   14.6024267   14.9804824
| 32>     H       15.5357468   18.2453219   16.0279030
| 33>     H       17.0360199   18.3942451   15.0948446
| 34>     H       16.4306333   19.7740711   16.0095673
| 35>     H       17.0318692   20.0864127   18.0832490
| 36>     H       19.6322241   17.8921314   20.2301456
| 37>     H       19.6846723   16.2536443   18.3710150
| 38>     H       19.3141933   14.0450159   19.0740304
| 39>     H       18.1255302   12.3954994   20.4995947
| 40>     H       16.1037362   13.0977700   21.7862779
| 41>     H       14.7811577   14.7660957   22.3020224
| 42>     H       16.4787911   17.0881615   20.2363550
| 43> *
| 44>
| 45>                          ****END OF INPUT****

CARTESIAN COORDINATES (ANGSTROEM)
---------------------------------
  C     14.836483   15.106808   17.047197
  C     15.792632   14.751592   15.893986
  O     16.695121   15.855003   15.696626
  C     17.862502   15.875974   16.402461
  O     18.536909   14.867896   16.531716
  C     17.920235   16.991625   17.404323
  C     17.331032   18.202293   17.230608
  C     16.541432   18.683089   16.030697
  N     17.500609   19.201495   18.194378
  C     18.367826   19.126478   19.252757
  S     18.615325   20.407267   20.269374
  N     19.019431   17.931128   19.425784
  C     18.724619   16.695725   18.674714
  C     17.993035   15.688611   19.559506
  C     18.444145   14.358590   19.646290
  C     17.768519   13.422505   20.446856
  C     16.629964   13.818174   21.168913
  C     16.175276   15.140894   21.084222
  O     15.070003   15.523886   21.771645
  C     16.849754   16.070269   20.286279
  H     15.386232   15.205444   17.990679
  H     14.084101   14.319453   17.176589
  H     14.314690   16.050369   16.846834
  H     16.329676   13.816637   16.106078
  H     15.202876   14.602427   14.980482
  H     15.535747   18.245322   16.027903
  H     17.036020   18.394245   15.094845
  H     16.430633   19.774071   16.009567
  H     17.031869   20.086413   18.083249
  H     19.632224   17.892131   20.230146
  H     19.684672   16.253644   18.371015
  H     19.314193   14.045016   19.074030
  H     18.125530   12.395499   20.499595
  H     16.103736   13.097770   21.786278
  H     14.781158   14.766096   22.302022
  H     16.478791   17.088161   20.236355

 Total Charge           Charge          ....    0
 Multiplicity           Mult            ....    1
 Number of Electrons    NEL             ....  154
 Basis Dimension        Dim             ....  828

ORBITAL ENERGIES
----------------

  NO   OCC          E(Eh)            E(eV)
   0   2.0000     -91.889391     -2500.4375
   1   2.0000     -20.595013      -560.4188
   2   2.0000     -20.589305      -560.2635
   3   2.0000     -20.552489      -559.2617
   4   2.0000     -15.629295      -425.2947
   5   2.0000     -15.608299      -424.7234
   6   2.0000     -11.395676      -310.0921
   7   2.0000     -11.384474      -309.7873
   8   2.0000     -11.335200      -308.4465
   9   2.0000     -11.311234      -307.7943
  10   2.0000     -11.308375      -307.7165
  11   2.0000     -11.298909      -307.4590
  12   2.0000     -11.260729      -306.4200
  13   2.0000     -11.259985      -306.3998
  14   2.0000     -11.257269      -306.3259
  15   2.0000     -11.251569      -306.1708
  16   2.0000     -11.241112      -305.8862
  17   2.0000     -11.236874      -305.7709
  18   2.0000     -11.233912      -305.6903
  19   2.0000     -11.226894      -305.4993
  20   2.0000      -8.894447      -242.0302
  21   2.0000      -6.576022      -178.9427
  22   2.0000      -6.574016      -178.8881
  23   2.0000      -6.573428      -178.8721
  24   2.0000      -1.452715       -39.5304
  25   2.0000      -1.414833       -38.4996
  26   2.0000      -1.356800       -36.9204
  27   2.0000      -1.340316       -36.4719
  28   2.0000      -1.238167       -33.6922
  29   2.0000      -1.155533       -31.4437
  30   2.0000      -1.121144       -30.5079
  31   2.0000      -1.043961       -28.4076
  32   2.0000      -1.033445       -28.1215
  33   2.0000      -1.013190       -27.5703
  34   2.0000      -0.999526       -27.1985
  35   2.0000      -0.985622       -26.8201
  36   2.0000      -0.923463       -25.1287
  37   2.0000      -0.890871       -24.2418
  38   2.0000      -0.848229       -23.0815
  39   2.0000      -0.838089       -22.8056
  40   2.0000      -0.831541       -22.6274
  41   2.0000      -0.817250       -22.2385
  42   2.0000      -0.755751       -20.5650
  43   2.0000      -0.736020       -20.0281
  44   2.0000      -0.727602       -19.7991
  45   2.0000      -0.693772       -18.8785
  46   2.0000      -0.686208       -18.6727
  47   2.0000      -0.677374       -18.4323
  48   2.0000      -0.675194       -18.3730
  49   2.0000      -0.660601       -17.9759
  50   2.0000      -0.652845       -17.7648
  51   2.0000      -0.645641       -17.5688
  52   2.0000      -0.636516       -17.3205
  53   2.0000      -0.606119       -16.4933
  54   2.0000      -0.602348       -16.3907
  55   2.0000      -0.599195       -16.3049
  56   2.0000      -0.594696       -16.1825
  57   2.0000      -0.583317       -15.8729
  58   2.0000      -0.575277       -15.6541
  59   2.0000      -0.562918       -15.3178
  60   2.0000      -0.561868       -15.2892
  61   2.0000      -0.552400       -15.0316
  62   2.0000      -0.543257       -14.7828
  63   2.0000      -0.522936       -14.2298
  64   2.0000      -0.520150       -14.1540
  65   2.0000      -0.512255       -13.9392
  66   2.0000      -0.499501       -13.5921
  67   2.0000      -0.495644       -13.4872
  68   2.0000      -0.481559       -13.1039
  69   2.0000      -0.463772       -12.6199
  70   2.0000      -0.459676       -12.5084
  71   2.0000      -0.450420       -12.2565
  72   2.0000      -0.354994        -9.6599
  73   2.0000      -0.347015        -9.4428
  74   2.0000      -0.328555        -8.9404
  75   2.0000      -0.318944        -8.6789
  76   2.0000      -0.316171        -8.6035
  77   0.0000       0.071282         1.9397
  78   0.0000       0.107810         2.9337
  79   0.0000       0.119976         3.2647
  80   0.0000       0.133039         3.6202
  81   0.0000       0.138451         3.7674

MULLIKEN ATOMIC CHARGES
-----------------------
   0 C :   -0.302533
   1 C :    0.034326
   2 O :   -0.371236
   3 C :    0.468085
   4 O :   -0.410799
   5 C :   -0.194444
   6 C :    0.142200
   7 C :   -0.283618
   8 N :   -0.123006
   9 C :    0.194680
  10 S :   -0.437257
  11 N :   -0.199865
  12 C :    0.049056
  13 C :    0.050612
  14 C :   -0.171778
  15 C :   -0.137198
  16 C :   -0.275344
  17 C :    0.322972
  18 O :   -0.361215
  19 C :   -0.295131
  20 H :    0.118180
  21 H :    0.106687
  22 H :    0.090481
  23 H :    0.113024
  24 H :    0.105452
  25 H :    0.124153
  26 H :    0.126337
  27 H :    0.104547
  28 H :    0.197374
  29 H :    0.193894
  30 H :    0.157030
  31 H :    0.161748
  32 H :    0.161315
  33 H :    0.130754
  34 H :    0.240405
  35 H :    0.170111
Sum of atomic charges:   -0.0000000

LOEWDIN ATOMIC CHARGES
----------------------
   0 C :    0.104855
   1 C :   -0.016643
   2 O :    0.294374
   3 C :   -0.414712
   4 O :    0.119842
   5 C :   -0.093638
   6 C :   -0.069929
   7 C :    0.126045
   8 N :    0.405054
   9 C :   -0.459029
  10 S :   -0.035010
  11 N :    0.397342
  12 C :   -0.045374
  13 C :   -0.041417
  14 C :    0.021056
  15 C :    0.041263
  16 C :   -0.002386
  17 C :   -0.194305
  18 O :    0.394264
  19 C :    0.028473
  20 H :   -0.026329
  21 H :   -0.024856
  22 H :   -0.031544
  23 H :   -0.026246
  24 H :   -0.025942
  25 H :   -0.012042
  26 H :   -0.007390
  27 H :   -0.019929
  28 H :   -0.058749
  29 H :   -0.064023
  30 H :   -0.003840
  31 H :   -0.024089
  32 H :   -0.020354
  33 H :   -0.035747
  34 H :   -0.154193
  35 H :   -0.024852

  Mayer bond orders larger than 0.100000
B(  0-C ,  1-C ) :   0.9642 B(  0-C , 20-H ) :   0.9687 B(  0-C , 21-H ) :   0.9791
B(  0-C , 22-H ) :   0.9787 B(  1-C ,  2-O ) :   0.8892 B(  1-C , 23-H ) :   0.9745
B(  1-C , 24-H ) :   0.9851 B(  2-O ,  3-C ) :   1.1063 B(  3-C ,  4-O ) :   2.0076
B(  3-C ,  5-C ) :   1.0324 B(  5-C ,  6-C ) :   1.6628 B(  5-C , 12-C ) :   0.9604
B(  6-C ,  7-C ) :   0.9550 B(  6-C ,  8-N ) :   1.1387 B(  7-C , 25-H ) :   0.9636
B(  7-C , 26-H ) :   0.9684 B(  7-C , 27-H ) :   0.9890 B(  8-N ,  9-C ) :   1.1814
B(  8-N , 28-H ) :   0.9494 B(  9-C , 10-S ) :   1.6142 B(  9-C , 11-N ) :   1.2995
B( 11-N , 12-C ) :   0.9894 B( 11-N , 29-H ) :   0.9520 B( 12-C , 13-C ) :   0.9459
B( 12-C , 30-H ) :   0.9989 B( 13-C , 14-C ) :   1.3812 B( 13-C , 19-C ) :   1.3560
B( 14-C , 15-C ) :   1.3955 B( 14-C , 31-H ) :   0.9610 B( 15-C , 16-C ) :   1.3630
B( 15-C , 32-H ) :   0.9709 B( 16-C , 17-C ) :   1.3310 B( 16-C , 33-H ) :   0.9848
B( 17-C , 18-O ) :   1.1079 B( 17-C , 19-C ) :   1.3706 B( 18-O , 34-H ) :   0.9803
B( 19-C , 35-H ) :   0.9604

MP2 TOTAL ENERGY:    -1274.332933397 Eh
FINAL SINGLE POINT ENERGY     -1274.332933397066

DIPOLE MOMENT
-------------
                                X             Y             Z
Electronic contribution:     10.41205       8.27271       6.71293
Nuclear contribution   :    -11.73400      -9.57737      -7.49253
                        -----------------------------------------
Total Dipole Moment    :     -1.32195      -1.30466      -0.77960
                        -----------------------------------------
Magnitude (a.u.)       :      2.01431
Magnitude (Debye)      :      5.11997

Rotational constants in cm-1:     0.011514     0.009583     0.006738
Rotational constants in MHz :   345.167350   287.305416   202.013282

                             ****ORCA TERMINATED NORMALLY****
TOTAL RUN TIME: 0 days 1 hours 43 minutes 20 seconds 663 msec
