                         Program Version 5.0.0 -  RELEASE  -
|  1> ! ri-mp2 cc-pvtz cc-pvtz/c TightSCF NoKeepInts
|  2>
|  3> %scf
|  4>   MaxCore 4096
|  5> end
|  6> *xyz  0  1
|  7>     C       14.9519691   14.5514372   17.3729954
|  8>     C       15.5105307   15.6237596   16.4227347
|  9>     O       16.8244356   15.1868267   16.0167774
| 10>     C       18.0263499   15.6812466   16.4657714
| 11>     O       19.0135232   14.9707667   16.4196656
| 12>     C       17.9946573   16.8739799   17.3674451
| 13>     C       17.5239024   18.0789015   16.9664956
| 14>     C       16.9680912   18.4342971   15.6030352
| 15>     N       17.6091226   19.1803220   17.8207644
| 16>     C       18.2693832   19.1847990   19.0217933
| 17>     S       18.3904967   20.5541841   19.9404745
| 18>     N       18.8248807   17.9949693   19.4239586
| 19>     C       18.6649265   16.7008826   18.7304858
| 20>     C       17.8958838   15.7020192   19.5892323
| 21>     C       18.3173470   14.3614731   19.6576481
| 22>     C       17.6123473   13.4274824   20.4348883
| 23>     C       16.4733531   13.8357256   21.1494851
| 24>     C       16.0454694   15.1682627   21.0786217
| 25>     O       14.9372767   15.5622510   21.7546887
| 26>     C       16.7478937   16.0958602   20.3025060
| 27>     H       15.6078049   14.4184716   18.2405563
| 28>     H       14.8703653   13.5858865   16.8583723
| 29>     H       13.9561539   14.8340275   17.7351374
| 30>     H       14.8592715   15.6943490   15.5419681
| 31>     H       15.5023210   16.5908598   16.9327302
| 32>     H       17.1319633   17.6391351   14.8653393
| 33>     H       17.4560639   19.3333738   15.2050575
| 34>     H       15.8903179   18.6315690   15.6525415
| 35>     H       17.2251803   20.0676342   17.5353411
| 36>     H       19.2904923   18.0233976   20.3223600
| 37>     H       19.6712797   16.2918148   18.5561797
| 38>     H       19.1896114   14.0392197   19.0924274
| 39>     H       17.9474897   12.3923829   20.4756333
| 40>     H       15.9248633   13.1164593   21.7487306
| 41>     H       14.6268395   14.8030494   22.2711050
| 42>     H       16.3951420   17.1209231   20.2610531
| 43> *
| 44>
| 45>                          ****END OF INPUT****

CARTESIAN COORDINATES (ANGSTROEM)
---------------------------------
  C     14.951969   14.551437   17.372995
  C     15.510531   15.623760   16.422735
  O     16.824436   15.186827   16.016777
  C     18.026350   15.681247   16.465771
  O     19.013523   14.970767   16.419666
  C     17.994657   16.873980   17.367445
  C     17.523902   18.078901   16.966496
  C     16.968091   18.434297   15.603035
  N     17.609123   19.180322   17.820764
  C     18.269383   19.184799   19.021793
  S     18.390497   20.554184   19.940475
  N     18.824881   17.994969   19.423959
  C     18.664926   16.700883   18.730486
  C     17.895884   15.702019   19.589232
  C     18.317347   14.361473   19.657648
  C     17.612347   13.427482   20.434888
  C     16.473353   13.835726   21.149485
  C     16.045469   15.168263   21.078622
  O     14.937277   15.562251   21.754689
  C     16.747894   16.095860   20.302506
  H     15.607805   14.418472   18.240556
  H     14.870365   13.585887   16.858372
  H     13.956154   14.834027   17.735137
  H     14.859271   15.694349   15.541968
  H     15.502321   16.590860   16.932730
  H     17.131963   17.639135   14.865339
  H     17.456064   19.333374   15.205058
  H     15.890318   18.631569   15.652541
  H     17.225180   20.067634   17.535341
  H     19.290492   18.023398   20.322360
  H     19.671280   16.291815   18.556180
  H     19.189611   14.039220   19.092427
  H     17.947490   12.392383   20.475633
  H     15.924863   13.116459   21.748731
  H     14.626840   14.803049   22.271105
  H     16.395142   17.120923   20.261053

 Total Charge           Charge          ....    0
 Multiplicity           Mult            ....    1
 Number of Electrons    NEL             ....  154
 Basis Dimension        Dim             ....  828

ORBITAL ENERGIES
----------------

  NO   OCC          E(Eh)            E(eV)
   0   2.0000     -91.890898     -2500.4785
   1   2.0000     -20.601080      -560.5839
   2   2.0000     -20.599634      -560.5446
   3   2.0000     -20.548475      -559.1524
   4   2.0000     -15.628722      -425.2791
   5   2.0000     -15.611928      -424.8221
   6   2.0000     -11.399164      -310.1870
   7   2.0000     -11.387462      -309.8686
   8   2.0000     -11.332411      -308.3706
   9   2.0000     -11.316619      -307.9409
  10   2.0000     -11.314442      -307.8816
  11   2.0000     -11.304823      -307.6199
  12   2.0000     -11.270185      -306.6773
  13   2.0000     -11.266390      -306.5741
  14   2.0000     -11.263551      -306.4968
  15   2.0000     -11.256964      -306.3176
  16   2.0000     -11.246031      -306.0201
  17   2.0000     -11.242070      -305.9123
  18   2.0000     -11.239114      -305.8318
  19   2.0000     -11.225290      -305.4557
  20   2.0000      -8.895999      -242.0724
  21   2.0000      -6.577584      -178.9852
  22   2.0000      -6.575561      -178.9301
  23   2.0000      -6.574983      -178.9144
  24   2.0000      -1.446910       -39.3724
  25   2.0000      -1.419408       -38.6241
  26   2.0000      -1.358543       -36.9678
  27   2.0000      -1.341747       -36.5108
  28   2.0000      -1.240935       -33.7675
  29   2.0000      -1.161415       -31.6037
  30   2.0000      -1.126398       -30.6508
  31   2.0000      -1.049307       -28.5531
  32   2.0000      -1.037390       -28.2288
  33   2.0000      -1.018959       -27.7273
  34   2.0000      -1.005985       -27.3742
  35   2.0000      -0.990211       -26.9450
  36   2.0000      -0.928446       -25.2643
  37   2.0000      -0.886004       -24.1094
  38   2.0000      -0.855630       -23.2829
  39   2.0000      -0.842314       -22.9205
  40   2.0000      -0.836901       -22.7732
  41   2.0000      -0.834741       -22.7145
  42   2.0000      -0.753633       -20.5074
  43   2.0000      -0.741208       -20.1693
  44   2.0000      -0.731337       -19.9007
  45   2.0000      -0.697734       -18.9863
  46   2.0000      -0.689004       -18.7488
  47   2.0000      -0.681234       -18.5373
  48   2.0000      -0.677022       -18.4227
  49   2.0000      -0.661228       -17.9929
  50   2.0000      -0.655486       -17.8367
  51   2.0000      -0.645079       -17.5535
  52   2.0000      -0.639985       -17.4149
  53   2.0000      -0.615282       -16.7427
  54   2.0000      -0.609022       -16.5723
  55   2.0000      -0.607907       -16.5420
  56   2.0000      -0.602193       -16.3865
  57   2.0000      -0.586272       -15.9533
  58   2.0000      -0.578641       -15.7456
  59   2.0000      -0.568578       -15.4718
  60   2.0000      -0.562397       -15.3036
  61   2.0000      -0.554124       -15.0785
  62   2.0000      -0.546474       -14.8703
  63   2.0000      -0.531491       -14.4626
  64   2.0000      -0.519814       -14.1449
  65   2.0000      -0.513627       -13.9765
  66   2.0000      -0.503524       -13.7016
  67   2.0000      -0.501958       -13.6590
  68   2.0000      -0.485660       -13.2155
  69   2.0000      -0.471010       -12.8168
  70   2.0000      -0.452971       -12.3260
  71   2.0000      -0.448339       -12.1999
  72   2.0000      -0.358481        -9.7548
  73   2.0000      -0.352360        -9.5882
  74   2.0000      -0.330463        -8.9924
  75   2.0000      -0.324757        -8.8371
  76   2.0000      -0.319401        -8.6913
  77   0.0000       0.082370         2.2414
  78   0.0000       0.104532         2.8445
  79   0.0000       0.112555         3.0628
  80   0.0000       0.128442         3.4951
  81   0.0000       0.132874         3.6157

MULLIKEN ATOMIC CHARGES
-----------------------
   0 C :   -0.265578
   1 C :    0.018687
   2 O :   -0.318099
   3 C :    0.403463
   4 O :   -0.385266
   5 C :   -0.192894
   6 C :    0.134323
   7 C :   -0.322883
   8 N :   -0.135400
   9 C :    0.201944
  10 S :   -0.439231
  11 N :   -0.213528
  12 C :    0.066909
  13 C :    0.007461
  14 C :   -0.193407
  15 C :   -0.131939
  16 C :   -0.273540
  17 C :    0.308193
  18 O :   -0.359506
  19 C :   -0.251190
  20 H :    0.106491
  21 H :    0.107619
  22 H :    0.090587
  23 H :    0.113035
  24 H :    0.091280
  25 H :    0.129435
  26 H :    0.137018
  27 H :    0.122093
  28 H :    0.197035
  29 H :    0.198726
  30 H :    0.165606
  31 H :    0.170809
  32 H :    0.163355
  33 H :    0.132078
  34 H :    0.241531
  35 H :    0.174781
Sum of atomic charges:   -0.0000000

LOEWDIN ATOMIC CHARGES
----------------------
   0 C :    0.109049
   1 C :   -0.021460
   2 O :    0.307841
   3 C :   -0.416255
   4 O :    0.121207
   5 C :   -0.083528
   6 C :   -0.100289
   7 C :    0.125453
   8 N :    0.401893
   9 C :   -0.457185
  10 S :   -0.036458
  11 N :    0.397709
  12 C :   -0.044160
  13 C :   -0.044784
  14 C :    0.021027
  15 C :    0.044844
  16 C :   -0.000733
  17 C :   -0.193103
  18 O :    0.395614
  19 C :    0.026544
  20 H :   -0.024362
  21 H :   -0.025079
  22 H :   -0.026800
  23 H :   -0.027561
  24 H :   -0.040547
  25 H :   -0.007203
  26 H :   -0.009935
  27 H :   -0.016763
  28 H :   -0.057419
  29 H :   -0.063338
  30 H :   -0.002174
  31 H :   -0.021561
  32 H :   -0.018393
  33 H :   -0.034669
  34 H :   -0.152969
  35 H :   -0.024452

  Mayer bond orders larger than 0.100000
B(  0-C ,  1-C ) :   0.9785 B(  0-C , 20-H ) :   0.9695 B(  0-C , 21-H ) :   0.9814
B(  0-C , 22-H ) :   0.9752 B(  1-C ,  2-O ) :   0.9018 B(  1-C , 23-H ) :   0.9811
B(  1-C , 24-H ) :   0.9625 B(  2-O ,  3-C ) :   1.1873 B(  3-C ,  4-O ) :   2.0865
B(  3-C ,  5-C ) :   0.9271 B(  5-C ,  6-C ) :   1.6880 B(  5-C , 12-C ) :   0.9564
B(  6-C ,  7-C ) :   0.9460 B(  6-C ,  8-N ) :   1.1150 B(  7-C , 25-H ) :   0.9784
B(  7-C , 26-H ) :   0.9726 B(  7-C , 27-H ) :   0.9651 B(  8-N ,  9-C ) :   1.1919
B(  8-N , 28-H ) :   0.9515 B(  9-C , 10-S ) :   1.6126 B(  9-C , 11-N ) :   1.2898
B( 11-N , 12-C ) :   0.9959 B( 11-N , 29-H ) :   0.9492 B( 12-C , 13-C ) :   0.9442
B( 12-C , 30-H ) :   0.9960 B( 13-C , 14-C ) :   1.3913 B( 13-C , 19-C ) :   1.3554
B( 14-C , 15-C ) :   1.3942 B( 14-C , 31-H ) :   0.9596 B( 15-C , 16-C ) :   1.3606
B( 15-C , 32-H ) :   0.9710 B( 16-C , 17-C ) :   1.3312 B( 16-C , 33-H ) :   0.9851
B( 17-C , 18-O ) :   1.1094 B( 17-C , 19-C ) :   1.3698 B( 18-O , 34-H ) :   0.9792
B( 19-C , 35-H ) :   0.9562

MP2 TOTAL ENERGY:    -1274.334859527 Eh
FINAL SINGLE POINT ENERGY     -1274.334859526684

DIPOLE MOMENT
-------------
                                X             Y             Z
Electronic contribution:      9.92239       7.90674       5.96596
Nuclear contribution   :    -11.46753      -8.80993      -6.42347
                        -----------------------------------------
Total Dipole Moment    :     -1.54514      -0.90319      -0.45751
                        -----------------------------------------
Magnitude (a.u.)       :      1.84730
Magnitude (Debye)      :      4.69547

Rotational constants in cm-1:     0.012109     0.009306     0.006804
Rotational constants in MHz :   363.018348   278.980975   203.980539

                             ****ORCA TERMINATED NORMALLY****
TOTAL RUN TIME: 0 days 2 hours 24 minutes 55 seconds 619 msec
