                         Program Version 5.0.0 -  RELEASE  -
|  1> ! ri-mp2 cc-pvtz cc-pvtz/c TightSCF NoKeepInts
|  2>
|  3> %scf
|  4>   MaxCore 4096
|  5> end
|  6> *xyz  0  1
|  7>     C       15.1813299   15.1734862   17.2504717
|  8>     C       15.6920503   14.9719390   15.8091931
|  9>     O       16.8548608   15.7756623   15.5123111
| 10>     C       17.9266918   15.8021841   16.3576048
| 11>     O       18.5708989   14.7853932   16.5473881
| 12>     C       17.9003775   16.9134733   17.3704989
| 13>     C       17.3038114   18.1161697   17.1633282
| 14>     C       16.5628560   18.5841470   15.9272512
| 15>     N       17.4263942   19.1264495   18.1228171
| 16>     C       18.2828142   19.0863431   19.1916138
| 17>     S       18.4932371   20.3880390   20.1896606
| 18>     N       18.9564486   17.9074232   19.3893844
| 19>     C       18.6766563   16.6510512   18.6679722
| 20>     C       17.9400397   15.6668678   19.5736595
| 21>     C       18.3786015   14.3338171   19.6777280
| 22>     C       17.7008312   13.4172389   20.4987270
| 23>     C       16.5730198   13.8356352   21.2247579
| 24>     C       16.1311775   15.1615439   21.1239813
| 25>     O       15.0362141   15.5663644   21.8153497
| 26>     C       16.8076722   16.0716712   20.3058136
| 27>     H       15.8770177   14.7322570   17.9730378
| 28>     H       14.2151069   14.6716787   17.3818815
| 29>     H       15.0440606   16.2350304   17.4864382
| 30>     H       15.9384864   13.9110034   15.6669270
| 31>     H       14.8929326   15.2250061   15.1007537
| 32>     H       15.5743288   18.1142620   15.8618955
| 33>     H       17.1190741   18.3266583   15.0170655
| 34>     H       16.4149195   19.6708843   15.9116169
| 35>     H       16.9442109   20.0012387   17.9906905
| 36>     H       19.5630636   17.8934058   20.1993073
| 37>     H       19.6437687   16.2038161   18.3956485
| 38>     H       19.2404175   14.0022458   19.1029499
| 39>     H       18.0479479   12.3875340   20.5640428
| 40>     H       16.0451555   13.1301552   21.8577813
| 41>     H       14.7449159   14.8199107   22.3602971
| 42>     H       16.4456103   17.0920142   20.2441546
| 43> *
| 44>
| 45>                          ****END OF INPUT****

CARTESIAN COORDINATES (ANGSTROEM)
---------------------------------
  C     15.181330   15.173486   17.250472
  C     15.692050   14.971939   15.809193
  O     16.854861   15.775662   15.512311
  C     17.926692   15.802184   16.357605
  O     18.570899   14.785393   16.547388
  C     17.900378   16.913473   17.370499
  C     17.303811   18.116170   17.163328
  C     16.562856   18.584147   15.927251
  N     17.426394   19.126449   18.122817
  C     18.282814   19.086343   19.191614
  S     18.493237   20.388039   20.189661
  N     18.956449   17.907423   19.389384
  C     18.676656   16.651051   18.667972
  C     17.940040   15.666868   19.573660
  C     18.378601   14.333817   19.677728
  C     17.700831   13.417239   20.498727
  C     16.573020   13.835635   21.224758
  C     16.131177   15.161544   21.123981
  O     15.036214   15.566364   21.815350
  C     16.807672   16.071671   20.305814
  H     15.877018   14.732257   17.973038
  H     14.215107   14.671679   17.381881
  H     15.044061   16.235030   17.486438
  H     15.938486   13.911003   15.666927
  H     14.892933   15.225006   15.100754
  H     15.574329   18.114262   15.861895
  H     17.119074   18.326658   15.017065
  H     16.414919   19.670884   15.911617
  H     16.944211   20.001239   17.990690
  H     19.563064   17.893406   20.199307
  H     19.643769   16.203816   18.395649
  H     19.240417   14.002246   19.102950
  H     18.047948   12.387534   20.564043
  H     16.045155   13.130155   21.857781
  H     14.744916   14.819911   22.360297
  H     16.445610   17.092014   20.244155

 Total Charge           Charge          ....    0
 Multiplicity           Mult            ....    1
 Number of Electrons    NEL             ....  154
 Basis Dimension        Dim             ....  828

ORBITAL ENERGIES
----------------

  NO   OCC          E(Eh)            E(eV)
   0   2.0000     -91.890622     -2500.4709
   1   2.0000     -20.595184      -560.4234
   2   2.0000     -20.581845      -560.0605
   3   2.0000     -20.552960      -559.2745
   4   2.0000     -15.631225      -425.3472
   5   2.0000     -15.608919      -424.7403
   6   2.0000     -11.395227      -310.0799
   7   2.0000     -11.385457      -309.8140
   8   2.0000     -11.337817      -308.5177
   9   2.0000     -11.311336      -307.7971
  10   2.0000     -11.308677      -307.7248
  11   2.0000     -11.304094      -307.6000
  12   2.0000     -11.262230      -306.4609
  13   2.0000     -11.261969      -306.4538
  14   2.0000     -11.257193      -306.3238
  15   2.0000     -11.251756      -306.1758
  16   2.0000     -11.241435      -305.8950
  17   2.0000     -11.236754      -305.7676
  18   2.0000     -11.233809      -305.6875
  19   2.0000     -11.228041      -305.5305
  20   2.0000      -8.895667      -242.0634
  21   2.0000      -6.577239      -178.9758
  22   2.0000      -6.575235      -178.9213
  23   2.0000      -6.574644      -178.9052
  24   2.0000      -1.448323       -39.4109
  25   2.0000      -1.415000       -38.5041
  26   2.0000      -1.353838       -36.8398
  27   2.0000      -1.342033       -36.5186
  28   2.0000      -1.239397       -33.7257
  29   2.0000      -1.155643       -31.4466
  30   2.0000      -1.121455       -30.5163
  31   2.0000      -1.043980       -28.4082
  32   2.0000      -1.032892       -28.1064
  33   2.0000      -1.013451       -27.5774
  34   2.0000      -1.001226       -27.2447
  35   2.0000      -0.987406       -26.8687
  36   2.0000      -0.924669       -25.1615
  37   2.0000      -0.895077       -24.3563
  38   2.0000      -0.850207       -23.1353
  39   2.0000      -0.839299       -22.8385
  40   2.0000      -0.831707       -22.6319
  41   2.0000      -0.818131       -22.2625
  42   2.0000      -0.748484       -20.3673
  43   2.0000      -0.733193       -19.9512
  44   2.0000      -0.727810       -19.8047
  45   2.0000      -0.693763       -18.8782
  46   2.0000      -0.687437       -18.7061
  47   2.0000      -0.676249       -18.4017
  48   2.0000      -0.672393       -18.2967
  49   2.0000      -0.661337       -17.9959
  50   2.0000      -0.653513       -17.7830
  51   2.0000      -0.646835       -17.6013
  52   2.0000      -0.638646       -17.3785
  53   2.0000      -0.616390       -16.7728
  54   2.0000      -0.603115       -16.4116
  55   2.0000      -0.602524       -16.3955
  56   2.0000      -0.599251       -16.3064
  57   2.0000      -0.582274       -15.8445
  58   2.0000      -0.575354       -15.6562
  59   2.0000      -0.562735       -15.3128
  60   2.0000      -0.556530       -15.1440
  61   2.0000      -0.547783       -14.9059
  62   2.0000      -0.544669       -14.8212
  63   2.0000      -0.529543       -14.4096
  64   2.0000      -0.520747       -14.1703
  65   2.0000      -0.512719       -13.9518
  66   2.0000      -0.499624       -13.5955
  67   2.0000      -0.491875       -13.3846
  68   2.0000      -0.480894       -13.0858
  69   2.0000      -0.464794       -12.6477
  70   2.0000      -0.454740       -12.3741
  71   2.0000      -0.450488       -12.2584
  72   2.0000      -0.356668        -9.7054
  73   2.0000      -0.346710        -9.4345
  74   2.0000      -0.329675        -8.9709
  75   2.0000      -0.319765        -8.7013
  76   2.0000      -0.317361        -8.6358
  77   0.0000       0.068098         1.8531
  78   0.0000       0.107434         2.9234
  79   0.0000       0.118880         3.2349
  80   0.0000       0.132825         3.6144
  81   0.0000       0.135827         3.6960

MULLIKEN ATOMIC CHARGES
-----------------------
   0 C :   -0.343206
   1 C :    0.040557
   2 O :   -0.385998
   3 C :    0.473018
   4 O :   -0.399979
   5 C :   -0.200310
   6 C :    0.138788
   7 C :   -0.286407
   8 N :   -0.123093
   9 C :    0.189454
  10 S :   -0.434729
  11 N :   -0.197857
  12 C :    0.045270
  13 C :    0.029226
  14 C :   -0.168554
  15 C :   -0.137588
  16 C :   -0.277479
  17 C :    0.310197
  18 O :   -0.359509
  19 C :   -0.259585
  20 H :    0.128418
  21 H :    0.120013
  22 H :    0.101495
  23 H :    0.112967
  24 H :    0.112268
  25 H :    0.117906
  26 H :    0.134014
  27 H :    0.107724
  28 H :    0.197469
  29 H :    0.193474
  30 H :    0.157463
  31 H :    0.162043
  32 H :    0.161353
  33 H :    0.130844
  34 H :    0.240688
  35 H :    0.169644
Sum of atomic charges:    0.0000000

LOEWDIN ATOMIC CHARGES
----------------------
   0 C :    0.104843
   1 C :   -0.017440
   2 O :    0.280964
   3 C :   -0.418199
   4 O :    0.124910
   5 C :   -0.093351
   6 C :   -0.068983
   7 C :    0.126209
   8 N :    0.405913
   9 C :   -0.460188
  10 S :   -0.033318
  11 N :    0.397598
  12 C :   -0.045397
  13 C :   -0.042038
  14 C :    0.020038
  15 C :    0.040967
  16 C :   -0.002299
  17 C :   -0.194060
  18 O :    0.394345
  19 C :    0.030314
  20 H :   -0.022263
  21 H :   -0.022791
  22 H :   -0.032661
  23 H :   -0.025632
  24 H :   -0.024171
  25 H :   -0.013102
  26 H :   -0.005822
  27 H :   -0.019471
  28 H :   -0.058740
  29 H :   -0.063757
  30 H :   -0.003109
  31 H :   -0.023914
  32 H :   -0.020077
  33 H :   -0.035580
  34 H :   -0.154212
  35 H :   -0.025526

  Mayer bond orders larger than 0.100000
B(  0-C ,  1-C ) :   0.9593 B(  0-C , 20-H ) :   0.9655 B(  0-C , 21-H ) :   0.9774
B(  0-C , 22-H ) :   0.9714 B(  1-C ,  2-O ) :   0.8922 B(  1-C , 23-H ) :   0.9857
B(  1-C , 24-H ) :   0.9823 B(  2-O ,  3-C ) :   1.0887 B(  3-C ,  4-O ) :   2.0254
B(  3-C ,  5-C ) :   1.0286 B(  5-C ,  6-C ) :   1.6606 B(  5-C , 12-C ) :   0.9622
B(  6-C ,  7-C ) :   0.9558 B(  6-C ,  8-N ) :   1.1354 B(  7-C , 25-H ) :   0.9647
B(  7-C , 26-H ) :   0.9655 B(  7-C , 27-H ) :   0.9899 B(  8-N ,  9-C ) :   1.1777
B(  8-N , 28-H ) :   0.9488 B(  9-C , 10-S ) :   1.6170 B(  9-C , 11-N ) :   1.3004
B( 11-N , 12-C ) :   0.9860 B( 11-N , 29-H ) :   0.9524 B( 12-C , 13-C ) :   0.9464
B( 12-C , 30-H ) :   0.9990 B( 13-C , 14-C ) :   1.3868 B( 13-C , 19-C ) :   1.3583
B( 14-C , 15-C ) :   1.3951 B( 14-C , 31-H ) :   0.9610 B( 15-C , 16-C ) :   1.3625
B( 15-C , 32-H ) :   0.9711 B( 16-C , 17-C ) :   1.3302 B( 16-C , 33-H ) :   0.9850
B( 17-C , 18-O ) :   1.1108 B( 17-C , 19-C ) :   1.3774 B( 18-O , 34-H ) :   0.9802
B( 19-C , 35-H ) :   0.9580

MP2 TOTAL ENERGY:    -1274.326663279 Eh
FINAL SINGLE POINT ENERGY     -1274.326663278682

DIPOLE MOMENT
-------------
                                X             Y             Z
Electronic contribution:      9.80960       7.79594       6.25249
Nuclear contribution   :    -11.20223      -8.94649      -6.92429
                        -----------------------------------------
Total Dipole Moment    :     -1.39262      -1.15054      -0.67179
                        -----------------------------------------
Magnitude (a.u.)       :      1.92729
Magnitude (Debye)      :      4.89879

Rotational constants in cm-1:     0.011365     0.009937     0.006788
Rotational constants in MHz :   340.724197   297.904146   203.513135

                             ****ORCA TERMINATED NORMALLY****
TOTAL RUN TIME: 0 days 1 hours 51 minutes 52 seconds 659 msec
