                         Program Version 4.2.0 -  RELEASE  -
|  1> ! ri-mp2 cc-pvtz cc-pvtz/c TightSCF  NoKeepInts
|  2>
|  3> %scf
|  4>   MaxCore 4096
|  5> end
|  6> *xyz  0  1
|  7>     C       15.0300840   14.1216540   15.9260167
|  8>     C       16.1134533   14.3888552   16.9882861
|  9>     O       17.2126002   15.0994907   16.3834016
| 10>     C       17.1072839   16.4504020   16.2167802
| 11>     O       16.4069009   16.9107302   15.3336065
| 12>     C       17.6297324   17.2494934   17.3826417
| 13>     C       17.3859486   18.5791108   17.5184243
| 14>     C       16.5184344   19.4519778   16.6367744
| 15>     N       18.0100260   19.3041249   18.5386982
| 16>     C       19.0336400   18.8293917   19.3151649
| 17>     S       19.8496712   19.7975181   20.3791765
| 18>     N       19.3572354   17.5063775   19.1524995
| 19>     C       18.5534189   16.5363742   18.3872506
| 20>     C       17.8026434   15.6393603   19.3656190
| 21>     C       18.2014995   14.3019099   19.5497612
| 22>     C       17.5132685   13.4676229   20.4465645
| 23>     C       16.4221932   13.9762782   21.1715040
| 24>     C       16.0307937   15.3111642   21.0013111
| 25>     O       14.9791875   15.8062576   21.7006460
| 26>     C       16.7156311   16.1384165   20.1059390
| 27>     H       14.5601454   15.0563277   15.5960186
| 28>     H       14.2442325   13.4748702   16.3341073
| 29>     H       15.4628212   13.6249470   15.0486995
| 30>     H       15.6837146   14.9539656   17.8251152
| 31>     H       16.4746225   13.4268495   17.3738063
| 32>     H       15.5027122   19.0423206   16.5665986
| 33>     H       16.9244635   19.4943136   15.6178820
| 34>     H       16.4328774   20.4817183   17.0029967
| 35>     H       17.7939366   20.2810160   18.6582978
| 36>     H       20.1006420   17.1779224   19.7553572
| 37>     H       19.2495246   15.9110009   17.8102805
| 38>     H       19.0448391   13.9052144   18.9901883
| 39>     H       17.8279780   12.4337902   20.5804596
| 40>     H       15.8887861   13.3361664   21.8668881
| 41>     H       14.6804728   15.1142646   22.3100630
| 42>     H       16.4015856   17.1708024   19.9971756
| 43> *
| 44>
| 45>                          ****END OF INPUT****

CARTESIAN COORDINATES (ANGSTROEM)
---------------------------------
  C     15.030084   14.121654   15.926017
  C     16.113453   14.388855   16.988286
  O     17.212600   15.099491   16.383402
  C     17.107284   16.450402   16.216780
  O     16.406901   16.910730   15.333607
  C     17.629732   17.249493   17.382642
  C     17.385949   18.579111   17.518424
  C     16.518434   19.451978   16.636774
  N     18.010026   19.304125   18.538698
  C     19.033640   18.829392   19.315165
  S     19.849671   19.797518   20.379176
  N     19.357235   17.506377   19.152499
  C     18.553419   16.536374   18.387251
  C     17.802643   15.639360   19.365619
  C     18.201500   14.301910   19.549761
  C     17.513268   13.467623   20.446565
  C     16.422193   13.976278   21.171504
  C     16.030794   15.311164   21.001311
  O     14.979188   15.806258   21.700646
  C     16.715631   16.138417   20.105939
  H     14.560145   15.056328   15.596019
  H     14.244232   13.474870   16.334107
  H     15.462821   13.624947   15.048699
  H     15.683715   14.953966   17.825115
  H     16.474622   13.426849   17.373806
  H     15.502712   19.042321   16.566599
  H     16.924464   19.494314   15.617882
  H     16.432877   20.481718   17.002997
  H     17.793937   20.281016   18.658298
  H     20.100642   17.177922   19.755357
  H     19.249525   15.911001   17.810281
  H     19.044839   13.905214   18.990188
  H     17.827978   12.433790   20.580460
  H     15.888786   13.336166   21.866888
  H     14.680473   15.114265   22.310063
  H     16.401586   17.170802   19.997176

 Total Charge           Charge          ....    0
 Multiplicity           Mult            ....    1
 Number of Electrons    NEL             ....  154
 Basis Dimension        Dim             ....  828

ORBITAL ENERGIES
----------------

  NO   OCC          E(Eh)            E(eV)
   0   2.0000     -91.891315     -2500.4898
   1   2.0000     -20.602153      -560.6131
   2   2.0000     -20.581307      -560.0458
   3   2.0000     -20.548600      -559.1558
   4   2.0000     -15.631941      -425.3667
   5   2.0000     -15.610210      -424.7754
   6   2.0000     -11.393820      -310.0416
   7   2.0000     -11.385914      -309.8265
   8   2.0000     -11.338521      -308.5368
   9   2.0000     -11.319994      -308.0327
  10   2.0000     -11.312492      -307.8286
  11   2.0000     -11.295809      -307.3746
  12   2.0000     -11.264537      -306.5236
  13   2.0000     -11.261284      -306.4351
  14   2.0000     -11.259984      -306.3998
  15   2.0000     -11.254163      -306.2413
  16   2.0000     -11.249140      -306.1047
  17   2.0000     -11.243522      -305.9518
  18   2.0000     -11.243461      -305.9501
  19   2.0000     -11.216413      -305.2141
  20   2.0000      -8.896342      -242.0818
  21   2.0000      -6.577906      -178.9939
  22   2.0000      -6.575912      -178.9397
  23   2.0000      -6.575316      -178.9234
  24   2.0000      -1.446555       -39.3628
  25   2.0000      -1.421852       -38.6905
  26   2.0000      -1.353447       -36.8292
  27   2.0000      -1.343011       -36.5452
  28   2.0000      -1.241317       -33.7779
  29   2.0000      -1.162733       -31.6396
  30   2.0000      -1.121877       -30.5278
  31   2.0000      -1.046747       -28.4834
  32   2.0000      -1.029553       -28.0156
  33   2.0000      -1.021115       -27.7859
  34   2.0000      -0.998155       -27.1612
  35   2.0000      -0.986299       -26.8386
  36   2.0000      -0.926061       -25.1994
  37   2.0000      -0.882784       -24.0218
  38   2.0000      -0.850310       -23.1381
  39   2.0000      -0.844018       -22.9669
  40   2.0000      -0.839425       -22.8419
  41   2.0000      -0.828600       -22.5474
  42   2.0000      -0.754226       -20.5235
  43   2.0000      -0.735710       -20.0197
  44   2.0000      -0.719329       -19.5739
  45   2.0000      -0.701228       -19.0814
  46   2.0000      -0.692226       -18.8364
  47   2.0000      -0.679993       -18.5035
  48   2.0000      -0.669051       -18.2058
  49   2.0000      -0.662392       -18.0246
  50   2.0000      -0.650202       -17.6929
  51   2.0000      -0.648744       -17.6532
  52   2.0000      -0.639224       -17.3942
  53   2.0000      -0.612719       -16.6729
  54   2.0000      -0.606490       -16.5034
  55   2.0000      -0.602039       -16.3823
  56   2.0000      -0.591441       -16.0939
  57   2.0000      -0.582273       -15.8445
  58   2.0000      -0.575130       -15.6501
  59   2.0000      -0.572523       -15.5791
  60   2.0000      -0.563866       -15.3436
  61   2.0000      -0.541599       -14.7377
  62   2.0000      -0.536086       -14.5877
  63   2.0000      -0.529461       -14.4074
  64   2.0000      -0.518050       -14.0969
  65   2.0000      -0.515363       -14.0237
  66   2.0000      -0.505444       -13.7538
  67   2.0000      -0.497900       -13.5485
  68   2.0000      -0.482573       -13.1315
  69   2.0000      -0.464306       -12.6344
  70   2.0000      -0.454959       -12.3801
  71   2.0000      -0.441994       -12.0273
  72   2.0000      -0.358175        -9.7464
  73   2.0000      -0.354598        -9.6491
  74   2.0000      -0.331229        -9.0132
  75   2.0000      -0.327236        -8.9045
  76   2.0000      -0.318361        -8.6630
  77   0.0000       0.068760         1.8711
  78   0.0000       0.099346         2.7033
  79   0.0000       0.121790         3.3141
  80   0.0000       0.128133         3.4867
  81   0.0000       0.132216         3.5978

MULLIKEN ATOMIC CHARGES
-----------------------
   0 C :   -0.265487
   1 C :    0.023305
   2 O :   -0.386742
   3 C :    0.506527
   4 O :   -0.405676
   5 C :   -0.277283
   6 C :    0.156751
   7 C :   -0.270606
   8 N :   -0.124635
   9 C :    0.211736
  10 S :   -0.435615
  11 N :   -0.199357
  12 C :    0.046627
  13 C :    0.049097
  14 C :   -0.186624
  15 C :   -0.127734
  16 C :   -0.274859
  17 C :    0.313845
  18 O :   -0.356112
  19 C :   -0.262021
  20 H :    0.106393
  21 H :    0.087788
  22 H :    0.097823
  23 H :    0.101517
  24 H :    0.108648
  25 H :    0.128391
  26 H :    0.135635
  27 H :    0.094895
  28 H :    0.198560
  29 H :    0.192826
  30 H :    0.151446
  31 H :    0.150005
  32 H :    0.165445
  33 H :    0.133743
  34 H :    0.241940
  35 H :    0.169810
Sum of atomic charges:   -0.0000000

LOEWDIN ATOMIC CHARGES
----------------------
   0 C :    0.105785
   1 C :   -0.021815
   2 O :    0.283871
   3 C :   -0.418585
   4 O :    0.123037
   5 C :   -0.099645
   6 C :   -0.057659
   7 C :    0.131004
   8 N :    0.407100
   9 C :   -0.456874
  10 S :   -0.031980
  11 N :    0.396361
  12 C :   -0.052880
  13 C :   -0.038286
  14 C :    0.016016
  15 C :    0.042135
  16 C :   -0.000875
  17 C :   -0.190966
  18 O :    0.396538
  19 C :    0.030247
  20 H :   -0.028076
  21 H :   -0.030609
  22 H :   -0.025580
  23 H :   -0.032458
  24 H :   -0.024198
  25 H :   -0.005610
  26 H :   -0.002856
  27 H :   -0.023141
  28 H :   -0.057289
  29 H :   -0.065156
  30 H :   -0.007032
  31 H :   -0.029090
  32 H :   -0.019851
  33 H :   -0.034226
  34 H :   -0.152499
  35 H :   -0.024858

  Mayer bond orders larger than 0.100000
B(  0-C ,  1-C ) :   0.9837 B(  0-C , 20-H ) :   0.9726 B(  0-C , 21-H ) :   0.9768
B(  0-C , 22-H ) :   0.9790 B(  1-C ,  2-O ) :   0.8753 B(  1-C , 23-H ) :   0.9655
B(  1-C , 24-H ) :   0.9794 B(  2-O ,  3-C ) :   1.0915 B(  3-C ,  4-O ) :   2.0130
B(  3-C ,  5-C ) :   1.0641 B(  5-C ,  6-C ) :   1.6510 B(  5-C , 12-C ) :   0.9689
B(  6-C ,  7-C ) :   0.9701 B(  6-C ,  8-N ) :   1.1576 B(  7-C , 25-H ) :   0.9629
B(  7-C , 26-H ) :   0.9570 B(  7-C , 27-H ) :   0.9893 B(  8-N ,  9-C ) :   1.1781
B(  8-N , 28-H ) :   0.9479 B(  9-C , 10-S ) :   1.6132 B(  9-C , 11-N ) :   1.3033
B( 11-N , 12-C ) :   0.9738 B( 11-N , 29-H ) :   0.9536 B( 12-C , 13-C ) :   0.9509
B( 12-C , 30-H ) :   1.0009 B( 13-C , 14-C ) :   1.3423 B( 13-C , 19-C ) :   1.3688
B( 14-C , 15-C ) :   1.3850 B( 14-C , 31-H ) :   0.9775 B( 15-C , 16-C ) :   1.3676
B( 15-C , 32-H ) :   0.9688 B( 16-C , 17-C ) :   1.3271 B( 16-C , 33-H ) :   0.9835
B( 17-C , 18-O ) :   1.1146 B( 17-C , 19-C ) :   1.3732 B( 18-O , 34-H ) :   0.9789
B( 19-C , 35-H ) :   0.9572

MP2 TOTAL ENERGY:    -1274.330640824 Eh
FINAL SINGLE POINT ENERGY     -1274.330640824463

DIPOLE MOMENT
-------------
                                X             Y             Z
Electronic contribution:     10.57207       9.41546       7.00885
Nuclear contribution   :    -11.59562     -10.92394      -6.72547
                        -----------------------------------------
Total Dipole Moment    :     -1.02355      -1.50848       0.28338
                        -----------------------------------------
Magnitude (a.u.)       :      1.84485
Magnitude (Debye)      :      4.68925

Rotational constants in cm-1:     0.011864     0.009200     0.006380
Rotational constants in MHz :   355.684467   275.801855   191.279634

                             ****ORCA TERMINATED NORMALLY****
TOTAL RUN TIME: 0 days 1 hours 44 minutes 51 seconds 949 msec
