                         Program Version 5.0.0 -  RELEASE  -
|  1> ! ri-mp2 cc-pvtz cc-pvtz/c TightSCF NoKeepInts
|  2>
|  3> %scf
|  4>   MaxCore 4096
|  5> end
|  6> *xyz  0  1
|  7>     C       14.7623054   14.1589008   15.8974971
|  8>     C       15.7724937   14.9440016   15.0383393
|  9>     O       16.3127411   16.0187993   15.8295067
| 10>     C       17.3055545   15.7693129   16.7340077
| 11>     O       17.8363222   14.6747140   16.8351919
| 12>     C       17.7041239   16.9407140   17.5888491
| 13>     C       17.2757599   18.2214753   17.4271010
| 14>     C       16.3202785   18.7697810   16.3866550
| 15>     N       17.7769620   19.2303976   18.2571415
| 16>     C       18.7994877   19.0734774   19.1548378
| 17>     S       19.4224941   20.3516824   19.9996727
| 18>     N       19.2787380   17.7989082   19.3162435
| 19>     C       18.6722146   16.5914195   18.7258821
| 20>     C       17.9779530   15.7611068   19.8027138
| 21>     C       18.3050973   14.4035554   19.9765861
| 22>     C       17.6671486   13.6330845   20.9631421
| 23>     C       16.6924647   14.2242250   21.7847718
| 24>     C       16.3608515   15.5749628   21.6128204
| 25>     O       15.4156469   16.1471974   22.4005700
| 26>     C       16.9972208   16.3391376   20.6296816
| 27>     H       15.2614464   13.6799412   16.7495822
| 28>     H       14.2818598   13.3732920   15.3019695
| 29>     H       13.9803496   14.8244528   16.2833953
| 30>     H       16.5681418   14.2816068   14.6701330
| 31>     H       15.2490911   15.3624334   14.1691873
| 32>     H       16.6793186   18.5481164   15.3739666
| 33>     H       16.1961613   19.8573071   16.4544816
| 34>     H       15.3254042   18.3211798   16.5001988
| 35>     H       17.4380314   20.1734453   18.1541519
| 36>     H       20.0105917   17.7028750   20.0083730
| 37>     H       19.4866128   15.9883017   18.2989761
| 38>     H       19.0459398   13.9392692   19.3301611
| 39>     H       17.9249979   12.5823557   21.0824975
| 40>     H       16.1958489   13.6323638   22.5463086
| 41>     H       15.1199444   15.4748212   23.0323794
| 42>     H       16.7274019   17.3833850   20.5170268
| 43> *
| 44>
| 45>                          ****END OF INPUT****

CARTESIAN COORDINATES (ANGSTROEM)
---------------------------------
  C     14.762305   14.158901   15.897497
  C     15.772494   14.944002   15.038339
  O     16.312741   16.018799   15.829507
  C     17.305554   15.769313   16.734008
  O     17.836322   14.674714   16.835192
  C     17.704124   16.940714   17.588849
  C     17.275760   18.221475   17.427101
  C     16.320279   18.769781   16.386655
  N     17.776962   19.230398   18.257141
  C     18.799488   19.073477   19.154838
  S     19.422494   20.351682   19.999673
  N     19.278738   17.798908   19.316243
  C     18.672215   16.591420   18.725882
  C     17.977953   15.761107   19.802714
  C     18.305097   14.403555   19.976586
  C     17.667149   13.633085   20.963142
  C     16.692465   14.224225   21.784772
  C     16.360851   15.574963   21.612820
  O     15.415647   16.147197   22.400570
  C     16.997221   16.339138   20.629682
  H     15.261446   13.679941   16.749582
  H     14.281860   13.373292   15.301970
  H     13.980350   14.824453   16.283395
  H     16.568142   14.281607   14.670133
  H     15.249091   15.362433   14.169187
  H     16.679319   18.548116   15.373967
  H     16.196161   19.857307   16.454482
  H     15.325404   18.321180   16.500199
  H     17.438031   20.173445   18.154152
  H     20.010592   17.702875   20.008373
  H     19.486613   15.988302   18.298976
  H     19.045940   13.939269   19.330161
  H     17.924998   12.582356   21.082497
  H     16.195849   13.632364   22.546309
  H     15.119944   15.474821   23.032379
  H     16.727402   17.383385   20.517027

 Total Charge           Charge          ....    0
 Multiplicity           Mult            ....    1
 Number of Electrons    NEL             ....  154
 Basis Dimension        Dim             ....  828

ORBITAL ENERGIES
----------------

  NO   OCC          E(Eh)            E(eV)
   0   2.0000     -91.888212     -2500.4054
   1   2.0000     -20.604738      -560.6834
   2   2.0000     -20.591042      -560.3107
   3   2.0000     -20.544627      -559.0477
   4   2.0000     -15.628813      -425.2816
   5   2.0000     -15.606652      -424.6786
   6   2.0000     -11.396776      -310.1221
   7   2.0000     -11.382912      -309.7448
   8   2.0000     -11.337616      -308.5122
   9   2.0000     -11.306840      -307.6748
  10   2.0000     -11.304999      -307.6247
  11   2.0000     -11.300402      -307.4996
  12   2.0000     -11.261091      -306.4299
  13   2.0000     -11.258828      -306.3683
  14   2.0000     -11.252817      -306.2047
  15   2.0000     -11.246972      -306.0457
  16   2.0000     -11.236638      -305.7645
  17   2.0000     -11.232833      -305.6609
  18   2.0000     -11.229691      -305.5754
  19   2.0000     -11.226909      -305.4997
  20   2.0000      -8.893268      -241.9981
  21   2.0000      -6.574844      -178.9106
  22   2.0000      -6.572839      -178.8560
  23   2.0000      -6.572252      -178.8401
  24   2.0000      -1.454264       -39.5725
  25   2.0000      -1.410780       -38.3893
  26   2.0000      -1.357071       -36.9278
  27   2.0000      -1.339649       -36.4537
  28   2.0000      -1.237073       -33.6625
  29   2.0000      -1.151604       -31.3367
  30   2.0000      -1.119268       -30.4568
  31   2.0000      -1.041991       -28.3540
  32   2.0000      -1.034530       -28.1510
  33   2.0000      -1.008915       -27.4540
  34   2.0000      -0.997264       -27.1369
  35   2.0000      -0.982739       -26.7417
  36   2.0000      -0.921090       -25.0641
  37   2.0000      -0.893968       -24.3261
  38   2.0000      -0.847738       -23.0681
  39   2.0000      -0.834933       -22.7197
  40   2.0000      -0.827218       -22.5097
  41   2.0000      -0.815614       -22.1940
  42   2.0000      -0.755051       -20.5460
  43   2.0000      -0.735902       -20.0249
  44   2.0000      -0.724366       -19.7110
  45   2.0000      -0.690533       -18.7904
  46   2.0000      -0.685679       -18.6583
  47   2.0000      -0.679380       -18.4869
  48   2.0000      -0.670847       -18.2547
  49   2.0000      -0.653017       -17.7695
  50   2.0000      -0.651519       -17.7287
  51   2.0000      -0.644246       -17.5308
  52   2.0000      -0.630402       -17.1541
  53   2.0000      -0.612490       -16.6667
  54   2.0000      -0.599941       -16.3252
  55   2.0000      -0.598895       -16.2968
  56   2.0000      -0.594393       -16.1743
  57   2.0000      -0.582695       -15.8559
  58   2.0000      -0.573365       -15.6021
  59   2.0000      -0.564139       -15.3510
  60   2.0000      -0.558762       -15.2047
  61   2.0000      -0.546098       -14.8601
  62   2.0000      -0.536687       -14.6040
  63   2.0000      -0.528651       -14.3853
  64   2.0000      -0.516311       -14.0495
  65   2.0000      -0.508989       -13.8503
  66   2.0000      -0.498525       -13.5655
  67   2.0000      -0.494987       -13.4693
  68   2.0000      -0.481719       -13.1082
  69   2.0000      -0.463578       -12.6146
  70   2.0000      -0.458532       -12.4773
  71   2.0000      -0.452662       -12.3176
  72   2.0000      -0.354500        -9.6464
  73   2.0000      -0.343544        -9.3483
  74   2.0000      -0.327273        -8.9055
  75   2.0000      -0.315620        -8.5884
  76   2.0000      -0.313113        -8.5202
  77   0.0000       0.075563         2.0562
  78   0.0000       0.114210         3.1078
  79   0.0000       0.121287         3.3004
  80   0.0000       0.136566         3.7162
  81   0.0000       0.141208         3.8425

MULLIKEN ATOMIC CHARGES
-----------------------
   0 C :   -0.290818
   1 C :    0.027963
   2 O :   -0.346371
   3 C :    0.457993
   4 O :   -0.438699
   5 C :   -0.178933
   6 C :    0.143047
   7 C :   -0.282144
   8 N :   -0.119834
   9 C :    0.200982
  10 S :   -0.438577
  11 N :   -0.196783
  12 C :    0.032374
  13 C :    0.060363
  14 C :   -0.161742
  15 C :   -0.134254
  16 C :   -0.278712
  17 C :    0.311764
  18 O :   -0.359230
  19 C :   -0.273476
  20 H :    0.117909
  21 H :    0.094833
  22 H :    0.092789
  23 H :    0.109273
  24 H :    0.106738
  25 H :    0.127288
  26 H :    0.101111
  27 H :    0.127095
  28 H :    0.196676
  29 H :    0.193496
  30 H :    0.153421
  31 H :    0.153387
  32 H :    0.158943
  33 H :    0.127851
  34 H :    0.240003
  35 H :    0.164275
Sum of atomic charges:   -0.0000000

LOEWDIN ATOMIC CHARGES
----------------------
   0 C :    0.105624
   1 C :   -0.017477
   2 O :    0.306743
   3 C :   -0.414064
   4 O :    0.100524
   5 C :   -0.090755
   6 C :   -0.063403
   7 C :    0.125045
   8 N :    0.405105
   9 C :   -0.459226
  10 S :   -0.035463
  11 N :    0.398145
  12 C :   -0.046815
  13 C :   -0.038819
  14 C :    0.022214
  15 C :    0.040577
  16 C :   -0.002275
  17 C :   -0.192555
  18 O :    0.392953
  19 C :    0.028304
  20 H :   -0.023109
  21 H :   -0.026604
  22 H :   -0.029655
  23 H :   -0.027568
  24 H :   -0.026596
  25 H :   -0.008325
  26 H :   -0.021424
  27 H :   -0.009742
  28 H :   -0.059238
  29 H :   -0.063521
  30 H :   -0.005288
  31 H :   -0.025316
  32 H :   -0.021307
  33 H :   -0.036447
  34 H :   -0.154958
  35 H :   -0.025287

  Mayer bond orders larger than 0.100000
B(  0-C ,  1-C ) :   0.9638 B(  0-C , 20-H ) :   0.9747 B(  0-C , 21-H ) :   0.9759
B(  0-C , 22-H ) :   0.9773 B(  1-C ,  2-O ) :   0.8929 B(  1-C , 23-H ) :   0.9767
B(  1-C , 24-H ) :   0.9846 B(  2-O ,  3-C ) :   1.1633 B(  3-C ,  4-O ) :   1.9550
B(  3-C ,  5-C ) :   1.0728 B(  5-C ,  6-C ) :   1.6395 B(  5-C , 12-C ) :   0.9681
B(  6-C ,  7-C ) :   0.9569 B(  6-C ,  8-N ) :   1.1546 B(  7-C , 25-H ) :   0.9641
B(  7-C , 26-H ) :   0.9914 B(  7-C , 27-H ) :   0.9642 B(  8-N ,  9-C ) :   1.1761
B(  8-N , 28-H ) :   0.9485 B(  9-C , 10-S ) :   1.6115 B(  9-C , 11-N ) :   1.3054
B( 11-N , 12-C ) :   0.9925 B( 11-N , 29-H ) :   0.9519 B( 12-C , 13-C ) :   0.9464
B( 12-C , 30-H ) :   1.0010 B( 13-C , 14-C ) :   1.3747 B( 13-C , 19-C ) :   1.3691
B( 14-C , 15-C ) :   1.3946 B( 14-C , 31-H ) :   0.9649 B( 15-C , 16-C ) :   1.3622
B( 15-C , 32-H ) :   0.9715 B( 16-C , 17-C ) :   1.3317 B( 16-C , 33-H ) :   0.9861
B( 17-C , 18-O ) :   1.1079 B( 17-C , 19-C ) :   1.3794 B( 18-O , 34-H ) :   0.9807
B( 19-C , 35-H ) :   0.9585

MP2 TOTAL ENERGY:    -1274.350229150 Eh
FINAL SINGLE POINT ENERGY     -1274.350229150055

DIPOLE MOMENT
-------------
                                X             Y             Z
Electronic contribution:     10.96721       9.79671       9.83426
Nuclear contribution   :    -12.47288     -10.98651     -10.92878
                        -----------------------------------------
Total Dipole Moment    :     -1.50566      -1.18980      -1.09451
                        -----------------------------------------
Magnitude (a.u.)       :      2.20921
Magnitude (Debye)      :      5.61537

Rotational constants in cm-1:     0.010575     0.009078     0.005925
Rotational constants in MHz :   317.027898   272.153918   177.641278

                             ****ORCA TERMINATED NORMALLY****
TOTAL RUN TIME: 0 days 1 hours 28 minutes 5 seconds 208 msec
