                         Program Version 4.2.0 -  RELEASE  -
|  1> ! ri-mp2 cc-pvtz cc-pvtz/c TightSCF  NoKeepInts
|  2>
|  3> %scf
|  4>   MaxCore 4096
|  5> end
|  6> *xyz  0  1
|  7>     C       14.3682092   14.7256833   15.9677616
|  8>     C       15.7775870   14.7285298   15.3515902
|  9>     O       16.4608612   15.8915839   15.8554827
| 10>     C       17.5495807   15.7568315   16.6686237
| 11>     O       18.1555148   14.7039406   16.7836943
| 12>     C       17.8142741   16.9375148   17.5601949
| 13>     C       17.2955171   18.1825694   17.3890368
| 14>     C       16.3689666   18.6694180   16.2934054
| 15>     N       17.6672262   19.2144523   18.2576682
| 16>     C       18.6488033   19.1243446   19.2088121
| 17>     S       19.1175635   20.4331003   20.1049756
| 18>     N       19.2227174   17.8903561   19.3783645
| 19>     C       18.7521820   16.6479844   18.7380951
| 20>     C       18.0783996   15.7410514   19.7647923
| 21>     C       18.5195000   14.4168842   19.9440069
| 22>     C       17.9006248   13.5763589   20.8844588
| 23>     C       16.8301443   14.0629854   21.6537816
| 24>     C       16.3850649   15.3799164   21.4759080
| 25>     O       15.3473385   15.8508047   22.2126547
| 26>     C       17.0028787   16.2140416   20.5389072
| 27>     H       14.4261156   14.6476159   17.0609074
| 28>     H       13.7871379   13.8737559   15.5942245
| 29>     H       13.8305947   15.6473473   15.7129823
| 30>     H       16.2958935   13.7927436   15.6008629
| 31>     H       15.6987555   14.7929701   14.2587684
| 32>     H       16.7665655   18.4116247   15.3038892
| 33>     H       16.2275944   19.7568557   16.3092181
| 34>     H       15.3784899   18.2076416   16.3911468
| 35>     H       17.2575171   20.1283566   18.1490542
| 36>     H       19.9215846   17.8419689   20.1085214
| 37>     H       19.6346385   16.1242188   18.3429229
| 38>     H       19.3356599   14.0324847   19.3370979
| 39>     H       18.2475787   12.5521413   21.0084832
| 40>     H       16.3480171   13.4165921   22.3794566
| 41>     H       15.0832328   15.1465779   22.8234418
| 42>     H       16.6446703   17.2307533   20.4208081
| 43> *
| 44>
| 45>                          ****END OF INPUT****

CARTESIAN COORDINATES (ANGSTROEM)
---------------------------------
  C     14.368209   14.725683   15.967762
  C     15.777587   14.728530   15.351590
  O     16.460861   15.891584   15.855483
  C     17.549581   15.756831   16.668624
  O     18.155515   14.703941   16.783694
  C     17.814274   16.937515   17.560195
  C     17.295517   18.182569   17.389037
  C     16.368967   18.669418   16.293405
  N     17.667226   19.214452   18.257668
  C     18.648803   19.124345   19.208812
  S     19.117563   20.433100   20.104976
  N     19.222717   17.890356   19.378364
  C     18.752182   16.647984   18.738095
  C     18.078400   15.741051   19.764792
  C     18.519500   14.416884   19.944007
  C     17.900625   13.576359   20.884459
  C     16.830144   14.062985   21.653782
  C     16.385065   15.379916   21.475908
  O     15.347338   15.850805   22.212655
  C     17.002879   16.214042   20.538907
  H     14.426116   14.647616   17.060907
  H     13.787138   13.873756   15.594224
  H     13.830595   15.647347   15.712982
  H     16.295893   13.792744   15.600863
  H     15.698755   14.792970   14.258768
  H     16.766565   18.411625   15.303889
  H     16.227594   19.756856   16.309218
  H     15.378490   18.207642   16.391147
  H     17.257517   20.128357   18.149054
  H     19.921585   17.841969   20.108521
  H     19.634639   16.124219   18.342923
  H     19.335660   14.032485   19.337098
  H     18.247579   12.552141   21.008483
  H     16.348017   13.416592   22.379457
  H     15.083233   15.146578   22.823442
  H     16.644670   17.230753   20.420808

 Total Charge           Charge          ....    0
 Multiplicity           Mult            ....    1
 Number of Electrons    NEL             ....  154
 Basis Dimension        Dim             ....  828

ORBITAL ENERGIES
----------------

  NO   OCC          E(Eh)            E(eV)
   0   2.0000     -91.888100     -2500.4023
   1   2.0000     -20.603052      -560.6376
   2   2.0000     -20.591810      -560.3316
   3   2.0000     -20.545334      -559.0670
   4   2.0000     -15.628528      -425.2739
   5   2.0000     -15.606698      -424.6798
   6   2.0000     -11.396436      -310.1128
   7   2.0000     -11.382949      -309.7458
   8   2.0000     -11.336639      -308.4856
   9   2.0000     -11.307618      -307.6959
  10   2.0000     -11.305432      -307.6365
  11   2.0000     -11.298706      -307.4534
  12   2.0000     -11.260683      -306.4188
  13   2.0000     -11.258995      -306.3728
  14   2.0000     -11.253428      -306.2213
  15   2.0000     -11.247666      -306.0646
  16   2.0000     -11.237347      -305.7838
  17   2.0000     -11.233507      -305.6793
  18   2.0000     -11.231975      -305.6376
  19   2.0000     -11.230383      -305.5943
  20   2.0000      -8.893162      -241.9953
  21   2.0000      -6.574739      -178.9078
  22   2.0000      -6.572733      -178.8532
  23   2.0000      -6.572147      -178.8372
  24   2.0000      -1.453538       -39.5528
  25   2.0000      -1.411553       -38.4103
  26   2.0000      -1.357372       -36.9360
  27   2.0000      -1.339444       -36.4481
  28   2.0000      -1.237015       -33.6609
  29   2.0000      -1.152166       -31.3520
  30   2.0000      -1.119482       -30.4626
  31   2.0000      -1.043843       -28.4044
  32   2.0000      -1.036467       -28.2037
  33   2.0000      -1.009544       -27.4711
  34   2.0000      -0.997794       -27.1514
  35   2.0000      -0.983287       -26.7566
  36   2.0000      -0.921189       -25.0668
  37   2.0000      -0.891511       -24.2593
  38   2.0000      -0.847285       -23.0558
  39   2.0000      -0.834996       -22.7214
  40   2.0000      -0.827874       -22.5276
  41   2.0000      -0.815784       -22.1986
  42   2.0000      -0.760851       -20.7038
  43   2.0000      -0.736243       -20.0342
  44   2.0000      -0.724826       -19.7235
  45   2.0000      -0.691134       -18.8067
  46   2.0000      -0.685101       -18.6425
  47   2.0000      -0.679049       -18.4779
  48   2.0000      -0.672902       -18.3106
  49   2.0000      -0.659210       -17.9380
  50   2.0000      -0.648868       -17.6566
  51   2.0000      -0.644117       -17.5273
  52   2.0000      -0.633899       -17.2493
  53   2.0000      -0.602963       -16.4075
  54   2.0000      -0.600136       -16.3305
  55   2.0000      -0.596473       -16.2309
  56   2.0000      -0.593853       -16.1596
  57   2.0000      -0.584161       -15.8958
  58   2.0000      -0.573762       -15.6128
  59   2.0000      -0.561833       -15.2882
  60   2.0000      -0.559983       -15.2379
  61   2.0000      -0.557269       -15.1641
  62   2.0000      -0.537338       -14.6217
  63   2.0000      -0.527993       -14.3674
  64   2.0000      -0.517328       -14.0772
  65   2.0000      -0.509833       -13.8733
  66   2.0000      -0.499282       -13.5861
  67   2.0000      -0.495529       -13.4840
  68   2.0000      -0.481117       -13.0919
  69   2.0000      -0.463581       -12.6147
  70   2.0000      -0.457370       -12.4457
  71   2.0000      -0.454784       -12.3753
  72   2.0000      -0.354347        -9.6423
  73   2.0000      -0.344066        -9.3625
  74   2.0000      -0.327219        -8.9041
  75   2.0000      -0.315717        -8.5911
  76   2.0000      -0.313793        -8.5387
  77   0.0000       0.075798         2.0626
  78   0.0000       0.112755         3.0682
  79   0.0000       0.120303         3.2736
  80   0.0000       0.136006         3.7009
  81   0.0000       0.140281         3.8172

MULLIKEN ATOMIC CHARGES
-----------------------
   0 C :   -0.272552
   1 C :    0.014573
   2 O :   -0.344661
   3 C :    0.451624
   4 O :   -0.429170
   5 C :   -0.179578
   6 C :    0.143066
   7 C :   -0.284978
   8 N :   -0.122149
   9 C :    0.201711
  10 S :   -0.439179
  11 N :   -0.197026
  12 C :    0.036931
  13 C :    0.056720
  14 C :   -0.159846
  15 C :   -0.133957
  16 C :   -0.279487
  17 C :    0.311515
  18 O :   -0.359167
  19 C :   -0.274258
  20 H :    0.103560
  21 H :    0.097871
  22 H :    0.089351
  23 H :    0.122005
  24 H :    0.100685
  25 H :    0.127302
  26 H :    0.102683
  27 H :    0.126885
  28 H :    0.196815
  29 H :    0.193637
  30 H :    0.153776
  31 H :    0.153262
  32 H :    0.159078
  33 H :    0.128140
  34 H :    0.240111
  35 H :    0.164709
Sum of atomic charges:   -0.0000000

LOEWDIN ATOMIC CHARGES
----------------------
   0 C :    0.103829
   1 C :   -0.012406
   2 O :    0.307892
   3 C :   -0.415005
   4 O :    0.103241
   5 C :   -0.091533
   6 C :   -0.065545
   7 C :    0.124897
   8 N :    0.404856
   9 C :   -0.458920
  10 S :   -0.035901
  11 N :    0.397922
  12 C :   -0.046549
  13 C :   -0.038821
  14 C :    0.022324
  15 C :    0.040915
  16 C :   -0.002477
  17 C :   -0.192983
  18 O :    0.392927
  19 C :    0.028098
  20 H :   -0.024497
  21 H :   -0.024986
  22 H :   -0.030442
  23 H :   -0.026687
  24 H :   -0.029753
  25 H :   -0.008165
  26 H :   -0.021080
  27 H :   -0.010370
  28 H :   -0.059193
  29 H :   -0.063654
  30 H :   -0.004999
  31 H :   -0.025252
  32 H :   -0.021228
  33 H :   -0.036414
  34 H :   -0.154900
  35 H :   -0.025141

  Mayer bond orders larger than 0.100000
B(  0-C ,  1-C ) :   0.9711 B(  0-C , 20-H ) :   0.9762 B(  0-C , 21-H ) :   0.9768
B(  0-C , 22-H ) :   0.9796 B(  1-C ,  2-O ) :   0.8863 B(  1-C , 23-H ) :   0.9726
B(  1-C , 24-H ) :   0.9833 B(  2-O ,  3-C ) :   1.1653 B(  3-C ,  4-O ) :   1.9852
B(  3-C ,  5-C ) :   1.0442 B(  5-C ,  6-C ) :   1.6488 B(  5-C , 12-C ) :   0.9659
B(  6-C ,  7-C ) :   0.9556 B(  6-C ,  8-N ) :   1.1484 B(  7-C , 25-H ) :   0.9658
B(  7-C , 26-H ) :   0.9910 B(  7-C , 27-H ) :   0.9639 B(  8-N ,  9-C ) :   1.1784
B(  8-N , 28-H ) :   0.9487 B(  9-C , 10-S ) :   1.6107 B(  9-C , 11-N ) :   1.3045
B( 11-N , 12-C ) :   0.9920 B( 11-N , 29-H ) :   0.9521 B( 12-C , 13-C ) :   0.9474
B( 12-C , 30-H ) :   0.9999 B( 13-C , 14-C ) :   1.3762 B( 13-C , 19-C ) :   1.3686
B( 14-C , 15-C ) :   1.3946 B( 14-C , 31-H ) :   0.9648 B( 15-C , 16-C ) :   1.3625
B( 15-C , 32-H ) :   0.9714 B( 16-C , 17-C ) :   1.3317 B( 16-C , 33-H ) :   0.9859
B( 17-C , 18-O ) :   1.1080 B( 17-C , 19-C ) :   1.3787 B( 18-O , 34-H ) :   0.9806
B( 19-C , 35-H ) :   0.9585

MP2 TOTAL ENERGY:    -1274.346675521 Eh
FINAL SINGLE POINT ENERGY     -1274.346675520582

DIPOLE MOMENT
-------------
                                X             Y             Z
Electronic contribution:     11.66013       8.97876       9.47858
Nuclear contribution   :    -13.12258     -10.28538     -10.51103
                        -----------------------------------------
Total Dipole Moment    :     -1.46246      -1.30662      -1.03245
                        -----------------------------------------
Magnitude (a.u.)       :      2.21630
Magnitude (Debye)      :      5.63339

Rotational constants in cm-1:     0.010487     0.009158     0.006115
Rotational constants in MHz :   314.386415   274.542630   183.325162

                             ****ORCA TERMINATED NORMALLY****
TOTAL RUN TIME: 0 days 1 hours 36 minutes 59 seconds 576 msec
