                         Program Version 4.2.0 -  RELEASE  -
|  1> ! ri-mp2 cc-pvtz cc-pvtz/c TightSCF  NoKeepInts
|  2>
|  3> %scf
|  4>   MaxCore 4096
|  5> end
|  6> *xyz  0  1
|  7>     C       15.5509309   13.5810727   17.1509914
|  8>     C       16.3855609   14.1325733   15.9819082
|  9>     O       17.2588695   15.1501250   16.5068442
| 10>     C       16.9386407   16.4714543   16.3548898
| 11>     O       16.1223260   16.8559845   15.5347405
| 12>     C       17.5869102   17.3506951   17.3890436
| 13>     C       17.4136049   18.6970924   17.4107285
| 14>     C       16.5797493   19.5308052   16.4612735
| 15>     N       18.0711468   19.4739233   18.3691151
| 16>     C       18.9926916   19.0005523   19.2640726
| 17>     S       19.7985844   20.0035425   20.3036846
| 18>     N       19.2201576   17.6483909   19.2503816
| 19>     C       18.4647455   16.6668449   18.4513379
| 20>     C       17.6624798   15.7651945   19.3853303
| 21>     C       18.1321585   14.4758472   19.6987111
| 22>     C       17.4060756   13.6407212   20.5646072
| 23>     C       16.1998087   14.0980993   21.1217170
| 24>     C       15.7325267   15.3838861   20.8170338
| 25>     O       14.5698859   15.8295162   21.3560267
| 26>     C       16.4593459   16.2145409   19.9587198
| 27>     H       16.2002575   13.1461457   17.9198960
| 28>     H       14.8650853   12.8008218   16.7999484
| 29>     H       14.9555839   14.3792372   17.6122326
| 30>     H       16.9896394   13.3173461   15.5637243
| 31>     H       15.7329365   14.5110008   15.1835621
| 32>     H       15.5243773   19.2340005   16.5140295
| 33>     H       16.9096226   19.3824492   15.4251596
| 34>     H       16.6324474   20.6050421   16.6735347
| 35>     H       17.9184617   20.4694862   18.3921228
| 36>     H       19.8764914   17.3249183   19.9491143
| 37>     H       19.1978568   16.0439787   17.9196530
| 38>     H       19.0624669   14.1182360   19.2657780
| 39>     H       17.7774249   12.6448218   20.7999519
| 40>     H       15.6345758   13.4565614   21.7897045
| 41>     H       14.2384152   15.1369420   21.9470915
| 42>     H       16.0851577   17.2101505   19.7473392
| 43> *
| 44>
| 45>                          ****END OF INPUT****

CARTESIAN COORDINATES (ANGSTROEM)
---------------------------------
  C     15.550931   13.581073   17.150991
  C     16.385561   14.132573   15.981908
  O     17.258869   15.150125   16.506844
  C     16.938641   16.471454   16.354890
  O     16.122326   16.855985   15.534740
  C     17.586910   17.350695   17.389044
  C     17.413605   18.697092   17.410729
  C     16.579749   19.530805   16.461274
  N     18.071147   19.473923   18.369115
  C     18.992692   19.000552   19.264073
  S     19.798584   20.003542   20.303685
  N     19.220158   17.648391   19.250382
  C     18.464745   16.666845   18.451338
  C     17.662480   15.765194   19.385330
  C     18.132158   14.475847   19.698711
  C     17.406076   13.640721   20.564607
  C     16.199809   14.098099   21.121717
  C     15.732527   15.383886   20.817034
  O     14.569886   15.829516   21.356027
  C     16.459346   16.214541   19.958720
  H     16.200257   13.146146   17.919896
  H     14.865085   12.800822   16.799948
  H     14.955584   14.379237   17.612233
  H     16.989639   13.317346   15.563724
  H     15.732936   14.511001   15.183562
  H     15.524377   19.234000   16.514029
  H     16.909623   19.382449   15.425160
  H     16.632447   20.605042   16.673535
  H     17.918462   20.469486   18.392123
  H     19.876491   17.324918   19.949114
  H     19.197857   16.043979   17.919653
  H     19.062467   14.118236   19.265778
  H     17.777425   12.644822   20.799952
  H     15.634576   13.456561   21.789704
  H     14.238415   15.136942   21.947091
  H     16.085158   17.210151   19.747339

 Total Charge           Charge          ....    0
 Multiplicity           Mult            ....    1
 Number of Electrons    NEL             ....  154
 Basis Dimension        Dim             ....  828

ORBITAL ENERGIES
----------------

  NO   OCC          E(Eh)            E(eV)
   0   2.0000     -91.888817     -2500.4218
   1   2.0000     -20.599595      -560.5435
   2   2.0000     -20.598221      -560.5061
   3   2.0000     -20.541277      -558.9566
   4   2.0000     -15.629157      -425.2910
   5   2.0000     -15.608333      -424.7243
   6   2.0000     -11.394948      -310.0723
   7   2.0000     -11.383976      -309.7737
   8   2.0000     -11.336416      -308.4796
   9   2.0000     -11.315346      -307.9062
  10   2.0000     -11.309346      -307.7429
  11   2.0000     -11.293216      -307.3040
  12   2.0000     -11.261138      -306.4311
  13   2.0000     -11.259143      -306.3768
  14   2.0000     -11.256621      -306.3082
  15   2.0000     -11.252185      -306.1875
  16   2.0000     -11.244099      -305.9675
  17   2.0000     -11.239031      -305.8296
  18   2.0000     -11.238958      -305.8276
  19   2.0000     -11.221477      -305.3519
  20   2.0000      -8.893878      -242.0147
  21   2.0000      -6.575453      -178.9272
  22   2.0000      -6.573448      -178.8726
  23   2.0000      -6.572862      -178.8567
  24   2.0000      -1.449888       -39.4535
  25   2.0000      -1.417854       -38.5818
  26   2.0000      -1.353935       -36.8424
  27   2.0000      -1.340231       -36.4695
  28   2.0000      -1.238839       -33.7105
  29   2.0000      -1.158659       -31.5287
  30   2.0000      -1.120632       -30.4939
  31   2.0000      -1.043367       -28.3915
  32   2.0000      -1.035432       -28.1755
  33   2.0000      -1.016471       -27.6596
  34   2.0000      -0.995811       -27.0974
  35   2.0000      -0.984287       -26.7838
  36   2.0000      -0.923061       -25.1178
  37   2.0000      -0.890551       -24.2331
  38   2.0000      -0.847297       -23.0561
  39   2.0000      -0.838633       -22.8204
  40   2.0000      -0.834731       -22.7142
  41   2.0000      -0.814464       -22.1627
  42   2.0000      -0.760152       -20.6848
  43   2.0000      -0.733195       -19.9512
  44   2.0000      -0.722689       -19.6654
  45   2.0000      -0.697051       -18.9677
  46   2.0000      -0.688534       -18.7360
  47   2.0000      -0.678890       -18.4735
  48   2.0000      -0.669856       -18.2277
  49   2.0000      -0.664720       -18.0880
  50   2.0000      -0.648131       -17.6365
  51   2.0000      -0.642727       -17.4895
  52   2.0000      -0.633991       -17.2518
  53   2.0000      -0.608946       -16.5703
  54   2.0000      -0.601777       -16.3752
  55   2.0000      -0.599683       -16.3182
  56   2.0000      -0.597154       -16.2494
  57   2.0000      -0.578780       -15.7494
  58   2.0000      -0.570807       -15.5324
  59   2.0000      -0.566511       -15.4155
  60   2.0000      -0.561002       -15.2656
  61   2.0000      -0.546922       -14.8825
  62   2.0000      -0.535711       -14.5774
  63   2.0000      -0.527868       -14.3640
  64   2.0000      -0.526479       -14.3262
  65   2.0000      -0.512945       -13.9580
  66   2.0000      -0.502147       -13.6641
  67   2.0000      -0.497485       -13.5372
  68   2.0000      -0.481882       -13.1127
  69   2.0000      -0.463480       -12.6119
  70   2.0000      -0.451979       -12.2990
  71   2.0000      -0.447797       -12.1852
  72   2.0000      -0.354431        -9.6446
  73   2.0000      -0.350799        -9.5457
  74   2.0000      -0.328446        -8.9375
  75   2.0000      -0.322722        -8.7817
  76   2.0000      -0.316537        -8.6134
  77   0.0000       0.076715         2.0875
  78   0.0000       0.104486         2.8432
  79   0.0000       0.123943         3.3727
  80   0.0000       0.132100         3.5946
  81   0.0000       0.136412         3.7119

MULLIKEN ATOMIC CHARGES
-----------------------
   0 C :   -0.296377
   1 C :    0.020599
   2 O :   -0.356366
   3 C :    0.466113
   4 O :   -0.432368
   5 C :   -0.247453
   6 C :    0.158448
   7 C :   -0.270953
   8 N :   -0.122429
   9 C :    0.216725
  10 S :   -0.441798
  11 N :   -0.210343
  12 C :    0.070948
  13 C :    0.083806
  14 C :   -0.199874
  15 C :   -0.139637
  16 C :   -0.272259
  17 C :    0.316727
  18 O :   -0.358031
  19 C :   -0.269545
  20 H :    0.099445
  21 H :    0.106357
  22 H :    0.104642
  23 H :    0.101954
  24 H :    0.121501
  25 H :    0.131340
  26 H :    0.131479
  27 H :    0.095111
  28 H :    0.197030
  29 H :    0.195640
  30 H :    0.148305
  31 H :    0.147716
  32 H :    0.163991
  33 H :    0.131323
  34 H :    0.241269
  35 H :    0.166965
Sum of atomic charges:   -0.0000000

LOEWDIN ATOMIC CHARGES
----------------------
   0 C :    0.103976
   1 C :   -0.013900
   2 O :    0.306284
   3 C :   -0.414956
   4 O :    0.096453
   5 C :   -0.095121
   6 C :   -0.058832
   7 C :    0.131425
   8 N :    0.407011
   9 C :   -0.454898
  10 S :   -0.036146
  11 N :    0.396219
  12 C :   -0.052083
  13 C :   -0.035637
  14 C :    0.012067
  15 C :    0.041541
  16 C :   -0.001712
  17 C :   -0.188629
  18 O :    0.395923
  19 C :    0.031321
  20 H :   -0.028132
  21 H :   -0.027608
  22 H :   -0.026221
  23 H :   -0.028335
  24 H :   -0.028935
  25 H :   -0.004788
  26 H :   -0.003773
  27 H :   -0.023408
  28 H :   -0.057514
  29 H :   -0.065100
  30 H :   -0.010614
  31 H :   -0.030795
  32 H :   -0.021109
  33 H :   -0.035463
  34 H :   -0.153454
  35 H :   -0.025057

  Mayer bond orders larger than 0.100000
B(  0-C ,  1-C ) :   0.9664 B(  0-C , 20-H ) :   0.9727 B(  0-C , 21-H ) :   0.9780
B(  0-C , 22-H ) :   0.9752 B(  1-C ,  2-O ) :   0.8875 B(  1-C , 23-H ) :   0.9855
B(  1-C , 24-H ) :   0.9753 B(  2-O ,  3-C ) :   1.1697 B(  3-C ,  4-O ) :   1.9779
B(  3-C ,  5-C ) :   1.0515 B(  5-C ,  6-C ) :   1.6521 B(  5-C , 12-C ) :   0.9747
B(  6-C ,  7-C ) :   0.9668 B(  6-C ,  8-N ) :   1.1659 B(  7-C , 25-H ) :   0.9601
B(  7-C , 26-H ) :   0.9602 B(  7-C , 27-H ) :   0.9904 B(  8-N ,  9-C ) :   1.1840
B(  8-N , 28-H ) :   0.9478 B(  9-C , 10-S ) :   1.6018 B(  9-C , 11-N ) :   1.3090
B( 11-N , 12-C ) :   0.9728 B( 11-N , 29-H ) :   0.9515 B( 12-C , 13-C ) :   0.9403
B( 12-C , 30-H ) :   1.0017 B( 13-C , 14-C ) :   1.3489 B( 13-C , 19-C ) :   1.3738
B( 14-C , 15-C ) :   1.3891 B( 14-C , 31-H ) :   0.9742 B( 15-C , 16-C ) :   1.3593
B( 15-C , 32-H ) :   0.9709 B( 16-C , 17-C ) :   1.3312 B( 16-C , 33-H ) :   0.9848
B( 17-C , 18-O ) :   1.1097 B( 17-C , 19-C ) :   1.3698 B( 18-O , 34-H ) :   0.9794
B( 19-C , 35-H ) :   0.9587

MP2 TOTAL ENERGY:    -1274.350434129 Eh
FINAL SINGLE POINT ENERGY     -1274.350434129271

DIPOLE MOMENT
-------------
                                X             Y             Z
Electronic contribution:      8.56101      11.10325       6.06200
Nuclear contribution   :     -9.41418     -12.83738      -6.38059
                        -----------------------------------------
Total Dipole Moment    :     -0.85317      -1.73412      -0.31859
                        -----------------------------------------
Magnitude (a.u.)       :      1.95872
Magnitude (Debye)      :      4.97867

Rotational constants in cm-1:     0.012593     0.008644     0.006357
Rotational constants in MHz :   377.530467   259.127184   190.571963

                             ****ORCA TERMINATED NORMALLY****
TOTAL RUN TIME: 0 days 1 hours 46 minutes 6 seconds 549 msec
