                         Program Version 5.0.0 -  RELEASE  -
|  1> ! ri-mp2 cc-pvtz cc-pvtz/c TightSCF NoKeepInts
|  2>
|  3> %scf
|  4>   MaxCore 4096
|  5> end
|  6> *xyz  0  1
|  7>     C       15.3008170   14.7358899   17.3045475
|  8>     C       15.5261222   15.4577507   15.9616315
|  9>     O       16.9210372   15.4479999   15.5792115
| 10>     C       17.9606731   15.6432660   16.4505618
| 11>     O       18.8342601   14.8012087   16.5515781
| 12>     C       17.8978862   16.8326429   17.3668441
| 13>     C       17.3868152   18.0422775   17.0189163
| 14>     C       16.8390019   18.4845130   15.6764106
| 15>     N       17.4687887   19.1143639   17.9120811
| 16>     C       18.2160879   19.1209272   19.0596283
| 17>     S       18.3712706   20.4789850   19.9900244
| 18>     N       18.8331201   17.9423294   19.3929869
| 19>     C       18.6045797   16.6496887   18.7186519
| 20>     C       17.8552640   15.6816197   19.6324282
| 21>     C       18.2219060   14.3234369   19.6724250
| 22>     C       17.5352763   13.4176464   20.4977044
| 23>     C       16.4717013   13.8720486   21.2951197
| 24>     C       16.1031105   15.2233441   21.2617910
| 25>     O       15.0706105   15.6638340   22.0236509
| 26>     C       16.7876899   16.1230959   20.4384494
| 27>     H       15.8825528   13.8063214   17.3585084
| 28>     H       14.2413331   14.4796750   17.4251117
| 29>     H       15.5781202   15.3761469   18.1457451
| 30>     H       14.9486900   14.9489881   15.1787487
| 31>     H       15.1390996   16.4781540   16.0411939
| 32>     H       17.1228445   17.8072178   14.8628902
| 33>     H       17.2376298   19.4683177   15.3970350
| 34>     H       15.7463713   18.5681300   15.6958276
| 35>     H       17.0383665   19.9943289   17.6750291
| 36>     H       19.3673798   17.9679418   20.2523414
| 37>     H       19.5938484   16.2128693   18.5164959
| 38>     H       19.0384307   13.9646493   19.0492523
| 39>     H       17.8277290   12.3690576   20.5133311
| 40>     H       15.9376234   13.1751338   21.9325162
| 41>     H       14.7626548   14.9153402   22.5566691
| 42>     H       16.4783076   17.1628598   20.4286615
| 43> *
| 44>
| 45>                          ****END OF INPUT****

CARTESIAN COORDINATES (ANGSTROEM)
---------------------------------
  C     15.300817   14.735890   17.304548
  C     15.526122   15.457751   15.961631
  O     16.921037   15.448000   15.579211
  C     17.960673   15.643266   16.450562
  O     18.834260   14.801209   16.551578
  C     17.897886   16.832643   17.366844
  C     17.386815   18.042278   17.018916
  C     16.839002   18.484513   15.676411
  N     17.468789   19.114364   17.912081
  C     18.216088   19.120927   19.059628
  S     18.371271   20.478985   19.990024
  N     18.833120   17.942329   19.392987
  C     18.604580   16.649689   18.718652
  C     17.855264   15.681620   19.632428
  C     18.221906   14.323437   19.672425
  C     17.535276   13.417646   20.497704
  C     16.471701   13.872049   21.295120
  C     16.103110   15.223344   21.261791
  O     15.070610   15.663834   22.023651
  C     16.787690   16.123096   20.438449
  H     15.882553   13.806321   17.358508
  H     14.241333   14.479675   17.425112
  H     15.578120   15.376147   18.145745
  H     14.948690   14.948988   15.178749
  H     15.139100   16.478154   16.041194
  H     17.122844   17.807218   14.862890
  H     17.237630   19.468318   15.397035
  H     15.746371   18.568130   15.695828
  H     17.038366   19.994329   17.675029
  H     19.367380   17.967942   20.252341
  H     19.593848   16.212869   18.516496
  H     19.038431   13.964649   19.049252
  H     17.827729   12.369058   20.513331
  H     15.937623   13.175134   21.932516
  H     14.762655   14.915340   22.556669
  H     16.478308   17.162860   20.428662

 Total Charge           Charge          ....    0
 Multiplicity           Mult            ....    1
 Number of Electrons    NEL             ....  154
 Basis Dimension        Dim             ....  828

ORBITAL ENERGIES
----------------

  NO   OCC          E(Eh)            E(eV)
   0   2.0000     -91.891066     -2500.4830
   1   2.0000     -20.597055      -560.4744
   2   2.0000     -20.592837      -560.3596
   3   2.0000     -20.551846      -559.2442
   4   2.0000     -15.630055      -425.3154
   5   2.0000     -15.610246      -424.7764
   6   2.0000     -11.398767      -310.1762
   7   2.0000     -11.386557      -309.8440
   8   2.0000     -11.338708      -308.5419
   9   2.0000     -11.313777      -307.8635
  10   2.0000     -11.311197      -307.7933
  11   2.0000     -11.308302      -307.7145
  12   2.0000     -11.267933      -306.6161
  13   2.0000     -11.266120      -306.5667
  14   2.0000     -11.260399      -306.4110
  15   2.0000     -11.253835      -306.2324
  16   2.0000     -11.243191      -305.9428
  17   2.0000     -11.238899      -305.8260
  18   2.0000     -11.234899      -305.7172
  19   2.0000     -11.227626      -305.5192
  20   2.0000      -8.896146      -242.0764
  21   2.0000      -6.577728      -178.9891
  22   2.0000      -6.575710      -178.9342
  23   2.0000      -6.575127      -178.9183
  24   2.0000      -1.446667       -39.3658
  25   2.0000      -1.416874       -38.5551
  26   2.0000      -1.358361       -36.9629
  27   2.0000      -1.342896       -36.5421
  28   2.0000      -1.240878       -33.7660
  29   2.0000      -1.157800       -31.5053
  30   2.0000      -1.123477       -30.5714
  31   2.0000      -1.045919       -28.4609
  32   2.0000      -1.036069       -28.1929
  33   2.0000      -1.016329       -27.6557
  34   2.0000      -1.004811       -27.3423
  35   2.0000      -0.988877       -26.9087
  36   2.0000      -0.927003       -25.2250
  37   2.0000      -0.896388       -24.3920
  38   2.0000      -0.854532       -23.2530
  39   2.0000      -0.841228       -22.8910
  40   2.0000      -0.833676       -22.6855
  41   2.0000      -0.827687       -22.5225
  42   2.0000      -0.745048       -20.2738
  43   2.0000      -0.735070       -20.0023
  44   2.0000      -0.729683       -19.8557
  45   2.0000      -0.694895       -18.9091
  46   2.0000      -0.686594       -18.6832
  47   2.0000      -0.682063       -18.5599
  48   2.0000      -0.675220       -18.3737
  49   2.0000      -0.661861       -18.0102
  50   2.0000      -0.656184       -17.8557
  51   2.0000      -0.649977       -17.6868
  52   2.0000      -0.639337       -17.3972
  53   2.0000      -0.625697       -17.0261
  54   2.0000      -0.608760       -16.5652
  55   2.0000      -0.604896       -16.4601
  56   2.0000      -0.600945       -16.3525
  57   2.0000      -0.585169       -15.9233
  58   2.0000      -0.574781       -15.6406
  59   2.0000      -0.565114       -15.3775
  60   2.0000      -0.560745       -15.2587
  61   2.0000      -0.546990       -14.8844
  62   2.0000      -0.542112       -14.7516
  63   2.0000      -0.534966       -14.5572
  64   2.0000      -0.520472       -14.1628
  65   2.0000      -0.512788       -13.9537
  66   2.0000      -0.500800       -13.6275
  67   2.0000      -0.494368       -13.4524
  68   2.0000      -0.484108       -13.1732
  69   2.0000      -0.470208       -12.7950
  70   2.0000      -0.458532       -12.4773
  71   2.0000      -0.449477       -12.2309
  72   2.0000      -0.359613        -9.7856
  73   2.0000      -0.348436        -9.4814
  74   2.0000      -0.330458        -8.9922
  75   2.0000      -0.322233        -8.7684
  76   2.0000      -0.319207        -8.6861
  77   0.0000       0.074739         2.0338
  78   0.0000       0.106712         2.9038
  79   0.0000       0.117039         3.1848
  80   0.0000       0.131203         3.5702
  81   0.0000       0.133164         3.6236

MULLIKEN ATOMIC CHARGES
-----------------------
   0 C :   -0.323498
   1 C :    0.036014
   2 O :   -0.352464
   3 C :    0.467038
   4 O :   -0.387692
   5 C :   -0.244803
   6 C :    0.167162
   7 C :   -0.335599
   8 N :   -0.132142
   9 C :    0.191295
  10 S :   -0.437163
  11 N :   -0.213245
  12 C :    0.067216
  13 C :    0.018039
  14 C :   -0.198877
  15 C :   -0.139676
  16 C :   -0.271123
  17 C :    0.310980
  18 O :   -0.357549
  19 C :   -0.255542
  20 H :    0.120326
  21 H :    0.110163
  22 H :    0.112182
  23 H :    0.122926
  24 H :    0.080856
  25 H :    0.143656
  26 H :    0.130346
  27 H :    0.123326
  28 H :    0.197558
  29 H :    0.198692
  30 H :    0.164607
  31 H :    0.174822
  32 H :    0.164204
  33 H :    0.131788
  34 H :    0.240642
  35 H :    0.175536
Sum of atomic charges:   -0.0000000

LOEWDIN ATOMIC CHARGES
----------------------
   0 C :    0.108311
   1 C :   -0.019217
   2 O :    0.290680
   3 C :   -0.417424
   4 O :    0.125813
   5 C :   -0.085949
   6 C :   -0.081262
   7 C :    0.124548
   8 N :    0.404118
   9 C :   -0.460821
  10 S :   -0.035067
  11 N :    0.397674
  12 C :   -0.044111
  13 C :   -0.042781
  14 C :    0.021241
  15 C :    0.043315
  16 C :   -0.001392
  17 C :   -0.193318
  18 O :    0.395152
  19 C :    0.025867
  20 H :   -0.020077
  21 H :   -0.024161
  22 H :   -0.032589
  23 H :   -0.020576
  24 H :   -0.039752
  25 H :   -0.008412
  26 H :   -0.011864
  27 H :   -0.019359
  28 H :   -0.056765
  29 H :   -0.063119
  30 H :   -0.002461
  31 H :   -0.022986
  32 H :   -0.019282
  33 H :   -0.035208
  34 H :   -0.153674
  35 H :   -0.025095

  Mayer bond orders larger than 0.100000
B(  0-C ,  1-C ) :   0.9617 B(  0-C , 20-H ) :   0.9702 B(  0-C , 21-H ) :   0.9779
B(  0-C , 22-H ) :   0.9696 B(  1-C ,  2-O ) :   0.9001 B(  1-C , 23-H ) :   0.9816
B(  1-C , 24-H ) :   0.9732 B(  2-O ,  3-C ) :   1.1411 B(  3-C ,  4-O ) :   2.0638
B(  3-C ,  5-C ) :   0.9645 B(  5-C ,  6-C ) :   1.6650 B(  5-C , 12-C ) :   0.9531
B(  6-C ,  7-C ) :   0.9412 B(  6-C ,  8-N ) :   1.1257 B(  7-C , 25-H ) :   0.9717
B(  7-C , 26-H ) :   0.9769 B(  7-C , 27-H ) :   0.9657 B(  8-N ,  9-C ) :   1.1873
B(  8-N , 28-H ) :   0.9517 B(  9-C , 10-S ) :   1.6135 B(  9-C , 11-N ) :   1.2950
B( 11-N , 12-C ) :   0.9863 B( 11-N , 29-H ) :   0.9503 B( 12-C , 13-C ) :   0.9510
B( 12-C , 30-H ) :   0.9970 B( 13-C , 14-C ) :   1.3871 B( 13-C , 19-C ) :   1.3451
B( 14-C , 15-C ) :   1.3982 B( 14-C , 31-H ) :   0.9575 B( 15-C , 16-C ) :   1.3608
B( 15-C , 32-H ) :   0.9699 B( 16-C , 17-C ) :   1.3309 B( 16-C , 33-H ) :   0.9845
B( 17-C , 18-O ) :   1.1116 B( 17-C , 19-C ) :   1.3685 B( 18-O , 34-H ) :   0.9799
B( 19-C , 35-H ) :   0.9595

MP2 TOTAL ENERGY:    -1274.333595503 Eh
FINAL SINGLE POINT ENERGY     -1274.333595502679

DIPOLE MOMENT
-------------
                                X             Y             Z
Electronic contribution:      9.27813       7.59922       6.32001
Nuclear contribution   :    -10.84860      -8.58613      -6.87374
                        -----------------------------------------
Total Dipole Moment    :     -1.57047      -0.98690      -0.55372
                        -----------------------------------------
Magnitude (a.u.)       :      1.93571
Magnitude (Debye)      :      4.92018

Rotational constants in cm-1:     0.011410     0.009808     0.006654
Rotational constants in MHz :   342.071381   294.049325   199.486787

                             ****ORCA TERMINATED NORMALLY****
TOTAL RUN TIME: 0 days 2 hours 17 minutes 25 seconds 599 msec
