                         Program Version 5.0.0 -  RELEASE  -
|  1> ! ri-mp2 cc-pvtz cc-pvtz/c TightSCF NoKeepInts
|  2>
|  3> %scf
|  4>   MaxCore 4096
|  5> end
|  6> *xyz  0  1
|  7>     C       14.9376672   15.3193296   17.6196716
|  8>     C       15.6278538   15.3533162   16.2459492
|  9>     O       16.9809251   14.8803422   16.3758060
| 10>     C       18.0980103   15.6730929   16.4491125
| 11>     O       19.1847593   15.1347486   16.3487315
| 12>     C       17.9593789   16.8513186   17.3556354
| 13>     C       17.4842956   18.0434160   16.9269749
| 14>     C       17.0364247   18.3991294   15.5254288
| 15>     N       17.4774359   19.1417792   17.7892748
| 16>     C       18.0581626   19.1617869   19.0302828
| 17>     S       18.0726060   20.5292012   19.9598728
| 18>     N       18.6328450   17.9915377   19.4608705
| 19>     C       18.5648304   16.6954129   18.7555028
| 20>     C       17.8474323   15.6318111   19.5866432
| 21>     C       18.2394984   14.2840014   19.4827023
| 22>     C       17.5929127   13.2865377   20.2308565
| 23>     C       16.5442054   13.6371424   21.0971364
| 24>     C       16.1507165   14.9771167   21.2080560
| 25>     O       15.1319436   15.3181573   22.0365361
| 26>     C       16.7961105   15.9686610   20.4620788
| 27>     H       15.2603976   16.1646317   18.2365657
| 28>     H       15.1697560   14.3875339   18.1516103
| 29>     H       13.8491336   15.3865148   17.5050434
| 30>     H       15.0921766   14.6564098   15.5882074
| 31>     H       15.5588602   16.3427439   15.7892619
| 32>     H       17.2553406   17.6043620   14.8019377
| 33>     H       17.5592842   19.2959259   15.1682617
| 34>     H       15.9595808   18.6060349   15.4933517
| 35>     H       17.0816647   20.0169551   17.4837336
| 36>     H       19.0461395   18.0326594   20.3839786
| 37>     H       19.6003811   16.3496623   18.6190663
| 38>     H       19.0443800   14.0058207   18.8053073
| 39>     H       17.9041359   12.2479317   20.1328119
| 40>     H       16.0405020   12.8693184   21.6748867
| 41>     H       14.8440331   14.5114314   22.4897775
| 42>     H       16.4632201   16.9962254   20.5630756
| 43> *
| 44>
| 45>                          ****END OF INPUT****

CARTESIAN COORDINATES (ANGSTROEM)
---------------------------------
  C     14.937667   15.319330   17.619672
  C     15.627854   15.353316   16.245949
  O     16.980925   14.880342   16.375806
  C     18.098010   15.673093   16.449112
  O     19.184759   15.134749   16.348731
  C     17.959379   16.851319   17.355635
  C     17.484296   18.043416   16.926975
  C     17.036425   18.399129   15.525429
  N     17.477436   19.141779   17.789275
  C     18.058163   19.161787   19.030283
  S     18.072606   20.529201   19.959873
  N     18.632845   17.991538   19.460870
  C     18.564830   16.695413   18.755503
  C     17.847432   15.631811   19.586643
  C     18.239498   14.284001   19.482702
  C     17.592913   13.286538   20.230857
  C     16.544205   13.637142   21.097136
  C     16.150717   14.977117   21.208056
  O     15.131944   15.318157   22.036536
  C     16.796111   15.968661   20.462079
  H     15.260398   16.164632   18.236566
  H     15.169756   14.387534   18.151610
  H     13.849134   15.386515   17.505043
  H     15.092177   14.656410   15.588207
  H     15.558860   16.342744   15.789262
  H     17.255341   17.604362   14.801938
  H     17.559284   19.295926   15.168262
  H     15.959581   18.606035   15.493352
  H     17.081665   20.016955   17.483734
  H     19.046139   18.032659   20.383979
  H     19.600381   16.349662   18.619066
  H     19.044380   14.005821   18.805307
  H     17.904136   12.247932   20.132812
  H     16.040502   12.869318   21.674887
  H     14.844033   14.511431   22.489777
  H     16.463220   16.996225   20.563076

 Total Charge           Charge          ....    0
 Multiplicity           Mult            ....    1
 Number of Electrons    NEL             ....  154
 Basis Dimension        Dim             ....  828

ORBITAL ENERGIES
----------------

  NO   OCC          E(Eh)            E(eV)
   0   2.0000     -91.888939     -2500.4252
   1   2.0000     -20.601389      -560.5923
   2   2.0000     -20.596702      -560.4647
   3   2.0000     -20.556213      -559.3630
   4   2.0000     -15.624829      -425.1732
   5   2.0000     -15.611017      -424.7974
   6   2.0000     -11.399482      -310.1957
   7   2.0000     -11.385717      -309.8211
   8   2.0000     -11.326594      -308.2123
   9   2.0000     -11.316310      -307.9325
  10   2.0000     -11.313093      -307.8449
  11   2.0000     -11.305670      -307.6429
  12   2.0000     -11.272466      -306.7394
  13   2.0000     -11.267856      -306.6140
  14   2.0000     -11.261713      -306.4468
  15   2.0000     -11.253622      -306.2266
  16   2.0000     -11.242828      -305.9329
  17   2.0000     -11.238623      -305.8185
  18   2.0000     -11.235571      -305.7354
  19   2.0000     -11.226739      -305.4951
  20   2.0000      -8.894068      -242.0199
  21   2.0000      -6.575665      -178.9329
  22   2.0000      -6.573629      -178.8775
  23   2.0000      -6.573061      -178.8621
  24   2.0000      -1.452914       -39.5358
  25   2.0000      -1.416526       -38.5456
  26   2.0000      -1.362306       -37.0702
  27   2.0000      -1.339264       -36.4432
  28   2.0000      -1.239248       -33.7217
  29   2.0000      -1.158036       -31.5118
  30   2.0000      -1.124623       -30.6026
  31   2.0000      -1.047532       -28.5048
  32   2.0000      -1.038942       -28.2711
  33   2.0000      -1.016512       -27.6607
  34   2.0000      -1.004859       -27.3436
  35   2.0000      -0.988962       -26.9110
  36   2.0000      -0.927166       -25.2295
  37   2.0000      -0.890898       -24.2426
  38   2.0000      -0.854068       -23.2404
  39   2.0000      -0.839848       -22.8534
  40   2.0000      -0.833426       -22.6787
  41   2.0000      -0.832103       -22.6427
  42   2.0000      -0.755974       -20.5711
  43   2.0000      -0.739005       -20.1094
  44   2.0000      -0.729917       -19.8620
  45   2.0000      -0.694922       -18.9098
  46   2.0000      -0.688328       -18.7303
  47   2.0000      -0.682118       -18.5614
  48   2.0000      -0.675968       -18.3940
  49   2.0000      -0.664315       -18.0769
  50   2.0000      -0.652194       -17.7471
  51   2.0000      -0.639468       -17.4008
  52   2.0000      -0.635587       -17.2952
  53   2.0000      -0.620376       -16.8813
  54   2.0000      -0.611835       -16.6489
  55   2.0000      -0.605558       -16.4781
  56   2.0000      -0.600987       -16.3537
  57   2.0000      -0.590515       -16.0687
  58   2.0000      -0.578805       -15.7501
  59   2.0000      -0.572260       -15.5720
  60   2.0000      -0.564790       -15.3687
  61   2.0000      -0.557931       -15.1821
  62   2.0000      -0.538308       -14.6481
  63   2.0000      -0.530333       -14.4311
  64   2.0000      -0.516787       -14.0625
  65   2.0000      -0.512111       -13.9353
  66   2.0000      -0.504060       -13.7162
  67   2.0000      -0.500732       -13.6256
  68   2.0000      -0.485600       -13.2138
  69   2.0000      -0.465941       -12.6789
  70   2.0000      -0.455668       -12.3993
  71   2.0000      -0.450959       -12.2712
  72   2.0000      -0.357055        -9.7160
  73   2.0000      -0.347277        -9.4499
  74   2.0000      -0.328747        -8.9457
  75   2.0000      -0.321491        -8.7482
  76   2.0000      -0.317700        -8.6451
  77   0.0000       0.090897         2.4734
  78   0.0000       0.102448         2.7878
  79   0.0000       0.110448         3.0054
  80   0.0000       0.128496         3.4966
  81   0.0000       0.131112         3.5677

MULLIKEN ATOMIC CHARGES
-----------------------
   0 C :   -0.299916
   1 C :    0.001158
   2 O :   -0.310189
   3 C :    0.392428
   4 O :   -0.371887
   5 C :   -0.177131
   6 C :    0.132525
   7 C :   -0.330006
   8 N :   -0.138509
   9 C :    0.210238
  10 S :   -0.444038
  11 N :   -0.233978
  12 C :    0.093140
  13 C :    0.037480
  14 C :   -0.206813
  15 C :   -0.135391
  16 C :   -0.282233
  17 C :    0.330467
  18 O :   -0.358894
  19 C :   -0.290690
  20 H :    0.103744
  21 H :    0.119946
  22 H :    0.109041
  23 H :    0.126315
  24 H :    0.086940
  25 H :    0.118489
  26 H :    0.140593
  27 H :    0.122057
  28 H :    0.194711
  29 H :    0.204310
  30 H :    0.168908
  31 H :    0.169427
  32 H :    0.163516
  33 H :    0.131562
  34 H :    0.240985
  35 H :    0.181696
Sum of atomic charges:    0.0000000

LOEWDIN ATOMIC CHARGES
----------------------
   0 C :    0.105717
   1 C :   -0.025646
   2 O :    0.316592
   3 C :   -0.420155
   4 O :    0.133693
   5 C :   -0.074971
   6 C :   -0.111147
   7 C :    0.119592
   8 N :    0.400341
   9 C :   -0.456691
  10 S :   -0.040193
  11 N :    0.398531
  12 C :   -0.040522
  13 C :   -0.040316
  14 C :    0.023439
  15 C :    0.043523
  16 C :   -0.002238
  17 C :   -0.193082
  18 O :    0.395327
  19 C :    0.028052
  20 H :   -0.033761
  21 H :   -0.018567
  22 H :   -0.026940
  23 H :   -0.022965
  24 H :   -0.039027
  25 H :   -0.011521
  26 H :   -0.008795
  27 H :   -0.017843
  28 H :   -0.058844
  29 H :   -0.063548
  30 H :   -0.001756
  31 H :   -0.022197
  32 H :   -0.018889
  33 H :   -0.035317
  34 H :   -0.153700
  35 H :   -0.026174

  Mayer bond orders larger than 0.100000
B(  0-C ,  1-C ) :   0.9623 B(  0-C , 20-H ) :   0.9720 B(  0-C , 21-H ) :   0.9702
B(  0-C , 22-H ) :   0.9773 B(  1-C ,  2-O ) :   0.9155 B(  1-C , 23-H ) :   0.9869
B(  1-C , 24-H ) :   0.9747 B(  2-O ,  3-C ) :   1.1270 B(  3-C ,  4-O ) :   2.0875
B(  3-C ,  5-C ) :   0.9209 B(  5-C ,  6-C ) :   1.7124 B(  5-C , 12-C ) :   0.9487
B(  6-C ,  7-C ) :   0.9391 B(  6-C ,  8-N ) :   1.1041 B(  7-C , 25-H ) :   0.9836
B(  7-C , 26-H ) :   0.9694 B(  7-C , 27-H ) :   0.9680 B(  8-N ,  9-C ) :   1.2023
B(  8-N , 28-H ) :   0.9540 B(  9-C , 10-S ) :   1.6039 B(  9-C , 11-N ) :   1.2864
B( 11-N , 12-C ) :   0.9824 B( 11-N , 29-H ) :   0.9460 B( 12-C , 13-C ) :   0.9538
B( 12-C , 30-H ) :   0.9951 B( 13-C , 14-C ) :   1.3855 B( 13-C , 19-C ) :   1.3340
B( 14-C , 15-C ) :   1.4049 B( 14-C , 31-H ) :   0.9612 B( 15-C , 16-C ) :   1.3542
B( 15-C , 32-H ) :   0.9700 B( 16-C , 17-C ) :   1.3338 B( 16-C , 33-H ) :   0.9852
B( 17-C , 18-O ) :   1.1071 B( 17-C , 19-C ) :   1.3612 B( 18-O , 34-H ) :   0.9796
B( 19-C , 35-H ) :   0.9567

MP2 TOTAL ENERGY:    -1274.320354782 Eh
FINAL SINGLE POINT ENERGY     -1274.320354782425

DIPOLE MOMENT
-------------
                                X             Y             Z
Electronic contribution:      9.41268       6.29000       6.27741
Nuclear contribution   :    -10.92199      -7.36470      -7.16620
                        -----------------------------------------
Total Dipole Moment    :     -1.50931      -1.07471      -0.88880
                        -----------------------------------------
Magnitude (a.u.)       :      2.05499
Magnitude (Debye)      :      5.22336

Rotational constants in cm-1:     0.012208     0.009438     0.006792
Rotational constants in MHz :   365.979901   282.945306   203.622267

                             ****ORCA TERMINATED NORMALLY****
TOTAL RUN TIME: 0 days 2 hours 41 minutes 46 seconds 692 msec
