                         Program Version 4.2.0 -  RELEASE  -
|  1> ! ri-mp2 cc-pvtz cc-pvtz/c TightSCF  NoKeepInts
|  2>
|  3> %scf
|  4>   MaxCore 4096
|  5> end
|  6> *xyz  0  1
|  7>     C       15.5805562   13.8087187   15.1237621
|  8>     C       15.5953393   14.3195380   16.5750917
|  9>     O       16.6984095   15.2319969   16.7120495
| 10>     C       16.4618525   16.5780541   16.6959425
| 11>     O       15.4853703   17.0581863   16.1454493
| 12>     C       17.3989212   17.3423146   17.5901460
| 13>     C       17.3543856   18.6940217   17.7043817
| 14>     C       16.4100883   19.6427180   16.9974583
| 15>     N       18.2749941   19.3595714   18.5193671
| 16>     C       19.3282831   18.7639835   19.1604129
| 17>     S       20.4314736   19.6382692   20.0290099
| 18>     N       19.4250549   17.4009561   19.0425646
| 19>     C       18.4239097   16.5304134   18.3994784
| 20>     C       17.7527857   15.6529831   19.4527035
| 21>     C       17.9749266   14.2630557   19.4695734
| 22>     C       17.3542436   13.4513240   20.4339212
| 23>     C       16.5069237   14.0341228   21.3916975
| 24>     C       16.2875490   15.4184842   21.3810609
| 25>     O       15.4710449   15.9842677   22.3052544
| 26>     C       16.9059391   16.2235510   20.4195284
| 27>     H       15.4101920   14.6385014   14.4259410
| 28>     H       14.7789388   13.0737734   14.9826725
| 29>     H       16.5351176   13.3316791   14.8697274
| 30>     H       14.6386084   14.7946276   16.8330294
| 31>     H       15.7443929   13.4682507   17.2517962
| 32>     H       15.3719722   19.4420179   17.2920105
| 33>     H       16.4722315   19.5111892   15.9097193
| 34>     H       16.6187216   20.6968707   17.2143522
| 35>     H       18.2203170   20.3609265   18.6162275
| 36>     H       20.1910123   16.9865066   19.5577248
| 37>     H       18.9616172   15.8789614   17.6962075
| 38>     H       18.6259373   13.8095343   18.7268778
| 39>     H       17.5314373   12.3772048   20.4379716
| 40>     H       16.0261093   13.4117800   22.1392683
| 41>     H       15.1699194   15.2801095   22.8988065
| 42>     H       16.7284244   17.2935368   20.4328140
| 43> *
| 44>
| 45>                          ****END OF INPUT****

CARTESIAN COORDINATES (ANGSTROEM)
---------------------------------
  C     15.580556   13.808719   15.123762
  C     15.595339   14.319538   16.575092
  O     16.698410   15.231997   16.712049
  C     16.461852   16.578054   16.695943
  O     15.485370   17.058186   16.145449
  C     17.398921   17.342315   17.590146
  C     17.354386   18.694022   17.704382
  C     16.410088   19.642718   16.997458
  N     18.274994   19.359571   18.519367
  C     19.328283   18.763983   19.160413
  S     20.431474   19.638269   20.029010
  N     19.425055   17.400956   19.042565
  C     18.423910   16.530413   18.399478
  C     17.752786   15.652983   19.452703
  C     17.974927   14.263056   19.469573
  C     17.354244   13.451324   20.433921
  C     16.506924   14.034123   21.391697
  C     16.287549   15.418484   21.381061
  O     15.471045   15.984268   22.305254
  C     16.905939   16.223551   20.419528
  H     15.410192   14.638501   14.425941
  H     14.778939   13.073773   14.982672
  H     16.535118   13.331679   14.869727
  H     14.638608   14.794628   16.833029
  H     15.744393   13.468251   17.251796
  H     15.371972   19.442018   17.292010
  H     16.472231   19.511189   15.909719
  H     16.618722   20.696871   17.214352
  H     18.220317   20.360927   18.616228
  H     20.191012   16.986507   19.557725
  H     18.961617   15.878961   17.696207
  H     18.625937   13.809534   18.726878
  H     17.531437   12.377205   20.437972
  H     16.026109   13.411780   22.139268
  H     15.169919   15.280109   22.898806
  H     16.728424   17.293537   20.432814

 Total Charge           Charge          ....    0
 Multiplicity           Mult            ....    1
 Number of Electrons    NEL             ....  154
 Basis Dimension        Dim             ....  828

ORBITAL ENERGIES
----------------

  NO   OCC          E(Eh)            E(eV)
   0   2.0000     -91.889134     -2500.4305
   1   2.0000     -20.597822      -560.4952
   2   2.0000     -20.596930      -560.4710
   3   2.0000     -20.543272      -559.0109
   4   2.0000     -15.629379      -425.2970
   5   2.0000     -15.608490      -424.7286
   6   2.0000     -11.395241      -310.0803
   7   2.0000     -11.384255      -309.7813
   8   2.0000     -11.336145      -308.4722
   9   2.0000     -11.314200      -307.8750
  10   2.0000     -11.309376      -307.7438
  11   2.0000     -11.295722      -307.3722
  12   2.0000     -11.260101      -306.4029
  13   2.0000     -11.258989      -306.3727
  14   2.0000     -11.255734      -306.2841
  15   2.0000     -11.252413      -306.1937
  16   2.0000     -11.243410      -305.9487
  17   2.0000     -11.238783      -305.8228
  18   2.0000     -11.238553      -305.8166
  19   2.0000     -11.223258      -305.4004
  20   2.0000      -8.894192      -242.0233
  21   2.0000      -6.575766      -178.9357
  22   2.0000      -6.573762      -178.8812
  23   2.0000      -6.573174      -178.8652
  24   2.0000      -1.451336       -39.4929
  25   2.0000      -1.416576       -38.5470
  26   2.0000      -1.354781       -36.8655
  27   2.0000      -1.340309       -36.4717
  28   2.0000      -1.238776       -33.7088
  29   2.0000      -1.157966       -31.5098
  30   2.0000      -1.120612       -30.4934
  31   2.0000      -1.043068       -28.3833
  32   2.0000      -1.036371       -28.2011
  33   2.0000      -1.015505       -27.6333
  34   2.0000      -0.995520       -27.0895
  35   2.0000      -0.984190       -26.7812
  36   2.0000      -0.922838       -25.1117
  37   2.0000      -0.889285       -24.1987
  38   2.0000      -0.847343       -23.0574
  39   2.0000      -0.838175       -22.8079
  40   2.0000      -0.834430       -22.7060
  41   2.0000      -0.819865       -22.3097
  42   2.0000      -0.760214       -20.6865
  43   2.0000      -0.732624       -19.9357
  44   2.0000      -0.723438       -19.6857
  45   2.0000      -0.695987       -18.9388
  46   2.0000      -0.688537       -18.7360
  47   2.0000      -0.680089       -18.5062
  48   2.0000      -0.671524       -18.2731
  49   2.0000      -0.653622       -17.7860
  50   2.0000      -0.646635       -17.5958
  51   2.0000      -0.644570       -17.5396
  52   2.0000      -0.628843       -17.1117
  53   2.0000      -0.613859       -16.7040
  54   2.0000      -0.607226       -16.5235
  55   2.0000      -0.599798       -16.3213
  56   2.0000      -0.599024       -16.3003
  57   2.0000      -0.579413       -15.7666
  58   2.0000      -0.572006       -15.5651
  59   2.0000      -0.569708       -15.5025
  60   2.0000      -0.564054       -15.3487
  61   2.0000      -0.539474       -14.6798
  62   2.0000      -0.534471       -14.5437
  63   2.0000      -0.525328       -14.2949
  64   2.0000      -0.524081       -14.2610
  65   2.0000      -0.513806       -13.9814
  66   2.0000      -0.501402       -13.6438
  67   2.0000      -0.496979       -13.5235
  68   2.0000      -0.487070       -13.2539
  69   2.0000      -0.464273       -12.6335
  70   2.0000      -0.454087       -12.3563
  71   2.0000      -0.448440       -12.2027
  72   2.0000      -0.354452        -9.6451
  73   2.0000      -0.349760        -9.5175
  74   2.0000      -0.328502        -8.9390
  75   2.0000      -0.321852        -8.7580
  76   2.0000      -0.316322        -8.6076
  77   0.0000       0.074994         2.0407
  78   0.0000       0.105738         2.8773
  79   0.0000       0.125082         3.4037
  80   0.0000       0.132238         3.5984
  81   0.0000       0.137372         3.7381

MULLIKEN ATOMIC CHARGES
-----------------------
   0 C :   -0.273645
   1 C :    0.038724
   2 O :   -0.360628
   3 C :    0.455469
   4 O :   -0.430767
   5 C :   -0.217439
   6 C :    0.154173
   7 C :   -0.272947
   8 N :   -0.121688
   9 C :    0.211313
  10 S :   -0.439496
  11 N :   -0.204791
  12 C :    0.058510
  13 C :    0.066347
  14 C :   -0.193619
  15 C :   -0.128998
  16 C :   -0.280083
  17 C :    0.316183
  18 O :   -0.356367
  19 C :   -0.268803
  20 H :    0.108431
  21 H :    0.090915
  22 H :    0.090808
  23 H :    0.100004
  24 H :    0.107985
  25 H :    0.132486
  26 H :    0.130192
  27 H :    0.095379
  28 H :    0.197522
  29 H :    0.194739
  30 H :    0.150555
  31 H :    0.151456
  32 H :    0.161953
  33 H :    0.130314
  34 H :    0.240770
  35 H :    0.165044
Sum of atomic charges:   -0.0000000

LOEWDIN ATOMIC CHARGES
----------------------
   0 C :    0.104563
   1 C :   -0.015475
   2 O :    0.307564
   3 C :   -0.415146
   4 O :    0.098299
   5 C :   -0.095160
   6 C :   -0.058839
   7 C :    0.131609
   8 N :    0.406621
   9 C :   -0.456386
  10 S :   -0.035102
  11 N :    0.396397
  12 C :   -0.052317
  13 C :   -0.038283
  14 C :    0.014606
  15 C :    0.038360
  16 C :   -0.002128
  17 C :   -0.189402
  18 O :    0.395333
  19 C :    0.031284
  20 H :   -0.023996
  21 H :   -0.028089
  22 H :   -0.029495
  23 H :   -0.027708
  24 H :   -0.028181
  25 H :   -0.004532
  26 H :   -0.004041
  27 H :   -0.023289
  28 H :   -0.057520
  29 H :   -0.064589
  30 H :   -0.010487
  31 H :   -0.029994
  32 H :   -0.021399
  33 H :   -0.035573
  34 H :   -0.153823
  35 H :   -0.023683

  Mayer bond orders larger than 0.100000
B(  0-C ,  1-C ) :   0.9752 B(  0-C , 20-H ) :   0.9771 B(  0-C , 21-H ) :   0.9768
B(  0-C , 22-H ) :   0.9779 B(  1-C ,  2-O ) :   0.8826 B(  1-C , 23-H ) :   0.9732
B(  1-C , 24-H ) :   0.9781 B(  2-O ,  3-C ) :   1.1504 B(  3-C ,  4-O ) :   1.9665
B(  3-C ,  5-C ) :   1.0657 B(  5-C ,  6-C ) :   1.6537 B(  5-C , 12-C ) :   0.9723
B(  6-C ,  7-C ) :   0.9671 B(  6-C ,  8-N ) :   1.1625 B(  7-C , 25-H ) :   0.9596
B(  7-C , 26-H ) :   0.9609 B(  7-C , 27-H ) :   0.9906 B(  8-N ,  9-C ) :   1.1828
B(  8-N , 28-H ) :   0.9478 B(  9-C , 10-S ) :   1.6078 B(  9-C , 11-N ) :   1.3052
B( 11-N , 12-C ) :   0.9854 B( 11-N , 29-H ) :   0.9516 B( 12-C , 13-C ) :   0.9362
B( 12-C , 30-H ) :   1.0025 B( 13-C , 14-C ) :   1.3519 B( 13-C , 19-C ) :   1.3825
B( 14-C , 15-C ) :   1.3884 B( 14-C , 31-H ) :   0.9720 B( 15-C , 16-C ) :   1.3636
B( 15-C , 32-H ) :   0.9703 B( 16-C , 17-C ) :   1.3312 B( 16-C , 33-H ) :   0.9849
B( 17-C , 18-O ) :   1.1104 B( 17-C , 19-C ) :   1.3720 B( 18-O , 34-H ) :   0.9798
B( 19-C , 35-H ) :   0.9583

MP2 TOTAL ENERGY:    -1274.346492554 Eh
FINAL SINGLE POINT ENERGY     -1274.346492553970

DIPOLE MOMENT
-------------
                                X             Y             Z
Electronic contribution:      9.82891      10.02556       9.49589
Nuclear contribution   :    -10.93463     -11.63463      -9.75544
                        -----------------------------------------
Total Dipole Moment    :     -1.10572      -1.60907      -0.25955
                        -----------------------------------------
Magnitude (a.u.)       :      1.96954
Magnitude (Debye)      :      5.00617

Rotational constants in cm-1:     0.011453     0.008648     0.006079
Rotational constants in MHz :   343.357323   259.273810   182.237060

                             ****ORCA TERMINATED NORMALLY****
TOTAL RUN TIME: 0 days 1 hours 39 minutes 26 seconds 530 msec
