                         Program Version 4.2.0 -  RELEASE  -
|  1> ! ri-mp2 cc-pvtz cc-pvtz/c TightSCF  NoKeepInts
|  2>
|  3> %scf
|  4>   MaxCore 4096
|  5> end
|  6> *xyz  0  1
|  7>     C       15.0330292   15.2809156   17.5916214
|  8>     C       15.6683636   15.3216275   16.1912762
|  9>     O       17.0395249   14.8838410   16.2563489
| 10>     C       18.1482827   15.6630656   16.4829462
| 11>     O       19.2410559   15.1284997   16.4471836
| 12>     C       17.9454162   16.8500495   17.3669967
| 13>     C       17.4400461   18.0195115   16.9099059
| 14>     C       17.0252828   18.3462040   15.4911218
| 15>     N       17.3786358   19.1300881   17.7542239
| 16>     C       17.9368653   19.1909982   19.0040136
| 17>     S       17.8880393   20.5731547   19.9102637
| 18>     N       18.5456270   18.0493503   19.4630018
| 19>     C       18.5336816   16.7401346   18.7792014
| 20>     C       17.8404581   15.6668097   19.6187191
| 21>     C       18.2801883   14.3316523   19.5460843
| 22>     C       17.6562365   13.3260101   20.3024738
| 23>     C       16.5822040   13.6554775   21.1456683
| 24>     C       16.1414538   14.9828186   21.2260365
| 25>     O       15.0986656   15.3033359   22.0325135
| 26>     C       16.7644262   15.9825228   20.4719395
| 27>     H       15.3356720   14.3753661   18.1333478
| 28>     H       13.9389827   15.2838826   17.5163510
| 29>     H       15.3260908   16.1572011   18.1789605
| 30>     H       15.1235189   14.6039611   15.5641005
| 31>     H       15.5494200   16.3021059   15.7263192
| 32>     H       17.2665483   17.5396274   14.7880351
| 33>     H       17.5529166   19.2389740   15.1308847
| 34>     H       15.9487782   18.5474282   15.4276186
| 35>     H       16.9592048   19.9861696   17.4268579
| 36>     H       18.9422415   18.1202593   20.3916366
| 37>     H       19.5827376   16.4284096   18.6656702
| 38>     H       19.1063827   14.0690768   18.8884872
| 39>     H       18.0050088   12.2973037   20.2291418
| 40>     H       16.0960456   12.8811643   21.7297964
| 41>     H       14.8310679   14.4954105   22.4959861
| 42>     H       16.3949006   16.9995926   20.5492665
| 43> *
| 44>
| 45>                          ****END OF INPUT****

CARTESIAN COORDINATES (ANGSTROEM)
---------------------------------
  C     15.033029   15.280916   17.591621
  C     15.668364   15.321627   16.191276
  O     17.039525   14.883841   16.256349
  C     18.148283   15.663066   16.482946
  O     19.241056   15.128500   16.447184
  C     17.945416   16.850050   17.366997
  C     17.440046   18.019511   16.909906
  C     17.025283   18.346204   15.491122
  N     17.378636   19.130088   17.754224
  C     17.936865   19.190998   19.004014
  S     17.888039   20.573155   19.910264
  N     18.545627   18.049350   19.463002
  C     18.533682   16.740135   18.779201
  C     17.840458   15.666810   19.618719
  C     18.280188   14.331652   19.546084
  C     17.656236   13.326010   20.302474
  C     16.582204   13.655477   21.145668
  C     16.141454   14.982819   21.226036
  O     15.098666   15.303336   22.032514
  C     16.764426   15.982523   20.471940
  H     15.335672   14.375366   18.133348
  H     13.938983   15.283883   17.516351
  H     15.326091   16.157201   18.178960
  H     15.123519   14.603961   15.564100
  H     15.549420   16.302106   15.726319
  H     17.266548   17.539627   14.788035
  H     17.552917   19.238974   15.130885
  H     15.948778   18.547428   15.427619
  H     16.959205   19.986170   17.426858
  H     18.942242   18.120259   20.391637
  H     19.582738   16.428410   18.665670
  H     19.106383   14.069077   18.888487
  H     18.005009   12.297304   20.229142
  H     16.096046   12.881164   21.729796
  H     14.831068   14.495411   22.495986
  H     16.394901   16.999593   20.549267

 Total Charge           Charge          ....    0
 Multiplicity           Mult            ....    1
 Number of Electrons    NEL             ....  154
 Basis Dimension        Dim             ....  828

ORBITAL ENERGIES
----------------

  NO   OCC          E(Eh)            E(eV)
   0   2.0000     -91.889662     -2500.4448
   1   2.0000     -20.601651      -560.5994
   2   2.0000     -20.596978      -560.4723
   3   2.0000     -20.553267      -559.2828
   4   2.0000     -15.626092      -425.2076
   5   2.0000     -15.611350      -424.8064
   6   2.0000     -11.400280      -310.2174
   7   2.0000     -11.386362      -309.8387
   8   2.0000     -11.328706      -308.2698
   9   2.0000     -11.316078      -307.9261
  10   2.0000     -11.313473      -307.8553
  11   2.0000     -11.306193      -307.6572
  12   2.0000     -11.272784      -306.7480
  13   2.0000     -11.268274      -306.6253
  14   2.0000     -11.262027      -306.4553
  15   2.0000     -11.253981      -306.2364
  16   2.0000     -11.243191      -305.9428
  17   2.0000     -11.238903      -305.8261
  18   2.0000     -11.235703      -305.7390
  19   2.0000     -11.226682      -305.4936
  20   2.0000      -8.894783      -242.0393
  21   2.0000      -6.576377      -178.9523
  22   2.0000      -6.574343      -178.8970
  23   2.0000      -6.573773      -178.8815
  24   2.0000      -1.450303       -39.4647
  25   2.0000      -1.416803       -38.5532
  26   2.0000      -1.360749       -37.0279
  27   2.0000      -1.340258       -36.4703
  28   2.0000      -1.239959       -33.7410
  29   2.0000      -1.158411       -31.5220
  30   2.0000      -1.125151       -30.6169
  31   2.0000      -1.047832       -28.5130
  32   2.0000      -1.038730       -28.2653
  33   2.0000      -1.016940       -27.6723
  34   2.0000      -1.005436       -27.3593
  35   2.0000      -0.989633       -26.9293
  36   2.0000      -0.927640       -25.2424
  37   2.0000      -0.892528       -24.2869
  38   2.0000      -0.854828       -23.2610
  39   2.0000      -0.840321       -22.8663
  40   2.0000      -0.833735       -22.6871
  41   2.0000      -0.831653       -22.6304
  42   2.0000      -0.753620       -20.5071
  43   2.0000      -0.739972       -20.1357
  44   2.0000      -0.730174       -19.8691
  45   2.0000      -0.695088       -18.9143
  46   2.0000      -0.687903       -18.7188
  47   2.0000      -0.681241       -18.5375
  48   2.0000      -0.675752       -18.3882
  49   2.0000      -0.664209       -18.0740
  50   2.0000      -0.652442       -17.7539
  51   2.0000      -0.639776       -17.4092
  52   2.0000      -0.638608       -17.3774
  53   2.0000      -0.619748       -16.8642
  54   2.0000      -0.611862       -16.6496
  55   2.0000      -0.605832       -16.4855
  56   2.0000      -0.601278       -16.3616
  57   2.0000      -0.590798       -16.0764
  58   2.0000      -0.579211       -15.7611
  59   2.0000      -0.572060       -15.5666
  60   2.0000      -0.565358       -15.3842
  61   2.0000      -0.557447       -15.1689
  62   2.0000      -0.537958       -14.6386
  63   2.0000      -0.531833       -14.4719
  64   2.0000      -0.516909       -14.0658
  65   2.0000      -0.512221       -13.9382
  66   2.0000      -0.504822       -13.7369
  67   2.0000      -0.501031       -13.6337
  68   2.0000      -0.484339       -13.1795
  69   2.0000      -0.465701       -12.6724
  70   2.0000      -0.454774       -12.3750
  71   2.0000      -0.450952       -12.2710
  72   2.0000      -0.357751        -9.7349
  73   2.0000      -0.347550        -9.4573
  74   2.0000      -0.329409        -8.9637
  75   2.0000      -0.322188        -8.7672
  76   2.0000      -0.318432        -8.6650
  77   0.0000       0.088859         2.4180
  78   0.0000       0.105068         2.8590
  79   0.0000       0.110639         3.0106
  80   0.0000       0.129113         3.5133
  81   0.0000       0.131221         3.5707

MULLIKEN ATOMIC CHARGES
-----------------------
   0 C :   -0.306106
   1 C :    0.003221
   2 O :   -0.312427
   3 C :    0.401914
   4 O :   -0.377943
   5 C :   -0.196722
   6 C :    0.140577
   7 C :   -0.329763
   8 N :   -0.138575
   9 C :    0.208993
  10 S :   -0.442794
  11 N :   -0.233663
  12 C :    0.099913
  13 C :    0.026305
  14 C :   -0.209049
  15 C :   -0.136399
  16 C :   -0.280423
  17 C :    0.327053
  18 O :   -0.358554
  19 C :   -0.282028
  20 H :    0.122758
  21 H :    0.110587
  22 H :    0.103787
  23 H :    0.127990
  24 H :    0.088948
  25 H :    0.120265
  26 H :    0.142116
  27 H :    0.121358
  28 H :    0.195187
  29 H :    0.204308
  30 H :    0.168755
  31 H :    0.172638
  32 H :    0.163903
  33 H :    0.131696
  34 H :    0.241005
  35 H :    0.181171
Sum of atomic charges:    0.0000000

LOEWDIN ATOMIC CHARGES
----------------------
   0 C :    0.104960
   1 C :   -0.024284
   2 O :    0.311952
   3 C :   -0.417588
   4 O :    0.128665
   5 C :   -0.075360
   6 C :   -0.107824
   7 C :    0.120024
   8 N :    0.400954
   9 C :   -0.457154
  10 S :   -0.039132
  11 N :    0.398541
  12 C :   -0.040920
  13 C :   -0.040679
  14 C :    0.022318
  15 C :    0.043461
  16 C :   -0.002072
  17 C :   -0.193090
  18 O :    0.395424
  19 C :    0.028051
  20 H :   -0.018059
  21 H :   -0.026549
  22 H :   -0.034830
  23 H :   -0.021180
  24 H :   -0.039538
  25 H :   -0.010580
  26 H :   -0.008320
  27 H :   -0.017953
  28 H :   -0.058359
  29 H :   -0.063442
  30 H :   -0.001623
  31 H :   -0.022096
  32 H :   -0.018711
  33 H :   -0.035183
  34 H :   -0.153628
  35 H :   -0.026193

  Mayer bond orders larger than 0.100000
B(  0-C ,  1-C ) :   0.9581 B(  0-C , 20-H ) :   0.9694 B(  0-C , 21-H ) :   0.9770
B(  0-C , 22-H ) :   0.9720 B(  1-C ,  2-O ) :   0.9126 B(  1-C , 23-H ) :   0.9867
B(  1-C , 24-H ) :   0.9746 B(  2-O ,  3-C ) :   1.1471 B(  3-C ,  4-O ) :   2.0825
B(  3-C ,  5-C ) :   0.9209 B(  5-C ,  6-C ) :   1.7051 B(  5-C , 12-C ) :   0.9446
B(  6-C ,  7-C ) :   0.9411 B(  6-C ,  8-N ) :   1.1051 B(  7-C , 25-H ) :   0.9830
B(  7-C , 26-H ) :   0.9685 B(  7-C , 27-H ) :   0.9678 B(  8-N ,  9-C ) :   1.2005
B(  8-N , 28-H ) :   0.9536 B(  9-C , 10-S ) :   1.6052 B(  9-C , 11-N ) :   1.2873
B( 11-N , 12-C ) :   0.9835 B( 11-N , 29-H ) :   0.9462 B( 12-C , 13-C ) :   0.9564
B( 12-C , 30-H ) :   0.9943 B( 13-C , 14-C ) :   1.3872 B( 13-C , 19-C ) :   1.3342
B( 14-C , 15-C ) :   1.4049 B( 14-C , 31-H ) :   0.9596 B( 15-C , 16-C ) :   1.3551
B( 15-C , 32-H ) :   0.9699 B( 16-C , 17-C ) :   1.3332 B( 16-C , 33-H ) :   0.9851
B( 17-C , 18-O ) :   1.1077 B( 17-C , 19-C ) :   1.3639 B( 18-O , 34-H ) :   0.9796
B( 19-C , 35-H ) :   0.9566

MP2 TOTAL ENERGY:    -1274.323824236 Eh
FINAL SINGLE POINT ENERGY     -1274.323824236393

DIPOLE MOMENT
-------------
                                X             Y             Z
Electronic contribution:      8.92150       6.56345       6.32666
Nuclear contribution   :    -10.37704      -7.63539      -7.17246
                        -----------------------------------------
Total Dipole Moment    :     -1.45554      -1.07194      -0.84580
                        -----------------------------------------
Magnitude (a.u.)       :      1.99575
Magnitude (Debye)      :      5.07279

Rotational constants in cm-1:     0.012113     0.009476     0.006777
Rotational constants in MHz :   363.125340   284.083866   203.179911

                             ****ORCA TERMINATED NORMALLY****
TOTAL RUN TIME: 0 days 1 hours 53 minutes 31 seconds 131 msec
