                         Program Version 4.2.0 -  RELEASE  -
|  1> ! ri-mp2 cc-pvtz cc-pvtz/c TightSCF  NoKeepInts
|  2>
|  3> %scf
|  4>   MaxCore 4096
|  5> end
|  6> *xyz  0  1
|  7>     C       14.9595152   14.5235457   16.6585081
|  8>     C       16.4238303   14.0398971   16.7554597
|  9>     O       17.4135612   15.0467151   16.4178568
| 10>     C       17.1197357   16.3750940   16.2718194
| 11>     O       16.3921078   16.7735683   15.3794481
| 12>     C       17.6916638   17.2437651   17.3600211
| 13>     C       17.4777556   18.5842252   17.4045200
| 14>     C       16.6496337   19.4155626   16.4479300
| 15>     N       18.0814067   19.3586391   18.3996823
| 16>     C       19.0083700   18.8976173   19.2953632
| 17>     S       19.7667773   19.9029759   20.3677657
| 18>     N       19.2853096   17.5554932   19.2510854
| 19>     C       18.5572243   16.5661723   18.4367539
| 20>     C       17.7566067   15.6538158   19.3605562
| 21>     C       18.2920746   14.4151279   19.7613963
| 22>     C       17.5646158   13.5616931   20.6079247
| 23>     C       16.2931756   13.9516548   21.0618318
| 24>     C       15.7625912   15.1900661   20.6759484
| 25>     O       14.5365269   15.5709639   21.1140176
| 26>     C       16.4890532   16.0380956   19.8346322
| 27>     H       14.7758753   15.3775705   17.3223922
| 28>     H       14.2762505   13.7187660   16.9549593
| 29>     H       14.7067653   14.8123011   15.6304046
| 30>     H       16.6004659   13.6893050   17.7790128
| 31>     H       16.5587098   13.1749002   16.0935206
| 32>     H       15.6118003   19.0592921   16.4257019
| 33>     H       17.0441298   19.3353836   15.4268251
| 34>     H       16.6278423   20.4795512   16.7110714
| 35>     H       17.8954842   20.3479901   18.4409141
| 36>     H       19.9498371   17.2408548   19.9460836
| 37>     H       19.3065751   15.9532705   17.9158241
| 38>     H       19.2746619   14.1104586   19.4104971
| 39>     H       17.9867509   12.6048463   20.9110950
| 40>     H       15.7275587   13.2961416   21.7161114
| 41>     H       14.2203964   14.8902567   21.7272894
| 42>     H       16.0623614   16.9964236   19.5597762
| 43> *
| 44>
| 45>                          ****END OF INPUT****

CARTESIAN COORDINATES (ANGSTROEM)
---------------------------------
  C     14.959515   14.523546   16.658508
  C     16.423830   14.039897   16.755460
  O     17.413561   15.046715   16.417857
  C     17.119736   16.375094   16.271819
  O     16.392108   16.773568   15.379448
  C     17.691664   17.243765   17.360021
  C     17.477756   18.584225   17.404520
  C     16.649634   19.415563   16.447930
  N     18.081407   19.358639   18.399682
  C     19.008370   18.897617   19.295363
  S     19.766777   19.902976   20.367766
  N     19.285310   17.555493   19.251085
  C     18.557224   16.566172   18.436754
  C     17.756607   15.653816   19.360556
  C     18.292075   14.415128   19.761396
  C     17.564616   13.561693   20.607925
  C     16.293176   13.951655   21.061832
  C     15.762591   15.190066   20.675948
  O     14.536527   15.570964   21.114018
  C     16.489053   16.038096   19.834632
  H     14.775875   15.377570   17.322392
  H     14.276250   13.718766   16.954959
  H     14.706765   14.812301   15.630405
  H     16.600466   13.689305   17.779013
  H     16.558710   13.174900   16.093521
  H     15.611800   19.059292   16.425702
  H     17.044130   19.335384   15.426825
  H     16.627842   20.479551   16.711071
  H     17.895484   20.347990   18.440914
  H     19.949837   17.240855   19.946084
  H     19.306575   15.953270   17.915824
  H     19.274662   14.110459   19.410497
  H     17.986751   12.604846   20.911095
  H     15.727559   13.296142   21.716111
  H     14.220396   14.890257   21.727289
  H     16.062361   16.996424   19.559776

 Total Charge           Charge          ....    0
 Multiplicity           Mult            ....    1
 Number of Electrons    NEL             ....  154
 Basis Dimension        Dim             ....  828

ORBITAL ENERGIES
----------------

  NO   OCC          E(Eh)            E(eV)
   0   2.0000     -91.889852     -2500.4500
   1   2.0000     -20.602873      -560.6327
   2   2.0000     -20.583525      -560.1062
   3   2.0000     -20.543330      -559.0124
   4   2.0000     -15.630227      -425.3201
   5   2.0000     -15.609361      -424.7523
   6   2.0000     -11.393367      -310.0293
   7   2.0000     -11.384844      -309.7974
   8   2.0000     -11.337066      -308.4973
   9   2.0000     -11.320441      -308.0449
  10   2.0000     -11.310832      -307.7834
  11   2.0000     -11.297290      -307.4149
  12   2.0000     -11.265315      -306.5448
  13   2.0000     -11.261820      -306.4497
  14   2.0000     -11.258418      -306.3571
  15   2.0000     -11.252909      -306.2072
  16   2.0000     -11.249035      -306.1018
  17   2.0000     -11.243665      -305.9557
  18   2.0000     -11.243622      -305.9545
  19   2.0000     -11.223294      -305.4014
  20   2.0000      -8.894908      -242.0427
  21   2.0000      -6.576481      -178.9551
  22   2.0000      -6.574477      -178.9006
  23   2.0000      -6.573889      -178.8846
  24   2.0000      -1.440582       -39.2002
  25   2.0000      -1.422477       -38.7076
  26   2.0000      -1.349640       -36.7256
  27   2.0000      -1.341423       -36.5020
  28   2.0000      -1.240191       -33.7473
  29   2.0000      -1.162998       -31.6468
  30   2.0000      -1.121289       -30.5118
  31   2.0000      -1.046407       -28.4742
  32   2.0000      -1.030894       -28.0520
  33   2.0000      -1.021393       -27.7935
  34   2.0000      -0.997905       -27.1544
  35   2.0000      -0.985643       -26.8207
  36   2.0000      -0.925220       -25.1765
  37   2.0000      -0.894229       -24.3332
  38   2.0000      -0.849457       -23.1149
  39   2.0000      -0.842902       -22.9365
  40   2.0000      -0.838882       -22.8272
  41   2.0000      -0.820966       -22.3396
  42   2.0000      -0.744915       -20.2702
  43   2.0000      -0.735137       -20.0041
  44   2.0000      -0.717420       -19.5220
  45   2.0000      -0.701130       -19.0787
  46   2.0000      -0.690283       -18.7836
  47   2.0000      -0.673822       -18.3356
  48   2.0000      -0.669280       -18.2120
  49   2.0000      -0.661097       -17.9894
  50   2.0000      -0.653684       -17.7876
  51   2.0000      -0.645704       -17.5705
  52   2.0000      -0.638749       -17.3813
  53   2.0000      -0.619784       -16.8652
  54   2.0000      -0.613435       -16.6924
  55   2.0000      -0.604491       -16.4490
  56   2.0000      -0.601562       -16.3693
  57   2.0000      -0.582412       -15.8482
  58   2.0000      -0.571969       -15.5641
  59   2.0000      -0.567697       -15.4478
  60   2.0000      -0.548872       -14.9356
  61   2.0000      -0.540189       -14.6993
  62   2.0000      -0.534969       -14.5572
  63   2.0000      -0.530769       -14.4430
  64   2.0000      -0.522921       -14.2294
  65   2.0000      -0.515154       -14.0181
  66   2.0000      -0.504841       -13.7374
  67   2.0000      -0.492445       -13.4001
  68   2.0000      -0.488386       -13.2897
  69   2.0000      -0.462948       -12.5975
  70   2.0000      -0.453380       -12.3371
  71   2.0000      -0.440708       -11.9923
  72   2.0000      -0.356353        -9.6969
  73   2.0000      -0.354755        -9.6534
  74   2.0000      -0.330860        -9.0032
  75   2.0000      -0.326738        -8.8910
  76   2.0000      -0.317672        -8.6443
  77   0.0000       0.072783         1.9805
  78   0.0000       0.100573         2.7367
  79   0.0000       0.121267         3.2998
  80   0.0000       0.128498         3.4966
  81   0.0000       0.131204         3.5702

MULLIKEN ATOMIC CHARGES
-----------------------
   0 C :   -0.312525
   1 C :    0.032233
   2 O :   -0.391502
   3 C :    0.483335
   4 O :   -0.410424
   5 C :   -0.277100
   6 C :    0.169874
   7 C :   -0.269542
   8 N :   -0.124812
   9 C :    0.218103
  10 S :   -0.441245
  11 N :   -0.212056
  12 C :    0.077222
  13 C :    0.043005
  14 C :   -0.193843
  15 C :   -0.131996
  16 C :   -0.273222
  17 C :    0.313857
  18 O :   -0.357716
  19 C :   -0.261801
  20 H :    0.099751
  21 H :    0.104217
  22 H :    0.126662
  23 H :    0.106619
  24 H :    0.115451
  25 H :    0.129240
  26 H :    0.134524
  27 H :    0.095326
  28 H :    0.197409
  29 H :    0.194918
  30 H :    0.150413
  31 H :    0.150620
  32 H :    0.163358
  33 H :    0.133533
  34 H :    0.242444
  35 H :    0.175668
Sum of atomic charges:    0.0000000

LOEWDIN ATOMIC CHARGES
----------------------
   0 C :    0.104429
   1 C :   -0.010228
   2 O :    0.283382
   3 C :   -0.419085
   4 O :    0.114674
   5 C :   -0.098772
   6 C :   -0.057983
   7 C :    0.131370
   8 N :    0.407429
   9 C :   -0.454728
  10 S :   -0.035383
  11 N :    0.396054
  12 C :   -0.052558
  13 C :   -0.035668
  14 C :    0.011813
  15 C :    0.041698
  16 C :   -0.002113
  17 C :   -0.189306
  18 O :    0.396678
  19 C :    0.031236
  20 H :   -0.030337
  21 H :   -0.024722
  22 H :   -0.024212
  23 H :   -0.031733
  24 H :   -0.026735
  25 H :   -0.005563
  26 H :   -0.002937
  27 H :   -0.023367
  28 H :   -0.057360
  29 H :   -0.065680
  30 H :   -0.008814
  31 H :   -0.029527
  32 H :   -0.019585
  33 H :   -0.034420
  34 H :   -0.152232
  35 H :   -0.025716

  Mayer bond orders larger than 0.100000
B(  0-C ,  1-C ) :   0.9708 B(  0-C , 20-H ) :   0.9726 B(  0-C , 21-H ) :   0.9742
B(  0-C , 22-H ) :   0.9715 B(  1-C ,  2-O ) :   0.8904 B(  1-C , 23-H ) :   0.9701
B(  1-C , 24-H ) :   0.9837 B(  2-O ,  3-C ) :   1.1065 B(  3-C ,  4-O ) :   2.0111
B(  3-C ,  5-C ) :   1.0564 B(  5-C ,  6-C ) :   1.6437 B(  5-C , 12-C ) :   0.9731
B(  6-C ,  7-C ) :   0.9662 B(  6-C ,  8-N ) :   1.1629 B(  7-C , 25-H ) :   0.9617
B(  7-C , 26-H ) :   0.9583 B(  7-C , 27-H ) :   0.9900 B(  8-N ,  9-C ) :   1.1843
B(  8-N , 28-H ) :   0.9477 B(  9-C , 10-S ) :   1.6015 B(  9-C , 11-N ) :   1.3088
B( 11-N , 12-C ) :   0.9643 B( 11-N , 29-H ) :   0.9518 B( 12-C , 13-C ) :   0.9471
B( 12-C , 30-H ) :   1.0006 B( 13-C , 14-C ) :   1.3489 B( 13-C , 19-C ) :   1.3639
B( 14-C , 15-C ) :   1.3980 B( 14-C , 31-H ) :   0.9741 B( 15-C , 16-C ) :   1.3602
B( 15-C , 32-H ) :   0.9701 B( 16-C , 17-C ) :   1.3322 B( 16-C , 33-H ) :   0.9840
B( 17-C , 18-O ) :   1.1110 B( 17-C , 19-C ) :   1.3660 B( 18-O , 34-H ) :   0.9790
B( 19-C , 35-H ) :   0.9556

MP2 TOTAL ENERGY:    -1274.334857190 Eh
FINAL SINGLE POINT ENERGY     -1274.334857190387

DIPOLE MOMENT
-------------
                                X             Y             Z
Electronic contribution:      9.93358       9.00864       5.83071
Nuclear contribution   :    -10.92925     -10.66131      -5.65412
                        -----------------------------------------
Total Dipole Moment    :     -0.99567      -1.65267       0.17658
                        -----------------------------------------
Magnitude (a.u.)       :      1.93748
Magnitude (Debye)      :      4.92469

Rotational constants in cm-1:     0.012612     0.008929     0.006542
Rotational constants in MHz :   378.088625   267.677340   196.111247

                             ****ORCA TERMINATED NORMALLY****
TOTAL RUN TIME: 0 days 1 hours 46 minutes 19 seconds 202 msec
