                         Program Version 4.2.0 -  RELEASE  -
|  1> ! ri-mp2 cc-pvtz cc-pvtz/c TightSCF  NoKeepInts
|  2>
|  3> %scf
|  4>   MaxCore 4096
|  5> end
|  6> *xyz  0  1
|  7>     C       15.9526992   13.7254534   15.0069213
|  8>     C       15.4486006   14.3599309   16.3141595
|  9>     O       16.4698508   15.2606806   16.7798566
| 10>     C       16.2403498   16.6084968   16.8238868
| 11>     O       15.2834092   17.1297489   16.2766348
| 12>     C       17.2660924   17.3436069   17.6420733
| 13>     C       17.2739930   18.6960765   17.7565945
| 14>     C       16.3076166   19.6753992   17.1253204
| 15>     N       18.2758509   19.3312591   18.4966424
| 16>     C       19.3549001   18.7015871   19.0572185
| 17>     S       20.5497361   19.5395581   19.8357303
| 18>     N       19.3965401   17.3359084   18.9379434
| 19>     C       18.3206633   16.4988952   18.3758820
| 20>     C       17.6986628   15.6478249   19.4794862
| 21>     C       17.8376806   14.2471480   19.4647599
| 22>     C       17.2643057   13.4609225   20.4783132
| 23>     C       16.5482407   14.0800070   21.5170444
| 24>     C       16.4111417   15.4748054   21.5369692
| 25>     O       15.7210996   16.0755179   22.5389800
| 26>     C       16.9825156   16.2545329   20.5266818
| 27>     H       16.1000018   14.4947651   14.2384310
| 28>     H       15.2254076   12.9975395   14.6273941
| 29>     H       16.9063613   13.2079586   15.1685013
| 30>     H       14.4876121   14.8649221   16.1465641
| 31>     H       15.2901804   13.5725554   17.0623795
| 32>     H       15.2848372   19.4865392   17.4759433
| 33>     H       16.3043766   19.5654170   16.0334193
| 34>     H       16.5471130   20.7210287   17.3513289
| 35>     H       18.2623806   20.3340159   18.5932770
| 36>     H       20.1850124   16.8963028   19.3949876
| 37>     H       18.7828787   15.8279302   17.6381956
| 38>     H       18.3861113   13.7657470   18.6595064
| 39>     H       17.3756967   12.3782737   20.4569807
| 40>     H       16.1039585   13.4772951   22.3022874
| 41>     H       15.4301670   15.3815468   23.1493189
| 42>     H       16.8709558   17.3328031   20.5643861
| 43> *
| 44>
| 45>                          ****END OF INPUT****

CARTESIAN COORDINATES (ANGSTROEM)
---------------------------------
  C     15.952699   13.725453   15.006921
  C     15.448601   14.359931   16.314159
  O     16.469851   15.260681   16.779857
  C     16.240350   16.608497   16.823887
  O     15.283409   17.129749   16.276635
  C     17.266092   17.343607   17.642073
  C     17.273993   18.696077   17.756594
  C     16.307617   19.675399   17.125320
  N     18.275851   19.331259   18.496642
  C     19.354900   18.701587   19.057219
  S     20.549736   19.539558   19.835730
  N     19.396540   17.335908   18.937943
  C     18.320663   16.498895   18.375882
  C     17.698663   15.647825   19.479486
  C     17.837681   14.247148   19.464760
  C     17.264306   13.460922   20.478313
  C     16.548241   14.080007   21.517044
  C     16.411142   15.474805   21.536969
  O     15.721100   16.075518   22.538980
  C     16.982516   16.254533   20.526682
  H     16.100002   14.494765   14.238431
  H     15.225408   12.997539   14.627394
  H     16.906361   13.207959   15.168501
  H     14.487612   14.864922   16.146564
  H     15.290180   13.572555   17.062379
  H     15.284837   19.486539   17.475943
  H     16.304377   19.565417   16.033419
  H     16.547113   20.721029   17.351329
  H     18.262381   20.334016   18.593277
  H     20.185012   16.896303   19.394988
  H     18.782879   15.827930   17.638196
  H     18.386111   13.765747   18.659506
  H     17.375697   12.378274   20.456981
  H     16.103959   13.477295   22.302287
  H     15.430167   15.381547   23.149319
  H     16.870956   17.332803   20.564386

 Total Charge           Charge          ....    0
 Multiplicity           Mult            ....    1
 Number of Electrons    NEL             ....  154
 Basis Dimension        Dim             ....  828

ORBITAL ENERGIES
----------------

  NO   OCC          E(Eh)            E(eV)
   0   2.0000     -91.888721     -2500.4192
   1   2.0000     -20.601819      -560.6040
   2   2.0000     -20.595702      -560.4375
   3   2.0000     -20.541594      -558.9652
   4   2.0000     -15.628915      -425.2844
   5   2.0000     -15.608024      -424.7159
   6   2.0000     -11.395624      -310.0907
   7   2.0000     -11.383805      -309.7691
   8   2.0000     -11.335859      -308.4644
   9   2.0000     -11.312811      -307.8372
  10   2.0000     -11.308608      -307.7229
  11   2.0000     -11.295586      -307.3685
  12   2.0000     -11.258838      -306.3686
  13   2.0000     -11.258774      -306.3668
  14   2.0000     -11.254354      -306.2465
  15   2.0000     -11.251837      -306.1781
  16   2.0000     -11.242208      -305.9160
  17   2.0000     -11.237678      -305.7928
  18   2.0000     -11.237492      -305.7877
  19   2.0000     -11.228261      -305.5365
  20   2.0000      -8.893781      -242.0121
  21   2.0000      -6.575356      -178.9245
  22   2.0000      -6.573351      -178.8700
  23   2.0000      -6.572764      -178.8540
  24   2.0000      -1.451151       -39.4878
  25   2.0000      -1.415354       -38.5137
  26   2.0000      -1.355036       -36.8724
  27   2.0000      -1.339856       -36.4593
  28   2.0000      -1.238257       -33.6947
  29   2.0000      -1.156871       -31.4801
  30   2.0000      -1.120120       -30.4800
  31   2.0000      -1.042785       -28.3756
  32   2.0000      -1.038801       -28.2672
  33   2.0000      -1.014224       -27.5984
  34   2.0000      -0.995420       -27.0868
  35   2.0000      -0.983997       -26.7759
  36   2.0000      -0.922121       -25.0922
  37   2.0000      -0.891130       -24.2489
  38   2.0000      -0.846656       -23.0387
  39   2.0000      -0.837008       -22.7762
  40   2.0000      -0.833245       -22.6737
  41   2.0000      -0.817679       -22.2502
  42   2.0000      -0.762900       -20.7596
  43   2.0000      -0.731910       -19.9163
  44   2.0000      -0.722646       -19.6642
  45   2.0000      -0.694816       -18.9069
  46   2.0000      -0.687293       -18.7022
  47   2.0000      -0.680343       -18.5131
  48   2.0000      -0.672635       -18.3033
  49   2.0000      -0.655656       -17.8413
  50   2.0000      -0.645812       -17.5734
  51   2.0000      -0.643913       -17.5218
  52   2.0000      -0.631350       -17.1799
  53   2.0000      -0.610906       -16.6236
  54   2.0000      -0.605892       -16.4871
  55   2.0000      -0.598897       -16.2968
  56   2.0000      -0.598082       -16.2746
  57   2.0000      -0.577935       -15.7264
  58   2.0000      -0.570673       -15.5288
  59   2.0000      -0.568119       -15.4593
  60   2.0000      -0.563355       -15.3297
  61   2.0000      -0.539890       -14.6912
  62   2.0000      -0.537651       -14.6302
  63   2.0000      -0.531396       -14.4600
  64   2.0000      -0.524304       -14.2670
  65   2.0000      -0.513134       -13.9631
  66   2.0000      -0.501203       -13.6384
  67   2.0000      -0.496899       -13.5213
  68   2.0000      -0.485939       -13.2231
  69   2.0000      -0.463959       -12.6250
  70   2.0000      -0.454071       -12.3559
  71   2.0000      -0.449375       -12.2281
  72   2.0000      -0.354200        -9.6383
  73   2.0000      -0.348649        -9.4872
  74   2.0000      -0.328023        -8.9260
  75   2.0000      -0.320559        -8.7229
  76   2.0000      -0.315769        -8.5925
  77   0.0000       0.076559         2.0833
  78   0.0000       0.107215         2.9175
  79   0.0000       0.123812         3.3691
  80   0.0000       0.132534         3.6064
  81   0.0000       0.135943         3.6992

MULLIKEN ATOMIC CHARGES
-----------------------
   0 C :   -0.268301
   1 C :    0.020319
   2 O :   -0.352580
   3 C :    0.474850
   4 O :   -0.435916
   5 C :   -0.226337
   6 C :    0.150003
   7 C :   -0.274136
   8 N :   -0.120319
   9 C :    0.210275
  10 S :   -0.439819
  11 N :   -0.203183
  12 C :    0.048730
  13 C :    0.067962
  14 C :   -0.182936
  15 C :   -0.133329
  16 C :   -0.278511
  17 C :    0.315834
  18 O :   -0.356718
  19 C :   -0.268509
  20 H :    0.100460
  21 H :    0.090842
  22 H :    0.090873
  23 H :    0.119816
  24 H :    0.105709
  25 H :    0.132230
  26 H :    0.130674
  27 H :    0.094889
  28 H :    0.197371
  29 H :    0.194446
  30 H :    0.151010
  31 H :    0.149540
  32 H :    0.160080
  33 H :    0.129478
  34 H :    0.240544
  35 H :    0.164660
Sum of atomic charges:    0.0000000

LOEWDIN ATOMIC CHARGES
----------------------
   0 C :    0.104359
   1 C :   -0.012984
   2 O :    0.310978
   3 C :   -0.413726
   4 O :    0.094433
   5 C :   -0.094452
   6 C :   -0.058787
   7 C :    0.131495
   8 N :    0.406545
   9 C :   -0.456698
  10 S :   -0.035446
  11 N :    0.396577
  12 C :   -0.052731
  13 C :   -0.038793
  14 C :    0.014295
  15 C :    0.038510
  16 C :   -0.001657
  17 C :   -0.189480
  18 O :    0.395097
  19 C :    0.031614
  20 H :   -0.025262
  21 H :   -0.026289
  22 H :   -0.029667
  23 H :   -0.028028
  24 H :   -0.029071
  25 H :   -0.004466
  26 H :   -0.004052
  27 H :   -0.023461
  28 H :   -0.057585
  29 H :   -0.064544
  30 H :   -0.011248
  31 H :   -0.030384
  32 H :   -0.021615
  33 H :   -0.035705
  34 H :   -0.154033
  35 H :   -0.023737

  Mayer bond orders larger than 0.100000
B(  0-C ,  1-C ) :   0.9717 B(  0-C , 20-H ) :   0.9790 B(  0-C , 21-H ) :   0.9753
B(  0-C , 22-H ) :   0.9791 B(  1-C ,  2-O ) :   0.8824 B(  1-C , 23-H ) :   0.9743
B(  1-C , 24-H ) :   0.9795 B(  2-O ,  3-C ) :   1.1719 B(  3-C ,  4-O ) :   1.9665
B(  3-C ,  5-C ) :   1.0599 B(  5-C ,  6-C ) :   1.6564 B(  5-C , 12-C ) :   0.9722
B(  6-C ,  7-C ) :   0.9672 B(  6-C ,  8-N ) :   1.1652 B(  7-C , 25-H ) :   0.9604
B(  7-C , 26-H ) :   0.9603 B(  7-C , 27-H ) :   0.9904 B(  8-N ,  9-C ) :   1.1826
B(  8-N , 28-H ) :   0.9479 B(  9-C , 10-S ) :   1.6078 B(  9-C , 11-N ) :   1.3047
B( 11-N , 12-C ) :   0.9895 B( 11-N , 29-H ) :   0.9517 B( 12-C , 13-C ) :   0.9360
B( 12-C , 30-H ) :   1.0031 B( 13-C , 14-C ) :   1.3547 B( 13-C , 19-C ) :   1.3828
B( 14-C , 15-C ) :   1.3918 B( 14-C , 31-H ) :   0.9717 B( 15-C , 16-C ) :   1.3637
B( 15-C , 32-H ) :   0.9707 B( 16-C , 17-C ) :   1.3316 B( 16-C , 33-H ) :   0.9852
B( 17-C , 18-O ) :   1.1098 B( 17-C , 19-C ) :   1.3731 B( 18-O , 34-H ) :   0.9800
B( 19-C , 35-H ) :   0.9582

MP2 TOTAL ENERGY:    -1274.349863495 Eh
FINAL SINGLE POINT ENERGY     -1274.349863494599

DIPOLE MOMENT
-------------
                                X             Y             Z
Electronic contribution:      9.07306      10.00642       9.91156
Nuclear contribution   :    -10.24369     -11.63381     -10.25563
                        -----------------------------------------
Total Dipole Moment    :     -1.17063      -1.62739      -0.34407
                        -----------------------------------------
Magnitude (a.u.)       :      2.03400
Magnitude (Debye)      :      5.17002

Rotational constants in cm-1:     0.010990     0.008682     0.006062
Rotational constants in MHz :   329.481403   260.294411   181.719212

                             ****ORCA TERMINATED NORMALLY****
TOTAL RUN TIME: 0 days 1 hours 40 minutes 43 seconds 388 msec
