                         Program Version 4.2.0 -  RELEASE  -
|  1> ! ri-mp2 cc-pvtz cc-pvtz/c TightSCF  NoKeepInts
|  2>
|  3> %scf
|  4>   MaxCore 4096
|  5> end
|  6> *xyz  0  1
|  7>     C       15.0477279   14.8276846   17.4158195
|  8>     C       15.5292987   15.5376072   16.1395499
|  9>     O       16.8939489   15.1501687   15.8743232
| 10>     C       18.0371350   15.6596442   16.4458666
| 11>     O       19.0497030   14.9842299   16.4391549
| 12>     C       17.9158199   16.8331349   17.3681217
| 13>     C       17.4499398   18.0384738   16.9582707
| 14>     C       17.0071222   18.4297416   15.5625173
| 15>     N       17.4943725   19.1352338   17.8218416
| 16>     C       18.1539292   19.1553856   19.0222122
| 17>     S       18.2522043   20.5290062   19.9373024
| 18>     N       18.7388952   17.9796348   19.4206504
| 19>     C       18.5807166   16.6774217   18.7422992
| 20>     C       17.8475087   15.6709796   19.6266929
| 21>     C       18.1962941   14.3085091   19.5729072
| 22>     C       17.5288130   13.3636068   20.3694286
| 23>     C       16.5026790   13.7824372   21.2325982
| 24>     C       16.1514355   15.1374231   21.2924300
| 25>     O       15.1542676   15.5436830   22.1176851
| 26>     C       16.8161665   16.0765634   20.4970122
| 27>     H       15.5005427   15.2718870   18.3047933
| 28>     H       15.3054229   13.7611485   17.3910603
| 29>     H       13.9592296   14.9149553   17.5167877
| 30>     H       14.9062447   15.1947492   15.3032705
| 31>     H       15.3866018   16.6155675   16.2349190
| 32>     H       17.1353227   17.6182007   14.8361245
| 33>     H       17.6043186   19.2730028   15.1918065
| 34>     H       15.9540561   18.7364253   15.5479680
| 35>     H       17.0973437   20.0157468   17.5335665
| 36>     H       19.2133087   18.0198724   20.3139885
| 37>     H       19.5921379   16.2794544   18.5711152
| 38>     H       18.9854062   13.9777998   18.9005314
| 39>     H       17.8075710   12.3126707   20.3127565
| 40>     H       15.9837392   13.0552989   21.8483919
| 41>     H       14.8514543   14.7671600   22.6121822
| 42>     H       16.5163220   17.1174915   20.5580544
| 43> *
| 44>
| 45>                          ****END OF INPUT****

CARTESIAN COORDINATES (ANGSTROEM)
---------------------------------
  C     15.047728   14.827685   17.415819
  C     15.529299   15.537607   16.139550
  O     16.893949   15.150169   15.874323
  C     18.037135   15.659644   16.445867
  O     19.049703   14.984230   16.439155
  C     17.915820   16.833135   17.368122
  C     17.449940   18.038474   16.958271
  C     17.007122   18.429742   15.562517
  N     17.494373   19.135234   17.821842
  C     18.153929   19.155386   19.022212
  S     18.252204   20.529006   19.937302
  N     18.738895   17.979635   19.420650
  C     18.580717   16.677422   18.742299
  C     17.847509   15.670980   19.626693
  C     18.196294   14.308509   19.572907
  C     17.528813   13.363607   20.369429
  C     16.502679   13.782437   21.232598
  C     16.151436   15.137423   21.292430
  O     15.154268   15.543683   22.117685
  C     16.816167   16.076563   20.497012
  H     15.500543   15.271887   18.304793
  H     15.305423   13.761148   17.391060
  H     13.959230   14.914955   17.516788
  H     14.906245   15.194749   15.303270
  H     15.386602   16.615568   16.234919
  H     17.135323   17.618201   14.836125
  H     17.604319   19.273003   15.191806
  H     15.954056   18.736425   15.547968
  H     17.097344   20.015747   17.533566
  H     19.213309   18.019872   20.313988
  H     19.592138   16.279454   18.571115
  H     18.985406   13.977800   18.900531
  H     17.807571   12.312671   20.312756
  H     15.983739   13.055299   21.848392
  H     14.851454   14.767160   22.612182
  H     16.516322   17.117491   20.558054

 Total Charge           Charge          ....    0
 Multiplicity           Mult            ....    1
 Number of Electrons    NEL             ....  154
 Basis Dimension        Dim             ....  828

ORBITAL ENERGIES
----------------

  NO   OCC          E(Eh)            E(eV)
   0   2.0000     -91.891055     -2500.4827
   1   2.0000     -20.601103      -560.5845
   2   2.0000     -20.598040      -560.5012
   3   2.0000     -20.549126      -559.1701
   4   2.0000     -15.628801      -425.2813
   5   2.0000     -15.611598      -424.8132
   6   2.0000     -11.400916      -310.2347
   7   2.0000     -11.387326      -309.8649
   8   2.0000     -11.334666      -308.4319
   9   2.0000     -11.315156      -307.9010
  10   2.0000     -11.314585      -307.8855
  11   2.0000     -11.306600      -307.6682
  12   2.0000     -11.271175      -306.7043
  13   2.0000     -11.269061      -306.6468
  14   2.0000     -11.262844      -306.4776
  15   2.0000     -11.255439      -306.2761
  16   2.0000     -11.244230      -305.9710
  17   2.0000     -11.240107      -305.8589
  18   2.0000     -11.236423      -305.7586
  19   2.0000     -11.225198      -305.4532
  20   2.0000      -8.896152      -242.0766
  21   2.0000      -6.577739      -178.9894
  22   2.0000      -6.575714      -178.9343
  23   2.0000      -6.575136      -178.9185
  24   2.0000      -1.446974       -39.3742
  25   2.0000      -1.417845       -38.5815
  26   2.0000      -1.359014       -36.9806
  27   2.0000      -1.342331       -36.5267
  28   2.0000      -1.241193       -33.7746
  29   2.0000      -1.159503       -31.5517
  30   2.0000      -1.125820       -30.6351
  31   2.0000      -1.048200       -28.5230
  32   2.0000      -1.037945       -28.2439
  33   2.0000      -1.018021       -27.7018
  34   2.0000      -1.005861       -27.3709
  35   2.0000      -0.990315       -26.9478
  36   2.0000      -0.928173       -25.2569
  37   2.0000      -0.891679       -24.2638
  38   2.0000      -0.855975       -23.2923
  39   2.0000      -0.841849       -22.9079
  40   2.0000      -0.834858       -22.7177
  41   2.0000      -0.832173       -22.6446
  42   2.0000      -0.750886       -20.4326
  43   2.0000      -0.741150       -20.1677
  44   2.0000      -0.730547       -19.8792
  45   2.0000      -0.695876       -18.9358
  46   2.0000      -0.688472       -18.7343
  47   2.0000      -0.681118       -18.5341
  48   2.0000      -0.675638       -18.3851
  49   2.0000      -0.662668       -18.0321
  50   2.0000      -0.653834       -17.7917
  51   2.0000      -0.644122       -17.5275
  52   2.0000      -0.638803       -17.3827
  53   2.0000      -0.622191       -16.9307
  54   2.0000      -0.610963       -16.6251
  55   2.0000      -0.606292       -16.4980
  56   2.0000      -0.601796       -16.3757
  57   2.0000      -0.588791       -16.0218
  58   2.0000      -0.577423       -15.7125
  59   2.0000      -0.567415       -15.4402
  60   2.0000      -0.565876       -15.3983
  61   2.0000      -0.552288       -15.0285
  62   2.0000      -0.541514       -14.7353
  63   2.0000      -0.534730       -14.5507
  64   2.0000      -0.518852       -14.1187
  65   2.0000      -0.513016       -13.9599
  66   2.0000      -0.503996       -13.7144
  67   2.0000      -0.501551       -13.6479
  68   2.0000      -0.482278       -13.1235
  69   2.0000      -0.469420       -12.7736
  70   2.0000      -0.455136       -12.3849
  71   2.0000      -0.448894       -12.2150
  72   2.0000      -0.359736        -9.7889
  73   2.0000      -0.349687        -9.5155
  74   2.0000      -0.330635        -8.9970
  75   2.0000      -0.323593        -8.8054
  76   2.0000      -0.319811        -8.7025
  77   0.0000       0.082808         2.2533
  78   0.0000       0.106644         2.9019
  79   0.0000       0.113271         3.0823
  80   0.0000       0.128625         3.5001
  81   0.0000       0.130955         3.5635

MULLIKEN ATOMIC CHARGES
-----------------------
   0 C :   -0.291644
   1 C :    0.020127
   2 O :   -0.321786
   3 C :    0.419869
   4 O :   -0.385377
   5 C :   -0.212561
   6 C :    0.139409
   7 C :   -0.323481
   8 N :   -0.136799
   9 C :    0.201556
  10 S :   -0.439338
  11 N :   -0.227013
  12 C :    0.084821
  13 C :    0.008024
  14 C :   -0.206154
  15 C :   -0.142923
  16 C :   -0.266622
  17 C :    0.309417
  18 O :   -0.357423
  19 C :   -0.251281
  20 H :    0.106303
  21 H :    0.111778
  22 H :    0.100608
  23 H :    0.121442
  24 H :    0.088129
  25 H :    0.128628
  26 H :    0.141873
  27 H :    0.120094
  28 H :    0.195980
  29 H :    0.202879
  30 H :    0.168062
  31 H :    0.178349
  32 H :    0.164835
  33 H :    0.132424
  34 H :    0.240762
  35 H :    0.177033
Sum of atomic charges:    0.0000000

LOEWDIN ATOMIC CHARGES
----------------------
   0 C :    0.109074
   1 C :   -0.022801
   2 O :    0.304116
   3 C :   -0.414086
   4 O :    0.121113
   5 C :   -0.080455
   6 C :   -0.098239
   7 C :    0.122042
   8 N :    0.402626
   9 C :   -0.458536
  10 S :   -0.036489
  11 N :    0.398028
  12 C :   -0.042465
  13 C :   -0.043771
  14 C :    0.020286
  15 C :    0.045325
  16 C :   -0.000858
  17 C :   -0.192633
  18 O :    0.395915
  19 C :    0.024691
  20 H :   -0.031867
  21 H :   -0.021823
  22 H :   -0.026491
  23 H :   -0.021929
  24 H :   -0.039823
  25 H :   -0.008137
  26 H :   -0.008373
  27 H :   -0.018257
  28 H :   -0.057127
  29 H :   -0.063251
  30 H :   -0.001722
  31 H :   -0.022153
  32 H :   -0.018503
  33 H :   -0.034941
  34 H :   -0.153347
  35 H :   -0.025138

  Mayer bond orders larger than 0.100000
B(  0-C ,  1-C ) :   0.9716 B(  0-C , 20-H ) :   0.9696 B(  0-C , 21-H ) :   0.9745
B(  0-C , 22-H ) :   0.9776 B(  1-C ,  2-O ) :   0.9000 B(  1-C , 23-H ) :   0.9833
B(  1-C , 24-H ) :   0.9668 B(  2-O ,  3-C ) :   1.1778 B(  3-C ,  4-O ) :   2.0766
B(  3-C ,  5-C ) :   0.9279 B(  5-C ,  6-C ) :   1.6951 B(  5-C , 12-C ) :   0.9472
B(  6-C ,  7-C ) :   0.9398 B(  6-C ,  8-N ) :   1.1112 B(  7-C , 25-H ) :   0.9796
B(  7-C , 26-H ) :   0.9687 B(  7-C , 27-H ) :   0.9669 B(  8-N ,  9-C ) :   1.1951
B(  8-N , 28-H ) :   0.9521 B(  9-C , 10-S ) :   1.6100 B(  9-C , 11-N ) :   1.2900
B( 11-N , 12-C ) :   0.9838 B( 11-N , 29-H ) :   0.9476 B( 12-C , 13-C ) :   0.9544
B( 12-C , 30-H ) :   0.9940 B( 13-C , 14-C ) :   1.3925 B( 13-C , 19-C ) :   1.3429
B( 14-C , 15-C ) :   1.3997 B( 14-C , 31-H ) :   0.9564 B( 15-C , 16-C ) :   1.3584
B( 15-C , 32-H ) :   0.9696 B( 16-C , 17-C ) :   1.3323 B( 16-C , 33-H ) :   0.9843
B( 17-C , 18-O ) :   1.1104 B( 17-C , 19-C ) :   1.3669 B( 18-O , 34-H ) :   0.9797
B( 19-C , 35-H ) :   0.9592

MP2 TOTAL ENERGY:    -1274.333247280 Eh
FINAL SINGLE POINT ENERGY     -1274.333247279811

DIPOLE MOMENT
-------------
                                X             Y             Z
Electronic contribution:      9.42225       7.31694       6.33789
Nuclear contribution   :    -10.98099      -8.24467      -6.94271
                        -----------------------------------------
Total Dipole Moment    :     -1.55875      -0.92772      -0.60481
                        -----------------------------------------
Magnitude (a.u.)       :      1.91211
Magnitude (Debye)      :      4.86019

Rotational constants in cm-1:     0.011649     0.009568     0.006638
Rotational constants in MHz :   349.235475   286.841245   198.987989

                             ****ORCA TERMINATED NORMALLY****
TOTAL RUN TIME: 0 days 1 hours 52 minutes 26 seconds 23 msec
