                         Program Version 4.2.0 -  RELEASE  -
|  1> ! ri-mp2 cc-pvtz cc-pvtz/c TightSCF  NoKeepInts
|  2>
|  3> %scf
|  4>   MaxCore 4096
|  5> end
|  6> *xyz  0  1
|  7>     C       15.0655221   15.7234148   17.4017880
|  8>     C       15.5326065   15.2683143   16.0025851
|  9>     O       16.9614162   15.0620100   15.8408990
| 10>     C       18.0652935   15.5853675   16.4793245
| 11>     O       19.0942928   14.9348945   16.4846042
| 12>     C       17.9196717   16.7566571   17.3973846
| 13>     C       17.3976470   17.9367616   16.9841891
| 14>     C       16.8599822   18.2707628   15.6084290
| 15>     N       17.4097551   19.0423653   17.8376776
| 16>     C       18.0763863   19.0956220   19.0334204
| 17>     S       18.1224938   20.4766208   19.9416120
| 18>     N       18.7081591   17.9455396   19.4367503
| 19>     C       18.6034166   16.6350875   18.7636568
| 20>     C       17.9070413   15.6054231   19.6503762
| 21>     C       18.3363994   14.2653826   19.6381437
| 22>     C       17.7005236   13.3001458   20.4362720
| 23>     C       16.6236580   13.6758985   21.2566179
| 24>     C       16.1903490   15.0082430   21.2719468
| 25>     O       15.1435040   15.3722076   22.0543870
| 26>     C       16.8247776   15.9674904   20.4760956
| 27>     H       15.5660375   15.1392632   18.1817845
| 28>     H       13.9894803   15.5373107   17.5044767
| 29>     H       15.2124251   16.7896051   17.5874220
| 30>     H       15.0313787   14.3215537   15.7621338
| 31>     H       15.1848120   16.0001301   15.2632213
| 32>     H       17.1685489   17.5377493   14.8532667
| 33>     H       17.2358625   19.2431837   15.2652521
| 34>     H       15.7646374   18.3183992   15.6118773
| 35>     H       16.9704926   19.9025396   17.5495900
| 36>     H       19.1825015   18.0091953   20.3286843
| 37>     H       19.6287525   16.2769205   18.5879715
| 38>     H       19.1631000   13.9680178   18.9959901
| 39>     H       18.0418359   12.2665537   20.4128441
| 40>     H       16.1285384   12.9327427   21.8728835
| 41>     H       14.8721883   14.5904532   22.5588091
| 42>     H       16.4635126   16.9901734   20.5016333
| 43> *
| 44>
| 45>                          ****END OF INPUT****

CARTESIAN COORDINATES (ANGSTROEM)
---------------------------------
  C     15.065522   15.723415   17.401788
  C     15.532606   15.268314   16.002585
  O     16.961416   15.062010   15.840899
  C     18.065293   15.585367   16.479325
  O     19.094293   14.934895   16.484604
  C     17.919672   16.756657   17.397385
  C     17.397647   17.936762   16.984189
  C     16.859982   18.270763   15.608429
  N     17.409755   19.042365   17.837678
  C     18.076386   19.095622   19.033420
  S     18.122494   20.476621   19.941612
  N     18.708159   17.945540   19.436750
  C     18.603417   16.635088   18.763657
  C     17.907041   15.605423   19.650376
  C     18.336399   14.265383   19.638144
  C     17.700524   13.300146   20.436272
  C     16.623658   13.675898   21.256618
  C     16.190349   15.008243   21.271947
  O     15.143504   15.372208   22.054387
  C     16.824778   15.967490   20.476096
  H     15.566038   15.139263   18.181784
  H     13.989480   15.537311   17.504477
  H     15.212425   16.789605   17.587422
  H     15.031379   14.321554   15.762134
  H     15.184812   16.000130   15.263221
  H     17.168549   17.537749   14.853267
  H     17.235862   19.243184   15.265252
  H     15.764637   18.318399   15.611877
  H     16.970493   19.902540   17.549590
  H     19.182502   18.009195   20.328684
  H     19.628753   16.276920   18.587971
  H     19.163100   13.968018   18.995990
  H     18.041836   12.266554   20.412844
  H     16.128538   12.932743   21.872884
  H     14.872188   14.590453   22.558809
  H     16.463513   16.990173   20.501633

 Total Charge           Charge          ....    0
 Multiplicity           Mult            ....    1
 Number of Electrons    NEL             ....  154
 Basis Dimension        Dim             ....  828

ORBITAL ENERGIES
----------------

  NO   OCC          E(Eh)            E(eV)
   0   2.0000     -91.890870     -2500.4777
   1   2.0000     -20.597758      -560.4935
   2   2.0000     -20.596770      -560.4666
   3   2.0000     -20.545976      -559.0844
   4   2.0000     -15.629250      -425.2935
   5   2.0000     -15.611106      -424.7998
   6   2.0000     -11.400411      -310.2209
   7   2.0000     -11.387100      -309.8587
   8   2.0000     -11.332582      -308.3752
   9   2.0000     -11.314465      -307.8823
  10   2.0000     -11.313145      -307.8463
  11   2.0000     -11.312911      -307.8400
  12   2.0000     -11.269895      -306.6694
  13   2.0000     -11.265481      -306.5493
  14   2.0000     -11.261702      -306.4465
  15   2.0000     -11.254900      -306.2614
  16   2.0000     -11.244004      -305.9649
  17   2.0000     -11.239551      -305.8437
  18   2.0000     -11.236331      -305.7561
  19   2.0000     -11.234489      -305.7060
  20   2.0000      -8.895961      -242.0714
  21   2.0000      -6.577546      -178.9841
  22   2.0000      -6.575524      -178.9291
  23   2.0000      -6.574944      -178.9133
  24   2.0000      -1.441304       -39.2199
  25   2.0000      -1.417572       -38.5741
  26   2.0000      -1.353724       -36.8367
  27   2.0000      -1.341831       -36.5131
  28   2.0000      -1.240558       -33.7573
  29   2.0000      -1.159093       -31.5405
  30   2.0000      -1.125141       -30.6166
  31   2.0000      -1.047604       -28.5067
  32   2.0000      -1.041085       -28.3294
  33   2.0000      -1.017289       -27.6818
  34   2.0000      -1.005549       -27.3624
  35   2.0000      -0.990482       -26.9524
  36   2.0000      -0.928123       -25.2555
  37   2.0000      -0.901170       -24.5221
  38   2.0000      -0.854679       -23.2570
  39   2.0000      -0.840971       -22.8840
  40   2.0000      -0.834542       -22.7091
  41   2.0000      -0.827835       -22.5265
  42   2.0000      -0.745035       -20.2734
  43   2.0000      -0.735248       -20.0071
  44   2.0000      -0.730665       -19.8824
  45   2.0000      -0.695030       -18.9127
  46   2.0000      -0.686826       -18.6895
  47   2.0000      -0.678757       -18.4699
  48   2.0000      -0.674349       -18.3500
  49   2.0000      -0.660568       -17.9750
  50   2.0000      -0.658121       -17.9084
  51   2.0000      -0.652043       -17.7430
  52   2.0000      -0.641798       -17.4642
  53   2.0000      -0.616196       -16.7675
  54   2.0000      -0.608147       -16.5485
  55   2.0000      -0.605229       -16.4691
  56   2.0000      -0.602197       -16.3866
  57   2.0000      -0.591066       -16.0837
  58   2.0000      -0.577174       -15.7057
  59   2.0000      -0.572133       -15.5685
  60   2.0000      -0.565570       -15.3899
  61   2.0000      -0.556887       -15.1537
  62   2.0000      -0.543483       -14.7889
  63   2.0000      -0.530205       -14.4276
  64   2.0000      -0.521420       -14.1886
  65   2.0000      -0.513871       -13.9831
  66   2.0000      -0.501258       -13.6399
  67   2.0000      -0.497392       -13.5347
  68   2.0000      -0.483252       -13.1500
  69   2.0000      -0.467926       -12.7329
  70   2.0000      -0.454936       -12.3794
  71   2.0000      -0.448372       -12.2008
  72   2.0000      -0.356623        -9.7042
  73   2.0000      -0.348888        -9.4937
  74   2.0000      -0.330369        -8.9898
  75   2.0000      -0.323124        -8.7927
  76   2.0000      -0.319036        -8.6814
  77   0.0000       0.081654         2.2219
  78   0.0000       0.107684         2.9302
  79   0.0000       0.114502         3.1158
  80   0.0000       0.129974         3.5368
  81   0.0000       0.131118         3.5679

MULLIKEN ATOMIC CHARGES
-----------------------
   0 C :   -0.344554
   1 C :    0.044865
   2 O :   -0.334051
   3 C :    0.426825
   4 O :   -0.386840
   5 C :   -0.204245
   6 C :    0.137448
   7 C :   -0.335204
   8 N :   -0.137501
   9 C :    0.200306
  10 S :   -0.439142
  11 N :   -0.221928
  12 C :    0.082740
  13 C :    0.017498
  14 C :   -0.210686
  15 C :   -0.135677
  16 C :   -0.276581
  17 C :    0.318478
  18 O :   -0.357844
  19 C :   -0.270624
  20 H :    0.131822
  21 H :    0.120906
  22 H :    0.108161
  23 H :    0.131364
  24 H :    0.084564
  25 H :    0.135324
  26 H :    0.137029
  27 H :    0.121588
  28 H :    0.197391
  29 H :    0.201289
  30 H :    0.167197
  31 H :    0.176984
  32 H :    0.163890
  33 H :    0.132026
  34 H :    0.241087
  35 H :    0.176097
Sum of atomic charges:   -0.0000000

LOEWDIN ATOMIC CHARGES
----------------------
   0 C :    0.104974
   1 C :   -0.014859
   2 O :    0.291057
   3 C :   -0.416099
   4 O :    0.119729
   5 C :   -0.081917
   6 C :   -0.094175
   7 C :    0.126190
   8 N :    0.403150
   9 C :   -0.457981
  10 S :   -0.036360
  11 N :    0.398264
  12 C :   -0.042756
  13 C :   -0.043699
  14 C :    0.019576
  15 C :    0.043715
  16 C :   -0.001711
  17 C :   -0.194083
  18 O :    0.395240
  19 C :    0.027844
  20 H :   -0.021618
  21 H :   -0.021720
  22 H :   -0.036309
  23 H :   -0.017352
  24 H :   -0.036874
  25 H :   -0.006981
  26 H :   -0.010113
  27 H :   -0.018107
  28 H :   -0.057610
  29 H :   -0.063392
  30 H :   -0.001907
  31 H :   -0.021684
  32 H :   -0.018627
  33 H :   -0.035037
  34 H :   -0.153586
  35 H :   -0.025181

  Mayer bond orders larger than 0.100000
B(  0-C ,  1-C ) :   0.9569 B(  0-C , 20-H ) :   0.9650 B(  0-C , 21-H ) :   0.9779
B(  0-C , 22-H ) :   0.9738 B(  1-C ,  2-O ) :   0.9059 B(  1-C , 23-H ) :   0.9788
B(  1-C , 24-H ) :   0.9747 B(  2-O ,  3-C ) :   1.1790 B(  3-C ,  4-O ) :   2.0719
B(  3-C ,  5-C ) :   0.9340 B(  5-C ,  6-C ) :   1.6955 B(  5-C , 12-C ) :   0.9545
B(  6-C ,  7-C ) :   0.9425 B(  6-C ,  8-N ) :   1.1028 B(  7-C , 25-H ) :   0.9773
B(  7-C , 26-H ) :   0.9754 B(  7-C , 27-H ) :   0.9640 B(  8-N ,  9-C ) :   1.1926
B(  8-N , 28-H ) :   0.9515 B(  9-C , 10-S ) :   1.6110 B(  9-C , 11-N ) :   1.2900
B( 11-N , 12-C ) :   0.9879 B( 11-N , 29-H ) :   0.9486 B( 12-C , 13-C ) :   0.9472
B( 12-C , 30-H ) :   0.9947 B( 13-C , 14-C ) :   1.3915 B( 13-C , 19-C ) :   1.3447
B( 14-C , 15-C ) :   1.3990 B( 14-C , 31-H ) :   0.9572 B( 15-C , 16-C ) :   1.3603
B( 15-C , 32-H ) :   0.9702 B( 16-C , 17-C ) :   1.3300 B( 16-C , 33-H ) :   0.9847
B( 17-C , 18-O ) :   1.1108 B( 17-C , 19-C ) :   1.3686 B( 18-O , 34-H ) :   0.9796
B( 19-C , 35-H ) :   0.9578

MP2 TOTAL ENERGY:    -1274.326062796 Eh
FINAL SINGLE POINT ENERGY     -1274.326062795924

DIPOLE MOMENT
-------------
                                X             Y             Z
Electronic contribution:      9.51001       5.75854       6.55284
Nuclear contribution   :    -11.14473      -6.77577      -7.15041
                        -----------------------------------------
Total Dipole Moment    :     -1.63472      -1.01723      -0.59757
                        -----------------------------------------
Magnitude (a.u.)       :      2.01598
Magnitude (Debye)      :      5.12421

Rotational constants in cm-1:     0.011505     0.009663     0.006791
Rotational constants in MHz :   344.911098   289.684445   203.592975

                             ****ORCA TERMINATED NORMALLY****
TOTAL RUN TIME: 0 days 2 hours 41 minutes 9 seconds 136 msec
