                         Program Version 5.0.0 -  RELEASE  -
|  1> ! ri-mp2 cc-pvtz cc-pvtz/c TightSCF NoKeepInts
|  2>
|  3> %scf
|  4>   MaxCore 4096
|  5> end
|  6> *xyz  0  1
|  7>     C       15.3401277   13.7481193   16.8301461
|  8>     C       16.5564646   14.0657824   15.9390340
|  9>     O       17.3152268   15.1144975   16.5664194
| 10>     C       16.9047996   16.4146588   16.4541786
| 11>     O       16.0607514   16.7664497   15.6470802
| 12>     C       17.5780663   17.3231670   17.4451494
| 13>     C       17.3887373   18.6670546   17.4466747
| 14>     C       16.5206625   19.4711329   16.5025976
| 15>     N       18.0588666   19.4687685   18.3754372
| 16>     C       18.9925448   19.0195849   19.2705767
| 17>     S       19.7992408   20.0488198   20.2834628
| 18>     N       19.2278350   17.6685461   19.2842025
| 19>     C       18.4829876   16.6662757   18.5005847
| 20>     C       17.6952736   15.7583890   19.4410623
| 21>     C       18.0731503   14.4137904   19.6159371
| 22>     C       17.3460466   13.5725796   20.4749371
| 23>     C       16.2327443   14.0800194   21.1662503
| 24>     C       15.8567348   15.4197981   20.9982138
| 25>     O       14.7830006   15.9129003   21.6652021
| 26>     C       16.5829735   16.2548671   20.1436859
| 27>     H       15.6606876   13.4924704   17.8478855
| 28>     H       14.7769392   12.8997925   16.4232714
| 29>     H       14.6626139   14.6093791   16.8877951
| 30>     H       17.1809351   13.1670721   15.8574434
| 31>     H       16.2364976   14.3523086   14.9277290
| 32>     H       15.4700017   19.1667560   16.5930871
| 33>     H       16.8216463   19.3007423   15.4611071
| 34>     H       16.5701271   20.5504578   16.6880688
| 35>     H       17.8990848   20.4634925   18.3803267
| 36>     H       19.8922130   17.3631346   19.9835810
| 37>     H       19.2236349   16.0540092   17.9671831
| 38>     H       18.9291649   14.0171805   19.0767385
| 39>     H       17.6448879   12.5335149   20.6016593
| 40>     H       15.6676473   13.4343708   21.8303741
| 41>     H       14.4350255   15.2017709   22.2237586
| 42>     H       16.2796586   17.2903469   20.0331590
| 43> *
| 44>
| 45>                          ****END OF INPUT****

CARTESIAN COORDINATES (ANGSTROEM)
---------------------------------
  C     15.340128   13.748119   16.830146
  C     16.556465   14.065782   15.939034
  O     17.315227   15.114498   16.566419
  C     16.904800   16.414659   16.454179
  O     16.060751   16.766450   15.647080
  C     17.578066   17.323167   17.445149
  C     17.388737   18.667055   17.446675
  C     16.520663   19.471133   16.502598
  N     18.058867   19.468768   18.375437
  C     18.992545   19.019585   19.270577
  S     19.799241   20.048820   20.283463
  N     19.227835   17.668546   19.284202
  C     18.482988   16.666276   18.500585
  C     17.695274   15.758389   19.441062
  C     18.073150   14.413790   19.615937
  C     17.346047   13.572580   20.474937
  C     16.232744   14.080019   21.166250
  C     15.856735   15.419798   20.998214
  O     14.783001   15.912900   21.665202
  C     16.582974   16.254867   20.143686
  H     15.660688   13.492470   17.847885
  H     14.776939   12.899792   16.423271
  H     14.662614   14.609379   16.887795
  H     17.180935   13.167072   15.857443
  H     16.236498   14.352309   14.927729
  H     15.470002   19.166756   16.593087
  H     16.821646   19.300742   15.461107
  H     16.570127   20.550458   16.688069
  H     17.899085   20.463493   18.380327
  H     19.892213   17.363135   19.983581
  H     19.223635   16.054009   17.967183
  H     18.929165   14.017181   19.076739
  H     17.644888   12.533515   20.601659
  H     15.667647   13.434371   21.830374
  H     14.435026   15.201771   22.223759
  H     16.279659   17.290347   20.033159

 Total Charge           Charge          ....    0
 Multiplicity           Mult            ....    1
 Number of Electrons    NEL             ....  154
 Basis Dimension        Dim             ....  828

ORBITAL ENERGIES
----------------

  NO   OCC          E(Eh)            E(eV)
   0   2.0000     -91.888820     -2500.4219
   1   2.0000     -20.600544      -560.5693
   2   2.0000     -20.597092      -560.4754
   3   2.0000     -20.541553      -558.9641
   4   2.0000     -15.629009      -425.2870
   5   2.0000     -15.608335      -424.7244
   6   2.0000     -11.395104      -310.0766
   7   2.0000     -11.384034      -309.7753
   8   2.0000     -11.336037      -308.4693
   9   2.0000     -11.314430      -307.8813
  10   2.0000     -11.308998      -307.7335
  11   2.0000     -11.295700      -307.3716
  12   2.0000     -11.260095      -306.4028
  13   2.0000     -11.258952      -306.3717
  14   2.0000     -11.255645      -306.2817
  15   2.0000     -11.252101      -306.1852
  16   2.0000     -11.243705      -305.9568
  17   2.0000     -11.238966      -305.8278
  18   2.0000     -11.238461      -305.8141
  19   2.0000     -11.221667      -305.3571
  20   2.0000      -8.893884      -242.0149
  21   2.0000      -6.575459      -178.9273
  22   2.0000      -6.573453      -178.8728
  23   2.0000      -6.572867      -178.8568
  24   2.0000      -1.450935       -39.4819
  25   2.0000      -1.416762       -38.5520
  26   2.0000      -1.354350       -36.8537
  27   2.0000      -1.339998       -36.4632
  28   2.0000      -1.238559       -33.7029
  29   2.0000      -1.158178       -31.5156
  30   2.0000      -1.120655       -30.4946
  31   2.0000      -1.043080       -28.3837
  32   2.0000      -1.035066       -28.1656
  33   2.0000      -1.015619       -27.6364
  34   2.0000      -0.995363       -27.0852
  35   2.0000      -0.984212       -26.7818
  36   2.0000      -0.922715       -25.1083
  37   2.0000      -0.893539       -24.3144
  38   2.0000      -0.847047       -23.0493
  39   2.0000      -0.838017       -22.8036
  40   2.0000      -0.834432       -22.7061
  41   2.0000      -0.815273       -22.1847
  42   2.0000      -0.756569       -20.5873
  43   2.0000      -0.732846       -19.9417
  44   2.0000      -0.723300       -19.6820
  45   2.0000      -0.696271       -18.9465
  46   2.0000      -0.688741       -18.7416
  47   2.0000      -0.678915       -18.4742
  48   2.0000      -0.670774       -18.2527
  49   2.0000      -0.661229       -17.9930
  50   2.0000      -0.648348       -17.6424
  51   2.0000      -0.641317       -17.4511
  52   2.0000      -0.631910       -17.1952
  53   2.0000      -0.609365       -16.5817
  54   2.0000      -0.607364       -16.5272
  55   2.0000      -0.600091       -16.3293
  56   2.0000      -0.599036       -16.3006
  57   2.0000      -0.577965       -15.7272
  58   2.0000      -0.570709       -15.5298
  59   2.0000      -0.567803       -15.4507
  60   2.0000      -0.559965       -15.2374
  61   2.0000      -0.543535       -14.7903
  62   2.0000      -0.532794       -14.4981
  63   2.0000      -0.530613       -14.4387
  64   2.0000      -0.525361       -14.2958
  65   2.0000      -0.513270       -13.9668
  66   2.0000      -0.501374       -13.6431
  67   2.0000      -0.499447       -13.5906
  68   2.0000      -0.481168       -13.0932
  69   2.0000      -0.464302       -12.6343
  70   2.0000      -0.454371       -12.3641
  71   2.0000      -0.447092       -12.1660
  72   2.0000      -0.354265        -9.6400
  73   2.0000      -0.350118        -9.5272
  74   2.0000      -0.328281        -8.9330
  75   2.0000      -0.321819        -8.7571
  76   2.0000      -0.316251        -8.6056
  77   0.0000       0.076502         2.0817
  78   0.0000       0.105898         2.8816
  79   0.0000       0.124902         3.3987
  80   0.0000       0.132538         3.6066
  81   0.0000       0.138422         3.7667

MULLIKEN ATOMIC CHARGES
-----------------------
   0 C :   -0.299775
   1 C :    0.016808
   2 O :   -0.355295
   3 C :    0.465334
   4 O :   -0.435770
   5 C :   -0.229185
   6 C :    0.153912
   7 C :   -0.272753
   8 N :   -0.121131
   9 C :    0.212870
  10 S :   -0.440568
  11 N :   -0.206402
  12 C :    0.063197
  13 C :    0.063990
  14 C :   -0.188139
  15 C :   -0.139368
  16 C :   -0.275139
  17 C :    0.314436
  18 O :   -0.356420
  19 C :   -0.263011
  20 H :    0.106653
  21 H :    0.098989
  22 H :    0.108755
  23 H :    0.110711
  24 H :    0.118537
  25 H :    0.132060
  26 H :    0.130883
  27 H :    0.095269
  28 H :    0.197084
  29 H :    0.195230
  30 H :    0.149953
  31 H :    0.149368
  32 H :    0.161411
  33 H :    0.130819
  34 H :    0.240768
  35 H :    0.165918
Sum of atomic charges:   -0.0000000

LOEWDIN ATOMIC CHARGES
----------------------
   0 C :    0.104983
   1 C :   -0.018056
   2 O :    0.308179
   3 C :   -0.414038
   4 O :    0.095177
   5 C :   -0.094284
   6 C :   -0.059288
   7 C :    0.131611
   8 N :    0.406612
   9 C :   -0.455918
  10 S :   -0.035800
  11 N :    0.396434
  12 C :   -0.051919
  13 C :   -0.038616
  14 C :    0.013466
  15 C :    0.039054
  16 C :   -0.002076
  17 C :   -0.189343
  18 O :    0.395638
  19 C :    0.031984
  20 H :   -0.026351
  21 H :   -0.027910
  22 H :   -0.025675
  23 H :   -0.026192
  24 H :   -0.027894
  25 H :   -0.004610
  26 H :   -0.003931
  27 H :   -0.023386
  28 H :   -0.057562
  29 H :   -0.064588
  30 H :   -0.011179
  31 H :   -0.030157
  32 H :   -0.021407
  33 H :   -0.035472
  34 H :   -0.153781
  35 H :   -0.023704

  Mayer bond orders larger than 0.100000
B(  0-C ,  1-C ) :   0.9611 B(  0-C , 20-H ) :   0.9707 B(  0-C , 21-H ) :   0.9775
B(  0-C , 22-H ) :   0.9767 B(  1-C ,  2-O ) :   0.8932 B(  1-C , 23-H ) :   0.9848
B(  1-C , 24-H ) :   0.9793 B(  2-O ,  3-C ) :   1.1657 B(  3-C ,  4-O ) :   1.9653
B(  3-C ,  5-C ) :   1.0607 B(  5-C ,  6-C ) :   1.6545 B(  5-C , 12-C ) :   0.9724
B(  6-C ,  7-C ) :   0.9663 B(  6-C ,  8-N ) :   1.1657 B(  7-C , 25-H ) :   0.9602
B(  7-C , 26-H ) :   0.9606 B(  7-C , 27-H ) :   0.9904 B(  8-N ,  9-C ) :   1.1835
B(  8-N , 28-H ) :   0.9478 B(  9-C , 10-S ) :   1.6058 B(  9-C , 11-N ) :   1.3064
B( 11-N , 12-C ) :   0.9851 B( 11-N , 29-H ) :   0.9513 B( 12-C , 13-C ) :   0.9361
B( 12-C , 30-H ) :   1.0019 B( 13-C , 14-C ) :   1.3532 B( 13-C , 19-C ) :   1.3830
B( 14-C , 15-C ) :   1.3916 B( 14-C , 31-H ) :   0.9725 B( 15-C , 16-C ) :   1.3585
B( 15-C , 32-H ) :   0.9715 B( 16-C , 17-C ) :   1.3318 B( 16-C , 33-H ) :   0.9851
B( 17-C , 18-O ) :   1.1109 B( 17-C , 19-C ) :   1.3703 B( 18-O , 34-H ) :   0.9798
B( 19-C , 35-H ) :   0.9577

MP2 TOTAL ENERGY:    -1274.352146275 Eh
FINAL SINGLE POINT ENERGY     -1274.352146275249

DIPOLE MOMENT
-------------
                                X             Y             Z
Electronic contribution:      9.00187      10.93015       7.10781
Nuclear contribution   :     -9.83009     -12.70492      -7.53710
                        -----------------------------------------
Total Dipole Moment    :     -0.82822      -1.77476      -0.42928
                        -----------------------------------------
Magnitude (a.u.)       :      2.00500
Magnitude (Debye)      :      5.09629

Rotational constants in cm-1:     0.012372     0.008668     0.006296
Rotational constants in MHz :   370.912399   259.846757   188.759106

                             ****ORCA TERMINATED NORMALLY****
TOTAL RUN TIME: 0 days 1 hours 38 minutes 24 seconds 976 msec
