                         Program Version 4.2.0 -  RELEASE  -
|  1> ! ri-mp2 cc-pvtz cc-pvtz/c TightSCF  NoKeepInts
|  2>
|  3> %scf
|  4>   MaxCore 4096
|  5> end
|  6> *xyz  0  1
|  7>     C       14.9227401   15.9130402   17.1552740
|  8>     C       15.8105978   14.6518140   17.0902519
|  9>     O       17.0134488   14.8274215   16.3030614
| 10>     C       17.8836843   15.8903902   16.2513012
| 11>     O       18.5800170   16.0527489   15.2670054
| 12>     C       17.8317107   16.9310596   17.3207247
| 13>     C       17.4469036   18.1927563   17.0191972
| 14>     C       16.8930208   18.6726441   15.6953097
| 15>     N       17.5784561   19.2129389   17.9628495
| 16>     C       18.2084103   19.0772090   19.1713614
| 17>     S       18.3731024   20.3470611   20.2175825
| 18>     N       18.6986604   17.8309668   19.4738535
| 19>     C       18.5176311   16.6136438   18.6575127
| 20>     C       17.8385513   15.5240820   19.4767504
| 21>     C       18.3560550   14.2148663   19.4752557
| 22>     C       17.7427902   13.2031318   20.2331212
| 23>     C       16.6057799   13.5026254   21.0028761
| 24>     C       16.0922037   14.8064705   21.0137226
| 25>     O       14.9915491   15.0978543   21.7507250
| 26>     C       16.7035640   15.8118552   20.2579860
| 27>     H       15.2962292   16.6458609   17.8772077
| 28>     H       13.9124843   15.6358799   17.4804698
| 29>     H       14.8360821   16.3840083   16.1689989
| 30>     H       16.0490393   14.3142342   18.1023215
| 31>     H       15.2277656   13.8442373   16.6287911
| 32>     H       16.4554214   17.8538452   15.1116668
| 33>     H       17.6942736   19.1072907   15.0840219
| 34>     H       16.1122069   19.4309219   15.8285987
| 35>     H       17.2528260   20.1411937   17.7434904
| 36>     H       19.1417500   17.7604792   20.3813879
| 37>     H       19.5245477   16.2485773   18.4082245
| 38>     H       19.2331315   13.9773446   18.8777907
| 39>     H       18.1491777   12.1927954   20.2221192
| 40>     H       16.1292269   12.7234941   21.5892146
| 41>     H       14.7536230   14.3020443   22.2505486
| 42>     H       16.2903381   16.8152132   20.2834255
| 43> *
| 44>
| 45>                          ****END OF INPUT****

CARTESIAN COORDINATES (ANGSTROEM)
---------------------------------
  C     14.922740   15.913040   17.155274
  C     15.810598   14.651814   17.090252
  O     17.013449   14.827421   16.303061
  C     17.883684   15.890390   16.251301
  O     18.580017   16.052749   15.267005
  C     17.831711   16.931060   17.320725
  C     17.446904   18.192756   17.019197
  C     16.893021   18.672644   15.695310
  N     17.578456   19.212939   17.962849
  C     18.208410   19.077209   19.171361
  S     18.373102   20.347061   20.217582
  N     18.698660   17.830967   19.473854
  C     18.517631   16.613644   18.657513
  C     17.838551   15.524082   19.476750
  C     18.356055   14.214866   19.475256
  C     17.742790   13.203132   20.233121
  C     16.605780   13.502625   21.002876
  C     16.092204   14.806470   21.013723
  O     14.991549   15.097854   21.750725
  C     16.703564   15.811855   20.257986
  H     15.296229   16.645861   17.877208
  H     13.912484   15.635880   17.480470
  H     14.836082   16.384008   16.168999
  H     16.049039   14.314234   18.102321
  H     15.227766   13.844237   16.628791
  H     16.455421   17.853845   15.111667
  H     17.694274   19.107291   15.084022
  H     16.112207   19.430922   15.828599
  H     17.252826   20.141194   17.743490
  H     19.141750   17.760479   20.381388
  H     19.524548   16.248577   18.408224
  H     19.233131   13.977345   18.877791
  H     18.149178   12.192795   20.222119
  H     16.129227   12.723494   21.589215
  H     14.753623   14.302044   22.250549
  H     16.290338   16.815213   20.283425

 Total Charge           Charge          ....    0
 Multiplicity           Mult            ....    1
 Number of Electrons    NEL             ....  154
 Basis Dimension        Dim             ....  828

ORBITAL ENERGIES
----------------

  NO   OCC          E(Eh)            E(eV)
   0   2.0000     -91.889637     -2500.4441
   1   2.0000     -20.606552      -560.7328
   2   2.0000     -20.594626      -560.4083
   3   2.0000     -20.548832      -559.1621
   4   2.0000     -15.625270      -425.1852
   5   2.0000     -15.612191      -424.8293
   6   2.0000     -11.396981      -310.1276
   7   2.0000     -11.385931      -309.8269
   8   2.0000     -11.325167      -308.1735
   9   2.0000     -11.325165      -308.1734
  10   2.0000     -11.319992      -308.0326
  11   2.0000     -11.301678      -307.5343
  12   2.0000     -11.271321      -306.7082
  13   2.0000     -11.266310      -306.5719
  14   2.0000     -11.259843      -306.3959
  15   2.0000     -11.257580      -306.3343
  16   2.0000     -11.254977      -306.2635
  17   2.0000     -11.249654      -306.1186
  18   2.0000     -11.249384      -306.1113
  19   2.0000     -11.233026      -305.6662
  20   2.0000      -8.894748      -242.0384
  21   2.0000      -6.576336      -178.9512
  22   2.0000      -6.574311      -178.8961
  23   2.0000      -6.573737      -178.8805
  24   2.0000      -1.441384       -39.2221
  25   2.0000      -1.426349       -38.8129
  26   2.0000      -1.354834       -36.8669
  27   2.0000      -1.339401       -36.4470
  28   2.0000      -1.240561       -33.7574
  29   2.0000      -1.168312       -31.7914
  30   2.0000      -1.124608       -30.6021
  31   2.0000      -1.052177       -28.6312
  32   2.0000      -1.036084       -28.1933
  33   2.0000      -1.026473       -27.9317
  34   2.0000      -1.004191       -27.3254
  35   2.0000      -0.989485       -26.9252
  36   2.0000      -0.929338       -25.2886
  37   2.0000      -0.898585       -24.4517
  38   2.0000      -0.852024       -23.1847
  39   2.0000      -0.845653       -23.0114
  40   2.0000      -0.844298       -22.9745
  41   2.0000      -0.830593       -22.6016
  42   2.0000      -0.750595       -20.4247
  43   2.0000      -0.739921       -20.1343
  44   2.0000      -0.722547       -19.6615
  45   2.0000      -0.705481       -19.1971
  46   2.0000      -0.692970       -18.8567
  47   2.0000      -0.678988       -18.4762
  48   2.0000      -0.675882       -18.3917
  49   2.0000      -0.662414       -18.0252
  50   2.0000      -0.654642       -17.8137
  51   2.0000      -0.649437       -17.6721
  52   2.0000      -0.638762       -17.3816
  53   2.0000      -0.619873       -16.8676
  54   2.0000      -0.615020       -16.7355
  55   2.0000      -0.609400       -16.5826
  56   2.0000      -0.605954       -16.4888
  57   2.0000      -0.585172       -15.9233
  58   2.0000      -0.578744       -15.7484
  59   2.0000      -0.568293       -15.4640
  60   2.0000      -0.567928       -15.4541
  61   2.0000      -0.552929       -15.0460
  62   2.0000      -0.539222       -14.6730
  63   2.0000      -0.535552       -14.5731
  64   2.0000      -0.529336       -14.4040
  65   2.0000      -0.517477       -14.0813
  66   2.0000      -0.506192       -13.7742
  67   2.0000      -0.501730       -13.6528
  68   2.0000      -0.489066       -13.3082
  69   2.0000      -0.465884       -12.6774
  70   2.0000      -0.451623       -12.2893
  71   2.0000      -0.446190       -12.1414
  72   2.0000      -0.359885        -9.7930
  73   2.0000      -0.352510        -9.5923
  74   2.0000      -0.334415        -9.0999
  75   2.0000      -0.328984        -8.9521
  76   2.0000      -0.317763        -8.6468
  77   0.0000       0.086551         2.3552
  78   0.0000       0.097040         2.6406
  79   0.0000       0.118751         3.2314
  80   0.0000       0.125897         3.4258
  81   0.0000       0.129594         3.5264

MULLIKEN ATOMIC CHARGES
-----------------------
   0 C :   -0.339533
   1 C :    0.035461
   2 O :   -0.320721
   3 C :    0.384583
   4 O :   -0.371876
   5 C :   -0.203086
   6 C :    0.145496
   7 C :   -0.297270
   8 N :   -0.131400
   9 C :    0.207795
  10 S :   -0.442005
  11 N :   -0.215582
  12 C :    0.067214
  13 C :    0.000052
  14 C :   -0.181904
  15 C :   -0.133770
  16 C :   -0.272094
  17 C :    0.316498
  18 O :   -0.354795
  19 C :   -0.272718
  20 H :    0.110808
  21 H :    0.122448
  22 H :    0.109815
  23 H :    0.099873
  24 H :    0.127038
  25 H :    0.117494
  26 H :    0.146528
  27 H :    0.103263
  28 H :    0.197323
  29 H :    0.198788
  30 H :    0.163964
  31 H :    0.154798
  32 H :    0.164826
  33 H :    0.135568
  34 H :    0.242405
  35 H :    0.184714
Sum of atomic charges:   -0.0000000

LOEWDIN ATOMIC CHARGES
----------------------
   0 C :    0.102805
   1 C :   -0.013715
   2 O :    0.296390
   3 C :   -0.419241
   4 O :    0.127804
   5 C :   -0.083505
   6 C :   -0.090416
   7 C :    0.129070
   8 N :    0.403843
   9 C :   -0.456297
  10 S :   -0.038144
  11 N :    0.396906
  12 C :   -0.052475
  13 C :   -0.045885
  14 C :    0.016695
  15 C :    0.044869
  16 C :    0.001229
  17 C :   -0.192660
  18 O :    0.398189
  19 C :    0.032414
  20 H :   -0.036623
  21 H :   -0.021696
  22 H :   -0.029636
  23 H :   -0.034844
  24 H :   -0.020596
  25 H :   -0.010814
  26 H :   -0.004652
  27 H :   -0.019312
  28 H :   -0.057242
  29 H :   -0.064472
  30 H :   -0.007206
  31 H :   -0.026239
  32 H :   -0.017724
  33 H :   -0.032882
  34 H :   -0.151716
  35 H :   -0.022224

  Mayer bond orders larger than 0.100000
B(  0-C ,  1-C ) :   0.9552 B(  0-C , 20-H ) :   0.9711 B(  0-C , 21-H ) :   0.9770
B(  0-C , 22-H ) :   0.9756 B(  1-C ,  2-O ) :   0.9064 B(  1-C , 23-H ) :   0.9670
B(  1-C , 24-H ) :   0.9841 B(  2-O ,  3-C ) :   1.2008 B(  3-C ,  4-O ) :   2.1172
B(  3-C ,  5-C ) :   0.8958 B(  5-C ,  6-C ) :   1.7263 B(  5-C , 12-C ) :   0.9517
B(  6-C ,  7-C ) :   0.9535 B(  6-C ,  8-N ) :   1.1192 B(  7-C , 25-H ) :   0.9766
B(  7-C , 26-H ) :   0.9610 B(  7-C , 27-H ) :   0.9781 B(  8-N ,  9-C ) :   1.2027
B(  8-N , 28-H ) :   0.9510 B(  9-C , 10-S ) :   1.6100 B(  9-C , 11-N ) :   1.2804
B( 11-N , 12-C ) :   0.9972 B( 11-N , 29-H ) :   0.9480 B( 12-C , 13-C ) :   0.9328
B( 12-C , 30-H ) :   1.0044 B( 13-C , 14-C ) :   1.3752 B( 13-C , 19-C ) :   1.3504
B( 14-C , 15-C ) :   1.3985 B( 14-C , 31-H ) :   0.9702 B( 15-C , 16-C ) :   1.3632
B( 15-C , 32-H ) :   0.9699 B( 16-C , 17-C ) :   1.3267 B( 16-C , 33-H ) :   0.9834
B( 17-C , 18-O ) :   1.1148 B( 17-C , 19-C ) :   1.3631 B( 18-O , 34-H ) :   0.9782
B( 19-C , 35-H ) :   0.9520

MP2 TOTAL ENERGY:    -1274.325927637 Eh
FINAL SINGLE POINT ENERGY     -1274.325927637384

DIPOLE MOMENT
-------------
                                X             Y             Z
Electronic contribution:      9.25416       5.75145       5.78075
Nuclear contribution   :    -10.62609      -7.43115      -5.45157
                        -----------------------------------------
Total Dipole Moment    :     -1.37193      -1.67970       0.32919
                        -----------------------------------------
Magnitude (a.u.)       :      2.19361
Magnitude (Debye)      :      5.57572

Rotational constants in cm-1:     0.012337     0.009365     0.006664
Rotational constants in MHz :   369.860364   280.762096   199.782440

                             ****ORCA TERMINATED NORMALLY****
TOTAL RUN TIME: 0 days 1 hours 50 minutes 34 seconds 689 msec
