                         Program Version 4.2.0 -  RELEASE  -
|  1> ! ri-mp2 cc-pvtz cc-pvtz/c TightSCF  NoKeepInts
|  2>
|  3> %scf
|  4>   MaxCore 4096
|  5> end
|  6> *xyz  0  1
|  7>     C       15.6943374   13.1984901   16.3641843
|  8>     C       15.6553437   14.6538172   16.8578721
|  9>     O       16.8614375   15.2937621   16.4022563
| 10>     C       16.8376719   16.6485694   16.2498191
| 11>     O       16.0121262   17.1683825   15.5200784
| 12>     C       17.5511035   17.3791080   17.3571573
| 13>     C       17.4606888   18.7249858   17.5176756
| 14>     C       16.6292796   19.6956714   16.7060961
| 15>     N       18.2293786   19.3669626   18.4937127
| 16>     C       19.2319333   18.7723656   19.2125791
| 17>     S       20.2045792   19.6322494   20.2373032
| 18>     N       19.3962903   17.4232862   19.0282683
| 19>     C       18.4657277   16.5567239   18.2827781
| 20>     C       17.6888718   15.6931205   19.2709222
| 21>     C       17.9654271   14.3170926   19.3802919
| 22>     C       17.2498229   13.5137455   20.2838898
| 23>     C       16.2542875   14.0916263   21.0899877
| 24>     C       15.9837657   15.4633051   20.9916446
| 25>     O       15.0238883   16.0244793   21.7688235
| 26>     C       16.6951639   16.2598830   20.0891512
| 27>     H       14.7844346   12.6657082   16.6656444
| 28>     H       16.5582272   12.6710679   16.7869951
| 29>     H       15.7669372   13.1641200   15.2698662
| 30>     H       14.7712605   15.1439087   16.4270219
| 31>     H       15.5705722   14.6918006   17.9504899
| 32>     H       15.5643220   19.4380968   16.7698087
| 33>     H       16.9124870   19.6546361   15.6465331
| 34>     H       16.7378546   20.7352819   17.0366504
| 35>     H       18.1283015   20.3597915   18.6326364
| 36>     H       20.1254519   17.0070735   19.5930797
| 37>     H       19.0692437   15.8937930   17.6466191
| 38>     H       18.7322272   13.8666492   18.7553947
| 39>     H       17.4688273   12.4498256   20.3587624
| 40>     H       15.7000931   13.4754423   21.7905873
| 41>     H       14.6901664   15.3365673   22.3643920
| 42>     H       16.4754685   17.3206111   20.0350269
| 43> *
| 44>
| 45>                          ****END OF INPUT****

CARTESIAN COORDINATES (ANGSTROEM)
---------------------------------
  C     15.694337   13.198490   16.364184
  C     15.655344   14.653817   16.857872
  O     16.861438   15.293762   16.402256
  C     16.837672   16.648569   16.249819
  O     16.012126   17.168382   15.520078
  C     17.551103   17.379108   17.357157
  C     17.460689   18.724986   17.517676
  C     16.629280   19.695671   16.706096
  N     18.229379   19.366963   18.493713
  C     19.231933   18.772366   19.212579
  S     20.204579   19.632249   20.237303
  N     19.396290   17.423286   19.028268
  C     18.465728   16.556724   18.282778
  C     17.688872   15.693120   19.270922
  C     17.965427   14.317093   19.380292
  C     17.249823   13.513746   20.283890
  C     16.254288   14.091626   21.089988
  C     15.983766   15.463305   20.991645
  O     15.023888   16.024479   21.768823
  C     16.695164   16.259883   20.089151
  H     14.784435   12.665708   16.665644
  H     16.558227   12.671068   16.786995
  H     15.766937   13.164120   15.269866
  H     14.771260   15.143909   16.427022
  H     15.570572   14.691801   17.950490
  H     15.564322   19.438097   16.769809
  H     16.912487   19.654636   15.646533
  H     16.737855   20.735282   17.036650
  H     18.128301   20.359792   18.632636
  H     20.125452   17.007074   19.593080
  H     19.069244   15.893793   17.646619
  H     18.732227   13.866649   18.755395
  H     17.468827   12.449826   20.358762
  H     15.700093   13.475442   21.790587
  H     14.690166   15.336567   22.364392
  H     16.475469   17.320611   20.035027

 Total Charge           Charge          ....    0
 Multiplicity           Mult            ....    1
 Number of Electrons    NEL             ....  154
 Basis Dimension        Dim             ....  828

ORBITAL ENERGIES
----------------

  NO   OCC          E(Eh)            E(eV)
   0   2.0000     -91.890635     -2500.4713
   1   2.0000     -20.601172      -560.5864
   2   2.0000     -20.584766      -560.1400
   3   2.0000     -20.546781      -559.1063
   4   2.0000     -15.631088      -425.3435
   5   2.0000     -15.609761      -424.7632
   6   2.0000     -11.392976      -310.0186
   7   2.0000     -11.385388      -309.8122
   8   2.0000     -11.337521      -308.5096
   9   2.0000     -11.319117      -308.0088
  10   2.0000     -11.311670      -307.8062
  11   2.0000     -11.292193      -307.2762
  12   2.0000     -11.263639      -306.4992
  13   2.0000     -11.260370      -306.4102
  14   2.0000     -11.259847      -306.3960
  15   2.0000     -11.253302      -306.2179
  16   2.0000     -11.248066      -306.0754
  17   2.0000     -11.242766      -305.9312
  18   2.0000     -11.242395      -305.9211
  19   2.0000     -11.225367      -305.4578
  20   2.0000      -8.895674      -242.0636
  21   2.0000      -6.577242      -178.9759
  22   2.0000      -6.575244      -178.9215
  23   2.0000      -6.574651      -178.9053
  24   2.0000      -1.449164       -39.4338
  25   2.0000      -1.420863       -38.6636
  26   2.0000      -1.352510       -36.8037
  27   2.0000      -1.342153       -36.5218
  28   2.0000      -1.240609       -33.7587
  29   2.0000      -1.161889       -31.6166
  30   2.0000      -1.121446       -30.5161
  31   2.0000      -1.045835       -28.4586
  32   2.0000      -1.034583       -28.1524
  33   2.0000      -1.020076       -27.7577
  34   2.0000      -0.997555       -27.1448
  35   2.0000      -0.985729       -26.8231
  36   2.0000      -0.925250       -25.1773
  37   2.0000      -0.879627       -23.9359
  38   2.0000      -0.849017       -23.1029
  39   2.0000      -0.841835       -22.9075
  40   2.0000      -0.838243       -22.8098
  41   2.0000      -0.826494       -22.4901
  42   2.0000      -0.761598       -20.7241
  43   2.0000      -0.736047       -20.0289
  44   2.0000      -0.724414       -19.7123
  45   2.0000      -0.700236       -19.0544
  46   2.0000      -0.690846       -18.7989
  47   2.0000      -0.678690       -18.4681
  48   2.0000      -0.672908       -18.3108
  49   2.0000      -0.656188       -17.8558
  50   2.0000      -0.648195       -17.6383
  51   2.0000      -0.643902       -17.5215
  52   2.0000      -0.626211       -17.0401
  53   2.0000      -0.625084       -17.0094
  54   2.0000      -0.611651       -16.6439
  55   2.0000      -0.603584       -16.4244
  56   2.0000      -0.600992       -16.3538
  57   2.0000      -0.581445       -15.8219
  58   2.0000      -0.572163       -15.5693
  59   2.0000      -0.565943       -15.4001
  60   2.0000      -0.556809       -15.1516
  61   2.0000      -0.540694       -14.7130
  62   2.0000      -0.533521       -14.5179
  63   2.0000      -0.529327       -14.4037
  64   2.0000      -0.517621       -14.0852
  65   2.0000      -0.515819       -14.0361
  66   2.0000      -0.505166       -13.7463
  67   2.0000      -0.497978       -13.5507
  68   2.0000      -0.487889       -13.2761
  69   2.0000      -0.464680       -12.6446
  70   2.0000      -0.455992       -12.4082
  71   2.0000      -0.445226       -12.1152
  72   2.0000      -0.356958        -9.7133
  73   2.0000      -0.354011        -9.6331
  74   2.0000      -0.330514        -8.9937
  75   2.0000      -0.326475        -8.8838
  76   2.0000      -0.317750        -8.6464
  77   0.0000       0.069022         1.8782
  78   0.0000       0.101930         2.7737
  79   0.0000       0.122688         3.3385
  80   0.0000       0.127993         3.4829
  81   0.0000       0.133378         3.6294

MULLIKEN ATOMIC CHARGES
-----------------------
   0 C :   -0.263482
   1 C :    0.011661
   2 O :   -0.384962
   3 C :    0.512150
   4 O :   -0.412729
   5 C :   -0.281734
   6 C :    0.159477
   7 C :   -0.269268
   8 N :   -0.124237
   9 C :    0.211813
  10 S :   -0.437148
  11 N :   -0.201547
  12 C :    0.053329
  13 C :    0.020072
  14 C :   -0.163272
  15 C :   -0.135084
  16 C :   -0.273943
  17 C :    0.304760
  18 O :   -0.356338
  19 C :   -0.242082
  20 H :    0.087123
  21 H :    0.089148
  22 H :    0.104606
  23 H :    0.118808
  24 H :    0.115892
  25 H :    0.130642
  26 H :    0.133055
  27 H :    0.094926
  28 H :    0.198346
  29 H :    0.193395
  30 H :    0.149310
  31 H :    0.151153
  32 H :    0.163648
  33 H :    0.133324
  34 H :    0.241651
  35 H :    0.167536
Sum of atomic charges:   -0.0000000

LOEWDIN ATOMIC CHARGES
----------------------
   0 C :    0.108612
   1 C :   -0.016554
   2 O :    0.291797
   3 C :   -0.418124
   4 O :    0.114979
   5 C :   -0.098571
   6 C :   -0.057881
   7 C :    0.131211
   8 N :    0.406975
   9 C :   -0.456807
  10 S :   -0.033181
  11 N :    0.396302
  12 C :   -0.053142
  13 C :   -0.038925
  14 C :    0.014659
  15 C :    0.041537
  16 C :   -0.001974
  17 C :   -0.190755
  18 O :    0.396670
  19 C :    0.030235
  20 H :   -0.025981
  21 H :   -0.031380
  22 H :   -0.024332
  23 H :   -0.029209
  24 H :   -0.033278
  25 H :   -0.005021
  26 H :   -0.003379
  27 H :   -0.023268
  28 H :   -0.057365
  29 H :   -0.065028
  30 H :   -0.007889
  31 H :   -0.029653
  32 H :   -0.019953
  33 H :   -0.034477
  34 H :   -0.152770
  35 H :   -0.024082

  Mayer bond orders larger than 0.100000
B(  0-C ,  1-C ) :   0.9808 B(  0-C , 20-H ) :   0.9762 B(  0-C , 21-H ) :   0.9793
B(  0-C , 22-H ) :   0.9787 B(  1-C ,  2-O ) :   0.8710 B(  1-C , 23-H ) :   0.9765
B(  1-C , 24-H ) :   0.9641 B(  2-O ,  3-C ) :   1.1083 B(  3-C ,  4-O ) :   2.0100
B(  3-C ,  5-C ) :   1.0687 B(  5-C ,  6-C ) :   1.6505 B(  5-C , 12-C ) :   0.9715
B(  6-C ,  7-C ) :   0.9683 B(  6-C ,  8-N ) :   1.1580 B(  7-C , 25-H ) :   0.9611
B(  7-C , 26-H ) :   0.9588 B(  7-C , 27-H ) :   0.9899 B(  8-N ,  9-C ) :   1.1804
B(  8-N , 28-H ) :   0.9478 B(  9-C , 10-S ) :   1.6109 B(  9-C , 11-N ) :   1.3045
B( 11-N , 12-C ) :   0.9754 B( 11-N , 29-H ) :   0.9533 B( 12-C , 13-C ) :   0.9421
B( 12-C , 30-H ) :   1.0020 B( 13-C , 14-C ) :   1.3568 B( 13-C , 19-C ) :   1.3781
B( 14-C , 15-C ) :   1.3894 B( 14-C , 31-H ) :   0.9729 B( 15-C , 16-C ) :   1.3624
B( 15-C , 32-H ) :   0.9699 B( 16-C , 17-C ) :   1.3286 B( 16-C , 33-H ) :   0.9842
B( 17-C , 18-O ) :   1.1145 B( 17-C , 19-C ) :   1.3766 B( 18-O , 34-H ) :   0.9790
B( 19-C , 35-H ) :   0.9569

MP2 TOTAL ENERGY:    -1274.333374044 Eh
FINAL SINGLE POINT ENERGY     -1274.333374044072

DIPOLE MOMENT
-------------
                                X             Y             Z
Electronic contribution:      9.59354      10.92889       6.13247
Nuclear contribution   :    -10.68652     -12.39515      -6.01568
                        -----------------------------------------
Total Dipole Moment    :     -1.09298      -1.46625       0.11679
                        -----------------------------------------
Magnitude (a.u.)       :      1.83252
Magnitude (Debye)      :      4.65790

Rotational constants in cm-1:     0.012423     0.008749     0.006356
Rotational constants in MHz :   372.440185   262.296854   190.548981

                             ****ORCA TERMINATED NORMALLY****
TOTAL RUN TIME: 0 days 1 hours 50 minutes 41 seconds 17 msec
