                         Program Version 4.2.0 -  RELEASE  -
|  1> ! ri-mp2 cc-pvtz cc-pvtz/c TightSCF  NoKeepInts
|  2>
|  3> %scf
|  4>   MaxCore 4096
|  5> end
|  6> *xyz  0  1
|  7>     C       14.2630770   15.1226951   16.2701834
|  8>     C       15.7066706   14.8649521   16.7327630
|  9>     O       16.5728245   15.7099757   15.9581023
| 10>     C       17.8411134   15.8687760   16.4278726
| 11>     O       18.5820933   14.9044864   16.5095342
| 12>     C       17.9327789   16.9979685   17.4083966
| 13>     C       17.2985917   18.1842996   17.2393069
| 14>     C       16.4422348   18.6045955   16.0634626
| 15>     N       17.4729930   19.2056143   18.1778089
| 16>     C       18.3668482   19.1665520   19.2161418
| 17>     S       18.5980816   20.4641041   20.2149968
| 18>     N       19.0594029   17.9933013   19.3859117
| 19>     C       18.8026382   16.7445410   18.6424986
| 20>     C       18.1537814   15.7010234   19.5483305
| 21>     C       18.6930551   14.4049330   19.6420373
| 22>     C       18.0877705   13.4338445   20.4570558
| 23>     C       16.9311379   13.7598359   21.1853285
| 24>     C       16.3881046   15.0482102   21.0921300
| 25>     O       15.2645257   15.3632499   21.7841712
| 26>     C       16.9921825   16.0123351   20.2791700
| 27>     H       13.5647013   14.4784582   16.8181467
| 28>     H       14.1573637   14.9101620   15.1989636
| 29>     H       13.9772598   16.1662014   16.4481793
| 30>     H       15.7907942   15.0984428   17.8027905
| 31>     H       15.9759277   13.8101236   16.5863134
| 32>     H       15.4234696   18.2121511   16.1657663
| 33>     H       16.8531842   18.2251272   15.1194667
| 34>     H       16.3746435   19.6950333   15.9656372
| 35>     H       16.9755630   20.0751616   18.0685492
| 36>     H       19.6920607   17.9826854   20.1757594
| 37>     H       19.7711026   16.3526024   18.2990306
| 38>     H       19.5762778   14.1441088   19.0634342
| 39>     H       18.5126855   12.4332379   20.5158203
| 40>     H       16.4593571   13.0118594   21.8139824
| 41>     H       15.0376969   14.5979269   22.3338788
| 42>     H       16.5550063   17.0034246   20.2230788
| 43> *
| 44>
| 45>                          ****END OF INPUT****

CARTESIAN COORDINATES (ANGSTROEM)
---------------------------------
  C     14.263077   15.122695   16.270183
  C     15.706671   14.864952   16.732763
  O     16.572824   15.709976   15.958102
  C     17.841113   15.868776   16.427873
  O     18.582093   14.904486   16.509534
  C     17.932779   16.997968   17.408397
  C     17.298592   18.184300   17.239307
  C     16.442235   18.604595   16.063463
  N     17.472993   19.205614   18.177809
  C     18.366848   19.166552   19.216142
  S     18.598082   20.464104   20.214997
  N     19.059403   17.993301   19.385912
  C     18.802638   16.744541   18.642499
  C     18.153781   15.701023   19.548330
  C     18.693055   14.404933   19.642037
  C     18.087771   13.433844   20.457056
  C     16.931138   13.759836   21.185329
  C     16.388105   15.048210   21.092130
  O     15.264526   15.363250   21.784171
  C     16.992182   16.012335   20.279170
  H     13.564701   14.478458   16.818147
  H     14.157364   14.910162   15.198964
  H     13.977260   16.166201   16.448179
  H     15.790794   15.098443   17.802791
  H     15.975928   13.810124   16.586313
  H     15.423470   18.212151   16.165766
  H     16.853184   18.225127   15.119467
  H     16.374644   19.695033   15.965637
  H     16.975563   20.075162   18.068549
  H     19.692061   17.982685   20.175759
  H     19.771103   16.352602   18.299031
  H     19.576278   14.144109   19.063434
  H     18.512685   12.433238   20.515820
  H     16.459357   13.011859   21.813982
  H     15.037697   14.597927   22.333879
  H     16.555006   17.003425   20.223079

 Total Charge           Charge          ....    0
 Multiplicity           Mult            ....    1
 Number of Electrons    NEL             ....  154
 Basis Dimension        Dim             ....  828

ORBITAL ENERGIES
----------------

  NO   OCC          E(Eh)            E(eV)
   0   2.0000     -91.889856     -2500.4501
   1   2.0000     -20.597163      -560.4773
   2   2.0000     -20.581498      -560.0510
   3   2.0000     -20.557145      -559.3883
   4   2.0000     -15.629451      -425.2990
   5   2.0000     -15.609282      -424.7502
   6   2.0000     -11.393510      -310.0332
   7   2.0000     -11.385368      -309.8116
   8   2.0000     -11.334053      -308.4153
   9   2.0000     -11.313521      -307.8565
  10   2.0000     -11.309790      -307.7550
  11   2.0000     -11.297824      -307.4294
  12   2.0000     -11.261560      -306.4426
  13   2.0000     -11.260297      -306.4083
  14   2.0000     -11.258973      -306.3722
  15   2.0000     -11.253509      -306.2236
  16   2.0000     -11.243161      -305.9420
  17   2.0000     -11.238963      -305.8277
  18   2.0000     -11.235984      -305.7467
  19   2.0000     -11.233111      -305.6685
  20   2.0000      -8.894923      -242.0432
  21   2.0000      -6.576499      -178.9556
  22   2.0000      -6.574491      -178.9010
  23   2.0000      -6.573905      -178.8850
  24   2.0000      -1.453349       -39.5476
  25   2.0000      -1.416993       -38.5583
  26   2.0000      -1.356765       -36.9195
  27   2.0000      -1.340580       -36.4790
  28   2.0000      -1.238799       -33.7094
  29   2.0000      -1.157521       -31.4977
  30   2.0000      -1.122263       -30.5383
  31   2.0000      -1.045733       -28.4558
  32   2.0000      -1.035432       -28.1755
  33   2.0000      -1.015115       -27.6227
  34   2.0000      -1.000512       -27.2253
  35   2.0000      -0.986379       -26.8407
  36   2.0000      -0.924445       -25.1554
  37   2.0000      -0.880467       -23.9587
  38   2.0000      -0.849446       -23.1146
  39   2.0000      -0.840213       -22.8634
  40   2.0000      -0.833539       -22.6817
  41   2.0000      -0.828989       -22.5580
  42   2.0000      -0.757195       -20.6043
  43   2.0000      -0.735886       -20.0245
  44   2.0000      -0.729359       -19.8469
  45   2.0000      -0.695236       -18.9183
  46   2.0000      -0.686666       -18.6851
  47   2.0000      -0.681867       -18.5545
  48   2.0000      -0.675639       -18.3851
  49   2.0000      -0.656401       -17.8616
  50   2.0000      -0.652130       -17.7454
  51   2.0000      -0.642733       -17.4896
  52   2.0000      -0.633315       -17.2334
  53   2.0000      -0.619421       -16.8553
  54   2.0000      -0.605782       -16.4842
  55   2.0000      -0.604093       -16.4382
  56   2.0000      -0.600784       -16.3482
  57   2.0000      -0.579063       -15.7571
  58   2.0000      -0.575883       -15.6706
  59   2.0000      -0.565486       -15.3877
  60   2.0000      -0.558278       -15.1915
  61   2.0000      -0.548282       -14.9195
  62   2.0000      -0.543080       -14.7780
  63   2.0000      -0.522978       -14.2309
  64   2.0000      -0.519246       -14.1294
  65   2.0000      -0.513296       -13.9675
  66   2.0000      -0.503873       -13.7111
  67   2.0000      -0.498636       -13.5686
  68   2.0000      -0.481828       -13.1112
  69   2.0000      -0.466108       -12.6834
  70   2.0000      -0.457009       -12.4359
  71   2.0000      -0.453185       -12.3318
  72   2.0000      -0.355807        -9.6820
  73   2.0000      -0.348983        -9.4963
  74   2.0000      -0.329134        -8.9562
  75   2.0000      -0.320757        -8.7283
  76   2.0000      -0.316954        -8.6248
  77   0.0000       0.069332         1.8866
  78   0.0000       0.103142         2.8066
  79   0.0000       0.118684         3.2295
  80   0.0000       0.131212         3.5705
  81   0.0000       0.134319         3.6550

MULLIKEN ATOMIC CHARGES
-----------------------
   0 C :   -0.274425
   1 C :    0.040924
   2 O :   -0.371813
   3 C :    0.465668
   4 O :   -0.391417
   5 C :   -0.212737
   6 C :    0.133995
   7 C :   -0.283094
   8 N :   -0.123929
   9 C :    0.198485
  10 S :   -0.437917
  11 N :   -0.201630
  12 C :    0.058086
  13 C :    0.038032
  14 C :   -0.162309
  15 C :   -0.134944
  16 C :   -0.277571
  17 C :    0.320060
  18 O :   -0.360058
  19 C :   -0.291468
  20 H :    0.099929
  21 H :    0.103603
  22 H :    0.088201
  23 H :    0.093830
  24 H :    0.111272
  25 H :    0.122423
  26 H :    0.125331
  27 H :    0.108557
  28 H :    0.197551
  29 H :    0.194304
  30 H :    0.157210
  31 H :    0.160121
  32 H :    0.161814
  33 H :    0.131569
  34 H :    0.241030
  35 H :    0.171316
Sum of atomic charges:   -0.0000000

LOEWDIN ATOMIC CHARGES
----------------------
   0 C :    0.109766
   1 C :   -0.017256
   2 O :    0.286684
   3 C :   -0.419276
   4 O :    0.134608
   5 C :   -0.094999
   6 C :   -0.075809
   7 C :    0.127027
   8 N :    0.404231
   9 C :   -0.457909
  10 S :   -0.035206
  11 N :    0.396981
  12 C :   -0.045169
  13 C :   -0.041923
  14 C :    0.021937
  15 C :    0.042908
  16 C :   -0.001804
  17 C :   -0.195259
  18 O :    0.393880
  19 C :    0.026790
  20 H :   -0.022956
  21 H :   -0.024923
  22 H :   -0.031742
  23 H :   -0.031611
  24 H :   -0.027067
  25 H :   -0.012098
  26 H :   -0.007156
  27 H :   -0.018685
  28 H :   -0.058476
  29 H :   -0.064048
  30 H :   -0.004005
  31 H :   -0.023826
  32 H :   -0.019801
  33 H :   -0.035326
  34 H :   -0.153687
  35 H :   -0.024794

  Mayer bond orders larger than 0.100000
B(  0-C ,  1-C ) :   0.9770 B(  0-C , 20-H ) :   0.9768 B(  0-C , 21-H ) :   0.9778
B(  0-C , 22-H ) :   0.9785 B(  1-C ,  2-O ) :   0.8937 B(  1-C , 23-H ) :   0.9621
B(  1-C , 24-H ) :   0.9822 B(  2-O ,  3-C ) :   1.0922 B(  3-C ,  4-O ) :   2.0398
B(  3-C ,  5-C ) :   1.0139 B(  5-C ,  6-C ) :   1.6684 B(  5-C , 12-C ) :   0.9590
B(  6-C ,  7-C ) :   0.9531 B(  6-C ,  8-N ) :   1.1359 B(  7-C , 25-H ) :   0.9635
B(  7-C , 26-H ) :   0.9705 B(  7-C , 27-H ) :   0.9873 B(  8-N ,  9-C ) :   1.1839
B(  8-N , 28-H ) :   0.9500 B(  9-C , 10-S ) :   1.6136 B(  9-C , 11-N ) :   1.2981
B( 11-N , 12-C ) :   0.9931 B( 11-N , 29-H ) :   0.9518 B( 12-C , 13-C ) :   0.9457
B( 12-C , 30-H ) :   0.9984 B( 13-C , 14-C ) :   1.3819 B( 13-C , 19-C ) :   1.3556
B( 14-C , 15-C ) :   1.3951 B( 14-C , 31-H ) :   0.9618 B( 15-C , 16-C ) :   1.3643
B( 15-C , 32-H ) :   0.9706 B( 16-C , 17-C ) :   1.3304 B( 16-C , 33-H ) :   0.9845
B( 17-C , 18-O ) :   1.1101 B( 17-C , 19-C ) :   1.3689 B( 18-O , 34-H ) :   0.9797
B( 19-C , 35-H ) :   0.9598

MP2 TOTAL ENERGY:    -1274.322582641 Eh
FINAL SINGLE POINT ENERGY     -1274.322582640963

DIPOLE MOMENT
-------------
                                X             Y             Z
Electronic contribution:     11.63237       8.10366       7.30869
Nuclear contribution   :    -12.90504      -9.34617      -7.80352
                        -----------------------------------------
Total Dipole Moment    :     -1.27267      -1.24251      -0.49483
                        -----------------------------------------
Magnitude (a.u.)       :      1.84618
Magnitude (Debye)      :      4.69261

Rotational constants in cm-1:     0.011361     0.009322     0.006758
Rotational constants in MHz :   340.584609   279.468719   202.586845

                             ****ORCA TERMINATED NORMALLY****
TOTAL RUN TIME: 0 days 1 hours 49 minutes 56 seconds 470 msec
