                         Program Version 4.2.0 -  RELEASE  -
|  1> ! ri-mp2 cc-pvtz cc-pvtz/c TightSCF  NoKeepInts
|  2>
|  3> %scf
|  4>   MaxCore 4096
|  5> end
|  6> *xyz  0  1
|  7>     C       15.3403710   14.3248698   17.0823549
|  8>     C       15.5195814   15.0057607   15.7045358
|  9>     O       16.5693349   16.0011908   15.6977663
| 10>     C       17.6820536   15.8904399   16.4807323
| 11>     O       18.2947680   14.8407425   16.5834087
| 12>     C       17.8813605   17.0353275   17.4300550
| 13>     C       17.3952628   18.2897399   17.2443628
| 14>     C       16.6014907   18.8138820   16.0655282
| 15>     N       17.6796774   19.2896844   18.1800541
| 16>     C       18.5419969   19.1530492   19.2358990
| 17>     S       18.9111651   20.4228880   20.2292029
| 18>     N       19.0822789   17.9065928   19.4274163
| 19>     C       18.6911450   16.6935953   18.6848418
| 20>     C       17.9104211   15.7400188   19.5857807
| 21>     C       18.3147792   14.3995357   19.7252195
| 22>     C       17.5879527   13.5123086   20.5365048
| 23>     C       16.4452733   13.9681944   21.2153737
| 24>     C       16.0373180   15.3017101   21.0772490
| 25>     O       14.9286254   15.7426135   21.7232832
| 26>     C       16.7626091   16.1824000   20.2687798
| 27>     H       16.1825816   13.6651820   17.3249176
| 28>     H       14.4337240   13.7081939   17.0829025
| 29>     H       15.2394803   15.0715120   17.8798063
| 30>     H       15.7580237   14.2292757   14.9657074
| 31>     H       14.5761154   15.4759152   15.3991543
| 32>     H       15.5738744   18.4307211   16.0896908
| 33>     H       17.0567111   18.5001346   15.1177196
| 34>     H       16.5474580   19.9091675   16.0466839
| 35>     H       17.2937056   20.2121108   18.0567159
| 36>     H       19.6915017   17.8249674   20.2312643
| 37>     H       19.6129886   16.1880196   18.3624096
| 38>     H       19.1863070   14.0391180   19.1838947
| 39>     H       17.9080267   12.4760888   20.6299181
| 40>     H       15.8794449   13.2855133   21.8404901
| 41>     H       14.6003921   15.0112341   22.2676518
| 42>     H       16.4291999   17.2103022   20.1767244
| 43> *
| 44>
| 45>                          ****END OF INPUT****

CARTESIAN COORDINATES (ANGSTROEM)
---------------------------------
  C     15.340371   14.324870   17.082355
  C     15.519581   15.005761   15.704536
  O     16.569335   16.001191   15.697766
  C     17.682054   15.890440   16.480732
  O     18.294768   14.840742   16.583409
  C     17.881360   17.035327   17.430055
  C     17.395263   18.289740   17.244363
  C     16.601491   18.813882   16.065528
  N     17.679677   19.289684   18.180054
  C     18.541997   19.153049   19.235899
  S     18.911165   20.422888   20.229203
  N     19.082279   17.906593   19.427416
  C     18.691145   16.693595   18.684842
  C     17.910421   15.740019   19.585781
  C     18.314779   14.399536   19.725220
  C     17.587953   13.512309   20.536505
  C     16.445273   13.968194   21.215374
  C     16.037318   15.301710   21.077249
  O     14.928625   15.742613   21.723283
  C     16.762609   16.182400   20.268780
  H     16.182582   13.665182   17.324918
  H     14.433724   13.708194   17.082902
  H     15.239480   15.071512   17.879806
  H     15.758024   14.229276   14.965707
  H     14.576115   15.475915   15.399154
  H     15.573874   18.430721   16.089691
  H     17.056711   18.500135   15.117720
  H     16.547458   19.909167   16.046684
  H     17.293706   20.212111   18.056716
  H     19.691502   17.824967   20.231264
  H     19.612989   16.188020   18.362410
  H     19.186307   14.039118   19.183895
  H     17.908027   12.476089   20.629918
  H     15.879445   13.285513   21.840490
  H     14.600392   15.011234   22.267652
  H     16.429200   17.210302   20.176724

 Total Charge           Charge          ....    0
 Multiplicity           Mult            ....    1
 Number of Electrons    NEL             ....  154
 Basis Dimension        Dim             ....  828

ORBITAL ENERGIES
----------------

  NO   OCC          E(Eh)            E(eV)
   0   2.0000     -91.888891     -2500.4238
   1   2.0000     -20.594862      -560.4147
   2   2.0000     -20.589252      -560.2620
   3   2.0000     -20.549278      -559.1743
   4   2.0000     -15.628961      -425.2857
   5   2.0000     -15.607890      -424.7123
   6   2.0000     -11.395588      -310.0897
   7   2.0000     -11.384029      -309.7752
   8   2.0000     -11.335803      -308.4629
   9   2.0000     -11.310842      -307.7837
  10   2.0000     -11.307196      -307.6844
  11   2.0000     -11.303631      -307.5874
  12   2.0000     -11.260108      -306.4031
  13   2.0000     -11.259333      -306.3820
  14   2.0000     -11.256293      -306.2993
  15   2.0000     -11.251002      -306.1553
  16   2.0000     -11.240674      -305.8743
  17   2.0000     -11.236395      -305.7579
  18   2.0000     -11.233377      -305.6757
  19   2.0000     -11.224258      -305.4276
  20   2.0000      -8.893957      -242.0169
  21   2.0000      -6.575533      -178.9294
  22   2.0000      -6.573526      -178.8747
  23   2.0000      -6.572940      -178.8588
  24   2.0000      -1.447953       -39.4008
  25   2.0000      -1.414660       -38.4949
  26   2.0000      -1.354761       -36.8649
  27   2.0000      -1.339942       -36.4617
  28   2.0000      -1.237850       -33.6836
  29   2.0000      -1.155128       -31.4326
  30   2.0000      -1.120590       -30.4928
  31   2.0000      -1.043182       -28.3864
  32   2.0000      -1.031255       -28.0619
  33   2.0000      -1.012626       -27.5549
  34   2.0000      -0.999059       -27.1858
  35   2.0000      -0.984705       -26.7952
  36   2.0000      -0.923247       -25.1228
  37   2.0000      -0.895925       -24.3794
  38   2.0000      -0.848615       -23.0920
  39   2.0000      -0.837649       -22.7936
  40   2.0000      -0.831088       -22.6150
  41   2.0000      -0.817117       -22.2349
  42   2.0000      -0.744895       -20.2696
  43   2.0000      -0.731763       -19.9123
  44   2.0000      -0.726995       -19.7825
  45   2.0000      -0.692793       -18.8519
  46   2.0000      -0.685983       -18.6665
  47   2.0000      -0.676527       -18.4092
  48   2.0000      -0.672173       -18.2908
  49   2.0000      -0.659506       -17.9461
  50   2.0000      -0.653157       -17.7733
  51   2.0000      -0.645502       -17.5650
  52   2.0000      -0.633918       -17.2498
  53   2.0000      -0.621259       -16.9053
  54   2.0000      -0.603128       -16.4119
  55   2.0000      -0.601719       -16.3736
  56   2.0000      -0.598640       -16.2898
  57   2.0000      -0.578139       -15.7320
  58   2.0000      -0.575301       -15.6547
  59   2.0000      -0.563837       -15.3428
  60   2.0000      -0.552070       -15.0226
  61   2.0000      -0.546021       -14.8580
  62   2.0000      -0.535759       -14.5787
  63   2.0000      -0.527507       -14.3542
  64   2.0000      -0.519202       -14.1282
  65   2.0000      -0.510350       -13.8873
  66   2.0000      -0.499991       -13.6054
  67   2.0000      -0.495693       -13.4885
  68   2.0000      -0.479855       -13.0575
  69   2.0000      -0.464486       -12.6393
  70   2.0000      -0.456438       -12.4203
  71   2.0000      -0.449387       -12.2284
  72   2.0000      -0.354383        -9.6433
  73   2.0000      -0.346791        -9.4367
  74   2.0000      -0.328100        -8.9280
  75   2.0000      -0.318188        -8.6583
  76   2.0000      -0.315715        -8.5910
  77   0.0000       0.072851         1.9824
  78   0.0000       0.107839         2.9345
  79   0.0000       0.120164         3.2698
  80   0.0000       0.132847         3.6150
  81   0.0000       0.140473         3.8225

MULLIKEN ATOMIC CHARGES
-----------------------
   0 C :   -0.333023
   1 C :    0.057878
   2 O :   -0.379213
   3 C :    0.469092
   4 O :   -0.417020
   5 C :   -0.192556
   6 C :    0.142539
   7 C :   -0.282184
   8 N :   -0.122849
   9 C :    0.201032
  10 S :   -0.438660
  11 N :   -0.201038
  12 C :    0.048830
  13 C :    0.056870
  14 C :   -0.171111
  15 C :   -0.134589
  16 C :   -0.276632
  17 C :    0.319514
  18 O :   -0.360863
  19 C :   -0.291536
  20 H :    0.129779
  21 H :    0.107845
  22 H :    0.102541
  23 H :    0.102738
  24 H :    0.100923
  25 H :    0.122732
  26 H :    0.128960
  27 H :    0.103494
  28 H :    0.197116
  29 H :    0.194207
  30 H :    0.154590
  31 H :    0.158714
  32 H :    0.161799
  33 H :    0.130364
  34 H :    0.240523
  35 H :    0.169195
Sum of atomic charges:    0.0000000

LOEWDIN ATOMIC CHARGES
----------------------
   0 C :    0.105822
   1 C :   -0.011885
   2 O :    0.288835
   3 C :   -0.417123
   4 O :    0.116451
   5 C :   -0.093636
   6 C :   -0.068517
   7 C :    0.125737
   8 N :    0.404733
   9 C :   -0.458401
  10 S :   -0.035623
  11 N :    0.397643
  12 C :   -0.045840
  13 C :   -0.040074
  14 C :    0.022630
  15 C :    0.041481
  16 C :   -0.002132
  17 C :   -0.193699
  18 O :    0.393752
  19 C :    0.028444
  20 H :   -0.023873
  21 H :   -0.025496
  22 H :   -0.028480
  23 H :   -0.028312
  24 H :   -0.026632
  25 H :   -0.010320
  26 H :   -0.007009
  27 H :   -0.020553
  28 H :   -0.058869
  29 H :   -0.063847
  30 H :   -0.004664
  31 H :   -0.024746
  32 H :   -0.020669
  33 H :   -0.035854
  34 H :   -0.154271
  35 H :   -0.024999

  Mayer bond orders larger than 0.100000
B(  0-C ,  1-C ) :   0.9599 B(  0-C , 20-H ) :   0.9688 B(  0-C , 21-H ) :   0.9760
B(  0-C , 22-H ) :   0.9697 B(  1-C ,  2-O ) :   0.8975 B(  1-C , 23-H ) :   0.9851
B(  1-C , 24-H ) :   0.9818 B(  2-O ,  3-C ) :   1.0998 B(  3-C ,  4-O ) :   2.0090
B(  3-C ,  5-C ) :   1.0404 B(  5-C ,  6-C ) :   1.6572 B(  5-C , 12-C ) :   0.9625
B(  6-C ,  7-C ) :   0.9535 B(  6-C ,  8-N ) :   1.1456 B(  7-C , 25-H ) :   0.9646
B(  7-C , 26-H ) :   0.9666 B(  7-C , 27-H ) :   0.9901 B(  8-N ,  9-C ) :   1.1810
B(  8-N , 28-H ) :   0.9490 B(  9-C , 10-S ) :   1.6117 B(  9-C , 11-N ) :   1.3023
B( 11-N , 12-C ) :   0.9911 B( 11-N , 29-H ) :   0.9517 B( 12-C , 13-C ) :   0.9448
B( 12-C , 30-H ) :   0.9994 B( 13-C , 14-C ) :   1.3767 B( 13-C , 19-C ) :   1.3592
B( 14-C , 15-C ) :   1.3925 B( 14-C , 31-H ) :   0.9630 B( 15-C , 16-C ) :   1.3624
B( 15-C , 32-H ) :   0.9706 B( 16-C , 17-C ) :   1.3319 B( 16-C , 33-H ) :   0.9848
B( 17-C , 18-O ) :   1.1081 B( 17-C , 19-C ) :   1.3693 B( 18-O , 34-H ) :   0.9802
B( 19-C , 35-H ) :   0.9592

MP2 TOTAL ENERGY:    -1274.335686349 Eh
FINAL SINGLE POINT ENERGY     -1274.335686348973

DIPOLE MOMENT
-------------
                                X             Y             Z
Electronic contribution:      9.74639       9.61174       6.89664
Nuclear contribution   :    -11.22608     -10.86054      -7.69024
                        -----------------------------------------
Total Dipole Moment    :     -1.47969      -1.24881      -0.79360
                        -----------------------------------------
Magnitude (a.u.)       :      2.09256
Magnitude (Debye)      :      5.31886

Rotational constants in cm-1:     0.011794     0.009382     0.006541
Rotational constants in MHz :   353.579366   281.259288   196.102082

                             ****ORCA TERMINATED NORMALLY****
TOTAL RUN TIME: 0 days 1 hours 45 minutes 30 seconds 300 msec
