                         Program Version 5.0.0 -  RELEASE  -
|  1> ! ri-mp2 cc-pvtz cc-pvtz/c TightSCF NoKeepInts
|  2>
|  3> %scf
|  4>   MaxCore 4096
|  5> end
|  6> *xyz  0  1
|  7>     C       15.1603101   13.8111293   15.9631587
|  8>     C       16.0279558   14.5937769   16.9624595
|  9>     O       17.0570791   15.2570042   16.2072597
| 10>     C       17.0355156   16.6195560   16.1488828
| 11>     O       16.3714959   17.1657570   15.2875987
| 12>     C       17.5685118   17.3207055   17.3723960
| 13>     C       17.3425999   18.6405310   17.6050516
| 14>     C       16.4675609   19.5824823   16.8058259
| 15>     N       18.0015723   19.2871113   18.6558986
| 16>     C       19.0641367   18.7608660   19.3420345
| 17>     S       19.9411754   19.6535103   20.4234164
| 18>     N       19.3767935   17.4540315   19.0656045
| 19>     C       18.5088109   16.5364690   18.3063700
| 20>     C       17.7845982   15.6329727   19.2988439
| 21>     C       18.2782361   14.3406824   19.5605740
| 22>     C       17.6258382   13.4972512   20.4754133
| 23>     C       16.4758141   13.9522698   21.1423473
| 24>     C       15.9915923   15.2443896   20.8983578
| 25>     O       14.8840964   15.6891425   21.5430056
| 26>     C       16.6410877   16.0810061   19.9855307
| 27>     H       14.6950527   14.4942553   15.2408804
| 28>     H       14.3636164   13.2681994   16.4857542
| 29>     H       15.7674754   13.0846112   15.4089774
| 30>     H       15.4090931   15.3091466   17.5214228
| 31>     H       16.4731022   13.8833004   17.6686642
| 32>     H       15.4550640   19.1732435   16.6974058
| 33>     H       16.8735672   19.7206440   15.7953801
| 34>     H       16.3731351   20.5736235   17.2646973
| 35>     H       17.7954539   20.2535730   18.8529531
| 36>     H       20.1536651   17.0860430   19.5993619
| 37>     H       19.1541478   15.9078859   17.6760752
| 38>     H       19.1691046   13.9860246   19.0484505
| 39>     H       18.0136515   12.4981092   20.6682602
| 40>     H       15.9696722   13.3049112   21.8513135
| 41>     H       14.6214710   15.0063822   22.1791122
| 42>     H       16.2549471   17.0814024   19.8252616
| 43> *
| 44>
| 45>                          ****END OF INPUT****

CARTESIAN COORDINATES (ANGSTROEM)
---------------------------------
  C     15.160310   13.811129   15.963159
  C     16.027956   14.593777   16.962460
  O     17.057079   15.257004   16.207260
  C     17.035516   16.619556   16.148883
  O     16.371496   17.165757   15.287599
  C     17.568512   17.320705   17.372396
  C     17.342600   18.640531   17.605052
  C     16.467561   19.582482   16.805826
  N     18.001572   19.287111   18.655899
  C     19.064137   18.760866   19.342034
  S     19.941175   19.653510   20.423416
  N     19.376793   17.454031   19.065604
  C     18.508811   16.536469   18.306370
  C     17.784598   15.632973   19.298844
  C     18.278236   14.340682   19.560574
  C     17.625838   13.497251   20.475413
  C     16.475814   13.952270   21.142347
  C     15.991592   15.244390   20.898358
  O     14.884096   15.689142   21.543006
  C     16.641088   16.081006   19.985531
  H     14.695053   14.494255   15.240880
  H     14.363616   13.268199   16.485754
  H     15.767475   13.084611   15.408977
  H     15.409093   15.309147   17.521423
  H     16.473102   13.883300   17.668664
  H     15.455064   19.173243   16.697406
  H     16.873567   19.720644   15.795380
  H     16.373135   20.573623   17.264697
  H     17.795454   20.253573   18.852953
  H     20.153665   17.086043   19.599362
  H     19.154148   15.907886   17.676075
  H     19.169105   13.986025   19.048451
  H     18.013651   12.498109   20.668260
  H     15.969672   13.304911   21.851313
  H     14.621471   15.006382   22.179112
  H     16.254947   17.081402   19.825262

 Total Charge           Charge          ....    0
 Multiplicity           Mult            ....    1
 Number of Electrons    NEL             ....  154
 Basis Dimension        Dim             ....  828

ORBITAL ENERGIES
----------------

  NO   OCC          E(Eh)            E(eV)
   0   2.0000     -91.891831     -2500.5038
   1   2.0000     -20.603703      -560.6553
   2   2.0000     -20.580229      -560.0165
   3   2.0000     -20.547798      -559.1340
   4   2.0000     -15.632621      -425.3852
   5   2.0000     -15.610731      -424.7896
   6   2.0000     -11.392730      -310.0119
   7   2.0000     -11.386293      -309.8368
   8   2.0000     -11.339224      -308.5560
   9   2.0000     -11.321417      -308.0714
  10   2.0000     -11.313887      -307.8665
  11   2.0000     -11.294377      -307.3356
  12   2.0000     -11.266136      -306.5671
  13   2.0000     -11.262881      -306.4786
  14   2.0000     -11.260535      -306.4147
  15   2.0000     -11.254451      -306.2492
  16   2.0000     -11.250292      -306.1360
  17   2.0000     -11.244988      -305.9917
  18   2.0000     -11.244526      -305.9791
  19   2.0000     -11.219342      -305.2938
  20   2.0000      -8.896840      -242.0953
  21   2.0000      -6.578402      -179.0074
  22   2.0000      -6.576412      -178.9533
  23   2.0000      -6.575813      -178.9370
  24   2.0000      -1.447068       -39.3767
  25   2.0000      -1.423344       -38.7312
  26   2.0000      -1.352767       -36.8107
  27   2.0000      -1.343799       -36.5666
  28   2.0000      -1.242141       -33.8004
  29   2.0000      -1.164048       -31.6754
  30   2.0000      -1.122380       -30.5415
  31   2.0000      -1.047787       -28.5117
  32   2.0000      -1.030782       -28.0490
  33   2.0000      -1.022622       -27.8270
  34   2.0000      -0.999462       -27.1967
  35   2.0000      -0.986870       -26.8541
  36   2.0000      -0.927048       -25.2263
  37   2.0000      -0.877720       -23.8840
  38   2.0000      -0.851411       -23.1681
  39   2.0000      -0.845668       -23.0118
  40   2.0000      -0.840322       -22.8663
  41   2.0000      -0.832024       -22.6405
  42   2.0000      -0.758823       -20.6486
  43   2.0000      -0.737208       -20.0605
  44   2.0000      -0.721500       -19.6330
  45   2.0000      -0.703113       -19.1327
  46   2.0000      -0.693660       -18.8755
  47   2.0000      -0.678175       -18.4541
  48   2.0000      -0.670186       -18.2367
  49   2.0000      -0.662659       -18.0319
  50   2.0000      -0.650876       -17.7112
  51   2.0000      -0.648312       -17.6415
  52   2.0000      -0.640249       -17.4221
  53   2.0000      -0.614886       -16.7319
  54   2.0000      -0.607354       -16.5269
  55   2.0000      -0.602969       -16.4076
  56   2.0000      -0.589690       -16.0463
  57   2.0000      -0.583864       -15.8878
  58   2.0000      -0.575340       -15.6558
  59   2.0000      -0.572299       -15.5731
  60   2.0000      -0.565953       -15.4004
  61   2.0000      -0.540560       -14.7094
  62   2.0000      -0.538494       -14.6532
  63   2.0000      -0.531928       -14.4745
  64   2.0000      -0.518551       -14.1105
  65   2.0000      -0.510056       -13.8793
  66   2.0000      -0.506853       -13.7922
  67   2.0000      -0.498430       -13.5630
  68   2.0000      -0.487463       -13.2645
  69   2.0000      -0.465808       -12.6753
  70   2.0000      -0.451332       -12.2814
  71   2.0000      -0.443150       -12.0587
  72   2.0000      -0.359932        -9.7943
  73   2.0000      -0.356182        -9.6922
  74   2.0000      -0.332383        -9.0446
  75   2.0000      -0.327934        -8.9235
  76   2.0000      -0.318824        -8.6757
  77   0.0000       0.068685         1.8690
  78   0.0000       0.099464         2.7065
  79   0.0000       0.119958         3.2642
  80   0.0000       0.126022         3.4292
  81   0.0000       0.130001         3.5375

MULLIKEN ATOMIC CHARGES
-----------------------
   0 C :   -0.257219
   1 C :    0.020124
   2 O :   -0.379317
   3 C :    0.490257
   4 O :   -0.397982
   5 C :   -0.281636
   6 C :    0.153693
   7 C :   -0.269327
   8 N :   -0.123280
   9 C :    0.215416
  10 S :   -0.436072
  11 N :   -0.203582
  12 C :    0.048700
  13 C :    0.061117
  14 C :   -0.202752
  15 C :   -0.128642
  16 C :   -0.273876
  17 C :    0.313030
  18 O :   -0.356066
  19 C :   -0.256980
  20 H :    0.106737
  21 H :    0.084517
  22 H :    0.094425
  23 H :    0.094264
  24 H :    0.117943
  25 H :    0.127469
  26 H :    0.137277
  27 H :    0.094603
  28 H :    0.198856
  29 H :    0.192412
  30 H :    0.150881
  31 H :    0.151342
  32 H :    0.164689
  33 H :    0.133799
  34 H :    0.242707
  35 H :    0.172472
Sum of atomic charges:   -0.0000000

LOEWDIN ATOMIC CHARGES
----------------------
   0 C :    0.106807
   1 C :   -0.022178
   2 O :    0.287968
   3 C :   -0.425212
   4 O :    0.122074
   5 C :   -0.100368
   6 C :   -0.057591
   7 C :    0.130787
   8 N :    0.407870
   9 C :   -0.455292
  10 S :   -0.031442
  11 N :    0.395976
  12 C :   -0.052758
  13 C :   -0.036244
  14 C :    0.011079
  15 C :    0.042331
  16 C :   -0.000318
  17 C :   -0.189909
  18 O :    0.396466
  19 C :    0.032217
  20 H :   -0.023834
  21 H :   -0.029793
  22 H :   -0.026898
  23 H :   -0.031701
  24 H :   -0.028200
  25 H :   -0.005757
  26 H :   -0.002399
  27 H :   -0.023094
  28 H :   -0.057130
  29 H :   -0.066097
  30 H :   -0.005962
  31 H :   -0.029949
  32 H :   -0.019262
  33 H :   -0.033890
  34 H :   -0.151902
  35 H :   -0.026396

  Mayer bond orders larger than 0.100000
B(  0-C ,  1-C ) :   0.9838 B(  0-C , 20-H ) :   0.9772 B(  0-C , 21-H ) :   0.9777
B(  0-C , 22-H ) :   0.9803 B(  1-C ,  2-O ) :   0.8683 B(  1-C , 23-H ) :   0.9692
B(  1-C , 24-H ) :   0.9720 B(  2-O ,  3-C ) :   1.1071 B(  3-C ,  4-O ) :   2.0305
B(  3-C ,  5-C ) :   1.0541 B(  5-C ,  6-C ) :   1.6469 B(  5-C , 12-C ) :   0.9696
B(  6-C ,  7-C ) :   0.9728 B(  6-C ,  8-N ) :   1.1576 B(  7-C , 25-H ) :   0.9635
B(  7-C , 26-H ) :   0.9557 B(  7-C , 27-H ) :   0.9885 B(  8-N ,  9-C ) :   1.1792
B(  8-N , 28-H ) :   0.9480 B(  9-C , 10-S ) :   1.6116 B(  9-C , 11-N ) :   1.3035
B( 11-N , 12-C ) :   0.9578 B( 11-N , 29-H ) :   0.9536 B( 12-C , 13-C ) :   0.9578
B( 12-C , 30-H ) :   1.0000 B( 13-C , 14-C ) :   1.3474 B( 13-C , 19-C ) :   1.3587
B( 14-C , 15-C ) :   1.3909 B( 14-C , 31-H ) :   0.9754 B( 15-C , 16-C ) :   1.3657
B( 15-C , 32-H ) :   0.9690 B( 16-C , 17-C ) :   1.3296 B( 16-C , 33-H ) :   0.9835
B( 17-C , 18-O ) :   1.1157 B( 17-C , 19-C ) :   1.3706 B( 18-O , 34-H ) :   0.9785
B( 19-C , 35-H ) :   0.9564

MP2 TOTAL ENERGY:    -1274.328072371 Eh
FINAL SINGLE POINT ENERGY     -1274.328072371129

DIPOLE MOMENT
-------------
                                X             Y             Z
Electronic contribution:     10.22027       9.73306       6.48578
Nuclear contribution   :    -11.23487     -11.20300      -6.02612
                        -----------------------------------------
Total Dipole Moment    :     -1.01460      -1.46994       0.45966
                        -----------------------------------------
Magnitude (a.u.)       :      1.84429
Magnitude (Debye)      :      4.68782

Rotational constants in cm-1:     0.011793     0.009179     0.006399
Rotational constants in MHz :   353.534828   275.167021   191.835233

                             ****ORCA TERMINATED NORMALLY****
TOTAL RUN TIME: 0 days 2 hours 10 minutes 25 seconds 470 msec
