                         Program Version 5.0.0 -  RELEASE  -
|  1> ! ri-mp2 cc-pvtz cc-pvtz/c TightSCF NoKeepInts
|  2>
|  3> %scf
|  4>   MaxCore 4096
|  5> end
|  6> *xyz  0  1
|  7>     C       15.1663273   15.4225415   17.1276892
|  8>     C       16.1333042   14.3177229   16.6483911
|  9>     O       17.5207646   14.7160508   16.4957921
| 10>     C       17.9011249   15.9772433   16.1374225
| 11>     O       17.7584945   16.3131711   14.9759577
| 12>     C       17.8492431   16.9623658   17.2738989
| 13>     C       17.4282140   18.2437190   17.1190508
| 14>     C       16.7999649   18.8667845   15.8904048
| 15>     N       17.6221508   19.1692404   18.1486060
| 16>     C       18.4399245   18.9652665   19.2285172
| 17>     S       18.7779951   20.1682375   20.3115586
| 18>     N       18.9691395   17.7062004   19.3637242
| 19>     C       18.5437595   16.5290846   18.5814307
| 20>     C       17.7396875   15.5800977   19.4705909
| 21>     C       18.0327325   14.2027625   19.4809754
| 22>     C       17.3155762   13.3212096   20.3068244
| 23>     C       16.3020987   13.8203307   21.1417519
| 24>     C       16.0175744   15.1922213   21.1503350
| 25>     O       15.0401922   15.6779401   21.9559475
| 26>     C       16.7333658   16.0672964   20.3272824
| 27>     H       15.4462334   15.8303152   18.0991430
| 28>     H       14.1551523   15.0101456   17.2285088
| 29>     H       15.1122894   16.2401932   16.4004551
| 30>     H       16.0822055   13.4685077   17.3420042
| 31>     H       15.7726905   13.9599726   15.6749888
| 32>     H       17.5566385   19.0148862   15.1091660
| 33>     H       16.3342420   19.8375043   16.0967069
| 34>     H       16.0245418   18.2163533   15.4692377
| 35>     H       17.2582666   20.1038353   18.0518772
| 36>     H       19.5510299   17.5788536   20.1821027
| 37>     H       19.4599870   15.9961065   18.2904371
| 38>     H       18.8144467   13.8105995   18.8351829
| 39>     H       17.5478840   12.2575259   20.2993348
| 40>     H       15.7452724   13.1435173   21.7816002
| 41>     H       14.7000852   14.9388546   22.4823602
| 42>     H       16.4944008   17.1253427   20.3547431
| 43> *
| 44>
| 45>                          ****END OF INPUT****

CARTESIAN COORDINATES (ANGSTROEM)
---------------------------------
  C     15.166327   15.422541   17.127689
  C     16.133304   14.317723   16.648391
  O     17.520765   14.716051   16.495792
  C     17.901125   15.977243   16.137422
  O     17.758495   16.313171   14.975958
  C     17.849243   16.962366   17.273899
  C     17.428214   18.243719   17.119051
  C     16.799965   18.866785   15.890405
  N     17.622151   19.169240   18.148606
  C     18.439925   18.965266   19.228517
  S     18.777995   20.168238   20.311559
  N     18.969140   17.706200   19.363724
  C     18.543759   16.529085   18.581431
  C     17.739687   15.580098   19.470591
  C     18.032733   14.202762   19.480975
  C     17.315576   13.321210   20.306824
  C     16.302099   13.820331   21.141752
  C     16.017574   15.192221   21.150335
  O     15.040192   15.677940   21.955948
  C     16.733366   16.067296   20.327282
  H     15.446233   15.830315   18.099143
  H     14.155152   15.010146   17.228509
  H     15.112289   16.240193   16.400455
  H     16.082206   13.468508   17.342004
  H     15.772690   13.959973   15.674989
  H     17.556638   19.014886   15.109166
  H     16.334242   19.837504   16.096707
  H     16.024542   18.216353   15.469238
  H     17.258267   20.103835   18.051877
  H     19.551030   17.578854   20.182103
  H     19.459987   15.996106   18.290437
  H     18.814447   13.810599   18.835183
  H     17.547884   12.257526   20.299335
  H     15.745272   13.143517   21.781600
  H     14.700085   14.938855   22.482360
  H     16.494401   17.125343   20.354743

 Total Charge           Charge          ....    0
 Multiplicity           Mult            ....    1
 Number of Electrons    NEL             ....  154
 Basis Dimension        Dim             ....  828

ORBITAL ENERGIES
----------------

  NO   OCC          E(Eh)            E(eV)
   0   2.0000     -91.891362     -2500.4911
   1   2.0000     -20.599300      -560.5355
   2   2.0000     -20.575706      -559.8934
   3   2.0000     -20.555751      -559.3504
   4   2.0000     -15.630001      -425.3139
   5   2.0000     -15.610344      -424.7790
   6   2.0000     -11.394939      -310.0721
   7   2.0000     -11.385899      -309.8261
   8   2.0000     -11.335003      -308.4411
   9   2.0000     -11.316735      -307.9440
  10   2.0000     -11.314966      -307.8959
  11   2.0000     -11.302731      -307.5629
  12   2.0000     -11.263706      -306.5010
  13   2.0000     -11.261043      -306.4286
  14   2.0000     -11.257952      -306.3444
  15   2.0000     -11.255115      -306.2672
  16   2.0000     -11.246615      -306.0360
  17   2.0000     -11.241896      -305.9076
  18   2.0000     -11.240658      -305.8738
  19   2.0000     -11.227918      -305.5272
  20   2.0000      -8.896398      -242.0833
  21   2.0000      -6.577969      -178.9956
  22   2.0000      -6.575968      -178.9412
  23   2.0000      -6.575374      -178.9250
  24   2.0000      -1.446072       -39.3496
  25   2.0000      -1.419127       -38.6164
  26   2.0000      -1.350324       -36.7442
  27   2.0000      -1.341803       -36.5123
  28   2.0000      -1.240614       -33.7588
  29   2.0000      -1.159824       -31.5604
  30   2.0000      -1.120854       -30.5000
  31   2.0000      -1.045214       -28.4417
  32   2.0000      -1.033163       -28.1138
  33   2.0000      -1.018676       -27.7196
  34   2.0000      -1.001156       -27.2428
  35   2.0000      -0.987468       -26.8704
  36   2.0000      -0.925676       -25.1889
  37   2.0000      -0.897268       -24.4159
  38   2.0000      -0.849177       -23.1073
  39   2.0000      -0.842620       -22.9289
  40   2.0000      -0.837484       -22.7891
  41   2.0000      -0.819982       -22.3128
  42   2.0000      -0.747326       -20.3358
  43   2.0000      -0.734666       -19.9913
  44   2.0000      -0.723750       -19.6942
  45   2.0000      -0.698103       -18.9963
  46   2.0000      -0.690526       -18.7902
  47   2.0000      -0.674172       -18.3451
  48   2.0000      -0.670634       -18.2489
  49   2.0000      -0.663622       -18.0581
  50   2.0000      -0.652557       -17.7570
  51   2.0000      -0.646358       -17.5883
  52   2.0000      -0.638821       -17.3832
  53   2.0000      -0.622192       -16.9307
  54   2.0000      -0.609219       -16.5777
  55   2.0000      -0.602249       -16.3880
  56   2.0000      -0.601364       -16.3640
  57   2.0000      -0.579808       -15.7774
  58   2.0000      -0.574050       -15.6207
  59   2.0000      -0.565425       -15.3860
  60   2.0000      -0.552963       -15.0469
  61   2.0000      -0.552212       -15.0265
  62   2.0000      -0.541680       -14.7399
  63   2.0000      -0.527644       -14.3579
  64   2.0000      -0.525073       -14.2880
  65   2.0000      -0.515314       -14.0224
  66   2.0000      -0.503749       -13.7077
  67   2.0000      -0.496771       -13.5178
  68   2.0000      -0.478031       -13.0079
  69   2.0000      -0.467150       -12.7118
  70   2.0000      -0.452541       -12.3143
  71   2.0000      -0.445778       -12.1302
  72   2.0000      -0.358021        -9.7422
  73   2.0000      -0.349057        -9.4983
  74   2.0000      -0.330520        -8.9939
  75   2.0000      -0.324729        -8.8363
  76   2.0000      -0.318889        -8.6774
  77   0.0000       0.068160         1.8547
  78   0.0000       0.102019         2.7761
  79   0.0000       0.116966         3.1828
  80   0.0000       0.128265         3.4903
  81   0.0000       0.131855         3.5879

MULLIKEN ATOMIC CHARGES
-----------------------
   0 C :   -0.340099
   1 C :    0.041461
   2 O :   -0.388702
   3 C :    0.454488
   4 O :   -0.381530
   5 C :   -0.244692
   6 C :    0.171486
   7 C :   -0.279471
   8 N :   -0.124312
   9 C :    0.189072
  10 S :   -0.432268
  11 N :   -0.203240
  12 C :    0.055904
  13 C :    0.049734
  14 C :   -0.201739
  15 C :   -0.142011
  16 C :   -0.273980
  17 C :    0.311022
  18 O :   -0.355798
  19 C :   -0.257033
  20 H :    0.120588
  21 H :    0.121456
  22 H :    0.100555
  23 H :    0.114986
  24 H :    0.120592
  25 H :    0.140962
  26 H :    0.094540
  27 H :    0.125584
  28 H :    0.197893
  29 H :    0.194097
  30 H :    0.149591
  31 H :    0.154443
  32 H :    0.166275
  33 H :    0.133326
  34 H :    0.240620
  35 H :    0.176201
Sum of atomic charges:    0.0000000

LOEWDIN ATOMIC CHARGES
----------------------
   0 C :    0.107137
   1 C :   -0.009026
   2 O :    0.274030
   3 C :   -0.423303
   4 O :    0.135887
   5 C :   -0.093940
   6 C :   -0.064885
   7 C :    0.129503
   8 N :    0.406783
   9 C :   -0.459915
  10 S :   -0.032309
  11 N :    0.396177
  12 C :   -0.051366
  13 C :   -0.040391
  14 C :    0.019769
  15 C :    0.039213
  16 C :   -0.002272
  17 C :   -0.192638
  18 O :    0.396451
  19 C :    0.030564
  20 H :   -0.035091
  21 H :   -0.020954
  22 H :   -0.031359
  23 H :   -0.023850
  24 H :   -0.027139
  25 H :   -0.003120
  26 H :   -0.022346
  27 H :   -0.011904
  28 H :   -0.057943
  29 H :   -0.064682
  30 H :   -0.007224
  31 H :   -0.027820
  32 H :   -0.020267
  33 H :   -0.034809
  34 H :   -0.153402
  35 H :   -0.023561

  Mayer bond orders larger than 0.100000
B(  0-C ,  1-C ) :   0.9622 B(  0-C , 20-H ) :   0.9671 B(  0-C , 21-H ) :   0.9773
B(  0-C , 22-H ) :   0.9732 B(  1-C ,  2-O ) :   0.8782 B(  1-C , 23-H ) :   0.9762
B(  1-C , 24-H ) :   0.9851 B(  2-O ,  3-C ) :   1.1079 B(  3-C ,  4-O ) :   2.0523
B(  3-C ,  5-C ) :   1.0084 B(  5-C ,  6-C ) :   1.6695 B(  5-C , 12-C ) :   0.9609
B(  6-C ,  7-C ) :   0.9637 B(  6-C ,  8-N ) :   1.1367 B(  7-C , 25-H ) :   0.9567
B(  7-C , 26-H ) :   0.9864 B(  7-C , 27-H ) :   0.9685 B(  8-N ,  9-C ) :   1.1826
B(  8-N , 28-H ) :   0.9493 B(  9-C , 10-S ) :   1.6202 B(  9-C , 11-N ) :   1.2904
B( 11-N , 12-C ) :   0.9880 B( 11-N , 29-H ) :   0.9514 B( 12-C , 13-C ) :   0.9419
B( 12-C , 30-H ) :   1.0085 B( 13-C , 14-C ) :   1.3601 B( 13-C , 19-C ) :   1.3507
B( 14-C , 15-C ) :   1.3962 B( 14-C , 31-H ) :   0.9702 B( 15-C , 16-C ) :   1.3583
B( 15-C , 32-H ) :   0.9695 B( 16-C , 17-C ) :   1.3313 B( 16-C , 33-H ) :   0.9839
B( 17-C , 18-O ) :   1.1132 B( 17-C , 19-C ) :   1.3724 B( 18-O , 34-H ) :   0.9798
B( 19-C , 35-H ) :   0.9592

MP2 TOTAL ENERGY:    -1274.310931182 Eh
FINAL SINGLE POINT ENERGY     -1274.310931182345

DIPOLE MOMENT
-------------
                                X             Y             Z
Electronic contribution:      9.86090       7.05687       6.10014
Nuclear contribution   :    -11.03947      -8.63481      -6.09094
                        -----------------------------------------
Total Dipole Moment    :     -1.17857      -1.57794       0.00919
                        -----------------------------------------
Magnitude (a.u.)       :      1.96952
Magnitude (Debye)      :      5.00613

Rotational constants in cm-1:     0.011790     0.010020     0.006561
Rotational constants in MHz :   353.450470   300.393248   196.704427

                             ****ORCA TERMINATED NORMALLY****
TOTAL RUN TIME: 0 days 2 hours 23 minutes 7 seconds 826 msec
