                         Program Version 4.2.0 -  RELEASE  -
|  1> ! ri-mp2 cc-pvtz cc-pvtz/c TightSCF  NoKeepInts
|  2>
|  3> %scf
|  4>   MaxCore 4096
|  5> end
|  6> *xyz  0  1
|  7>     C       14.7299834   14.3919441   17.2605137
|  8>     C       15.6494984   15.3956199   16.5463957
|  9>     O       16.9975416   14.9446184   16.7434049
| 10>     C       18.0622114   15.7587951   16.4827183
| 11>     O       19.1281492   15.2332127   16.2235691
| 12>     C       18.0645485   16.9447836   17.3834996
| 13>     C       17.5815666   18.1391167   16.9781179
| 14>     C       16.9771333   18.4526764   15.6264169
| 15>     N       17.6522392   19.2431241   17.8302747
| 16>     C       18.2850574   19.2459193   19.0468609
| 17>     S       18.3798238   20.6140774   19.9708117
| 18>     N       18.8303814   18.0552170   19.4634936
| 19>     C       18.6983728   16.7620552   18.7615032
| 20>     C       17.9160268   15.7562738   19.5995788
| 21>     C       18.3827889   14.4360814   19.7353079
| 22>     C       17.6611495   13.4957305   20.4893326
| 23>     C       16.4605736   13.8772252   21.1120061
| 24>     C       15.9885661   15.1893198   20.9727452
| 25>     O       14.8211482   15.5562160   21.5586609
| 26>     C       16.7078338   16.1233557   20.2206294
| 27>     H       14.8468045   13.3889569   16.8313403
| 28>     H       13.6792005   14.6896482   17.1617589
| 29>     H       14.9735044   14.3380339   18.3287356
| 30>     H       15.4109140   15.4453152   15.4758945
| 31>     H       15.4915805   16.3837993   16.9952738
| 32>     H       17.2631965   17.7165919   14.8649247
| 33>     H       17.3184416   19.4291246   15.2591644
| 34>     H       15.8819972   18.4786990   15.6806166
| 35>     H       17.2678501   20.1285798   17.5401707
| 36>     H       19.2697560   18.0829465   20.3748659
| 37>     H       19.7109758   16.3616512   18.6057183
| 38>     H       19.3010932   14.1334074   19.2372124
| 39>     H       18.0299897   12.4756490   20.5810805
| 40>     H       15.8986480   13.1525226   21.6917091
| 41>     H       14.5063247   14.7992359   22.0755599
| 42>     H       16.3221296   17.1324764   20.1241336
| 43> *
| 44>
| 45>                          ****END OF INPUT****

CARTESIAN COORDINATES (ANGSTROEM)
---------------------------------
  C     14.729983   14.391944   17.260514
  C     15.649498   15.395620   16.546396
  O     16.997542   14.944618   16.743405
  C     18.062211   15.758795   16.482718
  O     19.128149   15.233213   16.223569
  C     18.064549   16.944784   17.383500
  C     17.581567   18.139117   16.978118
  C     16.977133   18.452676   15.626417
  N     17.652239   19.243124   17.830275
  C     18.285057   19.245919   19.046861
  S     18.379824   20.614077   19.970812
  N     18.830381   18.055217   19.463494
  C     18.698373   16.762055   18.761503
  C     17.916027   15.756274   19.599579
  C     18.382789   14.436081   19.735308
  C     17.661149   13.495731   20.489333
  C     16.460574   13.877225   21.112006
  C     15.988566   15.189320   20.972745
  O     14.821148   15.556216   21.558661
  C     16.707834   16.123356   20.220629
  H     14.846804   13.388957   16.831340
  H     13.679201   14.689648   17.161759
  H     14.973504   14.338034   18.328736
  H     15.410914   15.445315   15.475894
  H     15.491580   16.383799   16.995274
  H     17.263196   17.716592   14.864925
  H     17.318442   19.429125   15.259164
  H     15.881997   18.478699   15.680617
  H     17.267850   20.128580   17.540171
  H     19.269756   18.082946   20.374866
  H     19.710976   16.361651   18.605718
  H     19.301093   14.133407   19.237212
  H     18.029990   12.475649   20.581080
  H     15.898648   13.152523   21.691709
  H     14.506325   14.799236   22.075560
  H     16.322130   17.132476   20.124134

 Total Charge           Charge          ....    0
 Multiplicity           Mult            ....    1
 Number of Electrons    NEL             ....  154
 Basis Dimension        Dim             ....  828

ORBITAL ENERGIES
----------------

  NO   OCC          E(Eh)            E(eV)
   0   2.0000     -91.886798     -2500.3669
   1   2.0000     -20.600785      -560.5759
   2   2.0000     -20.598670      -560.5183
   3   2.0000     -20.560961      -559.4922
   4   2.0000     -15.621812      -425.0911
   5   2.0000     -15.609833      -424.7652
   6   2.0000     -11.394683      -310.0651
   7   2.0000     -11.383795      -309.7688
   8   2.0000     -11.320301      -308.0410
   9   2.0000     -11.315808      -307.9188
  10   2.0000     -11.314954      -307.8955
  11   2.0000     -11.304784      -307.6188
  12   2.0000     -11.268970      -306.6443
  13   2.0000     -11.263241      -306.4884
  14   2.0000     -11.261776      -306.4485
  15   2.0000     -11.255329      -306.2731
  16   2.0000     -11.244256      -305.9718
  17   2.0000     -11.240008      -305.8562
  18   2.0000     -11.237998      -305.8015
  19   2.0000     -11.230477      -305.5968
  20   2.0000      -8.891947      -241.9622
  21   2.0000      -6.573546      -178.8753
  22   2.0000      -6.571510      -178.8199
  23   2.0000      -6.570947      -178.8045
  24   2.0000      -1.458054       -39.6757
  25   2.0000      -1.418450       -38.5980
  26   2.0000      -1.364942       -37.1419
  27   2.0000      -1.336325       -36.3632
  28   2.0000      -1.237003       -33.6606
  29   2.0000      -1.159158       -31.5423
  30   2.0000      -1.123676       -30.5768
  31   2.0000      -1.047493       -28.5037
  32   2.0000      -1.040519       -28.3140
  33   2.0000      -1.016902       -27.6713
  34   2.0000      -1.003171       -27.2977
  35   2.0000      -0.986634       -26.8477
  36   2.0000      -0.926203       -25.2033
  37   2.0000      -0.881963       -23.9994
  38   2.0000      -0.852308       -23.1925
  39   2.0000      -0.839539       -22.8450
  40   2.0000      -0.835629       -22.7386
  41   2.0000      -0.834991       -22.7213
  42   2.0000      -0.759868       -20.6770
  43   2.0000      -0.736347       -20.0370
  44   2.0000      -0.730132       -19.8679
  45   2.0000      -0.697344       -18.9757
  46   2.0000      -0.691011       -18.8034
  47   2.0000      -0.683855       -18.6087
  48   2.0000      -0.676562       -18.4102
  49   2.0000      -0.661832       -18.0094
  50   2.0000      -0.654179       -17.8011
  51   2.0000      -0.645011       -17.5516
  52   2.0000      -0.637675       -17.3520
  53   2.0000      -0.615407       -16.7461
  54   2.0000      -0.610471       -16.6118
  55   2.0000      -0.605861       -16.4863
  56   2.0000      -0.601846       -16.3771
  57   2.0000      -0.586831       -15.9685
  58   2.0000      -0.576979       -15.7004
  59   2.0000      -0.565493       -15.3879
  60   2.0000      -0.560595       -15.2546
  61   2.0000      -0.551467       -15.0062
  62   2.0000      -0.540901       -14.7187
  63   2.0000      -0.530516       -14.4361
  64   2.0000      -0.521259       -14.1842
  65   2.0000      -0.512829       -13.9548
  66   2.0000      -0.501760       -13.6536
  67   2.0000      -0.500314       -13.6142
  68   2.0000      -0.490433       -13.3454
  69   2.0000      -0.466347       -12.6899
  70   2.0000      -0.459271       -12.4974
  71   2.0000      -0.453563       -12.3421
  72   2.0000      -0.354350        -9.6424
  73   2.0000      -0.349592        -9.5129
  74   2.0000      -0.326824        -8.8933
  75   2.0000      -0.322474        -8.7750
  76   2.0000      -0.314843        -8.5673
  77   0.0000       0.091810         2.4983
  78   0.0000       0.097935         2.6649
  79   0.0000       0.107821         2.9340
  80   0.0000       0.126090         3.4311
  81   0.0000       0.128302         3.4913

MULLIKEN ATOMIC CHARGES
-----------------------
   0 C :   -0.266259
   1 C :    0.006401
   2 O :   -0.303155
   3 C :    0.380699
   4 O :   -0.357218
   5 C :   -0.139064
   6 C :    0.112480
   7 C :   -0.319717
   8 N :   -0.133578
   9 C :    0.208135
  10 S :   -0.446416
  11 N :   -0.209886
  12 C :    0.036594
  13 C :    0.041432
  14 C :   -0.179628
  15 C :   -0.132650
  16 C :   -0.270226
  17 C :    0.290893
  18 O :   -0.363492
  19 C :   -0.254128
  20 H :    0.102677
  21 H :    0.087074
  22 H :    0.117276
  23 H :    0.109314
  24 H :    0.085376
  25 H :    0.119712
  26 H :    0.128029
  27 H :    0.122717
  28 H :    0.194293
  29 H :    0.197011
  30 H :    0.166161
  31 H :    0.158238
  32 H :    0.161836
  33 H :    0.132390
  34 H :    0.241389
  35 H :    0.175290
Sum of atomic charges:   -0.0000000

LOEWDIN ATOMIC CHARGES
----------------------
   0 C :    0.113330
   1 C :   -0.032966
   2 O :    0.328242
   3 C :   -0.425580
   4 O :    0.146190
   5 C :   -0.079191
   6 C :   -0.117090
   7 C :    0.122984
   8 N :    0.398833
   9 C :   -0.454971
  10 S :   -0.042293
  11 N :    0.397529
  12 C :   -0.041078
  13 C :   -0.039439
  14 C :    0.023792
  15 C :    0.045813
  16 C :   -0.001550
  17 C :   -0.194494
  18 O :    0.394732
  19 C :    0.027866
  20 H :   -0.025103
  21 H :   -0.026218
  22 H :   -0.022418
  23 H :   -0.034828
  24 H :   -0.038874
  25 H :   -0.010756
  26 H :   -0.011548
  27 H :   -0.017607
  28 H :   -0.060326
  29 H :   -0.063846
  30 H :   -0.002791
  31 H :   -0.024128
  32 H :   -0.019154
  33 H :   -0.035322
  34 H :   -0.153361
  35 H :   -0.024380

  Mayer bond orders larger than 0.100000
B(  0-C ,  1-C ) :   0.9821 B(  0-C , 20-H ) :   0.9812 B(  0-C , 21-H ) :   0.9762
B(  0-C , 22-H ) :   0.9718 B(  1-C ,  2-O ) :   0.9258 B(  1-C , 23-H ) :   0.9775
B(  1-C , 24-H ) :   0.9636 B(  2-O ,  3-C ) :   1.1043 B(  3-C ,  4-O ) :   2.1077
B(  3-C ,  5-C ) :   0.9286 B(  5-C ,  6-C ) :   1.7197 B(  5-C , 12-C ) :   0.9693
B(  6-C ,  7-C ) :   0.9392 B(  6-C ,  8-N ) :   1.1023 B(  7-C , 25-H ) :   0.9815
B(  7-C , 26-H ) :   0.9766 B(  7-C , 27-H ) :   0.9659 B(  8-N ,  9-C ) :   1.2021
B(  8-N , 28-H ) :   0.9539 B(  9-C , 10-S ) :   1.6052 B(  9-C , 11-N ) :   1.2848
B( 11-N , 12-C ) :   0.9978 B( 11-N , 29-H ) :   0.9487 B( 12-C , 13-C ) :   0.9474
B( 12-C , 30-H ) :   0.9987 B( 13-C , 14-C ) :   1.3808 B( 13-C , 19-C ) :   1.3537
B( 14-C , 15-C ) :   1.3963 B( 14-C , 31-H ) :   0.9658 B( 15-C , 16-C ) :   1.3622
B( 15-C , 32-H ) :   0.9708 B( 16-C , 17-C ) :   1.3316 B( 16-C , 33-H ) :   0.9849
B( 17-C , 18-O ) :   1.1025 B( 17-C , 19-C ) :   1.3707 B( 18-O , 34-H ) :   0.9795
B( 19-C , 35-H ) :   0.9564

MP2 TOTAL ENERGY:    -1274.316214862 Eh
FINAL SINGLE POINT ENERGY     -1274.316214862140

DIPOLE MOMENT
-------------
                                X             Y             Z
Electronic contribution:     10.44950       8.31796       6.49734
Nuclear contribution   :    -12.05427      -9.55880      -7.22555
                        -----------------------------------------
Total Dipole Moment    :     -1.60477      -1.24084      -0.72820
                        -----------------------------------------
Magnitude (a.u.)       :      2.15528
Magnitude (Debye)      :      5.47829

Rotational constants in cm-1:     0.012530     0.009038     0.006852
Rotational constants in MHz :   375.630823   270.952878   205.427965

                             ****ORCA TERMINATED NORMALLY****
TOTAL RUN TIME: 0 days 1 hours 46 minutes 59 seconds 874 msec
