                         Program Version 5.0.0 -  RELEASE  -
|  1> ! ri-mp2 cc-pvtz cc-pvtz/c TightSCF NoKeepInts
|  2>
|  3> %scf
|  4>   MaxCore 4096
|  5> end
|  6> *xyz  0  1
|  7>     C       14.1985709   15.5898606   16.1559198
|  8>     C       15.4147567   15.4021146   17.0796438
|  9>     O       16.5710836   15.1927233   16.2412939
| 10>     C       17.8286463   15.6581837   16.5353965
| 11>     O       18.7981166   14.9525488   16.3264307
| 12>     C       17.9233377   16.8489829   17.4344324
| 13>     C       17.3232131   18.0319130   17.1648134
| 14>     C       16.5096926   18.3856709   15.9397250
| 15>     N       17.4917970   19.1114896   18.0345983
| 16>     C       18.3162341   19.1095663   19.1297970
| 17>     S       18.5011563   20.4505937   20.0791491
| 18>     N       18.9760069   17.9363656   19.4034145
| 19>     C       18.7948447   16.6649481   18.6749584
| 20>     C       18.1965993   15.5894631   19.5759743
| 21>     C       18.7398344   14.2919473   19.5867390
| 22>     C       18.1746157   13.2858136   20.3877763
| 23>     C       17.0528505   13.5773046   21.1823333
| 24>     C       16.5036910   14.8663366   21.1681720
| 25>     O       15.4109202   15.1477712   21.9211528
| 26>     C       17.0681656   15.8661587   20.3698799
| 27>     H       13.2900272   15.7602270   16.7463665
| 28>     H       14.0432885   14.6929415   15.5430100
| 29>     H       14.3368906   16.4429852   15.4823600
| 30>     H       15.5038727   16.2839623   17.7229347
| 31>     H       15.2675506   14.5299310   17.7306151
| 32>     H       16.5858777   17.6223709   15.1556903
| 33>     H       16.8595944   19.3260550   15.4951228
| 34>     H       15.4497319   18.5069707   16.1929956
| 35>     H       17.0274111   19.9857432   17.8441026
| 36>     H       19.5598271   17.9579475   20.2301250
| 37>     H       19.7863057   16.3244655   18.3411079
| 38>     H       19.5943811   14.0577935   18.9552780
| 39>     H       18.6019815   12.2844071   20.3830794
| 40>     H       16.6113031   12.8013875   21.7990775
| 41>     H       15.2089732   14.3582937   22.4462593
| 42>     H       16.6258508   16.8567623   20.3742751
| 43> *
| 44>
| 45>                          ****END OF INPUT****

CARTESIAN COORDINATES (ANGSTROEM)
---------------------------------
  C     14.198571   15.589861   16.155920
  C     15.414757   15.402115   17.079644
  O     16.571084   15.192723   16.241294
  C     17.828646   15.658184   16.535397
  O     18.798117   14.952549   16.326431
  C     17.923338   16.848983   17.434432
  C     17.323213   18.031913   17.164813
  C     16.509693   18.385671   15.939725
  N     17.491797   19.111490   18.034598
  C     18.316234   19.109566   19.129797
  S     18.501156   20.450594   20.079149
  N     18.976007   17.936366   19.403415
  C     18.794845   16.664948   18.674958
  C     18.196599   15.589463   19.575974
  C     18.739834   14.291947   19.586739
  C     18.174616   13.285814   20.387776
  C     17.052850   13.577305   21.182333
  C     16.503691   14.866337   21.168172
  O     15.410920   15.147771   21.921153
  C     17.068166   15.866159   20.369880
  H     13.290027   15.760227   16.746367
  H     14.043288   14.692941   15.543010
  H     14.336891   16.442985   15.482360
  H     15.503873   16.283962   17.722935
  H     15.267551   14.529931   17.730615
  H     16.585878   17.622371   15.155690
  H     16.859594   19.326055   15.495123
  H     15.449732   18.506971   16.192996
  H     17.027411   19.985743   17.844103
  H     19.559827   17.957947   20.230125
  H     19.786306   16.324465   18.341108
  H     19.594381   14.057794   18.955278
  H     18.601982   12.284407   20.383079
  H     16.611303   12.801388   21.799077
  H     15.208973   14.358294   22.446259
  H     16.625851   16.856762   20.374275

 Total Charge           Charge          ....    0
 Multiplicity           Mult            ....    1
 Number of Electrons    NEL             ....  154
 Basis Dimension        Dim             ....  828

ORBITAL ENERGIES
----------------

  NO   OCC          E(Eh)            E(eV)
   0   2.0000     -91.890653     -2500.4718
   1   2.0000     -20.599868      -560.5509
   2   2.0000     -20.598409      -560.5112
   3   2.0000     -20.550374      -559.2041
   4   2.0000     -15.628569      -425.2750
   5   2.0000     -15.611668      -424.8151
   6   2.0000     -11.397425      -310.1397
   7   2.0000     -11.387284      -309.8638
   8   2.0000     -11.331754      -308.3527
   9   2.0000     -11.316428      -307.9357
  10   2.0000     -11.313590      -307.8584
  11   2.0000     -11.304108      -307.6004
  12   2.0000     -11.268325      -306.6267
  13   2.0000     -11.264626      -306.5261
  14   2.0000     -11.262709      -306.4739
  15   2.0000     -11.256283      -306.2990
  16   2.0000     -11.245896      -306.0164
  17   2.0000     -11.242175      -305.9151
  18   2.0000     -11.239030      -305.8296
  19   2.0000     -11.235952      -305.7458
  20   2.0000      -8.895757      -242.0659
  21   2.0000      -6.577341      -178.9786
  22   2.0000      -6.575320      -178.9235
  23   2.0000      -6.574741      -178.9078
  24   2.0000      -1.447168       -39.3795
  25   2.0000      -1.419661       -38.6309
  26   2.0000      -1.358908       -36.9778
  27   2.0000      -1.341369       -36.5005
  28   2.0000      -1.240574       -33.7577
  29   2.0000      -1.161251       -31.5992
  30   2.0000      -1.125868       -30.6364
  31   2.0000      -1.048882       -28.5415
  32   2.0000      -1.041538       -28.3417
  33   2.0000      -1.018491       -27.7145
  34   2.0000      -1.005281       -27.3551
  35   2.0000      -0.989866       -26.9356
  36   2.0000      -0.927814       -25.2471
  37   2.0000      -0.884781       -24.0761
  38   2.0000      -0.854606       -23.2550
  39   2.0000      -0.842746       -22.9323
  40   2.0000      -0.836907       -22.7734
  41   2.0000      -0.836142       -22.7526
  42   2.0000      -0.758002       -20.6263
  43   2.0000      -0.739796       -20.1309
  44   2.0000      -0.732046       -19.9200
  45   2.0000      -0.697618       -18.9831
  46   2.0000      -0.688137       -18.7252
  47   2.0000      -0.682093       -18.5607
  48   2.0000      -0.676822       -18.4173
  49   2.0000      -0.664327       -18.0773
  50   2.0000      -0.653040       -17.7701
  51   2.0000      -0.641566       -17.4579
  52   2.0000      -0.640955       -17.4413
  53   2.0000      -0.615973       -16.7615
  54   2.0000      -0.608304       -16.5528
  55   2.0000      -0.607168       -16.5219
  56   2.0000      -0.603392       -16.4191
  57   2.0000      -0.587167       -15.9776
  58   2.0000      -0.578411       -15.7394
  59   2.0000      -0.569336       -15.4924
  60   2.0000      -0.563630       -15.3371
  61   2.0000      -0.558467       -15.1967
  62   2.0000      -0.541023       -14.7220
  63   2.0000      -0.534229       -14.5371
  64   2.0000      -0.524201       -14.2642
  65   2.0000      -0.516470       -14.0539
  66   2.0000      -0.502584       -13.6760
  67   2.0000      -0.499410       -13.5896
  68   2.0000      -0.489390       -13.3170
  69   2.0000      -0.470257       -12.7963
  70   2.0000      -0.457779       -12.4568
  71   2.0000      -0.449034       -12.2188
  72   2.0000      -0.357352        -9.7241
  73   2.0000      -0.351922        -9.5763
  74   2.0000      -0.330220        -8.9857
  75   2.0000      -0.324141        -8.8203
  76   2.0000      -0.318926        -8.6784
  77   0.0000       0.080722         2.1966
  78   0.0000       0.104277         2.8375
  79   0.0000       0.115229         3.1355
  80   0.0000       0.128871         3.5068
  81   0.0000       0.132867         3.6155

MULLIKEN ATOMIC CHARGES
-----------------------
   0 C :   -0.269240
   1 C :    0.012882
   2 O :   -0.327172
   3 C :    0.413778
   4 O :   -0.381726
   5 C :   -0.204102
   6 C :    0.141759
   7 C :   -0.335991
   8 N :   -0.134766
   9 C :    0.202203
  10 S :   -0.439653
  11 N :   -0.208444
  12 C :    0.066006
  13 C :    0.035018
  14 C :   -0.188184
  15 C :   -0.129097
  16 C :   -0.278342
  17 C :    0.315442
  18 O :   -0.358190
  19 C :   -0.287802
  20 H :    0.094822
  21 H :    0.111104
  22 H :    0.090489
  23 H :    0.097266
  24 H :    0.128848
  25 H :    0.132948
  26 H :    0.142085
  27 H :    0.123120
  28 H :    0.197068
  29 H :    0.197171
  30 H :    0.162792
  31 H :    0.165758
  32 H :    0.163355
  33 H :    0.132294
  34 H :    0.241927
  35 H :    0.174575
Sum of atomic charges:   -0.0000000

LOEWDIN ATOMIC CHARGES
----------------------
   0 C :    0.106820
   1 C :   -0.016488
   2 O :    0.301763
   3 C :   -0.415610
   4 O :    0.125751
   5 C :   -0.086040
   6 C :   -0.097652
   7 C :    0.125978
   8 N :    0.402208
   9 C :   -0.456550
  10 S :   -0.036529
  11 N :    0.397231
  12 C :   -0.045300
  13 C :   -0.044062
  14 C :    0.022902
  15 C :    0.045300
  16 C :   -0.000286
  17 C :   -0.194356
  18 O :    0.393953
  19 C :    0.027853
  20 H :   -0.024319
  21 H :   -0.023381
  22 H :   -0.032412
  23 H :   -0.040436
  24 H :   -0.024460
  25 H :   -0.008231
  26 H :   -0.010320
  27 H :   -0.016479
  28 H :   -0.057329
  29 H :   -0.063482
  30 H :   -0.002812
  31 H :   -0.022042
  32 H :   -0.018638
  33 H :   -0.034639
  34 H :   -0.152898
  35 H :   -0.025011

  Mayer bond orders larger than 0.100000
B(  0-C ,  1-C ) :   0.9726 B(  0-C , 20-H ) :   0.9756 B(  0-C , 21-H ) :   0.9794
B(  0-C , 22-H ) :   0.9788 B(  1-C ,  2-O ) :   0.8998 B(  1-C , 23-H ) :   0.9627
B(  1-C , 24-H ) :   0.9784 B(  2-O ,  3-C ) :   1.1778 B(  3-C ,  4-O ) :   2.0968
B(  3-C ,  5-C ) :   0.9355 B(  5-C ,  6-C ) :   1.6792 B(  5-C , 12-C ) :   0.9591
B(  6-C ,  7-C ) :   0.9432 B(  6-C ,  8-N ) :   1.1210 B(  7-C , 25-H ) :   0.9780
B(  7-C , 26-H ) :   0.9738 B(  7-C , 27-H ) :   0.9644 B(  8-N ,  9-C ) :   1.1909
B(  8-N , 28-H ) :   0.9515 B(  9-C , 10-S ) :   1.6132 B(  9-C , 11-N ) :   1.2907
B( 11-N , 12-C ) :   1.0006 B( 11-N , 29-H ) :   0.9498 B( 12-C , 13-C ) :   0.9421
B( 12-C , 30-H ) :   0.9975 B( 13-C , 14-C ) :   1.3861 B( 13-C , 19-C ) :   1.3491
B( 14-C , 15-C ) :   1.3952 B( 14-C , 31-H ) :   0.9613 B( 15-C , 16-C ) :   1.3648
B( 15-C , 32-H ) :   0.9701 B( 16-C , 17-C ) :   1.3281 B( 16-C , 33-H ) :   0.9844
B( 17-C , 18-O ) :   1.1106 B( 17-C , 19-C ) :   1.3717 B( 18-O , 34-H ) :   0.9791
B( 19-C , 35-H ) :   0.9573

MP2 TOTAL ENERGY:    -1274.333785592 Eh
FINAL SINGLE POINT ENERGY     -1274.333785592264

DIPOLE MOMENT
-------------
                                X             Y             Z
Electronic contribution:     11.86612       5.79131       7.68916
Nuclear contribution   :    -13.38242      -6.78697      -7.92765
                        -----------------------------------------
Total Dipole Moment    :     -1.51629      -0.99567      -0.23849
                        -----------------------------------------
Magnitude (a.u.)       :      1.82958
Magnitude (Debye)      :      4.65043

Rotational constants in cm-1:     0.011208     0.009292     0.006832
Rotational constants in MHz :   336.019158   278.568241   204.803337

                             ****ORCA TERMINATED NORMALLY****
TOTAL RUN TIME: 0 days 1 hours 51 minutes 43 seconds 258 msec
