                         Program Version 5.0.0 -  RELEASE  -
|  1> ! ri-mp2 cc-pvtz cc-pvtz/c TightSCF NoKeepInts
|  2>
|  3> %scf
|  4>   MaxCore 4096
|  5> end
|  6> *xyz  0  1
|  7>     C       15.7044474   13.7936446   15.0020415
|  8>     C       15.0499350   15.0186349   15.6784685
|  9>     O       15.9956342   16.0117010   16.1467850
| 10>     C       17.1658370   15.7502398   16.8106178
| 11>     O       17.6281149   14.6318241   16.9559766
| 12>     C       17.6613430   16.9106898   17.6279361
| 13>     C       17.3353555   18.2127709   17.4122466
| 14>     C       16.4464466   18.7873683   16.3278844
| 15>     N       17.9103119   19.2130320   18.2035415
| 16>     C       18.9210867   19.0147386   19.1064478
| 17>     S       19.6377781   20.2743563   19.9036260
| 18>     N       19.3080912   17.7153860   19.3133943
| 19>     C       18.6137862   16.5333282   18.7693768
| 20>     C       17.8738674   15.7917232   19.8799827
| 21>     C       18.1090784   14.4220877   20.1012010
| 22>     C       17.4299795   13.7335257   21.1203317
| 23>     C       16.5063951   14.4196589   21.9270434
| 24>     C       16.2660729   15.7828406   21.7077999
| 25>     O       15.3702108   16.4467752   22.4811644
| 26>     C       16.9432340   16.4653553   20.6923638
| 27>     H       16.5159626   14.1019286   14.3312328
| 28>     H       14.9615177   13.2478585   14.4082295
| 29>     H       16.1060688   13.0921611   15.7434907
| 30>     H       14.3664854   15.4979131   14.9659429
| 31>     H       14.4463280   14.6658948   16.5250772
| 32>     H       15.3944064   18.5429206   16.5205991
| 33>     H       16.7150308   18.3786216   15.3458292
| 34>     H       16.5234459   19.8787761   16.2517737
| 35>     H       17.6395950   20.1736192   18.0662307
| 36>     H       20.0336123   17.5920738   20.0078359
| 37>     H       19.3798355   15.8601476   18.3580647
| 38>     H       18.8098983   13.8850774   19.4665857
| 39>     H       17.6166954   12.6726172   21.2763702
| 40>     H       15.9783196   13.8913405   22.7137180
| 41>     H       15.0382597   15.8204568   23.1416383
| 42>     H       16.7445328   17.5209117   20.5431517
| 43> *
| 44>
| 45>                          ****END OF INPUT****

CARTESIAN COORDINATES (ANGSTROEM)
---------------------------------
  C     15.704447   13.793645   15.002042
  C     15.049935   15.018635   15.678468
  O     15.995634   16.011701   16.146785
  C     17.165837   15.750240   16.810618
  O     17.628115   14.631824   16.955977
  C     17.661343   16.910690   17.627936
  C     17.335355   18.212771   17.412247
  C     16.446447   18.787368   16.327884
  N     17.910312   19.213032   18.203542
  C     18.921087   19.014739   19.106448
  S     19.637778   20.274356   19.903626
  N     19.308091   17.715386   19.313394
  C     18.613786   16.533328   18.769377
  C     17.873867   15.791723   19.879983
  C     18.109078   14.422088   20.101201
  C     17.429979   13.733526   21.120332
  C     16.506395   14.419659   21.927043
  C     16.266073   15.782841   21.707800
  O     15.370211   16.446775   22.481164
  C     16.943234   16.465355   20.692364
  H     16.515963   14.101929   14.331233
  H     14.961518   13.247858   14.408229
  H     16.106069   13.092161   15.743491
  H     14.366485   15.497913   14.965943
  H     14.446328   14.665895   16.525077
  H     15.394406   18.542921   16.520599
  H     16.715031   18.378622   15.345829
  H     16.523446   19.878776   16.251774
  H     17.639595   20.173619   18.066231
  H     20.033612   17.592074   20.007836
  H     19.379835   15.860148   18.358065
  H     18.809898   13.885077   19.466586
  H     17.616695   12.672617   21.276370
  H     15.978320   13.891341   22.713718
  H     15.038260   15.820457   23.141638
  H     16.744533   17.520912   20.543152

 Total Charge           Charge          ....    0
 Multiplicity           Mult            ....    1
 Number of Electrons    NEL             ....  154
 Basis Dimension        Dim             ....  828

ORBITAL ENERGIES
----------------

  NO   OCC          E(Eh)            E(eV)
   0   2.0000     -91.887170     -2500.3770
   1   2.0000     -20.600606      -560.5710
   2   2.0000     -20.591114      -560.3127
   3   2.0000     -20.545688      -559.0766
   4   2.0000     -15.627027      -425.2330
   5   2.0000     -15.605883      -424.6577
   6   2.0000     -11.398329      -310.1643
   7   2.0000     -11.382010      -309.7202
   8   2.0000     -11.334246      -308.4205
   9   2.0000     -11.306921      -307.6770
  10   2.0000     -11.305542      -307.6394
  11   2.0000     -11.304871      -307.6212
  12   2.0000     -11.259468      -306.3857
  13   2.0000     -11.257944      -306.3442
  14   2.0000     -11.252817      -306.2047
  15   2.0000     -11.247168      -306.0510
  16   2.0000     -11.236752      -305.7676
  17   2.0000     -11.232727      -305.6580
  18   2.0000     -11.229865      -305.5802
  19   2.0000     -11.223758      -305.4140
  20   2.0000      -8.892241      -241.9702
  21   2.0000      -6.573821      -178.8828
  22   2.0000      -6.571813      -178.8281
  23   2.0000      -6.571229      -178.8122
  24   2.0000      -1.447752       -39.3953
  25   2.0000      -1.410847       -38.3911
  26   2.0000      -1.357516       -36.9399
  27   2.0000      -1.338225       -36.4149
  28   2.0000      -1.235960       -33.6322
  29   2.0000      -1.151331       -31.3293
  30   2.0000      -1.118219       -30.4283
  31   2.0000      -1.041471       -28.3399
  32   2.0000      -1.033905       -28.1340
  33   2.0000      -1.008807       -27.4510
  34   2.0000      -0.996171       -27.1072
  35   2.0000      -0.981610       -26.7110
  36   2.0000      -0.920696       -25.0534
  37   2.0000      -0.895504       -24.3679
  38   2.0000      -0.847103       -23.0508
  39   2.0000      -0.835120       -22.7248
  40   2.0000      -0.827317       -22.5124
  41   2.0000      -0.817555       -22.2468
  42   2.0000      -0.745099       -20.2752
  43   2.0000      -0.728497       -19.8234
  44   2.0000      -0.724139       -19.7048
  45   2.0000      -0.690219       -18.7818
  46   2.0000      -0.684026       -18.6133
  47   2.0000      -0.678650       -18.4670
  48   2.0000      -0.670395       -18.2424
  49   2.0000      -0.665074       -18.0976
  50   2.0000      -0.644908       -17.5488
  51   2.0000      -0.642138       -17.4735
  52   2.0000      -0.633618       -17.2416
  53   2.0000      -0.604132       -16.4393
  54   2.0000      -0.599087       -16.3020
  55   2.0000      -0.597524       -16.2595
  56   2.0000      -0.594204       -16.1691
  57   2.0000      -0.587072       -15.9750
  58   2.0000      -0.571971       -15.5641
  59   2.0000      -0.568751       -15.4765
  60   2.0000      -0.559156       -15.2154
  61   2.0000      -0.543658       -14.7937
  62   2.0000      -0.536509       -14.5991
  63   2.0000      -0.521828       -14.1997
  64   2.0000      -0.516727       -14.0609
  65   2.0000      -0.510420       -13.8892
  66   2.0000      -0.500301       -13.6139
  67   2.0000      -0.494681       -13.4610
  68   2.0000      -0.479359       -13.0440
  69   2.0000      -0.461066       -12.5462
  70   2.0000      -0.456672       -12.4267
  71   2.0000      -0.446812       -12.1584
  72   2.0000      -0.352983        -9.6052
  73   2.0000      -0.343289        -9.3414
  74   2.0000      -0.326358        -8.8807
  75   2.0000      -0.314828        -8.5669
  76   2.0000      -0.313162        -8.5216
  77   0.0000       0.077327         2.1042
  78   0.0000       0.113589         3.0909
  79   0.0000       0.121663         3.3106
  80   0.0000       0.136461         3.7133
  81   0.0000       0.140231         3.8159

MULLIKEN ATOMIC CHARGES
-----------------------
   0 C :   -0.294516
   1 C :    0.051361
   2 O :   -0.356865
   3 C :    0.437266
   4 O :   -0.428461
   5 C :   -0.143720
   6 C :    0.136166
   7 C :   -0.286259
   8 N :   -0.121276
   9 C :    0.201363
  10 S :   -0.440861
  11 N :   -0.196975
  12 C :    0.033051
  13 C :    0.057116
  14 C :   -0.163110
  15 C :   -0.134223
  16 C :   -0.279205
  17 C :    0.311398
  18 O :   -0.359012
  19 C :   -0.270655
  20 H :    0.096667
  21 H :    0.095061
  22 H :    0.124042
  23 H :    0.097876
  24 H :    0.091103
  25 H :    0.127672
  26 H :    0.123965
  27 H :    0.102180
  28 H :    0.196526
  29 H :    0.193294
  30 H :    0.154229
  31 H :    0.153646
  32 H :    0.158814
  33 H :    0.127822
  34 H :    0.239889
  35 H :    0.164630
Sum of atomic charges:   -0.0000000

LOEWDIN ATOMIC CHARGES
----------------------
   0 C :    0.102720
   1 C :   -0.009579
   2 O :    0.294473
   3 C :   -0.412425
   4 O :    0.114261
   5 C :   -0.089877
   6 C :   -0.067270
   7 C :    0.124467
   8 N :    0.404406
   9 C :   -0.459013
  10 S :   -0.037233
  11 N :    0.397758
  12 C :   -0.046252
  13 C :   -0.038592
  14 C :    0.021382
  15 C :    0.040464
  16 C :   -0.002549
  17 C :   -0.192514
  18 O :    0.393022
  19 C :    0.028917
  20 H :   -0.026458
  21 H :   -0.029306
  22 H :   -0.025199
  23 H :   -0.025268
  24 H :   -0.028324
  25 H :   -0.009761
  26 H :   -0.009180
  27 H :   -0.021095
  28 H :   -0.059361
  29 H :   -0.063804
  30 H :   -0.005371
  31 H :   -0.025504
  32 H :   -0.021429
  33 H :   -0.036526
  34 H :   -0.155034
  35 H :   -0.024948

  Mayer bond orders larger than 0.100000
B(  0-C ,  1-C ) :   0.9705 B(  0-C , 20-H ) :   0.9758 B(  0-C , 21-H ) :   0.9760
B(  0-C , 22-H ) :   0.9719 B(  1-C ,  2-O ) :   0.9040 B(  1-C , 23-H ) :   0.9831
B(  1-C , 24-H ) :   0.9796 B(  2-O ,  3-C ) :   1.1391 B(  3-C ,  4-O ) :   1.9725
B(  3-C ,  5-C ) :   1.0574 B(  5-C ,  6-C ) :   1.6504 B(  5-C , 12-C ) :   0.9643
B(  6-C ,  7-C ) :   0.9558 B(  6-C ,  8-N ) :   1.1445 B(  7-C , 25-H ) :   0.9632
B(  7-C , 26-H ) :   0.9669 B(  7-C , 27-H ) :   0.9915 B(  8-N ,  9-C ) :   1.1800
B(  8-N , 28-H ) :   0.9493 B(  9-C , 10-S ) :   1.6095 B(  9-C , 11-N ) :   1.3036
B( 11-N , 12-C ) :   0.9934 B( 11-N , 29-H ) :   0.9520 B( 12-C , 13-C ) :   0.9475
B( 12-C , 30-H ) :   0.9996 B( 13-C , 14-C ) :   1.3756 B( 13-C , 19-C ) :   1.3699
B( 14-C , 15-C ) :   1.3947 B( 14-C , 31-H ) :   0.9650 B( 15-C , 16-C ) :   1.3628
B( 15-C , 32-H ) :   0.9715 B( 16-C , 17-C ) :   1.3313 B( 16-C , 33-H ) :   0.9861
B( 17-C , 18-O ) :   1.1080 B( 17-C , 19-C ) :   1.3791 B( 18-O , 34-H ) :   0.9807
B( 19-C , 35-H ) :   0.9584

MP2 TOTAL ENERGY:    -1274.337528155 Eh
FINAL SINGLE POINT ENERGY     -1274.337528154550

DIPOLE MOMENT
-------------
                                X             Y             Z
Electronic contribution:      9.76198      10.21347      11.14389
Nuclear contribution   :    -11.43681     -11.39773     -12.13404
                        -----------------------------------------
Total Dipole Moment    :     -1.67483      -1.18426      -0.99015
                        -----------------------------------------
Magnitude (a.u.)       :      2.27770
Magnitude (Debye)      :      5.78945

Rotational constants in cm-1:     0.010664     0.008890     0.005853
Rotational constants in MHz :   319.702126   266.518442   175.478404

                             ****ORCA TERMINATED NORMALLY****
TOTAL RUN TIME: 0 days 1 hours 49 minutes 6 seconds 766 msec
