                         Program Version 5.0.0 -  RELEASE  -
|  1> ! ri-mp2 cc-pvtz cc-pvtz/c TightSCF NoKeepInts
|  2>
|  3> %scf
|  4>   MaxCore 4096
|  5> end
|  6> *xyz  0  1
|  7>     C       15.1752567   15.2624794   17.0639717
|  8>     C       16.2288758   14.2312252   16.6005006
|  9>     O       17.5783453   14.7502753   16.4892311
| 10>     C       17.8219928   16.0380417   16.1115763
| 11>     O       17.5282240   16.3830305   14.9811040
| 12>     C       17.8433248   16.9904390   17.2775640
| 13>     C       17.4269862   18.2791753   17.1827039
| 14>     C       16.7421324   18.9428093   16.0071207
| 15>     N       17.6811953   19.1711442   18.2292285
| 16>     C       18.5524288   18.9266692   19.2582460
| 17>     S       18.9688128   20.0957128   20.3512170
| 18>     N       19.0644741   17.6553354   19.3334616
| 19>     C       18.5671842   16.5079226   18.5499517
| 20>     C       17.7369273   15.5941595   19.4506870
| 21>     C       18.0150732   14.2150557   19.5097813
| 22>     C       17.2687333   13.3668860   20.3447664
| 23>     C       16.2401380   13.9018911   21.1381246
| 24>     C       15.9691205   15.2760029   21.0962618
| 25>     O       14.9766056   15.7960951   21.8609227
| 26>     C       16.7136782   16.1176732   20.2640362
| 27>     H       15.4175307   15.6886128   18.0388711
| 28>     H       14.1955366   14.7779191   17.1531597
| 29>     H       15.0716499   16.0771554   16.3373989
| 30>     H       16.2292302   13.3767334   17.2893906
| 31>     H       15.9210205   13.8553674   15.6158221
| 32>     H       17.4410740   19.0511440   15.1677449
| 33>     H       16.3499561   19.9378258   16.2476606
| 34>     H       15.8998909   18.3361460   15.6528754
| 35>     H       17.3260297   20.1126242   18.1772909
| 36>     H       19.6847521   17.4956913   20.1171186
| 37>     H       19.4472559   15.9363229   18.2230369
| 38>     H       18.8080481   13.7958648   18.8955814
| 39>     H       17.4900478   12.3013389   20.3765949
| 40>     H       15.6607966   13.2510226   21.7848417
| 41>     H       14.6184653   15.0779371   22.4040552
| 42>     H       16.4862067   17.1782710   20.2520998
| 43> *
| 44>
| 45>                          ****END OF INPUT****

CARTESIAN COORDINATES (ANGSTROEM)
---------------------------------
  C     15.175257   15.262479   17.063972
  C     16.228876   14.231225   16.600501
  O     17.578345   14.750275   16.489231
  C     17.821993   16.038042   16.111576
  O     17.528224   16.383031   14.981104
  C     17.843325   16.990439   17.277564
  C     17.426986   18.279175   17.182704
  C     16.742132   18.942809   16.007121
  N     17.681195   19.171144   18.229229
  C     18.552429   18.926669   19.258246
  S     18.968813   20.095713   20.351217
  N     19.064474   17.655335   19.333462
  C     18.567184   16.507923   18.549952
  C     17.736927   15.594159   19.450687
  C     18.015073   14.215056   19.509781
  C     17.268733   13.366886   20.344766
  C     16.240138   13.901891   21.138125
  C     15.969120   15.276003   21.096262
  O     14.976606   15.796095   21.860923
  C     16.713678   16.117673   20.264036
  H     15.417531   15.688613   18.038871
  H     14.195537   14.777919   17.153160
  H     15.071650   16.077155   16.337399
  H     16.229230   13.376733   17.289391
  H     15.921020   13.855367   15.615822
  H     17.441074   19.051144   15.167745
  H     16.349956   19.937826   16.247661
  H     15.899891   18.336146   15.652875
  H     17.326030   20.112624   18.177291
  H     19.684752   17.495691   20.117119
  H     19.447256   15.936323   18.223037
  H     18.808048   13.795865   18.895581
  H     17.490048   12.301339   20.376595
  H     15.660797   13.251023   21.784842
  H     14.618465   15.077937   22.404055
  H     16.486207   17.178271   20.252100

 Total Charge           Charge          ....    0
 Multiplicity           Mult            ....    1
 Number of Electrons    NEL             ....  154
 Basis Dimension        Dim             ....  828

ORBITAL ENERGIES
----------------

  NO   OCC          E(Eh)            E(eV)
   0   2.0000     -91.891338     -2500.4904
   1   2.0000     -20.599102      -560.5301
   2   2.0000     -20.577276      -559.9361
   3   2.0000     -20.553664      -559.2936
   4   2.0000     -15.630563      -425.3293
   5   2.0000     -15.609967      -424.7688
   6   2.0000     -11.394575      -310.0621
   7   2.0000     -11.385761      -309.8223
   8   2.0000     -11.335820      -308.4633
   9   2.0000     -11.316517      -307.9381
  10   2.0000     -11.313804      -307.8643
  11   2.0000     -11.301422      -307.5273
  12   2.0000     -11.262991      -306.4816
  13   2.0000     -11.260607      -306.4167
  14   2.0000     -11.257851      -306.3417
  15   2.0000     -11.254593      -306.2530
  16   2.0000     -11.246294      -306.0272
  17   2.0000     -11.241367      -305.8931
  18   2.0000     -11.240350      -305.8655
  19   2.0000     -11.226420      -305.4864
  20   2.0000      -8.896360      -242.0823
  21   2.0000      -6.577927      -178.9945
  22   2.0000      -6.575931      -178.9402
  23   2.0000      -6.575334      -178.9239
  24   2.0000      -1.446881       -39.3716
  25   2.0000      -1.418906       -38.6104
  26   2.0000      -1.350623       -36.7523
  27   2.0000      -1.341961       -36.5166
  28   2.0000      -1.240379       -33.7524
  29   2.0000      -1.159556       -31.5531
  30   2.0000      -1.120775       -30.4978
  31   2.0000      -1.044809       -28.4307
  32   2.0000      -1.032160       -28.0865
  33   2.0000      -1.018299       -27.7093
  34   2.0000      -1.000190       -27.2165
  35   2.0000      -0.987108       -26.8606
  36   2.0000      -0.925189       -25.1757
  37   2.0000      -0.896954       -24.4074
  38   2.0000      -0.848660       -23.0932
  39   2.0000      -0.842532       -22.9265
  40   2.0000      -0.837149       -22.7800
  41   2.0000      -0.818615       -22.2756
  42   2.0000      -0.747134       -20.3305
  43   2.0000      -0.734422       -19.9846
  44   2.0000      -0.723230       -19.6801
  45   2.0000      -0.698070       -18.9955
  46   2.0000      -0.690985       -18.8026
  47   2.0000      -0.674348       -18.3499
  48   2.0000      -0.670002       -18.2317
  49   2.0000      -0.663738       -18.0612
  50   2.0000      -0.652022       -17.7424
  51   2.0000      -0.645736       -17.5714
  52   2.0000      -0.638360       -17.3707
  53   2.0000      -0.622777       -16.9466
  54   2.0000      -0.609073       -16.5737
  55   2.0000      -0.602045       -16.3825
  56   2.0000      -0.600932       -16.3522
  57   2.0000      -0.579703       -15.7745
  58   2.0000      -0.573190       -15.5973
  59   2.0000      -0.565027       -15.3752
  60   2.0000      -0.551064       -14.9952
  61   2.0000      -0.546494       -14.8709
  62   2.0000      -0.541254       -14.7283
  63   2.0000      -0.529014       -14.3952
  64   2.0000      -0.526125       -14.3166
  65   2.0000      -0.515484       -14.0270
  66   2.0000      -0.503699       -13.7064
  67   2.0000      -0.497990       -13.5510
  68   2.0000      -0.478555       -13.0221
  69   2.0000      -0.465418       -12.6647
  70   2.0000      -0.453786       -12.3481
  71   2.0000      -0.444758       -12.1025
  72   2.0000      -0.357820        -9.7368
  73   2.0000      -0.349596        -9.5130
  74   2.0000      -0.330438        -8.9917
  75   2.0000      -0.324676        -8.8349
  76   2.0000      -0.318449        -8.6654
  77   0.0000       0.066857         1.8193
  78   0.0000       0.102604         2.7920
  79   0.0000       0.118678         3.2294
  80   0.0000       0.128805         3.5050
  81   0.0000       0.132492         3.6053

MULLIKEN ATOMIC CHARGES
-----------------------
   0 C :   -0.341252
   1 C :    0.040263
   2 O :   -0.391499
   3 C :    0.469004
   4 O :   -0.393840
   5 C :   -0.233727
   6 C :    0.159578
   7 C :   -0.276905
   8 N :   -0.121750
   9 C :    0.187764
  10 S :   -0.431537
  11 N :   -0.196039
  12 C :    0.046597
  13 C :    0.053890
  14 C :   -0.199050
  15 C :   -0.138680
  16 C :   -0.274411
  17 C :    0.310227
  18 O :   -0.356785
  19 C :   -0.261479
  20 H :    0.119739
  21 H :    0.118205
  22 H :    0.105404
  23 H :    0.115279
  24 H :    0.120827
  25 H :    0.138976
  26 H :    0.094946
  27 H :    0.126048
  28 H :    0.197970
  29 H :    0.191781
  30 H :    0.149219
  31 H :    0.157240
  32 H :    0.165920
  33 H :    0.133161
  34 H :    0.240624
  35 H :    0.174293
Sum of atomic charges:    0.0000000

LOEWDIN ATOMIC CHARGES
----------------------
   0 C :    0.107376
   1 C :   -0.009161
   2 O :    0.275737
   3 C :   -0.423344
   4 O :    0.130046
   5 C :   -0.095235
   6 C :   -0.062467
   7 C :    0.129991
   8 N :    0.406802
   9 C :   -0.459921
  10 S :   -0.031561
  11 N :    0.396173
  12 C :   -0.051427
  13 C :   -0.039833
  14 C :    0.019104
  15 C :    0.039040
  16 C :   -0.002297
  17 C :   -0.192196
  18 O :    0.396412
  19 C :    0.031146
  20 H :   -0.034334
  21 H :   -0.021732
  22 H :   -0.030349
  23 H :   -0.024487
  24 H :   -0.027705
  25 H :   -0.003157
  26 H :   -0.022642
  27 H :   -0.010070
  28 H :   -0.057974
  29 H :   -0.064909
  30 H :   -0.006511
  31 H :   -0.027789
  32 H :   -0.020499
  33 H :   -0.034895
  34 H :   -0.153427
  35 H :   -0.023907

  Mayer bond orders larger than 0.100000
B(  0-C ,  1-C ) :   0.9604 B(  0-C , 20-H ) :   0.9671 B(  0-C , 21-H ) :   0.9775
B(  0-C , 22-H ) :   0.9729 B(  1-C ,  2-O ) :   0.8778 B(  1-C , 23-H ) :   0.9765
B(  1-C , 24-H ) :   0.9860 B(  2-O ,  3-C ) :   1.1029 B(  3-C ,  4-O ) :   2.0340
B(  3-C ,  5-C ) :   1.0282 B(  5-C ,  6-C ) :   1.6635 B(  5-C , 12-C ) :   0.9628
B(  6-C ,  7-C ) :   0.9666 B(  6-C ,  8-N ) :   1.1375 B(  7-C , 25-H ) :   0.9566
B(  7-C , 26-H ) :   0.9874 B(  7-C , 27-H ) :   0.9677 B(  8-N ,  9-C ) :   1.1796
B(  8-N , 28-H ) :   0.9490 B(  9-C , 10-S ) :   1.6223 B(  9-C , 11-N ) :   1.2936
B( 11-N , 12-C ) :   0.9894 B( 11-N , 29-H ) :   0.9527 B( 12-C , 13-C ) :   0.9418
B( 12-C , 30-H ) :   1.0065 B( 13-C , 14-C ) :   1.3595 B( 13-C , 19-C ) :   1.3561
B( 14-C , 15-C ) :   1.3913 B( 14-C , 31-H ) :   0.9689 B( 15-C , 16-C ) :   1.3615
B( 15-C , 32-H ) :   0.9695 B( 16-C , 17-C ) :   1.3304 B( 16-C , 33-H ) :   0.9838
B( 17-C , 18-O ) :   1.1132 B( 17-C , 19-C ) :   1.3757 B( 18-O , 34-H ) :   0.9798
B( 19-C , 35-H ) :   0.9585

MP2 TOTAL ENERGY:    -1274.316589045 Eh
FINAL SINGLE POINT ENERGY     -1274.316589045029

DIPOLE MOMENT
-------------
                                X             Y             Z
Electronic contribution:     10.05965       7.43490       6.07437
Nuclear contribution   :    -11.22364      -9.02044      -6.06584
                        -----------------------------------------
Total Dipole Moment    :     -1.16399      -1.58554       0.00854
                        -----------------------------------------
Magnitude (a.u.)       :      1.96695
Magnitude (Debye)      :      4.99958

Rotational constants in cm-1:     0.011752     0.010040     0.006608
Rotational constants in MHz :   352.326445   300.977686   198.117697

                             ****ORCA TERMINATED NORMALLY****
TOTAL RUN TIME: 0 days 2 hours 34 minutes 40 seconds 295 msec
