                         Program Version 5.0.0 -  RELEASE  -
|  1> ! ri-mp2 cc-pvtz cc-pvtz/c TightSCF NoKeepInts
|  2>
|  3> %scf
|  4>   MaxCore 4096
|  5> end
|  6> *xyz  0  1
|  7>     C       15.5223765   14.1378890   14.8724127
|  8>     C       15.5898555   14.1282250   16.4142484
|  9>     O       16.5698944   15.0788494   16.8742704
| 10>     C       16.3379866   16.4267655   16.8080775
| 11>     O       15.3599230   16.9016562   16.2563304
| 12>     C       17.3295058   17.2219303   17.6127990
| 13>     C       17.3114856   18.5786244   17.6557898
| 14>     C       16.3455751   19.5061865   16.9498754
| 15>     N       18.2854592   19.2701442   18.3825169
| 16>     C       19.3671867   18.6914706   18.9908539
| 17>     S       20.5334658   19.5914893   19.7429973
| 18>     N       19.4372277   17.3226777   18.9410400
| 19>     C       18.3831035   16.4376132   18.4124935
| 20>     C       17.7558745   15.6448868   19.5559431
| 21>     C       17.9335172   14.2509905   19.6393355
| 22>     C       17.3571002   13.5182515   20.6905787
| 23>     C       16.5990170   14.1846017   21.6684588
| 24>     C       16.4235680   15.5730643   21.5908563
| 25>     O       15.6932865   16.2194391   22.5342443
| 26>     C       16.9983032   16.2995170   20.5434729
| 27>     H       15.1139418   15.0817671   14.4918932
| 28>     H       14.8747306   13.3280362   14.5156638
| 29>     H       16.5199279   13.9924564   14.4401338
| 30>     H       14.6030888   14.3580253   16.8388545
| 31>     H       15.8789395   13.1248962   16.7521846
| 32>     H       15.3196991   19.3296759   17.2979854
| 33>     H       16.3587289   19.3270081   15.8672986
| 34>     H       16.5725073   20.5664182   17.1116915
| 35>     H       18.2506614   20.2759862   18.4283046
| 36>     H       20.2264893   16.9226294   19.4317764
| 37>     H       18.8667478   15.7307122   17.7238110
| 38>     H       18.5152064   13.7328197   18.8817376
| 39>     H       17.4985781   12.4403142   20.7452891
| 40>     H       16.1521550   13.6233152   22.4823990
| 41>     H       15.4051260   15.5594531   23.1823908
| 42>     H       16.8567599   17.3742145   20.5059916
| 43> *
| 44>
| 45>                          ****END OF INPUT****

CARTESIAN COORDINATES (ANGSTROEM)
---------------------------------
  C     15.522377   14.137889   14.872413
  C     15.589856   14.128225   16.414248
  O     16.569894   15.078849   16.874270
  C     16.337987   16.426765   16.808077
  O     15.359923   16.901656   16.256330
  C     17.329506   17.221930   17.612799
  C     17.311486   18.578624   17.655790
  C     16.345575   19.506186   16.949875
  N     18.285459   19.270144   18.382517
  C     19.367187   18.691471   18.990854
  S     20.533466   19.591489   19.742997
  N     19.437228   17.322678   18.941040
  C     18.383104   16.437613   18.412494
  C     17.755875   15.644887   19.555943
  C     17.933517   14.250991   19.639336
  C     17.357100   13.518251   20.690579
  C     16.599017   14.184602   21.668459
  C     16.423568   15.573064   21.590856
  O     15.693286   16.219439   22.534244
  C     16.998303   16.299517   20.543473
  H     15.113942   15.081767   14.491893
  H     14.874731   13.328036   14.515664
  H     16.519928   13.992456   14.440134
  H     14.603089   14.358025   16.838855
  H     15.878939   13.124896   16.752185
  H     15.319699   19.329676   17.297985
  H     16.358729   19.327008   15.867299
  H     16.572507   20.566418   17.111691
  H     18.250661   20.275986   18.428305
  H     20.226489   16.922629   19.431776
  H     18.866748   15.730712   17.723811
  H     18.515206   13.732820   18.881738
  H     17.498578   12.440314   20.745289
  H     16.152155   13.623315   22.482399
  H     15.405126   15.559453   23.182391
  H     16.856760   17.374214   20.505992

 Total Charge           Charge          ....    0
 Multiplicity           Mult            ....    1
 Number of Electrons    NEL             ....  154
 Basis Dimension        Dim             ....  828

ORBITAL ENERGIES
----------------

  NO   OCC          E(Eh)            E(eV)
   0   2.0000     -91.888481     -2500.4127
   1   2.0000     -20.601428      -560.5934
   2   2.0000     -20.595206      -560.4241
   3   2.0000     -20.542373      -558.9864
   4   2.0000     -15.628727      -425.2793
   5   2.0000     -15.607696      -424.7070
   6   2.0000     -11.396285      -310.1087
   7   2.0000     -11.383528      -309.7615
   8   2.0000     -11.335609      -308.4576
   9   2.0000     -11.312205      -307.8207
  10   2.0000     -11.308321      -307.7150
  11   2.0000     -11.299333      -307.4705
  12   2.0000     -11.258868      -306.3694
  13   2.0000     -11.258227      -306.3519
  14   2.0000     -11.253704      -306.2288
  15   2.0000     -11.251910      -306.1800
  16   2.0000     -11.241500      -305.8968
  17   2.0000     -11.236970      -305.7735
  18   2.0000     -11.236768      -305.7680
  19   2.0000     -11.222684      -305.3848
  20   2.0000      -8.893543      -242.0056
  21   2.0000      -6.575118      -178.9180
  22   2.0000      -6.573113      -178.8635
  23   2.0000      -6.572527      -178.8475
  24   2.0000      -1.450420       -39.4679
  25   2.0000      -1.414849       -38.5000
  26   2.0000      -1.355382       -36.8818
  27   2.0000      -1.339668       -36.4542
  28   2.0000      -1.238005       -33.6878
  29   2.0000      -1.156229       -31.4626
  30   2.0000      -1.119758       -30.4702
  31   2.0000      -1.041813       -28.3492
  32   2.0000      -1.035956       -28.1898
  33   2.0000      -1.013557       -27.5803
  34   2.0000      -0.994767       -27.0690
  35   2.0000      -0.983378       -26.7591
  36   2.0000      -0.921802       -25.0835
  37   2.0000      -0.894638       -24.3443
  38   2.0000      -0.846692       -23.0397
  39   2.0000      -0.836776       -22.7698
  40   2.0000      -0.832617       -22.6567
  41   2.0000      -0.818005       -22.2590
  42   2.0000      -0.754987       -20.5442
  43   2.0000      -0.730806       -19.8862
  44   2.0000      -0.722235       -19.6530
  45   2.0000      -0.694512       -18.8986
  46   2.0000      -0.687803       -18.7161
  47   2.0000      -0.680483       -18.5169
  48   2.0000      -0.670301       -18.2398
  49   2.0000      -0.652910       -17.7666
  50   2.0000      -0.648236       -17.6394
  51   2.0000      -0.644959       -17.5502
  52   2.0000      -0.631184       -17.1754
  53   2.0000      -0.611135       -16.6298
  54   2.0000      -0.605364       -16.4728
  55   2.0000      -0.598579       -16.2882
  56   2.0000      -0.597681       -16.2637
  57   2.0000      -0.579247       -15.7621
  58   2.0000      -0.571810       -15.5597
  59   2.0000      -0.570419       -15.5219
  60   2.0000      -0.562502       -15.3064
  61   2.0000      -0.538477       -14.6527
  62   2.0000      -0.537039       -14.6136
  63   2.0000      -0.524655       -14.2766
  64   2.0000      -0.523467       -14.2443
  65   2.0000      -0.512857       -13.9555
  66   2.0000      -0.500635       -13.6230
  67   2.0000      -0.498399       -13.5621
  68   2.0000      -0.484661       -13.1883
  69   2.0000      -0.463540       -12.6136
  70   2.0000      -0.455970       -12.4076
  71   2.0000      -0.445353       -12.1187
  72   2.0000      -0.353958        -9.6317
  73   2.0000      -0.348052        -9.4710
  74   2.0000      -0.327770        -8.9191
  75   2.0000      -0.319878        -8.7043
  76   2.0000      -0.315441        -8.5836
  77   0.0000       0.076524         2.0823
  78   0.0000       0.108476         2.9518
  79   0.0000       0.125169         3.4060
  80   0.0000       0.133215         3.6250
  81   0.0000       0.137289         3.7358

MULLIKEN ATOMIC CHARGES
-----------------------
   0 C :   -0.294642
   1 C :    0.042628
   2 O :   -0.352854
   3 C :    0.467311
   4 O :   -0.438278
   5 C :   -0.208551
   6 C :    0.147760
   7 C :   -0.275259
   8 N :   -0.119830
   9 C :    0.211016
  10 S :   -0.440254
  11 N :   -0.203042
  12 C :    0.047279
  13 C :    0.070977
  14 C :   -0.180377
  15 C :   -0.132063
  16 C :   -0.278234
  17 C :    0.315307
  18 O :   -0.356926
  19 C :   -0.269213
  20 H :    0.122723
  21 H :    0.094262
  22 H :    0.090478
  23 H :    0.094663
  24 H :    0.106340
  25 H :    0.132821
  26 H :    0.129535
  27 H :    0.095366
  28 H :    0.197158
  29 H :    0.194214
  30 H :    0.149697
  31 H :    0.146933
  32 H :    0.159236
  33 H :    0.129095
  34 H :    0.240505
  35 H :    0.164217
Sum of atomic charges:    0.0000000

LOEWDIN ATOMIC CHARGES
----------------------
   0 C :    0.104878
   1 C :   -0.014044
   2 O :    0.305149
   3 C :   -0.411782
   4 O :    0.098642
   5 C :   -0.093487
   6 C :   -0.059095
   7 C :    0.131196
   8 N :    0.406491
   9 C :   -0.456679
  10 S :   -0.035712
  11 N :    0.396506
  12 C :   -0.052680
  13 C :   -0.038212
  14 C :    0.014026
  15 C :    0.038903
  16 C :   -0.001758
  17 C :   -0.189444
  18 O :    0.394985
  19 C :    0.031454
  20 H :   -0.025876
  21 H :   -0.027874
  22 H :   -0.030472
  23 H :   -0.027882
  24 H :   -0.025234
  25 H :   -0.004524
  26 H :   -0.004423
  27 H :   -0.023410
  28 H :   -0.057647
  29 H :   -0.064639
  30 H :   -0.011120
  31 H :   -0.030590
  32 H :   -0.021693
  33 H :   -0.035831
  34 H :   -0.154130
  35 H :   -0.023993

  Mayer bond orders larger than 0.100000
B(  0-C ,  1-C ) :   0.9695 B(  0-C , 20-H ) :   0.9727 B(  0-C , 21-H ) :   0.9774
B(  0-C , 22-H ) :   0.9761 B(  1-C ,  2-O ) :   0.8993 B(  1-C , 23-H ) :   0.9763
B(  1-C , 24-H ) :   0.9835 B(  2-O ,  3-C ) :   1.1616 B(  3-C ,  4-O ) :   1.9495
B(  3-C ,  5-C ) :   1.0642 B(  5-C ,  6-C ) :   1.6568 B(  5-C , 12-C ) :   0.9739
B(  6-C ,  7-C ) :   0.9675 B(  6-C ,  8-N ) :   1.1643 B(  7-C , 25-H ) :   0.9602
B(  7-C , 26-H ) :   0.9605 B(  7-C , 27-H ) :   0.9908 B(  8-N ,  9-C ) :   1.1823
B(  8-N , 28-H ) :   0.9480 B(  9-C , 10-S ) :   1.6073 B(  9-C , 11-N ) :   1.3051
B( 11-N , 12-C ) :   0.9871 B( 11-N , 29-H ) :   0.9517 B( 12-C , 13-C ) :   0.9373
B( 12-C , 30-H ) :   1.0027 B( 13-C , 14-C ) :   1.3555 B( 13-C , 19-C ) :   1.3826
B( 14-C , 15-C ) :   1.3929 B( 14-C , 31-H ) :   0.9721 B( 15-C , 16-C ) :   1.3644
B( 15-C , 32-H ) :   0.9710 B( 16-C , 17-C ) :   1.3318 B( 16-C , 33-H ) :   0.9853
B( 17-C , 18-O ) :   1.1097 B( 17-C , 19-C ) :   1.3738 B( 18-O , 34-H ) :   0.9801
B( 19-C , 35-H ) :   0.9583

MP2 TOTAL ENERGY:    -1274.348661483 Eh
FINAL SINGLE POINT ENERGY     -1274.348661482982

DIPOLE MOMENT
-------------
                                X             Y             Z
Electronic contribution:      9.92041       9.28835      10.07588
Nuclear contribution   :    -11.05646     -10.93448     -10.40866
                        -----------------------------------------
Total Dipole Moment    :     -1.13606      -1.64613      -0.33277
                        -----------------------------------------
Magnitude (a.u.)       :      2.02758
Magnitude (Debye)      :      5.15371

Rotational constants in cm-1:     0.010857     0.008863     0.006014
Rotational constants in MHz :   325.495089   265.716686   180.288390

                             ****ORCA TERMINATED NORMALLY****
TOTAL RUN TIME: 0 days 1 hours 30 minutes 12 seconds 552 msec
