                         Program Version 5.0.0 -  RELEASE  -
|  1> ! ri-mp2 cc-pvtz cc-pvtz/c TightSCF NoKeepInts
|  2>
|  3> %scf
|  4>   MaxCore 4096
|  5> end
|  6> *xyz  0  1
|  7>     C       14.9226587   15.9129838   17.1554223
|  8>     C       15.8105365   14.6517740   17.0903547
|  9>     O       17.0133296   14.8273950   16.3030786
| 10>     C       17.8835407   15.8903800   16.2512445
| 11>     O       18.5798024   16.0527395   15.2668986
| 12>     C       17.8316208   16.9310621   17.3206583
| 13>     C       17.4467682   18.1927474   17.0191412
| 14>     C       16.8927844   18.6726073   15.6952859
| 15>     N       17.5783660   19.2129446   17.9627714
| 16>     C       18.2084062   19.0772426   19.1712416
| 17>     S       18.3731457   20.3471112   20.2174351
| 18>     N       18.6987017   17.8310138   19.4737157
| 19>     C       18.5176401   16.6136769   18.6574029
| 20>     C       17.8386387   15.5241119   19.4767014
| 21>     C       18.3561681   14.2149064   19.4751870
| 22>     C       17.7429761   13.2031692   20.2331078
| 23>     C       16.6060134   13.5026500   21.0029380
| 24>     C       16.0924122   14.8064851   21.0138040
| 25>     O       14.9918031   15.0978563   21.7508791
| 26>     C       16.7037001   15.8118724   20.2580123
| 27>     H       15.2961836   16.6458209   17.8773209
| 28>     H       13.9124309   15.6358079   17.4806917
| 29>     H       14.8359231   16.3839376   16.1691473
| 30>     H       16.0490547   14.3142118   18.1024120
| 31>     H       15.2276881   13.8441801   16.6289445
| 32>     H       16.4551610   17.8537923   15.1116836
| 33>     H       17.6939863   19.1072622   15.0839373
| 34>     H       16.1119646   19.4308713   15.8286192
| 35>     H       17.2527025   20.1411903   17.7434229
| 36>     H       19.1418554   17.7605465   20.3812204
| 37>     H       19.5245467   16.2486273   18.4080496
| 38>     H       19.2332077   13.9773945   18.8776639
| 39>     H       18.1493827   12.1928407   20.2220901
| 40>     H       16.1295167   12.7235167   21.5893194
| 41>     H       14.7539269   14.3020477   22.2507287
| 42>     H       16.2904561   16.8152226   20.2834680
| 43> *
| 44>
| 45>                          ****END OF INPUT****

CARTESIAN COORDINATES (ANGSTROEM)
---------------------------------
  C     14.922659   15.912984   17.155422
  C     15.810536   14.651774   17.090355
  O     17.013330   14.827395   16.303079
  C     17.883541   15.890380   16.251244
  O     18.579802   16.052740   15.266899
  C     17.831621   16.931062   17.320658
  C     17.446768   18.192747   17.019141
  C     16.892784   18.672607   15.695286
  N     17.578366   19.212945   17.962771
  C     18.208406   19.077243   19.171242
  S     18.373146   20.347111   20.217435
  N     18.698702   17.831014   19.473716
  C     18.517640   16.613677   18.657403
  C     17.838639   15.524112   19.476701
  C     18.356168   14.214906   19.475187
  C     17.742976   13.203169   20.233108
  C     16.606013   13.502650   21.002938
  C     16.092412   14.806485   21.013804
  O     14.991803   15.097856   21.750879
  C     16.703700   15.811872   20.258012
  H     15.296184   16.645821   17.877321
  H     13.912431   15.635808   17.480692
  H     14.835923   16.383938   16.169147
  H     16.049055   14.314212   18.102412
  H     15.227688   13.844180   16.628944
  H     16.455161   17.853792   15.111684
  H     17.693986   19.107262   15.083937
  H     16.111965   19.430871   15.828619
  H     17.252703   20.141190   17.743423
  H     19.141855   17.760547   20.381220
  H     19.524547   16.248627   18.408050
  H     19.233208   13.977394   18.877664
  H     18.149383   12.192841   20.222090
  H     16.129517   12.723517   21.589319
  H     14.753927   14.302048   22.250729
  H     16.290456   16.815223   20.283468

 Total Charge           Charge          ....    0
 Multiplicity           Mult            ....    1
 Number of Electrons    NEL             ....  154
 Basis Dimension        Dim             ....  828

ORBITAL ENERGIES
----------------

  NO   OCC          E(Eh)            E(eV)
   0   2.0000     -91.889637     -2500.4441
   1   2.0000     -20.606552      -560.7328
   2   2.0000     -20.594626      -560.4083
   3   2.0000     -20.548832      -559.1621
   4   2.0000     -15.625270      -425.1852
   5   2.0000     -15.612191      -424.8293
   6   2.0000     -11.396981      -310.1276
   7   2.0000     -11.385931      -309.8269
   8   2.0000     -11.325167      -308.1735
   9   2.0000     -11.325165      -308.1734
  10   2.0000     -11.319992      -308.0326
  11   2.0000     -11.301678      -307.5343
  12   2.0000     -11.271321      -306.7082
  13   2.0000     -11.266310      -306.5719
  14   2.0000     -11.259843      -306.3959
  15   2.0000     -11.257580      -306.3343
  16   2.0000     -11.254977      -306.2635
  17   2.0000     -11.249654      -306.1186
  18   2.0000     -11.249384      -306.1113
  19   2.0000     -11.233026      -305.6662
  20   2.0000      -8.894748      -242.0384
  21   2.0000      -6.576336      -178.9512
  22   2.0000      -6.574311      -178.8961
  23   2.0000      -6.573737      -178.8805
  24   2.0000      -1.441384       -39.2221
  25   2.0000      -1.426349       -38.8129
  26   2.0000      -1.354834       -36.8669
  27   2.0000      -1.339401       -36.4470
  28   2.0000      -1.240561       -33.7574
  29   2.0000      -1.168312       -31.7914
  30   2.0000      -1.124608       -30.6021
  31   2.0000      -1.052177       -28.6312
  32   2.0000      -1.036084       -28.1933
  33   2.0000      -1.026473       -27.9317
  34   2.0000      -1.004191       -27.3254
  35   2.0000      -0.989485       -26.9252
  36   2.0000      -0.929338       -25.2886
  37   2.0000      -0.898585       -24.4517
  38   2.0000      -0.852024       -23.1847
  39   2.0000      -0.845653       -23.0114
  40   2.0000      -0.844298       -22.9745
  41   2.0000      -0.830593       -22.6016
  42   2.0000      -0.750595       -20.4247
  43   2.0000      -0.739921       -20.1343
  44   2.0000      -0.722547       -19.6615
  45   2.0000      -0.705481       -19.1971
  46   2.0000      -0.692970       -18.8567
  47   2.0000      -0.678988       -18.4762
  48   2.0000      -0.675882       -18.3917
  49   2.0000      -0.662414       -18.0252
  50   2.0000      -0.654642       -17.8137
  51   2.0000      -0.649437       -17.6721
  52   2.0000      -0.638762       -17.3816
  53   2.0000      -0.619873       -16.8676
  54   2.0000      -0.615020       -16.7355
  55   2.0000      -0.609400       -16.5826
  56   2.0000      -0.605954       -16.4888
  57   2.0000      -0.585172       -15.9233
  58   2.0000      -0.578744       -15.7484
  59   2.0000      -0.568293       -15.4640
  60   2.0000      -0.567928       -15.4541
  61   2.0000      -0.552929       -15.0460
  62   2.0000      -0.539222       -14.6730
  63   2.0000      -0.535552       -14.5731
  64   2.0000      -0.529336       -14.4040
  65   2.0000      -0.517477       -14.0813
  66   2.0000      -0.506192       -13.7742
  67   2.0000      -0.501730       -13.6528
  68   2.0000      -0.489066       -13.3082
  69   2.0000      -0.465884       -12.6774
  70   2.0000      -0.451623       -12.2893
  71   2.0000      -0.446190       -12.1414
  72   2.0000      -0.359885        -9.7930
  73   2.0000      -0.352510        -9.5923
  74   2.0000      -0.334415        -9.0999
  75   2.0000      -0.328984        -8.9521
  76   2.0000      -0.317763        -8.6468
  77   0.0000       0.086551         2.3552
  78   0.0000       0.097040         2.6406
  79   0.0000       0.118751         3.2314
  80   0.0000       0.125897         3.4258
  81   0.0000       0.129594         3.5264

MULLIKEN ATOMIC CHARGES
-----------------------
   0 C :   -0.339533
   1 C :    0.035462
   2 O :   -0.320721
   3 C :    0.384583
   4 O :   -0.371876
   5 C :   -0.203086
   6 C :    0.145496
   7 C :   -0.297269
   8 N :   -0.131400
   9 C :    0.207794
  10 S :   -0.442005
  11 N :   -0.215582
  12 C :    0.067214
  13 C :    0.000052
  14 C :   -0.181903
  15 C :   -0.133770
  16 C :   -0.272094
  17 C :    0.316498
  18 O :   -0.354795
  19 C :   -0.272717
  20 H :    0.110808
  21 H :    0.122448
  22 H :    0.109815
  23 H :    0.099873
  24 H :    0.127038
  25 H :    0.117494
  26 H :    0.146528
  27 H :    0.103263
  28 H :    0.197323
  29 H :    0.198788
  30 H :    0.163964
  31 H :    0.154798
  32 H :    0.164826
  33 H :    0.135568
  34 H :    0.242405
  35 H :    0.184714
Sum of atomic charges:    0.0000000

LOEWDIN ATOMIC CHARGES
----------------------
   0 C :    0.102805
   1 C :   -0.013715
   2 O :    0.296390
   3 C :   -0.419241
   4 O :    0.127804
   5 C :   -0.083505
   6 C :   -0.090416
   7 C :    0.129070
   8 N :    0.403843
   9 C :   -0.456297
  10 S :   -0.038144
  11 N :    0.396906
  12 C :   -0.052475
  13 C :   -0.045885
  14 C :    0.016695
  15 C :    0.044869
  16 C :    0.001229
  17 C :   -0.192660
  18 O :    0.398189
  19 C :    0.032414
  20 H :   -0.036623
  21 H :   -0.021696
  22 H :   -0.029636
  23 H :   -0.034845
  24 H :   -0.020596
  25 H :   -0.010814
  26 H :   -0.004652
  27 H :   -0.019312
  28 H :   -0.057241
  29 H :   -0.064472
  30 H :   -0.007206
  31 H :   -0.026239
  32 H :   -0.017724
  33 H :   -0.032882
  34 H :   -0.151716
  35 H :   -0.022224

  Mayer bond orders larger than 0.100000
B(  0-C ,  1-C ) :   0.9552 B(  0-C , 20-H ) :   0.9711 B(  0-C , 21-H ) :   0.9770
B(  0-C , 22-H ) :   0.9756 B(  1-C ,  2-O ) :   0.9064 B(  1-C , 23-H ) :   0.9670
B(  1-C , 24-H ) :   0.9841 B(  2-O ,  3-C ) :   1.2008 B(  3-C ,  4-O ) :   2.1172
B(  3-C ,  5-C ) :   0.8958 B(  5-C ,  6-C ) :   1.7263 B(  5-C , 12-C ) :   0.9517
B(  6-C ,  7-C ) :   0.9535 B(  6-C ,  8-N ) :   1.1192 B(  7-C , 25-H ) :   0.9766
B(  7-C , 26-H ) :   0.9610 B(  7-C , 27-H ) :   0.9781 B(  8-N ,  9-C ) :   1.2027
B(  8-N , 28-H ) :   0.9510 B(  9-C , 10-S ) :   1.6100 B(  9-C , 11-N ) :   1.2804
B( 11-N , 12-C ) :   0.9972 B( 11-N , 29-H ) :   0.9480 B( 12-C , 13-C ) :   0.9328
B( 12-C , 30-H ) :   1.0044 B( 13-C , 14-C ) :   1.3752 B( 13-C , 19-C ) :   1.3504
B( 14-C , 15-C ) :   1.3985 B( 14-C , 31-H ) :   0.9702 B( 15-C , 16-C ) :   1.3632
B( 15-C , 32-H ) :   0.9699 B( 16-C , 17-C ) :   1.3268 B( 16-C , 33-H ) :   0.9834
B( 17-C , 18-O ) :   1.1148 B( 17-C , 19-C ) :   1.3631 B( 18-O , 34-H ) :   0.9782
B( 19-C , 35-H ) :   0.9520

MP2 TOTAL ENERGY:    -1274.325927705 Eh
FINAL SINGLE POINT ENERGY     -1274.325927705261

DIPOLE MOMENT
-------------
                                X             Y             Z
Electronic contribution:      9.25444       5.75170       5.78004
Nuclear contribution   :    -10.62632      -7.43142      -5.45074
                        -----------------------------------------
Total Dipole Moment    :     -1.37187      -1.67972       0.32930
                        -----------------------------------------
Magnitude (a.u.)       :      2.19361
Magnitude (Debye)      :      5.57572

Rotational constants in cm-1:     0.012337     0.009365     0.006664
Rotational constants in MHz :   369.860380   280.762076   199.782430

                             ****ORCA TERMINATED NORMALLY****
TOTAL RUN TIME: 0 days 2 hours 3 minutes 50 seconds 23 msec
