                         Program Version 4.2.0 -  RELEASE  -
|  1> ! ri-mp2 cc-pvtz cc-pvtz/c TightSCF  NoKeepInts
|  2>
|  3> %scf
|  4>   MaxCore 4096
|  5> end
|  6> *xyz  0  1
|  7>     C       14.8897342   14.1085344   15.9562807
|  8>     C       16.4215954   13.9308764   16.0543623
|  9>     O       17.1090647   15.0396334   16.6844294
| 10>     C       16.7365970   16.3584671   16.6183502
| 11>     O       15.9408684   16.7905461   15.8033131
| 12>     C       17.5704188   17.2247621   17.5234786
| 13>     C       17.5032417   18.5807763   17.5042233
| 14>     C       16.6309248   19.4454974   16.6191603
| 15>     N       18.3199783   19.3361499   18.3510705
| 16>     C       19.2816039   18.8220465   19.1788967
| 17>     S       20.2606129   19.7934438   20.0921078
| 18>     N       19.3927866   17.4557960   19.2133246
| 19>     C       18.4968332   16.5108070   18.5221026
| 20>     C       17.7072628   15.7026497   19.5478054
| 21>     C       17.9281646   14.3198778   19.6906543
| 22>     C       17.1993270   13.5728959   20.6314290
| 23>     C       16.2435707   14.2138619   21.4380837
| 24>     C       16.0241558   15.5914701   21.3013977
| 25>     O       15.1027459   16.2133335   22.0794024
| 26>     C       16.7509615   16.3321749   20.3642779
| 27>     H       14.4768704   14.4855538   16.9004038
| 28>     H       14.4117553   13.1459771   15.7385703
| 29>     H       14.6144259   14.7974859   15.1485189
| 30>     H       16.6430112   13.0167448   16.6199801
| 31>     H       16.8168164   13.7926649   15.0395592
| 32>     H       16.8512690   19.2589920   15.5603443
| 33>     H       16.7640501   20.5183291   16.8008788
| 34>     H       15.5703077   19.2123365   16.7782750
| 35>     H       18.2529738   20.3413013   18.3389268
| 36>     H       20.0836886   17.1049152   19.8639562
| 37>     H       19.1341732   15.8211565   17.9511252
| 38>     H       18.6631356   13.8212818   19.0645640
| 39>     H       17.3757786   12.5035671   20.7332380
| 40>     H       15.6782651   13.6414278   22.1660983
| 41>     H       14.7286992   15.5481460   22.6763827
| 42>     H       16.5713320   17.3985203   20.2790279
| 43> *
| 44>
| 45>                          ****END OF INPUT****

CARTESIAN COORDINATES (ANGSTROEM)
---------------------------------
  C     14.889734   14.108534   15.956281
  C     16.421595   13.930876   16.054362
  O     17.109065   15.039633   16.684429
  C     16.736597   16.358467   16.618350
  O     15.940868   16.790546   15.803313
  C     17.570419   17.224762   17.523479
  C     17.503242   18.580776   17.504223
  C     16.630925   19.445497   16.619160
  N     18.319978   19.336150   18.351070
  C     19.281604   18.822046   19.178897
  S     20.260613   19.793444   20.092108
  N     19.392787   17.455796   19.213325
  C     18.496833   16.510807   18.522103
  C     17.707263   15.702650   19.547805
  C     17.928165   14.319878   19.690654
  C     17.199327   13.572896   20.631429
  C     16.243571   14.213862   21.438084
  C     16.024156   15.591470   21.301398
  O     15.102746   16.213334   22.079402
  C     16.750961   16.332175   20.364278
  H     14.476870   14.485554   16.900404
  H     14.411755   13.145977   15.738570
  H     14.614426   14.797486   15.148519
  H     16.643011   13.016745   16.619980
  H     16.816816   13.792665   15.039559
  H     16.851269   19.258992   15.560344
  H     16.764050   20.518329   16.800879
  H     15.570308   19.212336   16.778275
  H     18.252974   20.341301   18.338927
  H     20.083689   17.104915   19.863956
  H     19.134173   15.821156   17.951125
  H     18.663136   13.821282   19.064564
  H     17.375779   12.503567   20.733238
  H     15.678265   13.641428   22.166098
  H     14.728699   15.548146   22.676383
  H     16.571332   17.398520   20.279028

 Total Charge           Charge          ....    0
 Multiplicity           Mult            ....    1
 Number of Electrons    NEL             ....  154
 Basis Dimension        Dim             ....  828

ORBITAL ENERGIES
----------------

  NO   OCC          E(Eh)            E(eV)
   0   2.0000     -91.887827     -2500.3949
   1   2.0000     -20.598936      -560.5255
   2   2.0000     -20.596123      -560.4490
   3   2.0000     -20.540594      -558.9380
   4   2.0000     -15.627809      -425.2543
   5   2.0000     -15.607128      -424.6915
   6   2.0000     -11.396863      -310.1244
   7   2.0000     -11.382884      -309.7440
   8   2.0000     -11.334714      -308.4333
   9   2.0000     -11.313206      -307.8480
  10   2.0000     -11.307257      -307.6861
  11   2.0000     -11.302581      -307.5589
  12   2.0000     -11.258969      -306.3721
  13   2.0000     -11.258152      -306.3499
  14   2.0000     -11.254693      -306.2558
  15   2.0000     -11.251081      -306.1575
  16   2.0000     -11.242577      -305.9261
  17   2.0000     -11.237941      -305.7999
  18   2.0000     -11.237751      -305.7947
  19   2.0000     -11.223045      -305.3946
  20   2.0000      -8.892902      -241.9882
  21   2.0000      -6.574480      -178.9007
  22   2.0000      -6.572473      -178.8461
  23   2.0000      -6.571889      -178.8302
  24   2.0000      -1.444979       -39.3199
  25   2.0000      -1.415781       -38.5254
  26   2.0000      -1.353917       -36.8419
  27   2.0000      -1.338905       -36.4335
  28   2.0000      -1.237400       -33.6714
  29   2.0000      -1.156959       -31.4825
  30   2.0000      -1.119076       -30.4516
  31   2.0000      -1.041897       -28.3515
  32   2.0000      -1.036017       -28.1915
  33   2.0000      -1.014477       -27.6053
  34   2.0000      -0.994532       -27.0626
  35   2.0000      -0.982935       -26.7470
  36   2.0000      -0.921492       -25.0751
  37   2.0000      -0.898162       -24.4402
  38   2.0000      -0.846307       -23.0292
  39   2.0000      -0.837214       -22.7817
  40   2.0000      -0.833519       -22.6812
  41   2.0000      -0.817418       -22.2431
  42   2.0000      -0.746132       -20.3033
  43   2.0000      -0.730731       -19.8842
  44   2.0000      -0.720010       -19.5925
  45   2.0000      -0.695076       -18.9140
  46   2.0000      -0.687305       -18.7025
  47   2.0000      -0.676816       -18.4171
  48   2.0000      -0.670590       -18.2477
  49   2.0000      -0.657223       -17.8839
  50   2.0000      -0.651128       -17.7181
  51   2.0000      -0.642066       -17.4715
  52   2.0000      -0.634680       -17.2705
  53   2.0000      -0.609801       -16.5935
  54   2.0000      -0.605898       -16.4873
  55   2.0000      -0.599512       -16.3136
  56   2.0000      -0.597969       -16.2716
  57   2.0000      -0.576935       -15.6992
  58   2.0000      -0.572480       -15.5780
  59   2.0000      -0.569859       -15.5067
  60   2.0000      -0.560109       -15.2413
  61   2.0000      -0.540575       -14.7098
  62   2.0000      -0.535555       -14.5732
  63   2.0000      -0.524908       -14.2835
  64   2.0000      -0.520022       -14.1505
  65   2.0000      -0.512828       -13.9548
  66   2.0000      -0.502390       -13.6707
  67   2.0000      -0.498822       -13.5736
  68   2.0000      -0.484823       -13.1927
  69   2.0000      -0.462664       -12.5897
  70   2.0000      -0.454034       -12.3549
  71   2.0000      -0.441196       -12.0055
  72   2.0000      -0.352915        -9.6033
  73   2.0000      -0.348812        -9.4917
  74   2.0000      -0.327313        -8.9066
  75   2.0000      -0.320803        -8.7295
  76   2.0000      -0.315054        -8.5731
  77   0.0000       0.077543         2.1101
  78   0.0000       0.106857         2.9077
  79   0.0000       0.125389         3.4120
  80   0.0000       0.133240         3.6256
  81   0.0000       0.137370         3.7380

MULLIKEN ATOMIC CHARGES
-----------------------
   0 C :   -0.304177
   1 C :    0.048665
   2 O :   -0.358837
   3 C :    0.470327
   4 O :   -0.433456
   5 C :   -0.217175
   6 C :    0.149094
   7 C :   -0.273298
   8 N :   -0.119544
   9 C :    0.211741
  10 S :   -0.441871
  11 N :   -0.204848
  12 C :    0.055967
  13 C :    0.064374
  14 C :   -0.185211
  15 C :   -0.131079
  16 C :   -0.278461
  17 C :    0.316519
  18 O :   -0.356649
  19 C :   -0.271223
  20 H :    0.100912
  21 H :    0.094973
  22 H :    0.125622
  23 H :    0.099506
  24 H :    0.095165
  25 H :    0.131542
  26 H :    0.094713
  27 H :    0.130322
  28 H :    0.196813
  29 H :    0.194789
  30 H :    0.149965
  31 H :    0.149818
  32 H :    0.159766
  33 H :    0.129546
  34 H :    0.240618
  35 H :    0.165072
Sum of atomic charges:   -0.0000000

LOEWDIN ATOMIC CHARGES
----------------------
   0 C :    0.103875
   1 C :   -0.009557
   2 O :    0.298374
   3 C :   -0.412572
   4 O :    0.103758
   5 C :   -0.093157
   6 C :   -0.059578
   7 C :    0.130788
   8 N :    0.406298
   9 C :   -0.456737
  10 S :   -0.036989
  11 N :    0.396568
  12 C :   -0.052833
  13 C :   -0.038854
  14 C :    0.014525
  15 C :    0.038762
  16 C :   -0.001632
  17 C :   -0.189872
  18 O :    0.395090
  19 C :    0.031121
  20 H :   -0.026081
  21 H :   -0.028247
  22 H :   -0.025361
  23 H :   -0.026148
  24 H :   -0.029014
  25 H :   -0.004120
  26 H :   -0.023690
  27 H :   -0.005058
  28 H :   -0.057797
  29 H :   -0.064642
  30 H :   -0.012027
  31 H :   -0.030292
  32 H :   -0.021614
  33 H :   -0.035660
  34 H :   -0.153994
  35 H :   -0.023633

  Mayer bond orders larger than 0.100000
B(  0-C ,  1-C ) :   0.9664 B(  0-C , 20-H ) :   0.9760 B(  0-C , 21-H ) :   0.9761
B(  0-C , 22-H ) :   0.9719 B(  1-C ,  2-O ) :   0.9029 B(  1-C , 23-H ) :   0.9820
B(  1-C , 24-H ) :   0.9823 B(  2-O ,  3-C ) :   1.1623 B(  3-C ,  4-O ) :   1.9663
B(  3-C ,  5-C ) :   1.0567 B(  5-C ,  6-C ) :   1.6552 B(  5-C , 12-C ) :   0.9717
B(  6-C ,  7-C ) :   0.9676 B(  6-C ,  8-N ) :   1.1638 B(  7-C , 25-H ) :   0.9599
B(  7-C , 26-H ) :   0.9905 B(  7-C , 27-H ) :   0.9612 B(  8-N ,  9-C ) :   1.1841
B(  8-N , 28-H ) :   0.9480 B(  9-C , 10-S ) :   1.6055 B(  9-C , 11-N ) :   1.3058
B( 11-N , 12-C ) :   0.9879 B( 11-N , 29-H ) :   0.9515 B( 12-C , 13-C ) :   0.9353
B( 12-C , 30-H ) :   1.0032 B( 13-C , 14-C ) :   1.3554 B( 13-C , 19-C ) :   1.3814
B( 14-C , 15-C ) :   1.3915 B( 14-C , 31-H ) :   0.9712 B( 15-C , 16-C ) :   1.3642
B( 15-C , 32-H ) :   0.9708 B( 16-C , 17-C ) :   1.3319 B( 16-C , 33-H ) :   0.9852
B( 17-C , 18-O ) :   1.1097 B( 17-C , 19-C ) :   1.3714 B( 18-O , 34-H ) :   0.9799
B( 19-C , 35-H ) :   0.9586

MP2 TOTAL ENERGY:    -1274.342015855 Eh
FINAL SINGLE POINT ENERGY     -1274.342015855051

DIPOLE MOMENT
-------------
                                X             Y             Z
Electronic contribution:     10.36111       9.89303       8.72680
Nuclear contribution   :    -11.43368     -11.67863      -9.14561
                        -----------------------------------------
Total Dipole Moment    :     -1.07256      -1.78559      -0.41881
                        -----------------------------------------
Magnitude (a.u.)       :      2.12465
Magnitude (Debye)      :      5.40043

Rotational constants in cm-1:     0.011574     0.008688     0.006115
Rotational constants in MHz :   346.988455   260.455323   183.309643

                             ****ORCA TERMINATED NORMALLY****
TOTAL RUN TIME: 0 days 2 hours 51 minutes 29 seconds 886 msec
