                         Program Version 5.0.0 -  RELEASE  -
|  1> ! ri-mp2 cc-pvtz cc-pvtz/c TightSCF NoKeepInts
|  2>
|  3> %scf
|  4>   MaxCore 4096
|  5> end
|  6> *xyz  0  1
|  7>     C       15.0066041   14.3459156   16.8242524
|  8>     C       15.6498276   14.8729029   15.5242509
|  9>     O       16.4303192   16.0442074   15.8281247
| 10>     C       17.5871134   15.9155435   16.5425809
| 11>     O       18.1910337   14.8574302   16.6167901
| 12>     C       17.8512355   17.0569644   17.4795673
| 13>     C       17.3777924   18.3192334   17.3159007
| 14>     C       16.5415782   18.8568347   16.1730059
| 15>     N       17.7169474   19.3130318   18.2397321
| 16>     C       18.6124721   19.1584681   19.2649537
| 17>     S       19.0379284   20.4190769   20.2475762
| 18>     N       19.1381289   17.9026661   19.4346760
| 19>     C       18.7083685   16.6994059   18.6978216
| 20>     C       17.9569037   15.7446777   19.6218293
| 21>     C       18.3829235   14.4118444   19.7699408
| 22>     C       17.6831991   13.5246899   20.6049051
| 23>     C       16.5460335   13.9728843   21.2981488
| 24>     C       16.1161861   15.2985767   21.1504993
| 25>     O       15.0136176   15.7321713   21.8119924
| 26>     C       16.8148206   16.1792661   20.3189410
| 27>     H       15.7694808   13.9914595   17.5296373
| 28>     H       14.3356908   13.5064964   16.6058027
| 29>     H       14.4219126   15.1333046   17.3158320
| 30>     H       16.2748392   14.0951162   15.0642137
| 31>     H       14.8577094   15.1389630   14.8127951
| 32>     H       15.5096999   18.4906628   16.2437771
| 33>     H       16.9481172   18.5347231   15.2062155
| 34>     H       16.5049679   19.9528328   16.1557785
| 35>     H       17.3412996   20.2417471   18.1330621
| 36>     H       19.7711530   17.8081865   20.2184248
| 37>     H       19.6123610   16.1897791   18.3341300
| 38>     H       19.2500485   14.0572809   19.2180766
| 39>     H       18.0195297   12.4943485   20.7055341
| 40>     H       16.0011917   13.2903089   21.9417051
| 41>     H       14.7000984   14.9996650   22.3633279
| 42>     H       16.4658670   17.2013342   20.2201982
| 43> *
| 44>
| 45>                          ****END OF INPUT****

CARTESIAN COORDINATES (ANGSTROEM)
---------------------------------
  C     15.006604   14.345916   16.824252
  C     15.649828   14.872903   15.524251
  O     16.430319   16.044207   15.828125
  C     17.587113   15.915543   16.542581
  O     18.191034   14.857430   16.616790
  C     17.851236   17.056964   17.479567
  C     17.377792   18.319233   17.315901
  C     16.541578   18.856835   16.173006
  N     17.716947   19.313032   18.239732
  C     18.612472   19.158468   19.264954
  S     19.037928   20.419077   20.247576
  N     19.138129   17.902666   19.434676
  C     18.708368   16.699406   18.697822
  C     17.956904   15.744678   19.621829
  C     18.382924   14.411844   19.769941
  C     17.683199   13.524690   20.604905
  C     16.546034   13.972884   21.298149
  C     16.116186   15.298577   21.150499
  O     15.013618   15.732171   21.811992
  C     16.814821   16.179266   20.318941
  H     15.769481   13.991459   17.529637
  H     14.335691   13.506496   16.605803
  H     14.421913   15.133305   17.315832
  H     16.274839   14.095116   15.064214
  H     14.857709   15.138963   14.812795
  H     15.509700   18.490663   16.243777
  H     16.948117   18.534723   15.206215
  H     16.504968   19.952833   16.155779
  H     17.341300   20.241747   18.133062
  H     19.771153   17.808187   20.218425
  H     19.612361   16.189779   18.334130
  H     19.250048   14.057281   19.218077
  H     18.019530   12.494348   20.705534
  H     16.001192   13.290309   21.941705
  H     14.700098   14.999665   22.363328
  H     16.465867   17.201334   20.220198

 Total Charge           Charge          ....    0
 Multiplicity           Mult            ....    1
 Number of Electrons    NEL             ....  154
 Basis Dimension        Dim             ....  828

ORBITAL ENERGIES
----------------

  NO   OCC          E(Eh)            E(eV)
   0   2.0000     -91.888173     -2500.4043
   1   2.0000     -20.598976      -560.5266
   2   2.0000     -20.593508      -560.3779
   3   2.0000     -20.547553      -559.1274
   4   2.0000     -15.628083      -425.2618
   5   2.0000     -15.607325      -424.6969
   6   2.0000     -11.395855      -310.0970
   7   2.0000     -11.383382      -309.7576
   8   2.0000     -11.334933      -308.4392
   9   2.0000     -11.309526      -307.7478
  10   2.0000     -11.306720      -307.6715
  11   2.0000     -11.299211      -307.4672
  12   2.0000     -11.259957      -306.3990
  13   2.0000     -11.258777      -306.3669
  14   2.0000     -11.255136      -306.2678
  15   2.0000     -11.249776      -306.1220
  16   2.0000     -11.239423      -305.8402
  17   2.0000     -11.235285      -305.7276
  18   2.0000     -11.232535      -305.6528
  19   2.0000     -11.224806      -305.4425
  20   2.0000      -8.893240      -241.9974
  21   2.0000      -6.574819      -178.9099
  22   2.0000      -6.572810      -178.8553
  23   2.0000      -6.572226      -178.8394
  24   2.0000      -1.453024       -39.5388
  25   2.0000      -1.413263       -38.4568
  26   2.0000      -1.356716       -36.9181
  27   2.0000      -1.339164       -36.4405
  28   2.0000      -1.237181       -33.6654
  29   2.0000      -1.154105       -31.4048
  30   2.0000      -1.120343       -30.4861
  31   2.0000      -1.042753       -28.3747
  32   2.0000      -1.032582       -28.0980
  33   2.0000      -1.011303       -27.5189
  34   2.0000      -0.998066       -27.1588
  35   2.0000      -0.983597       -26.7650
  36   2.0000      -0.922242       -25.0955
  37   2.0000      -0.893662       -24.3178
  38   2.0000      -0.847582       -23.0639
  39   2.0000      -0.836131       -22.7523
  40   2.0000      -0.829829       -22.5808
  41   2.0000      -0.814940       -22.1756
  42   2.0000      -0.752024       -20.4636
  43   2.0000      -0.736045       -20.0288
  44   2.0000      -0.726174       -19.7602
  45   2.0000      -0.692050       -18.8316
  46   2.0000      -0.685653       -18.6576
  47   2.0000      -0.678666       -18.4675
  48   2.0000      -0.672066       -18.2878
  49   2.0000      -0.657105       -17.8807
  50   2.0000      -0.652145       -17.7458
  51   2.0000      -0.644937       -17.5496
  52   2.0000      -0.632756       -17.2182
  53   2.0000      -0.611161       -16.6305
  54   2.0000      -0.601196       -16.3594
  55   2.0000      -0.601167       -16.3586
  56   2.0000      -0.596956       -16.2440
  57   2.0000      -0.579457       -15.7678
  58   2.0000      -0.575061       -15.6482
  59   2.0000      -0.563349       -15.3295
  60   2.0000      -0.555969       -15.1287
  61   2.0000      -0.548365       -14.9218
  62   2.0000      -0.533707       -14.5229
  63   2.0000      -0.531386       -14.4597
  64   2.0000      -0.518577       -14.1112
  65   2.0000      -0.509728       -13.8704
  66   2.0000      -0.497869       -13.5477
  67   2.0000      -0.493885       -13.4393
  68   2.0000      -0.482254       -13.1228
  69   2.0000      -0.464005       -12.6262
  70   2.0000      -0.459855       -12.5133
  71   2.0000      -0.450736       -12.2652
  72   2.0000      -0.353919        -9.6306
  73   2.0000      -0.345815        -9.4101
  74   2.0000      -0.327401        -8.9090
  75   2.0000      -0.316797        -8.6205
  76   2.0000      -0.315021        -8.5721
  77   0.0000       0.075584         2.0568
  78   0.0000       0.109973         2.9925
  79   0.0000       0.120217         3.2713
  80   0.0000       0.134194         3.6516
  81   0.0000       0.143243         3.8978

MULLIKEN ATOMIC CHARGES
-----------------------
   0 C :   -0.302270
   1 C :    0.032859
   2 O :   -0.359007
   3 C :    0.431701
   4 O :   -0.422620
   5 C :   -0.163051
   6 C :    0.141808
   7 C :   -0.283330
   8 N :   -0.123618
   9 C :    0.204600
  10 S :   -0.440017
  11 N :   -0.200720
  12 C :    0.050133
  13 C :    0.046742
  14 C :   -0.162999
  15 C :   -0.134229
  16 C :   -0.280451
  17 C :    0.313513
  18 O :   -0.359082
  19 C :   -0.273010
  20 H :    0.125485
  21 H :    0.097587
  22 H :    0.094970
  23 H :    0.109268
  24 H :    0.106825
  25 H :    0.126701
  26 H :    0.125689
  27 H :    0.101684
  28 H :    0.196956
  29 H :    0.194275
  30 H :    0.153459
  31 H :    0.154363
  32 H :    0.160208
  33 H :    0.129348
  34 H :    0.240357
  35 H :    0.165871
Sum of atomic charges:   -0.0000000

LOEWDIN ATOMIC CHARGES
----------------------
   0 C :    0.106173
   1 C :   -0.017888
   2 O :    0.301211
   3 C :   -0.414271
   4 O :    0.107868
   5 C :   -0.091253
   6 C :   -0.068942
   7 C :    0.125605
   8 N :    0.404493
   9 C :   -0.457782
  10 S :   -0.036439
  11 N :    0.397630
  12 C :   -0.045832
  13 C :   -0.040113
  14 C :    0.021487
  15 C :    0.040374
  16 C :   -0.002295
  17 C :   -0.192738
  18 O :    0.393441
  19 C :    0.029429
  20 H :   -0.022443
  21 H :   -0.026651
  22 H :   -0.029055
  23 H :   -0.028085
  24 H :   -0.025957
  25 H :   -0.009958
  26 H :   -0.008169
  27 H :   -0.020638
  28 H :   -0.058978
  29 H :   -0.063808
  30 H :   -0.005125
  31 H :   -0.025126
  32 H :   -0.020907
  33 H :   -0.036038
  34 H :   -0.154597
  35 H :   -0.024624

  Mayer bond orders larger than 0.100000
B(  0-C ,  1-C ) :   0.9615 B(  0-C , 20-H ) :   0.9701 B(  0-C , 21-H ) :   0.9764
B(  0-C , 22-H ) :   0.9766 B(  1-C ,  2-O ) :   0.8941 B(  1-C , 23-H ) :   0.9792
B(  1-C , 24-H ) :   0.9842 B(  2-O ,  3-C ) :   1.1337 B(  3-C ,  4-O ) :   1.9947
B(  3-C ,  5-C ) :   1.0403 B(  5-C ,  6-C ) :   1.6531 B(  5-C , 12-C ) :   0.9663
B(  6-C ,  7-C ) :   0.9543 B(  6-C ,  8-N ) :   1.1449 B(  7-C , 25-H ) :   0.9630
B(  7-C , 26-H ) :   0.9676 B(  7-C , 27-H ) :   0.9900 B(  8-N ,  9-C ) :   1.1817
B(  8-N , 28-H ) :   0.9492 B(  9-C , 10-S ) :   1.6098 B(  9-C , 11-N ) :   1.3027
B( 11-N , 12-C ) :   0.9929 B( 11-N , 29-H ) :   0.9516 B( 12-C , 13-C ) :   0.9428
B( 12-C , 30-H ) :   0.9994 B( 13-C , 14-C ) :   1.3764 B( 13-C , 19-C ) :   1.3710
B( 14-C , 15-C ) :   1.3937 B( 14-C , 31-H ) :   0.9648 B( 15-C , 16-C ) :   1.3623
B( 15-C , 32-H ) :   0.9712 B( 16-C , 17-C ) :   1.3315 B( 16-C , 33-H ) :   0.9855
B( 17-C , 18-O ) :   1.1084 B( 17-C , 19-C ) :   1.3763 B( 18-O , 34-H ) :   0.9804
B( 19-C , 35-H ) :   0.9580

MP2 TOTAL ENERGY:    -1274.345163141 Eh
FINAL SINGLE POINT ENERGY     -1274.345163140801

DIPOLE MOMENT
-------------
                                X             Y             Z
Electronic contribution:     10.19392       9.75043       7.67625
Nuclear contribution   :    -11.61861     -11.03509      -8.64740
                        -----------------------------------------
Total Dipole Moment    :     -1.42469      -1.28467      -0.97115
                        -----------------------------------------
Magnitude (a.u.)       :      2.15017
Magnitude (Debye)      :      5.46531

Rotational constants in cm-1:     0.011553     0.009216     0.006394
Rotational constants in MHz :   346.356368   276.299109   191.687535

                             ****ORCA TERMINATED NORMALLY****
TOTAL RUN TIME: 0 days 2 hours 2 minutes 18 seconds 426 msec
