                         Program Version 4.2.0 -  RELEASE  -
|  1> ! ri-mp2 cc-pvtz cc-pvtz/c TightSCF  NoKeepInts
|  2>
|  3> %scf
|  4>   MaxCore 4096
|  5> end
|  6> *xyz  0  1
|  7>     C       14.9215060   16.2318352   17.3294735
|  8>     C       15.5929328   14.8782218   17.0183769
|  9>     O       16.8506466   14.9223460   16.2927426
| 10>     C       17.9621945   15.7196370   16.4467082
| 11>     O       19.0434284   15.3242996   16.0537365
| 12>     C       17.8942302   16.8851952   17.3658430
| 13>     C       17.4616376   18.0920467   16.9388903
| 14>     C       16.9647469   18.4318686   15.5505127
| 15>     N       17.5071517   19.1910886   17.7987066
| 16>     C       18.0190000   19.1641305   19.0704323
| 17>     S       18.0252719   20.5084373   20.0331801
| 18>     N       18.5220020   17.9636753   19.5110589
| 19>     C       18.5289764   16.7010279   18.7444014
| 20>     C       17.8894448   15.5517087   19.5197576
| 21>     C       18.3968677   14.2468935   19.3757515
| 22>     C       17.8117561   13.1695151   20.0611646
| 23>     C       16.7083699   13.3964874   20.9007430
| 24>     C       16.1990567   14.6933566   21.0483271
| 25>     O       15.1267553   14.9148003   21.8489697
| 26>     C       16.7825389   15.7642541   20.3637387
| 27>     H       15.4233946   16.7752659   18.1350654
| 28>     H       13.8938534   16.0557628   17.6703481
| 29>     H       14.8612253   16.8589128   16.4339973
| 30>     H       15.7527996   14.3507991   17.9678499
| 31>     H       14.8899449   14.2681798   16.4365804
| 32>     H       16.7333807   17.5370894   14.9596663
| 33>     H       17.7275058   18.9952800   14.9980702
| 34>     H       16.0535658   19.0413601   15.5892523
| 35>     H       17.1653936   20.0864245   17.4863466
| 36>     H       18.8795848   17.9726948   20.4581071
| 37>     H       19.5820479   16.4314799   18.5743727
| 38>     H       19.2429938   14.0650233   18.7156734
| 39>     H       18.2127119   12.1647577   19.9365770
| 40>     H       16.2527173   12.5664779   21.4309284
| 41>     H       14.9038772   14.0745492   22.2779219
| 42>     H       16.3634891   16.7571174   20.4907277
| 43> *
| 44>
| 45>                          ****END OF INPUT****

CARTESIAN COORDINATES (ANGSTROEM)
---------------------------------
  C     14.921506   16.231835   17.329473
  C     15.592933   14.878222   17.018377
  O     16.850647   14.922346   16.292743
  C     17.962194   15.719637   16.446708
  O     19.043428   15.324300   16.053736
  C     17.894230   16.885195   17.365843
  C     17.461638   18.092047   16.938890
  C     16.964747   18.431869   15.550513
  N     17.507152   19.191089   17.798707
  C     18.019000   19.164130   19.070432
  S     18.025272   20.508437   20.033180
  N     18.522002   17.963675   19.511059
  C     18.528976   16.701028   18.744401
  C     17.889445   15.551709   19.519758
  C     18.396868   14.246894   19.375751
  C     17.811756   13.169515   20.061165
  C     16.708370   13.396487   20.900743
  C     16.199057   14.693357   21.048327
  O     15.126755   14.914800   21.848970
  C     16.782539   15.764254   20.363739
  H     15.423395   16.775266   18.135065
  H     13.893853   16.055763   17.670348
  H     14.861225   16.858913   16.433997
  H     15.752800   14.350799   17.967850
  H     14.889945   14.268180   16.436580
  H     16.733381   17.537089   14.959666
  H     17.727506   18.995280   14.998070
  H     16.053566   19.041360   15.589252
  H     17.165394   20.086424   17.486347
  H     18.879585   17.972695   20.458107
  H     19.582048   16.431480   18.574373
  H     19.242994   14.065023   18.715673
  H     18.212712   12.164758   19.936577
  H     16.252717   12.566478   21.430928
  H     14.903877   14.074549   22.277922
  H     16.363489   16.757117   20.490728

 Total Charge           Charge          ....    0
 Multiplicity           Mult            ....    1
 Number of Electrons    NEL             ....  154
 Basis Dimension        Dim             ....  828

ORBITAL ENERGIES
----------------

  NO   OCC          E(Eh)            E(eV)
   0   2.0000     -91.889581     -2500.4426
   1   2.0000     -20.603725      -560.6559
   2   2.0000     -20.596004      -560.4457
   3   2.0000     -20.550331      -559.2029
   4   2.0000     -15.624764      -425.1714
   5   2.0000     -15.612716      -424.8436
   6   2.0000     -11.398989      -310.1823
   7   2.0000     -11.386795      -309.8504
   8   2.0000     -11.322902      -308.1118
   9   2.0000     -11.321406      -308.0711
  10   2.0000     -11.318262      -307.9856
  11   2.0000     -11.306874      -307.6757
  12   2.0000     -11.269364      -306.6550
  13   2.0000     -11.265052      -306.5376
  14   2.0000     -11.261723      -306.4471
  15   2.0000     -11.260739      -306.4203
  16   2.0000     -11.250633      -306.1453
  17   2.0000     -11.246550      -306.0342
  18   2.0000     -11.243985      -305.9644
  19   2.0000     -11.234965      -305.7189
  20   2.0000      -8.894707      -242.0373
  21   2.0000      -6.576300      -178.9502
  22   2.0000      -6.574268      -178.8949
  23   2.0000      -6.573698      -178.8794
  24   2.0000      -1.441869       -39.2353
  25   2.0000      -1.423551       -38.7368
  26   2.0000      -1.355201       -36.8769
  27   2.0000      -1.338690       -36.4276
  28   2.0000      -1.239770       -33.7359
  29   2.0000      -1.165357       -31.7110
  30   2.0000      -1.125856       -30.6361
  31   2.0000      -1.051148       -28.6032
  32   2.0000      -1.038897       -28.2698
  33   2.0000      -1.023332       -27.8463
  34   2.0000      -1.005489       -27.3608
  35   2.0000      -0.990572       -26.9548
  36   2.0000      -0.929090       -25.2818
  37   2.0000      -0.899411       -24.4742
  38   2.0000      -0.852579       -23.1999
  39   2.0000      -0.843369       -22.9492
  40   2.0000      -0.840167       -22.8621
  41   2.0000      -0.831624       -22.6296
  42   2.0000      -0.749262       -20.3885
  43   2.0000      -0.736616       -20.0444
  44   2.0000      -0.727724       -19.8024
  45   2.0000      -0.701469       -19.0880
  46   2.0000      -0.689748       -18.7690
  47   2.0000      -0.678021       -18.4499
  48   2.0000      -0.675989       -18.3946
  49   2.0000      -0.662063       -18.0156
  50   2.0000      -0.656787       -17.8721
  51   2.0000      -0.650114       -17.6905
  52   2.0000      -0.639735       -17.4081
  53   2.0000      -0.615337       -16.7442
  54   2.0000      -0.609191       -16.5769
  55   2.0000      -0.608166       -16.5491
  56   2.0000      -0.605386       -16.4734
  57   2.0000      -0.588966       -16.0266
  58   2.0000      -0.582533       -15.8515
  59   2.0000      -0.579177       -15.7602
  60   2.0000      -0.568039       -15.4571
  61   2.0000      -0.556470       -15.1423
  62   2.0000      -0.540633       -14.7114
  63   2.0000      -0.533840       -14.5265
  64   2.0000      -0.522222       -14.2104
  65   2.0000      -0.514809       -14.0087
  66   2.0000      -0.504806       -13.7365
  67   2.0000      -0.501282       -13.6406
  68   2.0000      -0.489710       -13.3257
  69   2.0000      -0.466140       -12.6843
  70   2.0000      -0.452634       -12.3168
  71   2.0000      -0.447882       -12.1875
  72   2.0000      -0.356970        -9.7136
  73   2.0000      -0.352093        -9.5809
  74   2.0000      -0.329983        -8.9793
  75   2.0000      -0.328832        -8.9480
  76   2.0000      -0.317909        -8.6508
  77   0.0000       0.092610         2.5200
  78   0.0000       0.102653         2.7933
  79   0.0000       0.119008         3.2384
  80   0.0000       0.124611         3.3908
  81   0.0000       0.127233         3.4622

MULLIKEN ATOMIC CHARGES
-----------------------
   0 C :   -0.343472
   1 C :    0.043068
   2 O :   -0.334377
   3 C :    0.387071
   4 O :   -0.377824
   5 C :   -0.174689
   6 C :    0.133378
   7 C :   -0.326511
   8 N :   -0.139555
   9 C :    0.214273
  10 S :   -0.443828
  11 N :   -0.233408
  12 C :    0.111726
  13 C :   -0.006810
  14 C :   -0.204482
  15 C :   -0.130395
  16 C :   -0.278044
  17 C :    0.322295
  18 O :   -0.356235
  19 C :   -0.281083
  20 H :    0.116329
  21 H :    0.126753
  22 H :    0.103467
  23 H :    0.101654
  24 H :    0.126411
  25 H :    0.117837
  26 H :    0.150573
  27 H :    0.112159
  28 H :    0.195952
  29 H :    0.204044
  30 H :    0.164790
  31 H :    0.169100
  32 H :    0.166035
  33 H :    0.134203
  34 H :    0.242356
  35 H :    0.187240
Sum of atomic charges:   -0.0000000

LOEWDIN ATOMIC CHARGES
----------------------
   0 C :    0.103053
   1 C :   -0.011063
   2 O :    0.292148
   3 C :   -0.418642
   4 O :    0.126071
   5 C :   -0.080890
   6 C :   -0.103818
   7 C :    0.124155
   8 N :    0.402240
   9 C :   -0.454292
  10 S :   -0.039520
  11 N :    0.397480
  12 C :   -0.044876
  13 C :   -0.043292
  14 C :    0.021865
  15 C :    0.045455
  16 C :   -0.000722
  17 C :   -0.194147
  18 O :    0.396571
  19 C :    0.026866
  20 H :   -0.034615
  21 H :   -0.020028
  22 H :   -0.030802
  23 H :   -0.027840
  24 H :   -0.019986
  25 H :   -0.010304
  26 H :   -0.007617
  27 H :   -0.017873
  28 H :   -0.058060
  29 H :   -0.064693
  30 H :   -0.003417
  31 H :   -0.021114
  32 H :   -0.017320
  33 H :   -0.033789
  34 H :   -0.152200
  35 H :   -0.024981

  Mayer bond orders larger than 0.100000
B(  0-C ,  1-C ) :   0.9582 B(  0-C , 20-H ) :   0.9682 B(  0-C , 21-H ) :   0.9775
B(  0-C , 22-H ) :   0.9767 B(  1-C ,  2-O ) :   0.9056 B(  1-C , 23-H ) :   0.9689
B(  1-C , 24-H ) :   0.9822 B(  2-O ,  3-C ) :   1.1832 B(  3-C ,  4-O ) :   2.1050
B(  3-C ,  5-C ) :   0.9151 B(  5-C ,  6-C ) :   1.7078 B(  5-C , 12-C ) :   0.9456
B(  6-C ,  7-C ) :   0.9508 B(  6-C ,  8-N ) :   1.1117 B(  7-C , 25-H ) :   0.9799
B(  7-C , 26-H ) :   0.9651 B(  7-C , 27-H ) :   0.9719 B(  8-N ,  9-C ) :   1.2048
B(  8-N , 28-H ) :   0.9524 B(  9-C , 10-S ) :   1.6053 B(  9-C , 11-N ) :   1.2830
B( 11-N , 12-C ) :   0.9941 B( 11-N , 29-H ) :   0.9452 B( 12-C , 13-C ) :   0.9426
B( 12-C , 30-H ) :   0.9977 B( 13-C , 14-C ) :   1.3887 B( 13-C , 19-C ) :   1.3382
B( 14-C , 15-C ) :   1.4021 B( 14-C , 31-H ) :   0.9628 B( 15-C , 16-C ) :   1.3564
B( 15-C , 32-H ) :   0.9693 B( 16-C , 17-C ) :   1.3314 B( 16-C , 33-H ) :   0.9843
B( 17-C , 18-O ) :   1.1118 B( 17-C , 19-C ) :   1.3631 B( 18-O , 34-H ) :   0.9784
B( 19-C , 35-H ) :   0.9504

MP2 TOTAL ENERGY:    -1274.324872563 Eh
FINAL SINGLE POINT ENERGY     -1274.324872563012

DIPOLE MOMENT
-------------
                                X             Y             Z
Electronic contribution:      9.03137       5.15259       5.92511
Nuclear contribution   :    -10.49613      -6.51938      -6.12737
                        -----------------------------------------
Total Dipole Moment    :     -1.46476      -1.36679      -0.20226
                        -----------------------------------------
Magnitude (a.u.)       :      2.01359
Magnitude (Debye)      :      5.11814

Rotational constants in cm-1:     0.012770     0.009163     0.006842
Rotational constants in MHz :   382.829318   274.692674   205.122063

                             ****ORCA TERMINATED NORMALLY****
TOTAL RUN TIME: 0 days 1 hours 47 minutes 27 seconds 74 msec
