                         Program Version 4.2.0 -  RELEASE  -
|  1> ! ri-mp2 cc-pvtz cc-pvtz/c TightSCF  NoKeepInts
|  2>
|  3> %scf
|  4>   MaxCore 4096
|  5> end
|  6> *xyz  0  1
|  7>     C       14.2631764   15.0077569   16.1230877
|  8>     C       15.6590654   14.9212867   16.7619032
|  9>     O       16.5477083   15.7306542   15.9756959
| 10>     C       17.8165964   15.8679225   16.4494433
| 11>     O       18.5444314   14.8936149   16.5296995
| 12>     C       17.9297061   17.0023894   17.4219479
| 13>     C       17.3024026   18.1932438   17.2573153
| 14>     C       16.4311256   18.6161142   16.0933301
| 15>     N       17.4959965   19.2156180   18.1909499
| 16>     C       18.3992749   19.1712070   19.2208371
| 17>     S       18.6510234   20.4689846   20.2144193
| 18>     N       19.0831130   17.9924020   19.3869105
| 19>     C       18.8100026   16.7447700   18.6476264
| 20>     C       18.1615772   15.7077596   19.5611789
| 21>     C       18.7005963   14.4122740   19.6641762
| 22>     C       18.0954939   13.4474712   20.4867855
| 23>     C       16.9393089   13.7792017   21.2131977
| 24>     C       16.3965787   15.0669903   21.1106178
| 25>     O       15.2734114   15.3875738   21.8007883
| 26>     C       17.0005704   16.0249081   20.2903106
| 27>     H       13.5464188   14.3946990   16.6829271
| 28>     H       14.2900383   14.6448874   15.0879353
| 29>     H       13.9004962   16.0427481   16.1191125
| 30>     H       15.6156276   15.2866182   17.7968613
| 31>     H       16.0052928   13.8786102   16.7751513
| 32>     H       15.4163042   18.2147400   16.2030417
| 33>     H       16.8358305   18.2462272   15.1428116
| 34>     H       16.3537969   19.7066198   16.0039580
| 35>     H       17.0051536   20.0892536   18.0845397
| 36>     H       19.7227963   17.9779586   20.1710219
| 37>     H       19.7720262   16.3449960   18.2952100
| 38>     H       19.5832198   14.1468277   19.0868356
| 39>     H       18.5200033   12.4471385   20.5525947
| 40>     H       16.4675701   13.0359988   21.8475110
| 41>     H       15.0469516   14.6265508   22.3566194
| 42>     H       16.5643144   17.0159832   20.2276477
| 43> *
| 44>
| 45>                          ****END OF INPUT****

CARTESIAN COORDINATES (ANGSTROEM)
---------------------------------
  C     14.263176   15.007757   16.123088
  C     15.659065   14.921287   16.761903
  O     16.547708   15.730654   15.975696
  C     17.816596   15.867923   16.449443
  O     18.544431   14.893615   16.529699
  C     17.929706   17.002389   17.421948
  C     17.302403   18.193244   17.257315
  C     16.431126   18.616114   16.093330
  N     17.495997   19.215618   18.190950
  C     18.399275   19.171207   19.220837
  S     18.651023   20.468985   20.214419
  N     19.083113   17.992402   19.386910
  C     18.810003   16.744770   18.647626
  C     18.161577   15.707760   19.561179
  C     18.700596   14.412274   19.664176
  C     18.095494   13.447471   20.486785
  C     16.939309   13.779202   21.213198
  C     16.396579   15.066990   21.110618
  O     15.273411   15.387574   21.800788
  C     17.000570   16.024908   20.290311
  H     13.546419   14.394699   16.682927
  H     14.290038   14.644887   15.087935
  H     13.900496   16.042748   16.119112
  H     15.615628   15.286618   17.796861
  H     16.005293   13.878610   16.775151
  H     15.416304   18.214740   16.203042
  H     16.835831   18.246227   15.142812
  H     16.353797   19.706620   16.003958
  H     17.005154   20.089254   18.084540
  H     19.722796   17.977959   20.171022
  H     19.772026   16.344996   18.295210
  H     19.583220   14.146828   19.086836
  H     18.520003   12.447138   20.552595
  H     16.467570   13.035999   21.847511
  H     15.046952   14.626551   22.356619
  H     16.564314   17.015983   20.227648

 Total Charge           Charge          ....    0
 Multiplicity           Mult            ....    1
 Number of Electrons    NEL             ....  154
 Basis Dimension        Dim             ....  828

ORBITAL ENERGIES
----------------

  NO   OCC          E(Eh)            E(eV)
   0   2.0000     -91.889855     -2500.4501
   1   2.0000     -20.596966      -560.4719
   2   2.0000     -20.582123      -560.0680
   3   2.0000     -20.556983      -559.3840
   4   2.0000     -15.629596      -425.3029
   5   2.0000     -15.609211      -424.7482
   6   2.0000     -11.393450      -310.0315
   7   2.0000     -11.385344      -309.8110
   8   2.0000     -11.334407      -308.4249
   9   2.0000     -11.313164      -307.8468
  10   2.0000     -11.309500      -307.7472
  11   2.0000     -11.298141      -307.4381
  12   2.0000     -11.261772      -306.4484
  13   2.0000     -11.260183      -306.4052
  14   2.0000     -11.258639      -306.3631
  15   2.0000     -11.253147      -306.2137
  16   2.0000     -11.242796      -305.9320
  17   2.0000     -11.238663      -305.8196
  18   2.0000     -11.235703      -305.7390
  19   2.0000     -11.232903      -305.6628
  20   2.0000      -8.894922      -242.0431
  21   2.0000      -6.576498      -178.9556
  22   2.0000      -6.574490      -178.9010
  23   2.0000      -6.573903      -178.8850
  24   2.0000      -1.453586       -39.5541
  25   2.0000      -1.416782       -38.5526
  26   2.0000      -1.357179       -36.9307
  27   2.0000      -1.340634       -36.4805
  28   2.0000      -1.238790       -33.7092
  29   2.0000      -1.157224       -31.4897
  30   2.0000      -1.122167       -30.5357
  31   2.0000      -1.045557       -28.4511
  32   2.0000      -1.035562       -28.1791
  33   2.0000      -1.014798       -27.6141
  34   2.0000      -1.000463       -27.2240
  35   2.0000      -0.986225       -26.8366
  36   2.0000      -0.924319       -25.1520
  37   2.0000      -0.879870       -23.9425
  38   2.0000      -0.849677       -23.1209
  39   2.0000      -0.840214       -22.8634
  40   2.0000      -0.833250       -22.6739
  41   2.0000      -0.829311       -22.5667
  42   2.0000      -0.757377       -20.6093
  43   2.0000      -0.736003       -20.0276
  44   2.0000      -0.729258       -19.8441
  45   2.0000      -0.694980       -18.9114
  46   2.0000      -0.686922       -18.6921
  47   2.0000      -0.681857       -18.5543
  48   2.0000      -0.675450       -18.3799
  49   2.0000      -0.656744       -17.8709
  50   2.0000      -0.650930       -17.7127
  51   2.0000      -0.642375       -17.4799
  52   2.0000      -0.631193       -17.1756
  53   2.0000      -0.623324       -16.9615
  54   2.0000      -0.605553       -16.4779
  55   2.0000      -0.603986       -16.4353
  56   2.0000      -0.600547       -16.3417
  57   2.0000      -0.579169       -15.7600
  58   2.0000      -0.576138       -15.6775
  59   2.0000      -0.564964       -15.3735
  60   2.0000      -0.558047       -15.1852
  61   2.0000      -0.548696       -14.9308
  62   2.0000      -0.539068       -14.6688
  63   2.0000      -0.522770       -14.2253
  64   2.0000      -0.521530       -14.1916
  65   2.0000      -0.513284       -13.9672
  66   2.0000      -0.503761       -13.7080
  67   2.0000      -0.498419       -13.5627
  68   2.0000      -0.481965       -13.1149
  69   2.0000      -0.465672       -12.6716
  70   2.0000      -0.458003       -12.4629
  71   2.0000      -0.453084       -12.3290
  72   2.0000      -0.355760        -9.6807
  73   2.0000      -0.348721        -9.4892
  74   2.0000      -0.329117        -8.9557
  75   2.0000      -0.320355        -8.7173
  76   2.0000      -0.316937        -8.6243
  77   0.0000       0.069266         1.8848
  78   0.0000       0.103372         2.8129
  79   0.0000       0.118632         3.2281
  80   0.0000       0.131459         3.5772
  81   0.0000       0.134586         3.6623

MULLIKEN ATOMIC CHARGES
-----------------------
   0 C :   -0.267388
   1 C :    0.034433
   2 O :   -0.370878
   3 C :    0.473044
   4 O :   -0.392152
   5 C :   -0.223222
   6 C :    0.138985
   7 C :   -0.282897
   8 N :   -0.123692
   9 C :    0.199301
  10 S :   -0.437899
  11 N :   -0.201445
  12 C :    0.056286
  13 C :    0.051007
  14 C :   -0.164000
  15 C :   -0.133847
  16 C :   -0.278469
  17 C :    0.323554
  18 O :   -0.360272
  19 C :   -0.305792
  20 H :    0.096028
  21 H :    0.103840
  22 H :    0.088805
  23 H :    0.093957
  24 H :    0.112291
  25 H :    0.122130
  26 H :    0.126127
  27 H :    0.108255
  28 H :    0.197433
  29 H :    0.194277
  30 H :    0.156758
  31 H :    0.159154
  32 H :    0.161642
  33 H :    0.131133
  34 H :    0.241112
  35 H :    0.172396
Sum of atomic charges:   -0.0000000

LOEWDIN ATOMIC CHARGES
----------------------
   0 C :    0.110208
   1 C :   -0.018974
   2 O :    0.288257
   3 C :   -0.419122
   4 O :    0.134330
   5 C :   -0.095334
   6 C :   -0.075407
   7 C :    0.126734
   8 N :    0.404292
   9 C :   -0.457853
  10 S :   -0.035119
  11 N :    0.397016
  12 C :   -0.045405
  13 C :   -0.041277
  14 C :    0.022141
  15 C :    0.042789
  16 C :   -0.001821
  17 C :   -0.195145
  18 O :    0.393603
  19 C :    0.027163
  20 H :   -0.023423
  21 H :   -0.024310
  22 H :   -0.031489
  23 H :   -0.033520
  24 H :   -0.026229
  25 H :   -0.011555
  26 H :   -0.007012
  27 H :   -0.018852
  28 H :   -0.058519
  29 H :   -0.064021
  30 H :   -0.004083
  31 H :   -0.023979
  32 H :   -0.019922
  33 H :   -0.035416
  34 H :   -0.153680
  35 H :   -0.025067

  Mayer bond orders larger than 0.100000
B(  0-C ,  1-C ) :   0.9778 B(  0-C , 20-H ) :   0.9764 B(  0-C , 21-H ) :   0.9784
B(  0-C , 22-H ) :   0.9785 B(  1-C ,  2-O ) :   0.8923 B(  1-C , 23-H ) :   0.9630
B(  1-C , 24-H ) :   0.9801 B(  2-O ,  3-C ) :   1.0956 B(  3-C ,  4-O ) :   2.0417
B(  3-C ,  5-C ) :   1.0118 B(  5-C ,  6-C ) :   1.6652 B(  5-C , 12-C ) :   0.9605
B(  6-C ,  7-C ) :   0.9537 B(  6-C ,  8-N ) :   1.1372 B(  7-C , 25-H ) :   0.9635
B(  7-C , 26-H ) :   0.9702 B(  7-C , 27-H ) :   0.9873 B(  8-N ,  9-C ) :   1.1833
B(  8-N , 28-H ) :   0.9498 B(  9-C , 10-S ) :   1.6135 B(  9-C , 11-N ) :   1.2987
B( 11-N , 12-C ) :   0.9930 B( 11-N , 29-H ) :   0.9519 B( 12-C , 13-C ) :   0.9453
B( 12-C , 30-H ) :   0.9987 B( 13-C , 14-C ) :   1.3816 B( 13-C , 19-C ) :   1.3519
B( 14-C , 15-C ) :   1.3947 B( 14-C , 31-H ) :   0.9622 B( 15-C , 16-C ) :   1.3644
B( 15-C , 32-H ) :   0.9706 B( 16-C , 17-C ) :   1.3313 B( 16-C , 33-H ) :   0.9846
B( 17-C , 18-O ) :   1.1095 B( 17-C , 19-C ) :   1.3662 B( 18-O , 34-H ) :   0.9798
B( 19-C , 35-H ) :   0.9596

MP2 TOTAL ENERGY:    -1274.323477298 Eh
FINAL SINGLE POINT ENERGY     -1274.323477297852

DIPOLE MOMENT
-------------
                                X             Y             Z
Electronic contribution:     11.73819       8.28029       7.56862
Nuclear contribution   :    -13.03254      -9.50440      -8.06284
                        -----------------------------------------
Total Dipole Moment    :     -1.29435      -1.22411      -0.49422
                        -----------------------------------------
Magnitude (a.u.)       :      1.84880
Magnitude (Debye)      :      4.69927

Rotational constants in cm-1:     0.011305     0.009297     0.006696
Rotational constants in MHz :   338.921600   278.713200   200.741755

                             ****ORCA TERMINATED NORMALLY****
TOTAL RUN TIME: 0 days 1 hours 40 minutes 43 seconds 516 msec
