                         Program Version 4.2.0 -  RELEASE  -
|  1> ! ri-mp2 cc-pvtz cc-pvtz/c TightSCF  NoKeepInts
|  2>
|  3> %scf
|  4>   MaxCore 4096
|  5> end
|  6> *xyz  0  1
|  7>     C       14.5766777   15.8735659   17.0633164
|  8>     C       15.7454482   14.9054785   16.8098562
|  9>     O       16.6768121   15.4902888   15.8770230
| 10>     C       17.9326944   15.7998286   16.3178064
| 11>     O       18.7765098   14.9223187   16.3563346
| 12>     C       17.9357102   16.9024631   17.3298794
| 13>     C       17.3193543   18.0885554   17.1093244
| 14>     C       16.5845794   18.5212418   15.8571674
| 15>     N       17.4133787   19.1083683   18.0596415
| 16>     C       18.2257058   19.0720042   19.1630646
| 17>     S       18.3664096   20.3663781   20.1824446
| 18>     N       18.9171877   17.9053993   19.3792706
| 19>     C       18.7352127   16.6571491   18.6123311
| 20>     C       18.0650977   15.5878670   19.4694137
| 21>     C       18.5923962   14.2845427   19.5192243
| 22>     C       17.9633117   13.2859071   20.2811226
| 23>     C       16.7941768   13.5911336   20.9984608
| 24>     C       16.2626832   14.8866888   20.9481179
| 25>     O       15.1256076   15.1814451   21.6267176
| 26>     C       16.8908624   15.8786810   20.1888513
| 27>     H       14.9012745   16.7351875   17.6573203
| 28>     H       13.7815332   15.3664859   17.6235445
| 29>     H       14.1528613   16.2301556   16.1164513
| 30>     H       16.2315821   14.6300306   17.7541469
| 31>     H       15.3464536   13.9826911   16.3691952
| 32>     H       16.8797159   17.9295387   14.9821633
| 33>     H       16.7971779   19.5689234   15.6101443
| 34>     H       15.5002824   18.4189050   15.9785816
| 35>     H       16.9215574   19.9757400   17.9124735
| 36>     H       19.4916367   17.8990128   20.2125605
| 37>     H       19.7320229   16.2928314   18.3234763
| 38>     H       19.4850643   14.0403434   18.9473535
| 39>     H       18.3795405   12.2801632   20.3070445
| 40>     H       16.3037235   12.8215105   21.5854258
| 41>     H       14.8828375   14.3973297   22.1422141
| 42>     H       16.4599196   16.8738461   20.1625358
| 43> *
| 44>
| 45>                          ****END OF INPUT****

CARTESIAN COORDINATES (ANGSTROEM)
---------------------------------
  C     14.576678   15.873566   17.063316
  C     15.745448   14.905478   16.809856
  O     16.676812   15.490289   15.877023
  C     17.932694   15.799829   16.317806
  O     18.776510   14.922319   16.356335
  C     17.935710   16.902463   17.329879
  C     17.319354   18.088555   17.109324
  C     16.584579   18.521242   15.857167
  N     17.413379   19.108368   18.059642
  C     18.225706   19.072004   19.163065
  S     18.366410   20.366378   20.182445
  N     18.917188   17.905399   19.379271
  C     18.735213   16.657149   18.612331
  C     18.065098   15.587867   19.469414
  C     18.592396   14.284543   19.519224
  C     17.963312   13.285907   20.281123
  C     16.794177   13.591134   20.998461
  C     16.262683   14.886689   20.948118
  O     15.125608   15.181445   21.626718
  C     16.890862   15.878681   20.188851
  H     14.901274   16.735187   17.657320
  H     13.781533   15.366486   17.623545
  H     14.152861   16.230156   16.116451
  H     16.231582   14.630031   17.754147
  H     15.346454   13.982691   16.369195
  H     16.879716   17.929539   14.982163
  H     16.797178   19.568923   15.610144
  H     15.500282   18.418905   15.978582
  H     16.921557   19.975740   17.912474
  H     19.491637   17.899013   20.212560
  H     19.732023   16.292831   18.323476
  H     19.485064   14.040343   18.947353
  H     18.379540   12.280163   20.307044
  H     16.303724   12.821511   21.585426
  H     14.882837   14.397330   22.142214
  H     16.459920   16.873846   20.162536

 Total Charge           Charge          ....    0
 Multiplicity           Mult            ....    1
 Number of Electrons    NEL             ....  154
 Basis Dimension        Dim             ....  828

ORBITAL ENERGIES
----------------

  NO   OCC          E(Eh)            E(eV)
   0   2.0000     -91.890670     -2500.4722
   1   2.0000     -20.599916      -560.5522
   2   2.0000     -20.577854      -559.9519
   3   2.0000     -20.558263      -559.4188
   4   2.0000     -15.629280      -425.2943
   5   2.0000     -15.610799      -424.7914
   6   2.0000     -11.394367      -310.0565
   7   2.0000     -11.386665      -309.8469
   8   2.0000     -11.333016      -308.3870
   9   2.0000     -11.316825      -307.9465
  10   2.0000     -11.312644      -307.8327
  11   2.0000     -11.298899      -307.4587
  12   2.0000     -11.262456      -306.4670
  13   2.0000     -11.262253      -306.4615
  14   2.0000     -11.262211      -306.4604
  15   2.0000     -11.256973      -306.3178
  16   2.0000     -11.246597      -306.0355
  17   2.0000     -11.241952      -305.9091
  18   2.0000     -11.239180      -305.8336
  19   2.0000     -11.231116      -305.6142
  20   2.0000      -8.895748      -242.0656
  21   2.0000      -6.577326      -178.9782
  22   2.0000      -6.575314      -178.9234
  23   2.0000      -6.574729      -178.9075
  24   2.0000      -1.449179       -39.4342
  25   2.0000      -1.419718       -38.6325
  26   2.0000      -1.354986       -36.8710
  27   2.0000      -1.341418       -36.5018
  28   2.0000      -1.240144       -33.7460
  29   2.0000      -1.160852       -31.5884
  30   2.0000      -1.123937       -30.5839
  31   2.0000      -1.047790       -28.5118
  32   2.0000      -1.034123       -28.1399
  33   2.0000      -1.018339       -27.7104
  34   2.0000      -1.002623       -27.2828
  35   2.0000      -0.988838       -26.9077
  36   2.0000      -0.926831       -25.2203
  37   2.0000      -0.884295       -24.0629
  38   2.0000      -0.850815       -23.1519
  39   2.0000      -0.842045       -22.9132
  40   2.0000      -0.836875       -22.7725
  41   2.0000      -0.830271       -22.5928
  42   2.0000      -0.755651       -20.5623
  43   2.0000      -0.735582       -20.0162
  44   2.0000      -0.730840       -19.8872
  45   2.0000      -0.698174       -18.9983
  46   2.0000      -0.688328       -18.7303
  47   2.0000      -0.680069       -18.5056
  48   2.0000      -0.675353       -18.3773
  49   2.0000      -0.659751       -17.9527
  50   2.0000      -0.655215       -17.8293
  51   2.0000      -0.644220       -17.5301
  52   2.0000      -0.636716       -17.3259
  53   2.0000      -0.609796       -16.5934
  54   2.0000      -0.608474       -16.5574
  55   2.0000      -0.604938       -16.4612
  56   2.0000      -0.601898       -16.3785
  57   2.0000      -0.580818       -15.8049
  58   2.0000      -0.579122       -15.7587
  59   2.0000      -0.575235       -15.6529
  60   2.0000      -0.564030       -15.3480
  61   2.0000      -0.553167       -15.0524
  62   2.0000      -0.542747       -14.7689
  63   2.0000      -0.525807       -14.3079
  64   2.0000      -0.518059       -14.0971
  65   2.0000      -0.513427       -13.9711
  66   2.0000      -0.503246       -13.6940
  67   2.0000      -0.497836       -13.5468
  68   2.0000      -0.483764       -13.1639
  69   2.0000      -0.467863       -12.7312
  70   2.0000      -0.454613       -12.3707
  71   2.0000      -0.450455       -12.2575
  72   2.0000      -0.357335        -9.7236
  73   2.0000      -0.351893        -9.5755
  74   2.0000      -0.330110        -8.9827
  75   2.0000      -0.324672        -8.8348
  76   2.0000      -0.318603        -8.6696
  77   0.0000       0.071875         1.9558
  78   0.0000       0.100178         2.7260
  79   0.0000       0.118281         3.2186
  80   0.0000       0.127969         3.4822
  81   0.0000       0.131526         3.5790

MULLIKEN ATOMIC CHARGES
-----------------------
   0 C :   -0.313052
   1 C :    0.031155
   2 O :   -0.374951
   3 C :    0.450757
   4 O :   -0.377314
   5 C :   -0.182333
   6 C :    0.098279
   7 C :   -0.297520
   8 N :   -0.124285
   9 C :    0.193578
  10 S :   -0.437724
  11 N :   -0.202762
  12 C :    0.058686
  13 C :    0.011185
  14 C :   -0.166918
  15 C :   -0.136138
  16 C :   -0.275828
  17 C :    0.311079
  18 O :   -0.358435
  19 C :   -0.266966
  20 H :    0.093921
  21 H :    0.119901
  22 H :    0.107009
  23 H :    0.106007
  24 H :    0.123200
  25 H :    0.129173
  26 H :    0.122842
  27 H :    0.123624
  28 H :    0.198310
  29 H :    0.194889
  30 H :    0.161270
  31 H :    0.164376
  32 H :    0.163209
  33 H :    0.133283
  34 H :    0.241701
  35 H :    0.176792
Sum of atomic charges:   -0.0000000

LOEWDIN ATOMIC CHARGES
----------------------
   0 C :    0.103916
   1 C :   -0.009733
   2 O :    0.276834
   3 C :   -0.420669
   4 O :    0.138773
   5 C :   -0.091090
   6 C :   -0.083534
   7 C :    0.127880
   8 N :    0.403969
   9 C :   -0.457931
  10 S :   -0.035177
  11 N :    0.396953
  12 C :   -0.044532
  13 C :   -0.045057
  14 C :    0.020213
  15 C :    0.043424
  16 C :   -0.000951
  17 C :   -0.194819
  18 O :    0.395123
  19 C :    0.028698
  20 H :   -0.034884
  21 H :   -0.021730
  22 H :   -0.028330
  23 H :   -0.027915
  24 H :   -0.023916
  25 H :   -0.008188
  26 H :   -0.015094
  27 H :   -0.014242
  28 H :   -0.057203
  29 H :   -0.063893
  30 H :   -0.003240
  31 H :   -0.022812
  32 H :   -0.018864
  33 H :   -0.034486
  34 H :   -0.153060
  35 H :   -0.024435

  Mayer bond orders larger than 0.100000
B(  0-C ,  1-C ) :   0.9669 B(  0-C , 20-H ) :   0.9755 B(  0-C , 21-H ) :   0.9773
B(  0-C , 22-H ) :   0.9749 B(  1-C ,  2-O ) :   0.8859 B(  1-C , 23-H ) :   0.9663
B(  1-C , 24-H ) :   0.9861 B(  2-O ,  3-C ) :   1.1020 B(  3-C ,  4-O ) :   2.0688
B(  3-C ,  5-C ) :   0.9719 B(  5-C ,  6-C ) :   1.6775 B(  5-C , 12-C ) :   0.9568
B(  6-C ,  7-C ) :   0.9575 B(  6-C ,  8-N ) :   1.1180 B(  7-C , 25-H ) :   0.9723
B(  7-C , 26-H ) :   0.9805 B(  7-C , 27-H ) :   0.9614 B(  8-N ,  9-C ) :   1.1878
B(  8-N , 28-H ) :   0.9511 B(  9-C , 10-S ) :   1.6153 B(  9-C , 11-N ) :   1.2928
B( 11-N , 12-C ) :   0.9937 B( 11-N , 29-H ) :   0.9515 B( 12-C , 13-C ) :   0.9465
B( 12-C , 30-H ) :   0.9974 B( 13-C , 14-C ) :   1.3897 B( 13-C , 19-C ) :   1.3507
B( 14-C , 15-C ) :   1.3940 B( 14-C , 31-H ) :   0.9609 B( 15-C , 16-C ) :   1.3645
B( 15-C , 32-H ) :   0.9705 B( 16-C , 17-C ) :   1.3293 B( 16-C , 33-H ) :   0.9839
B( 17-C , 18-O ) :   1.1116 B( 17-C , 19-C ) :   1.3733 B( 18-O , 34-H ) :   0.9793
B( 19-C , 35-H ) :   0.9557

MP2 TOTAL ENERGY:    -1274.318909009 Eh
FINAL SINGLE POINT ENERGY     -1274.318909009042

DIPOLE MOMENT
-------------
                                X             Y             Z
Electronic contribution:     10.60942       6.10058       5.70526
Nuclear contribution   :    -11.84277      -7.27743      -6.04910
                        -----------------------------------------
Total Dipole Moment    :     -1.23335      -1.17685      -0.34384
                        -----------------------------------------
Magnitude (a.u.)       :      1.73907
Magnitude (Debye)      :      4.42036

Rotational constants in cm-1:     0.012015     0.009490     0.007138
Rotational constants in MHz :   360.203399   284.506047   213.990399

                             ****ORCA TERMINATED NORMALLY****
TOTAL RUN TIME: 0 days 1 hours 50 minutes 21 seconds 178 msec
