                         Program Version 4.2.0 -  RELEASE  -
|  1> ! ri-mp2 cc-pvtz cc-pvtz/c TightSCF  NoKeepInts
|  2>
|  3> %scf
|  4>   MaxCore 4096
|  5> end
|  6> *xyz  0  1
|  7>     C       15.2069852   13.8554520   15.5170741
|  8>     C       15.7775373   14.3210227   16.8700719
|  9>     O       16.8943631   15.1954610   16.6273299
| 10>     C       16.6727943   16.5407963   16.5364256
| 11>     O       15.6895821   16.9911712   15.9741116
| 12>     C       17.5217368   17.3306769   17.4955161
| 13>     C       17.4367227   18.6818481   17.5963153
| 14>     C       16.5280032   19.6047193   16.8124697
| 15>     N       18.2771848   19.3743354   18.4730225
| 16>     C       19.2971212   18.8096248   19.1910236
| 17>     S       20.3122690   19.7160287   20.1310954
| 18>     N       19.4391361   17.4496452   19.0863379
| 19>     C       18.5081454   16.5500920   18.3814400
| 20>     C       17.7941624   15.6601613   19.3952228
| 21>     C       18.1269275   14.2966240   19.5023882
| 22>     C       17.4659167   13.4697313   20.4261613
| 23>     C       16.4668070   14.0111919   21.2528550
| 24>     C       16.1384203   15.3702416   21.1544024
| 25>     O       15.1755431   15.8963957   21.9523066
| 26>     C       16.7969251   16.1903284   20.2330890
| 27>     H       14.8040359   14.7027799   14.9483464
| 28>     H       14.3954943   13.1341495   15.6708321
| 29>     H       15.9859304   13.3735751   14.9135644
| 30>     H       15.0044439   14.8236607   17.4677207
| 31>     H       16.1220805   13.4423817   17.4302928
| 32>     H       15.4759272   19.3997899   17.0489104
| 33>     H       16.6562268   19.4498950   15.7336209
| 34>     H       16.7141934   20.6656200   17.0165968
| 35>     H       18.1888550   20.3741586   18.5606440
| 36>     H       20.1779106   17.0583346   19.6563593
| 37>     H       19.1088183   15.9089414   17.7208726
| 38>     H       18.8965600   13.8747112   18.8613643
| 39>     H       17.7297401   12.4160603   20.5008920
| 40>     H       15.9544966   13.3771255   21.9691211
| 41>     H       14.8735398   15.1944263   22.5481685
| 42>     H       16.5324637   17.2408428   20.1780347
| 43> *
| 44>
| 45>                          ****END OF INPUT****

CARTESIAN COORDINATES (ANGSTROEM)
---------------------------------
  C     15.206985   13.855452   15.517074
  C     15.777537   14.321023   16.870072
  O     16.894363   15.195461   16.627330
  C     16.672794   16.540796   16.536426
  O     15.689582   16.991171   15.974112
  C     17.521737   17.330677   17.495516
  C     17.436723   18.681848   17.596315
  C     16.528003   19.604719   16.812470
  N     18.277185   19.374335   18.473022
  C     19.297121   18.809625   19.191024
  S     20.312269   19.716029   20.131095
  N     19.439136   17.449645   19.086338
  C     18.508145   16.550092   18.381440
  C     17.794162   15.660161   19.395223
  C     18.126928   14.296624   19.502388
  C     17.465917   13.469731   20.426161
  C     16.466807   14.011192   21.252855
  C     16.138420   15.370242   21.154402
  O     15.175543   15.896396   21.952307
  C     16.796925   16.190328   20.233089
  H     14.804036   14.702780   14.948346
  H     14.395494   13.134149   15.670832
  H     15.985930   13.373575   14.913564
  H     15.004444   14.823661   17.467721
  H     16.122080   13.442382   17.430293
  H     15.475927   19.399790   17.048910
  H     16.656227   19.449895   15.733621
  H     16.714193   20.665620   17.016597
  H     18.188855   20.374159   18.560644
  H     20.177911   17.058335   19.656359
  H     19.108818   15.908941   17.720873
  H     18.896560   13.874711   18.861364
  H     17.729740   12.416060   20.500892
  H     15.954497   13.377126   21.969121
  H     14.873540   15.194426   22.548168
  H     16.532464   17.240843   20.178035

 Total Charge           Charge          ....    0
 Multiplicity           Mult            ....    1
 Number of Electrons    NEL             ....  154
 Basis Dimension        Dim             ....  828

ORBITAL ENERGIES
----------------

  NO   OCC          E(Eh)            E(eV)
   0   2.0000     -91.889559     -2500.4420
   1   2.0000     -20.599052      -560.5287
   2   2.0000     -20.590832      -560.3050
   3   2.0000     -20.545661      -559.0759
   4   2.0000     -15.629861      -425.3101
   5   2.0000     -15.608994      -424.7423
   6   2.0000     -11.395082      -310.0759
   7   2.0000     -11.384667      -309.7925
   8   2.0000     -11.336418      -308.4796
   9   2.0000     -11.316550      -307.9390
  10   2.0000     -11.310259      -307.7678
  11   2.0000     -11.295737      -307.3726
  12   2.0000     -11.262077      -306.4567
  13   2.0000     -11.259273      -306.3804
  14   2.0000     -11.257941      -306.3442
  15   2.0000     -11.253045      -306.2109
  16   2.0000     -11.245478      -306.0050
  17   2.0000     -11.240632      -305.8731
  18   2.0000     -11.240384      -305.8664
  19   2.0000     -11.217833      -305.2528
  20   2.0000      -8.894618      -242.0349
  21   2.0000      -6.576191      -178.9473
  22   2.0000      -6.574187      -178.8927
  23   2.0000      -6.573599      -178.8767
  24   2.0000      -1.449807       -39.4513
  25   2.0000      -1.418705       -38.6049
  26   2.0000      -1.354379       -36.8545
  27   2.0000      -1.340873       -36.4870
  28   2.0000      -1.239453       -33.7272
  29   2.0000      -1.159785       -31.5594
  30   2.0000      -1.120954       -30.5027
  31   2.0000      -1.044251       -28.4155
  32   2.0000      -1.032788       -28.1036
  33   2.0000      -1.017681       -27.6925
  34   2.0000      -0.995880       -27.0993
  35   2.0000      -0.984451       -26.7883
  36   2.0000      -0.923852       -25.1393
  37   2.0000      -0.886189       -24.1144
  38   2.0000      -0.848301       -23.0835
  39   2.0000      -0.839950       -22.8562
  40   2.0000      -0.836267       -22.7560
  41   2.0000      -0.822860       -22.3911
  42   2.0000      -0.756824       -20.5942
  43   2.0000      -0.733652       -19.9637
  44   2.0000      -0.722903       -19.6712
  45   2.0000      -0.697930       -18.9916
  46   2.0000      -0.689551       -18.7636
  47   2.0000      -0.679909       -18.5013
  48   2.0000      -0.670993       -18.2587
  49   2.0000      -0.655294       -17.8315
  50   2.0000      -0.647682       -17.6243
  51   2.0000      -0.645944       -17.5770
  52   2.0000      -0.632760       -17.2183
  53   2.0000      -0.609609       -16.5883
  54   2.0000      -0.604815       -16.4578
  55   2.0000      -0.600314       -16.3354
  56   2.0000      -0.599122       -16.3030
  57   2.0000      -0.581542       -15.8246
  58   2.0000      -0.574467       -15.6320
  59   2.0000      -0.570827       -15.5330
  60   2.0000      -0.564947       -15.3730
  61   2.0000      -0.539225       -14.6731
  62   2.0000      -0.534854       -14.5541
  63   2.0000      -0.527012       -14.3407
  64   2.0000      -0.516134       -14.0447
  65   2.0000      -0.513076       -13.9615
  66   2.0000      -0.502284       -13.6678
  67   2.0000      -0.497545       -13.5389
  68   2.0000      -0.488039       -13.2802
  69   2.0000      -0.463966       -12.6252
  70   2.0000      -0.454820       -12.3763
  71   2.0000      -0.444588       -12.0978
  72   2.0000      -0.354813        -9.6550
  73   2.0000      -0.351784        -9.5725
  74   2.0000      -0.329175        -8.9573
  75   2.0000      -0.323924        -8.8144
  76   2.0000      -0.316957        -8.6248
  77   0.0000       0.072562         1.9745
  78   0.0000       0.103246         2.8095
  79   0.0000       0.124076         3.3763
  80   0.0000       0.131072         3.5666
  81   0.0000       0.136253         3.7076

MULLIKEN ATOMIC CHARGES
-----------------------
   0 C :   -0.275147
   1 C :    0.038060
   2 O :   -0.372895
   3 C :    0.458386
   4 O :   -0.421521
   5 C :   -0.229458
   6 C :    0.158540
   7 C :   -0.271110
   8 N :   -0.122686
   9 C :    0.213923
  10 S :   -0.439842
  11 N :   -0.207202
  12 C :    0.069478
  13 C :    0.060895
  14 C :   -0.203201
  15 C :   -0.125506
  16 C :   -0.280669
  17 C :    0.314540
  18 O :   -0.355812
  19 C :   -0.264060
  20 H :    0.117511
  21 H :    0.088734
  22 H :    0.089995
  23 H :    0.094853
  24 H :    0.109103
  25 H :    0.132353
  26 H :    0.129813
  27 H :    0.095672
  28 H :    0.197474
  29 H :    0.195037
  30 H :    0.149954
  31 H :    0.150925
  32 H :    0.164120
  33 H :    0.131822
  34 H :    0.241266
  35 H :    0.166656
Sum of atomic charges:   -0.0000000

LOEWDIN ATOMIC CHARGES
----------------------
   0 C :    0.104726
   1 C :   -0.016805
   2 O :    0.298053
   3 C :   -0.415498
   4 O :    0.109029
   5 C :   -0.096342
   6 C :   -0.058994
   7 C :    0.131373
   8 N :    0.406770
   9 C :   -0.455938
  10 S :   -0.035070
  11 N :    0.396125
  12 C :   -0.052227
  13 C :   -0.037072
  14 C :    0.014658
  15 C :    0.039565
  16 C :   -0.002417
  17 C :   -0.189717
  18 O :    0.395865
  19 C :    0.030925
  20 H :   -0.025124
  21 H :   -0.030084
  22 H :   -0.029453
  23 H :   -0.028829
  24 H :   -0.026494
  25 H :   -0.004740
  26 H :   -0.004068
  27 H :   -0.023148
  28 H :   -0.057441
  29 H :   -0.064793
  30 H :   -0.009818
  31 H :   -0.029769
  32 H :   -0.020839
  33 H :   -0.035207
  34 H :   -0.153343
  35 H :   -0.023859

  Mayer bond orders larger than 0.100000
B(  0-C ,  1-C ) :   0.9818 B(  0-C , 20-H ) :   0.9745 B(  0-C , 21-H ) :   0.9782
B(  0-C , 22-H ) :   0.9770 B(  1-C ,  2-O ) :   0.8787 B(  1-C , 23-H ) :   0.9700
B(  1-C , 24-H ) :   0.9771 B(  2-O ,  3-C ) :   1.1180 B(  3-C ,  4-O ) :   1.9787
B(  3-C ,  5-C ) :   1.0684 B(  5-C ,  6-C ) :   1.6491 B(  5-C , 12-C ) :   0.9712
B(  6-C ,  7-C ) :   0.9666 B(  6-C ,  8-N ) :   1.1614 B(  7-C , 25-H ) :   0.9593
B(  7-C , 26-H ) :   0.9613 B(  7-C , 27-H ) :   0.9907 B(  8-N ,  9-C ) :   1.1828
B(  8-N , 28-H ) :   0.9477 B(  9-C , 10-S ) :   1.6062 B(  9-C , 11-N ) :   1.3069
B( 11-N , 12-C ) :   0.9774 B( 11-N , 29-H ) :   0.9517 B( 12-C , 13-C ) :   0.9371
B( 12-C , 30-H ) :   1.0019 B( 13-C , 14-C ) :   1.3471 B( 13-C , 19-C ) :   1.3799
B( 14-C , 15-C ) :   1.3882 B( 14-C , 31-H ) :   0.9742 B( 15-C , 16-C ) :   1.3631
B( 15-C , 32-H ) :   0.9696 B( 16-C , 17-C ) :   1.3307 B( 16-C , 33-H ) :   0.9844
B( 17-C , 18-O ) :   1.1119 B( 17-C , 19-C ) :   1.3710 B( 18-O , 34-H ) :   0.9793
B( 19-C , 35-H ) :   0.9583

MP2 TOTAL ENERGY:    -1274.338879798 Eh
FINAL SINGLE POINT ENERGY     -1274.338879797728

DIPOLE MOMENT
-------------
                                X             Y             Z
Electronic contribution:     10.42584      10.00719       8.22676
Nuclear contribution   :    -11.43777     -11.56499      -8.33334
                        -----------------------------------------
Total Dipole Moment    :     -1.01193      -1.55780      -0.10658
                        -----------------------------------------
Magnitude (a.u.)       :      1.86067
Magnitude (Debye)      :      4.72945

Rotational constants in cm-1:     0.012054     0.008649     0.006193
Rotational constants in MHz :   361.375293   259.286213   185.668644

                             ****ORCA TERMINATED NORMALLY****
TOTAL RUN TIME: 0 days 1 hours 41 minutes 25 seconds 124 msec
