                         Program Version 4.2.0 -  RELEASE  -
|  1> ! ri-mp2 cc-pvtz cc-pvtz/c TightSCF  NoKeepInts
|  2>
|  3> %scf
|  4>   MaxCore 4096
|  5> end
|  6> *xyz  0  1
|  7>     C       15.1037976   13.8800518   16.0860169
|  8>     C       16.2278333   14.5504901   16.8925475
|  9>     O       17.0403259   15.2758368   15.9562468
| 10>     C       17.1526041   16.6377876   16.0054560
| 11>     O       16.9048193   17.2862715   15.0063129
| 12>     C       17.5513266   17.2648174   17.3190669
| 13>     C       17.3033260   18.5762767   17.5728218
| 14>     C       16.4556787   19.5261793   16.7545136
| 15>     N       17.9187999   19.2052934   18.6602821
| 16>     C       19.0017469   18.6916618   19.3257340
| 17>     S       19.8660426   19.5809935   20.4199782
| 18>     N       19.3461652   17.4002859   19.0118637
| 19>     C       18.4648348   16.4746159   18.2777027
| 20>     C       17.7332226   15.6211242   19.3104460
| 21>     C       18.2024788   14.3273459   19.6081218
| 22>     C       17.5472820   13.5291581   20.5606382
| 23>     C       16.4200442   14.0319641   21.2318529
| 24>     C       15.9615814   15.3266016   20.9545256
| 25>     O       14.8769746   15.8184124   21.6038872
| 26>     C       16.6132987   16.1176543   20.0034353
| 27>     H       14.4963649   14.6336453   15.5688076
| 28>     H       14.4463725   13.3022515   16.7469077
| 29>     H       15.5211456   13.1988673   15.3338383
| 30>     H       15.7728080   15.2151026   17.6365940
| 31>     H       16.8210750   13.7795840   17.3989313
| 32>     H       15.5267167   19.0412320   16.4290724
| 33>     H       16.9943846   19.8376507   15.8499879
| 34>     H       16.1751602   20.4294861   17.3087988
| 35>     H       17.6942065   20.1642691   18.8735869
| 36>     H       20.1423956   17.0415450   19.5229308
| 37>     H       19.0982729   15.8150662   17.6671678
| 38>     H       19.0785717   13.9365552   19.0966322
| 39>     H       17.9166414   12.5286742   20.7810737
| 40>     H       15.9123207   13.4200746   21.9706133
| 41>     H       14.6122962   15.1645521   22.2689110
| 42>     H       16.2460841   17.1206221   19.8186963
| 43> *
| 44>
| 45>                          ****END OF INPUT****

CARTESIAN COORDINATES (ANGSTROEM)
---------------------------------
  C     15.103798   13.880052   16.086017
  C     16.227833   14.550490   16.892547
  O     17.040326   15.275837   15.956247
  C     17.152604   16.637788   16.005456
  O     16.904819   17.286271   15.006313
  C     17.551327   17.264817   17.319067
  C     17.303326   18.576277   17.572822
  C     16.455679   19.526179   16.754514
  N     17.918800   19.205293   18.660282
  C     19.001747   18.691662   19.325734
  S     19.866043   19.580994   20.419978
  N     19.346165   17.400286   19.011864
  C     18.464835   16.474616   18.277703
  C     17.733223   15.621124   19.310446
  C     18.202479   14.327346   19.608122
  C     17.547282   13.529158   20.560638
  C     16.420044   14.031964   21.231853
  C     15.961581   15.326602   20.954526
  O     14.876975   15.818412   21.603887
  C     16.613299   16.117654   20.003435
  H     14.496365   14.633645   15.568808
  H     14.446373   13.302252   16.746908
  H     15.521146   13.198867   15.333838
  H     15.772808   15.215103   17.636594
  H     16.821075   13.779584   17.398931
  H     15.526717   19.041232   16.429072
  H     16.994385   19.837651   15.849988
  H     16.175160   20.429486   17.308799
  H     17.694206   20.164269   18.873587
  H     20.142396   17.041545   19.522931
  H     19.098273   15.815066   17.667168
  H     19.078572   13.936555   19.096632
  H     17.916641   12.528674   20.781074
  H     15.912321   13.420075   21.970613
  H     14.612296   15.164552   22.268911
  H     16.246084   17.120622   19.818696

 Total Charge           Charge          ....    0
 Multiplicity           Mult            ....    1
 Number of Electrons    NEL             ....  154
 Basis Dimension        Dim             ....  828

ORBITAL ENERGIES
----------------

  NO   OCC          E(Eh)            E(eV)
   0   2.0000     -91.892438     -2500.5203
   1   2.0000     -20.604844      -560.6863
   2   2.0000     -20.589770      -560.2761
   3   2.0000     -20.543646      -559.0210
   4   2.0000     -15.632412      -425.3795
   5   2.0000     -15.611696      -424.8158
   6   2.0000     -11.392973      -310.0186
   7   2.0000     -11.386787      -309.8502
   8   2.0000     -11.337688      -308.5142
   9   2.0000     -11.322908      -308.1120
  10   2.0000     -11.317784      -307.9726
  11   2.0000     -11.296037      -307.3808
  12   2.0000     -11.268574      -306.6335
  13   2.0000     -11.264593      -306.5252
  14   2.0000     -11.261298      -306.4355
  15   2.0000     -11.254459      -306.2494
  16   2.0000     -11.251365      -306.1652
  17   2.0000     -11.246717      -306.0387
  18   2.0000     -11.245574      -306.0076
  19   2.0000     -11.224307      -305.4289
  20   2.0000      -8.897416      -242.1110
  21   2.0000      -6.578971      -179.0229
  22   2.0000      -6.576989      -178.9690
  23   2.0000      -6.576384      -178.9525
  24   2.0000      -1.445444       -39.3325
  25   2.0000      -1.424458       -38.7615
  26   2.0000      -1.354379       -36.8545
  27   2.0000      -1.344222       -36.5781
  28   2.0000      -1.242871       -33.8202
  29   2.0000      -1.165392       -31.7119
  30   2.0000      -1.122684       -30.5498
  31   2.0000      -1.049244       -28.5514
  32   2.0000      -1.033573       -28.1249
  33   2.0000      -1.024271       -27.8718
  34   2.0000      -1.001152       -27.2427
  35   2.0000      -0.987708       -26.8769
  36   2.0000      -0.928187       -25.2572
  37   2.0000      -0.879935       -23.9443
  38   2.0000      -0.852531       -23.1986
  39   2.0000      -0.848857       -23.0986
  40   2.0000      -0.842104       -22.9148
  41   2.0000      -0.834074       -22.6963
  42   2.0000      -0.760905       -20.7053
  43   2.0000      -0.738424       -20.0935
  44   2.0000      -0.718297       -19.5459
  45   2.0000      -0.704645       -19.1744
  46   2.0000      -0.695496       -18.9254
  47   2.0000      -0.678007       -18.4495
  48   2.0000      -0.672158       -18.2904
  49   2.0000      -0.669039       -18.2055
  50   2.0000      -0.653370       -17.7791
  51   2.0000      -0.647884       -17.6298
  52   2.0000      -0.641706       -17.4617
  53   2.0000      -0.616165       -16.7667
  54   2.0000      -0.608253       -16.5514
  55   2.0000      -0.603280       -16.4161
  56   2.0000      -0.587775       -15.9942
  57   2.0000      -0.584175       -15.8962
  58   2.0000      -0.576122       -15.6771
  59   2.0000      -0.573991       -15.6191
  60   2.0000      -0.563769       -15.3409
  61   2.0000      -0.546699       -14.8764
  62   2.0000      -0.541263       -14.7285
  63   2.0000      -0.533651       -14.5214
  64   2.0000      -0.521236       -14.1836
  65   2.0000      -0.515342       -14.0232
  66   2.0000      -0.509731       -13.8705
  67   2.0000      -0.503217       -13.6932
  68   2.0000      -0.483999       -13.1703
  69   2.0000      -0.465935       -12.6787
  70   2.0000      -0.449150       -12.2220
  71   2.0000      -0.446610       -12.1529
  72   2.0000      -0.361937        -9.8488
  73   2.0000      -0.356390        -9.6979
  74   2.0000      -0.333507        -9.0752
  75   2.0000      -0.328662        -8.9433
  76   2.0000      -0.319050        -8.6818
  77   0.0000       0.071191         1.9372
  78   0.0000       0.098131         2.6703
  79   0.0000       0.118179         3.2158
  80   0.0000       0.125352         3.4110
  81   0.0000       0.128576         3.4987

MULLIKEN ATOMIC CHARGES
-----------------------
   0 C :   -0.255836
   1 C :    0.020426
   2 O :   -0.337726
   3 C :    0.451734
   4 O :   -0.384522
   5 C :   -0.264610
   6 C :    0.133120
   7 C :   -0.271262
   8 N :   -0.125416
   9 C :    0.214563
  10 S :   -0.433345
  11 N :   -0.199756
  12 C :    0.053433
  13 C :    0.056215
  14 C :   -0.227603
  15 C :   -0.121829
  16 C :   -0.274520
  17 C :    0.312517
  18 O :   -0.355416
  19 C :   -0.254419
  20 H :    0.098560
  21 H :    0.086851
  22 H :    0.100290
  23 H :    0.099975
  24 H :    0.104172
  25 H :    0.123077
  26 H :    0.142286
  27 H :    0.093810
  28 H :    0.199591
  29 H :    0.190397
  30 H :    0.153317
  31 H :    0.157273
  32 H :    0.164896
  33 H :    0.133829
  34 H :    0.242778
  35 H :    0.173150
Sum of atomic charges:   -0.0000000

LOEWDIN ATOMIC CHARGES
----------------------
   0 C :    0.107558
   1 C :   -0.027561
   2 O :    0.301906
   3 C :   -0.426305
   4 O :    0.120324
   5 C :   -0.099787
   6 C :   -0.062322
   7 C :    0.129818
   8 N :    0.407646
   9 C :   -0.454414
  10 S :   -0.029455
  11 N :    0.396019
  12 C :   -0.051008
  13 C :   -0.038179
  14 C :    0.009249
  15 C :    0.043135
  16 C :    0.000251
  17 C :   -0.189713
  18 O :    0.396831
  19 C :    0.030246
  20 H :   -0.025069
  21 H :   -0.028231
  22 H :   -0.025679
  23 H :   -0.033453
  24 H :   -0.030271
  25 H :   -0.006713
  26 H :   -0.001805
  27 H :   -0.022730
  28 H :   -0.056943
  29 H :   -0.066578
  30 H :   -0.004497
  31 H :   -0.030977
  32 H :   -0.018954
  33 H :   -0.033718
  34 H :   -0.151636
  35 H :   -0.026986

  Mayer bond orders larger than 0.100000
B(  0-C ,  1-C ) :   0.9796 B(  0-C , 20-H ) :   0.9772 B(  0-C , 21-H ) :   0.9777
B(  0-C , 22-H ) :   0.9809 B(  1-C ,  2-O ) :   0.8829 B(  1-C , 23-H ) :   0.9631
B(  1-C , 24-H ) :   0.9758 B(  2-O ,  3-C ) :   1.1598 B(  3-C ,  4-O ) :   2.0702
B(  3-C ,  5-C ) :   0.9937 B(  5-C ,  6-C ) :   1.6625 B(  5-C , 12-C ) :   0.9656
B(  6-C ,  7-C ) :   0.9749 B(  6-C ,  8-N ) :   1.1474 B(  7-C , 25-H ) :   0.9687
B(  7-C , 26-H ) :   0.9532 B(  7-C , 27-H ) :   0.9851 B(  8-N ,  9-C ) :   1.1802
B(  8-N , 28-H ) :   0.9492 B(  9-C , 10-S ) :   1.6181 B(  9-C , 11-N ) :   1.2957
B( 11-N , 12-C ) :   0.9602 B( 11-N , 29-H ) :   0.9543 B( 12-C , 13-C ) :   0.9575
B( 12-C , 30-H ) :   0.9994 B( 13-C , 14-C ) :   1.3494 B( 13-C , 19-C ) :   1.3577
B( 14-C , 15-C ) :   1.3847 B( 14-C , 31-H ) :   0.9738 B( 15-C , 16-C ) :   1.3710
B( 15-C , 32-H ) :   0.9690 B( 16-C , 17-C ) :   1.3265 B( 16-C , 33-H ) :   0.9834
B( 17-C , 18-O ) :   1.1171 B( 17-C , 19-C ) :   1.3757 B( 18-O , 34-H ) :   0.9784
B( 19-C , 35-H ) :   0.9542

MP2 TOTAL ENERGY:    -1274.331934505 Eh
FINAL SINGLE POINT ENERGY     -1274.331934504563

DIPOLE MOMENT
-------------
                                X             Y             Z
Electronic contribution:     10.15545       9.56296       5.93298
Nuclear contribution   :    -11.37263     -11.16735      -5.19307
                        -----------------------------------------
Total Dipole Moment    :     -1.21718      -1.60439       0.73991
                        -----------------------------------------
Magnitude (a.u.)       :      2.14548
Magnitude (Debye)      :      5.45337

Rotational constants in cm-1:     0.011241     0.009556     0.006419
Rotational constants in MHz :   337.003917   286.484951   192.423739

                             ****ORCA TERMINATED NORMALLY****
TOTAL RUN TIME: 0 days 1 hours 46 minutes 50 seconds 449 msec
