                         Program Version 4.2.0 -  RELEASE  -
|  1> ! ri-mp2 cc-pvtz cc-pvtz/c TightSCF  NoKeepInts
|  2>
|  3> %scf
|  4>   MaxCore 4096
|  5> end
|  6> *xyz  0  1
|  7>     C       14.6269076   14.8773025   14.5953862
|  8>     C       15.4841795   14.4703973   15.8056022
|  9>     O       16.3268336   15.5885456   16.1298616
| 10>     C       17.3881975   15.3979735   16.9659477
| 11>     O       17.7867077   14.2837834   17.2647106
| 12>     C       17.8575000   16.6376996   17.6737557
| 13>     C       17.5696021   17.9113534   17.2953715
| 14>     C       16.7470727   18.3724102   16.1092110
| 15>     N       18.1202515   18.9861357   18.0017524
| 16>     C       19.0736502   18.8762958   18.9791982
| 17>     S       19.7711776   20.2070942   19.6706314
| 18>     N       19.4197912   17.6031073   19.3537464
| 19>     C       18.7320869   16.3776693   18.9060171
| 20>     C       17.9118218   15.7796600   20.0462902
| 21>     C       18.1057903   14.4420723   20.4379730
| 22>     C       17.3526909   13.8854738   21.4853453
| 23>     C       16.3960449   14.6725956   22.1485553
| 24>     C       16.1969083   16.0041189   21.7593896
| 25>     O       15.2696677   16.7650756   22.3938808
| 26>     C       16.9476792   16.5551588   20.7162270
| 27>     H       14.0044222   15.7476531   14.8372044
| 28>     H       13.9658816   14.0538387   14.2987407
| 29>     H       15.2633570   15.1321848   13.7388412
| 30>     H       14.8495993   14.2062895   16.6619953
| 31>     H       16.0897067   13.5943663   15.5345914
| 32>     H       17.0874847   17.8864871   15.1863021
| 33>     H       16.8101946   19.4547829   15.9441766
| 34>     H       15.6883302   18.1223751   16.2520988
| 35>     H       17.8789911   19.9289419   17.7413247
| 36>     H       20.1016274   17.5487877   20.0994420
| 37>     H       19.5051565   15.6496598   18.6204030
| 38>     H       18.8330056   13.8259107   19.9147734
| 39>     H       17.5083861   12.8476084   21.7741005
| 40>     H       15.8109863   14.2461791   22.9564907
| 41>     H       14.8855378   16.2241548   23.0999793
| 42>     H       16.7797715   17.5888573   20.4346823
| 43> *
| 44>
| 45>                          ****END OF INPUT****

CARTESIAN COORDINATES (ANGSTROEM)
---------------------------------
  C     14.626908   14.877302   14.595386
  C     15.484179   14.470397   15.805602
  O     16.326834   15.588546   16.129862
  C     17.388197   15.397973   16.965948
  O     17.786708   14.283783   17.264711
  C     17.857500   16.637700   17.673756
  C     17.569602   17.911353   17.295372
  C     16.747073   18.372410   16.109211
  N     18.120251   18.986136   18.001752
  C     19.073650   18.876296   18.979198
  S     19.771178   20.207094   19.670631
  N     19.419791   17.603107   19.353746
  C     18.732087   16.377669   18.906017
  C     17.911822   15.779660   20.046290
  C     18.105790   14.442072   20.437973
  C     17.352691   13.885474   21.485345
  C     16.396045   14.672596   22.148555
  C     16.196908   16.004119   21.759390
  O     15.269668   16.765076   22.393881
  C     16.947679   16.555159   20.716227
  H     14.004422   15.747653   14.837204
  H     13.965882   14.053839   14.298741
  H     15.263357   15.132185   13.738841
  H     14.849599   14.206289   16.661995
  H     16.089707   13.594366   15.534591
  H     17.087485   17.886487   15.186302
  H     16.810195   19.454783   15.944177
  H     15.688330   18.122375   16.252099
  H     17.878991   19.928942   17.741325
  H     20.101627   17.548788   20.099442
  H     19.505156   15.649660   18.620403
  H     18.833006   13.825911   19.914773
  H     17.508386   12.847608   21.774100
  H     15.810986   14.246179   22.956491
  H     14.885538   16.224155   23.099979
  H     16.779771   17.588857   20.434682

 Total Charge           Charge          ....    0
 Multiplicity           Mult            ....    1
 Number of Electrons    NEL             ....  154
 Basis Dimension        Dim             ....  828

ORBITAL ENERGIES
----------------

  NO   OCC          E(Eh)            E(eV)
   0   2.0000     -91.887996     -2500.3995
   1   2.0000     -20.603454      -560.6485
   2   2.0000     -20.591226      -560.3157
   3   2.0000     -20.545824      -559.0803
   4   2.0000     -15.628416      -425.2708
   5   2.0000     -15.606543      -424.6756
   6   2.0000     -11.395275      -310.0812
   7   2.0000     -11.382855      -309.7432
   8   2.0000     -11.336456      -308.4806
   9   2.0000     -11.306985      -307.6787
  10   2.0000     -11.305320      -307.6334
  11   2.0000     -11.298924      -307.4594
  12   2.0000     -11.260539      -306.4148
  13   2.0000     -11.259036      -306.3740
  14   2.0000     -11.252937      -306.2080
  15   2.0000     -11.247078      -306.0485
  16   2.0000     -11.236759      -305.7678
  17   2.0000     -11.235008      -305.7201
  18   2.0000     -11.232915      -305.6631
  19   2.0000     -11.229836      -305.5794
  20   2.0000      -8.893059      -241.9924
  21   2.0000      -6.574636      -178.9050
  22   2.0000      -6.572630      -178.8504
  23   2.0000      -6.572044      -178.8344
  24   2.0000      -1.455171       -39.5972
  25   2.0000      -1.410960       -38.3942
  26   2.0000      -1.357320       -36.9345
  27   2.0000      -1.339300       -36.4442
  28   2.0000      -1.236849       -33.6564
  29   2.0000      -1.151661       -31.3383
  30   2.0000      -1.119393       -30.4602
  31   2.0000      -1.044813       -28.4308
  32   2.0000      -1.036886       -28.2151
  33   2.0000      -1.009013       -27.4566
  34   2.0000      -0.997475       -27.1427
  35   2.0000      -0.983147       -26.7528
  36   2.0000      -0.920818       -25.0567
  37   2.0000      -0.888399       -24.1746
  38   2.0000      -0.846924       -23.0460
  39   2.0000      -0.834594       -22.7105
  40   2.0000      -0.827308       -22.5122
  41   2.0000      -0.817941       -22.2573
  42   2.0000      -0.761997       -20.7350
  43   2.0000      -0.735903       -20.0249
  44   2.0000      -0.724484       -19.7142
  45   2.0000      -0.690011       -18.7762
  46   2.0000      -0.683594       -18.6015
  47   2.0000      -0.681457       -18.5434
  48   2.0000      -0.675998       -18.3949
  49   2.0000      -0.656981       -17.8774
  50   2.0000      -0.650643       -17.7049
  51   2.0000      -0.643064       -17.4987
  52   2.0000      -0.634360       -17.2618
  53   2.0000      -0.601938       -16.3796
  54   2.0000      -0.600472       -16.3397
  55   2.0000      -0.598828       -16.2949
  56   2.0000      -0.594584       -16.1794
  57   2.0000      -0.579945       -15.7811
  58   2.0000      -0.572704       -15.5841
  59   2.0000      -0.563657       -15.3379
  60   2.0000      -0.562187       -15.2979
  61   2.0000      -0.549213       -14.9448
  62   2.0000      -0.542191       -14.7538
  63   2.0000      -0.524140       -14.2626
  64   2.0000      -0.516637       -14.0584
  65   2.0000      -0.509164       -13.8551
  66   2.0000      -0.503362       -13.6972
  67   2.0000      -0.495175       -13.4744
  68   2.0000      -0.481323       -13.0975
  69   2.0000      -0.463017       -12.5993
  70   2.0000      -0.461888       -12.5686
  71   2.0000      -0.453517       -12.3408
  72   2.0000      -0.354174        -9.6376
  73   2.0000      -0.343547        -9.3484
  74   2.0000      -0.327101        -8.9009
  75   2.0000      -0.315426        -8.5832
  76   2.0000      -0.313340        -8.5264
  77   0.0000       0.075860         2.0643
  78   0.0000       0.113462         3.0874
  79   0.0000       0.120421         3.2768
  80   0.0000       0.135915         3.6984
  81   0.0000       0.138635         3.7724

MULLIKEN ATOMIC CHARGES
-----------------------
   0 C :   -0.270994
   1 C :    0.039616
   2 O :   -0.338738
   3 C :    0.440617
   4 O :   -0.426541
   5 C :   -0.174749
   6 C :    0.143183
   7 C :   -0.288850
   8 N :   -0.122135
   9 C :    0.201468
  10 S :   -0.439239
  11 N :   -0.196880
  12 C :    0.035299
  13 C :    0.057361
  14 C :   -0.159766
  15 C :   -0.133975
  16 C :   -0.279036
  17 C :    0.311305
  18 O :   -0.359251
  19 C :   -0.272757
  20 H :    0.092130
  21 H :    0.099113
  22 H :    0.096946
  23 H :    0.092380
  24 H :    0.107134
  25 H :    0.126643
  26 H :    0.104121
  27 H :    0.127652
  28 H :    0.196737
  29 H :    0.193532
  30 H :    0.153492
  31 H :    0.153046
  32 H :    0.158876
  33 H :    0.127863
  34 H :    0.240001
  35 H :    0.164396
Sum of atomic charges:   -0.0000000

LOEWDIN ATOMIC CHARGES
----------------------
   0 C :    0.106580
   1 C :   -0.016049
   2 O :    0.305954
   3 C :   -0.414168
   4 O :    0.104471
   5 C :   -0.091305
   6 C :   -0.065840
   7 C :    0.124986
   8 N :    0.404822
   9 C :   -0.458906
  10 S :   -0.035964
  11 N :    0.397863
  12 C :   -0.046444
  13 C :   -0.038790
  14 C :    0.022373
  15 C :    0.040970
  16 C :   -0.002390
  17 C :   -0.192681
  18 O :    0.392903
  19 C :    0.028325
  20 H :   -0.029646
  21 H :   -0.023227
  22 H :   -0.026549
  23 H :   -0.029134
  24 H :   -0.027212
  25 H :   -0.008712
  26 H :   -0.020956
  27 H :   -0.010207
  28 H :   -0.059188
  29 H :   -0.063665
  30 H :   -0.004973
  31 H :   -0.025319
  32 H :   -0.021266
  33 H :   -0.036472
  34 H :   -0.154974
  35 H :   -0.025213

  Mayer bond orders larger than 0.100000
B(  0-C ,  1-C ) :   0.9714 B(  0-C , 20-H ) :   0.9789 B(  0-C , 21-H ) :   0.9781
B(  0-C , 22-H ) :   0.9772 B(  1-C ,  2-O ) :   0.8999 B(  1-C , 23-H ) :   0.9759
B(  1-C , 24-H ) :   0.9776 B(  2-O ,  3-C ) :   1.1641 B(  3-C ,  4-O ) :   1.9870
B(  3-C ,  5-C ) :   1.0522 B(  5-C ,  6-C ) :   1.6459 B(  5-C , 12-C ) :   0.9667
B(  6-C ,  7-C ) :   0.9543 B(  6-C ,  8-N ) :   1.1465 B(  7-C , 25-H ) :   0.9658
B(  7-C , 26-H ) :   0.9924 B(  7-C , 27-H ) :   0.9629 B(  8-N ,  9-C ) :   1.1782
B(  8-N , 28-H ) :   0.9488 B(  9-C , 10-S ) :   1.6108 B(  9-C , 11-N ) :   1.3044
B( 11-N , 12-C ) :   0.9921 B( 11-N , 29-H ) :   0.9520 B( 12-C , 13-C ) :   0.9477
B( 12-C , 30-H ) :   0.9999 B( 13-C , 14-C ) :   1.3762 B( 13-C , 19-C ) :   1.3692
B( 14-C , 15-C ) :   1.3947 B( 14-C , 31-H ) :   0.9649 B( 15-C , 16-C ) :   1.3625
B( 15-C , 32-H ) :   0.9715 B( 16-C , 17-C ) :   1.3315 B( 16-C , 33-H ) :   0.9861
B( 17-C , 18-O ) :   1.1079 B( 17-C , 19-C ) :   1.3793 B( 18-O , 34-H ) :   0.9807
B( 19-C , 35-H ) :   0.9585

MP2 TOTAL ENERGY:    -1274.347526619 Eh
FINAL SINGLE POINT ENERGY     -1274.347526619176

DIPOLE MOMENT
-------------
                                X             Y             Z
Electronic contribution:     11.86322       8.17439      11.82791
Nuclear contribution   :    -13.49988      -9.34853     -12.76855
                        -----------------------------------------
Total Dipole Moment    :     -1.63666      -1.17415      -0.94064
                        -----------------------------------------
Magnitude (a.u.)       :      2.22308
Magnitude (Debye)      :      5.65061

Rotational constants in cm-1:     0.010368     0.008782     0.005794
Rotational constants in MHz :   310.810268   263.292347   173.694669

                             ****ORCA TERMINATED NORMALLY****
TOTAL RUN TIME: 0 days 1 hours 35 minutes 27 seconds 920 msec
