                         Program Version 4.2.0 -  RELEASE  -
|  1> ! ri-mp2 cc-pvtz cc-pvtz/c TightSCF  NoKeepInts
|  2>
|  3> %scf
|  4>   MaxCore 4096
|  5> end
|  6> *xyz  0  1
|  7>     C       16.0656513   13.5125232   15.2056068
|  8>     C       15.4227106   14.4333353   16.2562052
|  9>     O       16.4545049   15.3106609   16.7434462
| 10>     C       16.2611949   16.6643291   16.7832389
| 11>     O       15.3233878   17.2116519   16.2285719
| 12>     C       17.2914710   17.3700922   17.6214965
| 13>     C       17.3320283   18.7215185   17.7415003
| 14>     C       16.4017730   19.7275724   17.0980958
| 15>     N       18.3376299   19.3282267   18.5001527
| 16>     C       19.3917022   18.6693090   19.0744854
| 17>     S       20.5952384   19.4737825   19.8746280
| 18>     N       19.4006611   17.3034827   18.9500731
| 19>     C       18.3121852   16.4962174   18.3690594
| 20>     C       17.6510686   15.6588543   19.4604082
| 21>     C       17.7489816   14.2547536   19.4406411
| 22>     C       17.1391702   13.4811774   20.4425776
| 23>     C       16.4278314   14.1163859   21.4747959
| 24>     C       16.3315227   15.5145136   21.4997350
| 25>     O       15.6459998   16.1307353   22.4954128
| 26>     C       16.9390135   16.2816372   20.5009350
| 27>     H       15.3264909   12.8048063   14.8110136
| 28>     H       16.8907734   12.9390507   15.6457026
| 29>     H       16.4589970   14.1005660   14.3669148
| 30>     H       14.5933764   14.9830978   15.7912741
| 31>     H       15.0175960   13.8385883   17.0851909
| 32>     H       15.3691410   19.5652962   17.4328074
| 33>     H       16.4121400   19.6200402   16.0060031
| 34>     H       16.6655907   20.7659719   17.3302782
| 35>     H       18.3479398   20.3306177   18.6008813
| 36>     H       20.1706462   16.8422792   19.4172385
| 37>     H       18.7681782   15.8152164   17.6367190
| 38>     H       18.2933290   13.7610393   18.6401019
| 39>     H       17.2187101   12.3958198   20.4172048
| 40>     H       15.9554720   13.5234746   22.2510552
| 41>     H       15.3264193   15.4428448   23.0982535
| 42>     H       16.8584735   17.3625316   20.5422954
| 43> *
| 44>
| 45>                          ****END OF INPUT****

CARTESIAN COORDINATES (ANGSTROEM)
---------------------------------
  C     16.065651   13.512523   15.205607
  C     15.422711   14.433335   16.256205
  O     16.454505   15.310661   16.743446
  C     16.261195   16.664329   16.783239
  O     15.323388   17.211652   16.228572
  C     17.291471   17.370092   17.621496
  C     17.332028   18.721518   17.741500
  C     16.401773   19.727572   17.098096
  N     18.337630   19.328227   18.500153
  C     19.391702   18.669309   19.074485
  S     20.595238   19.473782   19.874628
  N     19.400661   17.303483   18.950073
  C     18.312185   16.496217   18.369059
  C     17.651069   15.658854   19.460408
  C     17.748982   14.254754   19.440641
  C     17.139170   13.481177   20.442578
  C     16.427831   14.116386   21.474796
  C     16.331523   15.514514   21.499735
  O     15.646000   16.130735   22.495413
  C     16.939013   16.281637   20.500935
  H     15.326491   12.804806   14.811014
  H     16.890773   12.939051   15.645703
  H     16.458997   14.100566   14.366915
  H     14.593376   14.983098   15.791274
  H     15.017596   13.838588   17.085191
  H     15.369141   19.565296   17.432807
  H     16.412140   19.620040   16.006003
  H     16.665591   20.765972   17.330278
  H     18.347940   20.330618   18.600881
  H     20.170646   16.842279   19.417238
  H     18.768178   15.815216   17.636719
  H     18.293329   13.761039   18.640102
  H     17.218710   12.395820   20.417205
  H     15.955472   13.523475   22.251055
  H     15.326419   15.442845   23.098253
  H     16.858473   17.362532   20.542295

 Total Charge           Charge          ....    0
 Multiplicity           Mult            ....    1
 Number of Electrons    NEL             ....  154
 Basis Dimension        Dim             ....  828

ORBITAL ENERGIES
----------------

  NO   OCC          E(Eh)            E(eV)
   0   2.0000     -91.888697     -2500.4186
   1   2.0000     -20.601916      -560.6066
   2   2.0000     -20.595689      -560.4372
   3   2.0000     -20.541346      -558.9584
   4   2.0000     -15.628863      -425.2830
   5   2.0000     -15.608003      -424.7153
   6   2.0000     -11.395482      -310.0868
   7   2.0000     -11.383773      -309.7682
   8   2.0000     -11.335767      -308.4619
   9   2.0000     -11.312811      -307.8372
  10   2.0000     -11.308602      -307.7227
  11   2.0000     -11.295297      -307.3607
  12   2.0000     -11.258837      -306.3685
  13   2.0000     -11.258704      -306.3649
  14   2.0000     -11.254356      -306.2466
  15   2.0000     -11.251737      -306.1753
  16   2.0000     -11.242221      -305.9164
  17   2.0000     -11.237687      -305.7930
  18   2.0000     -11.237507      -305.7881
  19   2.0000     -11.229929      -305.5819
  20   2.0000      -8.893758      -242.0115
  21   2.0000      -6.575332      -178.9239
  22   2.0000      -6.573328      -178.8694
  23   2.0000      -6.572741      -178.8534
  24   2.0000      -1.450875       -39.4803
  25   2.0000      -1.415344       -38.5135
  26   2.0000      -1.355007       -36.8716
  27   2.0000      -1.339812       -36.4581
  28   2.0000      -1.238221       -33.6937
  29   2.0000      -1.156859       -31.4797
  30   2.0000      -1.120055       -30.4782
  31   2.0000      -1.043079       -28.3836
  32   2.0000      -1.039506       -28.2864
  33   2.0000      -1.014245       -27.5990
  34   2.0000      -0.995487       -27.0886
  35   2.0000      -0.984043       -26.7772
  36   2.0000      -0.922088       -25.0913
  37   2.0000      -0.890226       -24.2243
  38   2.0000      -0.846537       -23.0354
  39   2.0000      -0.836945       -22.7744
  40   2.0000      -0.833239       -22.6736
  41   2.0000      -0.817582       -22.2475
  42   2.0000      -0.764253       -20.7964
  43   2.0000      -0.731910       -19.9163
  44   2.0000      -0.722137       -19.6503
  45   2.0000      -0.694779       -18.9059
  46   2.0000      -0.686809       -18.6890
  47   2.0000      -0.680048       -18.5050
  48   2.0000      -0.674029       -18.3413
  49   2.0000      -0.657820       -17.9002
  50   2.0000      -0.645872       -17.5751
  51   2.0000      -0.643902       -17.5215
  52   2.0000      -0.633556       -17.2399
  53   2.0000      -0.606576       -16.5058
  54   2.0000      -0.605636       -16.4802
  55   2.0000      -0.598757       -16.2930
  56   2.0000      -0.597881       -16.2692
  57   2.0000      -0.577592       -15.7171
  58   2.0000      -0.570505       -15.5242
  59   2.0000      -0.567505       -15.4426
  60   2.0000      -0.562855       -15.3161
  61   2.0000      -0.542585       -14.7645
  62   2.0000      -0.539868       -14.6905
  63   2.0000      -0.529331       -14.4038
  64   2.0000      -0.524370       -14.2688
  65   2.0000      -0.513115       -13.9626
  66   2.0000      -0.501229       -13.6391
  67   2.0000      -0.496754       -13.5174
  68   2.0000      -0.485645       -13.2151
  69   2.0000      -0.464367       -12.6361
  70   2.0000      -0.456073       -12.4104
  71   2.0000      -0.448158       -12.1950
  72   2.0000      -0.354158        -9.6371
  73   2.0000      -0.348643        -9.4871
  74   2.0000      -0.327998        -8.9253
  75   2.0000      -0.320551        -8.7226
  76   2.0000      -0.315738        -8.5917
  77   0.0000       0.076540         2.0828
  78   0.0000       0.107263         2.9188
  79   0.0000       0.123613         3.3637
  80   0.0000       0.132234         3.5983
  81   0.0000       0.135811         3.6956

MULLIKEN ATOMIC CHARGES
-----------------------
   0 C :   -0.263246
   1 C :    0.010955
   2 O :   -0.351273
   3 C :    0.476204
   4 O :   -0.434882
   5 C :   -0.227085
   6 C :    0.149356
   7 C :   -0.274235
   8 N :   -0.120477
   9 C :    0.210130
  10 S :   -0.439802
  11 N :   -0.202983
  12 C :    0.048370
  13 C :    0.068220
  14 C :   -0.184344
  15 C :   -0.133474
  16 C :   -0.278589
  17 C :    0.316007
  18 O :   -0.356655
  19 C :   -0.268619
  20 H :    0.090639
  21 H :    0.090281
  22 H :    0.097648
  23 H :    0.128825
  24 H :    0.103385
  25 H :    0.132483
  26 H :    0.130544
  27 H :    0.094816
  28 H :    0.197406
  29 H :    0.194383
  30 H :    0.150832
  31 H :    0.150481
  32 H :    0.159941
  33 H :    0.129543
  34 H :    0.240524
  35 H :    0.164690
Sum of atomic charges:    0.0000000

LOEWDIN ATOMIC CHARGES
----------------------
   0 C :    0.104581
   1 C :   -0.011716
   2 O :    0.310562
   3 C :   -0.413547
   4 O :    0.095168
   5 C :   -0.094559
   6 C :   -0.058815
   7 C :    0.131460
   8 N :    0.406529
   9 C :   -0.456754
  10 S :   -0.035459
  11 N :    0.396565
  12 C :   -0.052737
  13 C :   -0.038774
  14 C :    0.014070
  15 C :    0.038513
  16 C :   -0.001749
  17 C :   -0.189486
  18 O :    0.395120
  19 C :    0.031678
  20 H :   -0.025611
  21 H :   -0.030455
  22 H :   -0.025796
  23 H :   -0.028003
  24 H :   -0.029693
  25 H :   -0.004423
  26 H :   -0.004076
  27 H :   -0.023485
  28 H :   -0.057592
  29 H :   -0.064552
  30 H :   -0.011229
  31 H :   -0.030680
  32 H :   -0.021615
  33 H :   -0.035707
  34 H :   -0.154043
  35 H :   -0.023690

  Mayer bond orders larger than 0.100000
B(  0-C ,  1-C ) :   0.9730 B(  0-C , 20-H ) :   0.9756 B(  0-C , 21-H ) :   0.9796
B(  0-C , 22-H ) :   0.9786 B(  1-C ,  2-O ) :   0.8816 B(  1-C , 23-H ) :   0.9748
B(  1-C , 24-H ) :   0.9777 B(  2-O ,  3-C ) :   1.1744 B(  3-C ,  4-O ) :   1.9738
B(  3-C ,  5-C ) :   1.0537 B(  5-C ,  6-C ) :   1.6574 B(  5-C , 12-C ) :   0.9719
B(  6-C ,  7-C ) :   0.9673 B(  6-C ,  8-N ) :   1.1648 B(  7-C , 25-H ) :   0.9604
B(  7-C , 26-H ) :   0.9604 B(  7-C , 27-H ) :   0.9903 B(  8-N ,  9-C ) :   1.1827
B(  8-N , 28-H ) :   0.9480 B(  9-C , 10-S ) :   1.6079 B(  9-C , 11-N ) :   1.3045
B( 11-N , 12-C ) :   0.9901 B( 11-N , 29-H ) :   0.9518 B( 12-C , 13-C ) :   0.9352
B( 12-C , 30-H ) :   1.0033 B( 13-C , 14-C ) :   1.3544 B( 13-C , 19-C ) :   1.3831
B( 14-C , 15-C ) :   1.3918 B( 14-C , 31-H ) :   0.9712 B( 15-C , 16-C ) :   1.3633
B( 15-C , 32-H ) :   0.9708 B( 16-C , 17-C ) :   1.3318 B( 16-C , 33-H ) :   0.9853
B( 17-C , 18-O ) :   1.1100 B( 17-C , 19-C ) :   1.3731 B( 18-O , 34-H ) :   0.9800
B( 19-C , 35-H ) :   0.9582

MP2 TOTAL ENERGY:    -1274.349732590 Eh
FINAL SINGLE POINT ENERGY     -1274.349732589885

DIPOLE MOMENT
-------------
                                X             Y             Z
Electronic contribution:      8.89252      10.31185       9.57946
Nuclear contribution   :    -10.09286     -11.91722      -9.95810
                        -----------------------------------------
Total Dipole Moment    :     -1.20033      -1.60537      -0.37863
                        -----------------------------------------
Magnitude (a.u.)       :      2.03995
Magnitude (Debye)      :      5.18513

Rotational constants in cm-1:     0.011113     0.008610     0.006095
Rotational constants in MHz :   333.146017   258.110470   182.735065

                             ****ORCA TERMINATED NORMALLY****
TOTAL RUN TIME: 0 days 1 hours 43 minutes 46 seconds 535 msec
