                         Program Version 5.0.0 -  RELEASE  -
|  1> ! ri-mp2 cc-pvtz cc-pvtz/c TightSCF NoKeepInts
|  2>
|  3> %scf
|  4>   MaxCore 4096
|  5> end
|  6> *xyz  0  1
|  7>     C       15.2557112   14.5136908   17.1497084
|  8>     C       16.4535882   14.0328070   16.3033291
|  9>     O       17.5996718   14.8999880   16.4501713
| 10>     C       17.4839379   16.2222657   16.1281745
| 11>     O       16.8746633   16.5621257   15.1285258
| 12>     C       17.7505991   17.1345860   17.2954013
| 13>     C       17.4047345   18.4479852   17.2900501
| 14>     C       16.6358771   19.1942179   16.2206459
| 15>     N       17.8206533   19.2835912   18.3318297
| 16>     C       18.7509946   18.9404980   19.2772707
| 17>     S       19.3402955   20.0370518   20.3661964
| 18>     N       19.1762485   17.6360072   19.2667512
| 19>     C       18.5486610   16.5593083   18.4782125
| 20>     C       17.7067531   15.6855504   19.4029528
| 21>     C       18.0418851   14.3327819   19.6025954
| 22>     C       17.2859848   13.5290919   20.4727379
| 23>     C       16.1889807   14.0832050   21.1543486
| 24>     C       15.8561883   15.4313914   20.9639199
| 25>     O       14.7968611   15.9689590   21.6191743
| 26>     C       16.6087247   16.2281432   20.0954312
| 27>     H       15.4853478   14.4628263   18.2178520
| 28>     H       14.3862658   13.8705751   16.9684730
| 29>     H       14.9664158   15.5414955   16.8988375
| 30>     H       16.7260999   13.0143937   16.6082170
| 31>     H       16.1560780   13.9966222   15.2464471
| 32>     H       17.1922987   19.1938028   15.2746339
| 33>     H       16.4339365   20.2382445   16.4870590
| 34>     H       15.6693556   18.7099249   16.0317834
| 35>     H       17.5263906   20.2471261   18.3441337
| 36>     H       19.8413504   17.4031922   19.9929238
| 37>     H       19.3574319   15.9408798   18.0641209
| 38>     H       18.8896231   13.9013071   19.0769035
| 39>     H       17.5526139   12.4836910   20.6185159
| 40>     H       15.6031136   13.4669311   21.8284286
| 41>     H       14.4405668   15.2867257   22.2078796
| 42>     H       16.3390976   17.2710163   19.9703640
| 43> *
| 44>
| 45>                          ****END OF INPUT****

CARTESIAN COORDINATES (ANGSTROEM)
---------------------------------
  C     15.255711   14.513691   17.149708
  C     16.453588   14.032807   16.303329
  O     17.599672   14.899988   16.450171
  C     17.483938   16.222266   16.128175
  O     16.874663   16.562126   15.128526
  C     17.750599   17.134586   17.295401
  C     17.404734   18.447985   17.290050
  C     16.635877   19.194218   16.220646
  N     17.820653   19.283591   18.331830
  C     18.750995   18.940498   19.277271
  S     19.340295   20.037052   20.366196
  N     19.176248   17.636007   19.266751
  C     18.548661   16.559308   18.478212
  C     17.706753   15.685550   19.402953
  C     18.041885   14.332782   19.602595
  C     17.285985   13.529092   20.472738
  C     16.188981   14.083205   21.154349
  C     15.856188   15.431391   20.963920
  O     14.796861   15.968959   21.619174
  C     16.608725   16.228143   20.095431
  H     15.485348   14.462826   18.217852
  H     14.386266   13.870575   16.968473
  H     14.966416   15.541495   16.898837
  H     16.726100   13.014394   16.608217
  H     16.156078   13.996622   15.246447
  H     17.192299   19.193803   15.274634
  H     16.433937   20.238245   16.487059
  H     15.669356   18.709925   16.031783
  H     17.526391   20.247126   18.344134
  H     19.841350   17.403192   19.992924
  H     19.357432   15.940880   18.064121
  H     18.889623   13.901307   19.076904
  H     17.552614   12.483691   20.618516
  H     15.603114   13.466931   21.828429
  H     14.440567   15.286726   22.207880
  H     16.339098   17.271016   19.970364

 Total Charge           Charge          ....    0
 Multiplicity           Mult            ....    1
 Number of Electrons    NEL             ....  154
 Basis Dimension        Dim             ....  828

ORBITAL ENERGIES
----------------

  NO   OCC          E(Eh)            E(eV)
   0   2.0000     -91.890504     -2500.4677
   1   2.0000     -20.598589      -560.5161
   2   2.0000     -20.587830      -560.2233
   3   2.0000     -20.545900      -559.0824
   4   2.0000     -15.630874      -425.3377
   5   2.0000     -15.609000      -424.7425
   6   2.0000     -11.394355      -310.0562
   7   2.0000     -11.385005      -309.8017
   8   2.0000     -11.337259      -308.5025
   9   2.0000     -11.316040      -307.9251
  10   2.0000     -11.310862      -307.7842
  11   2.0000     -11.297465      -307.4197
  12   2.0000     -11.261348      -306.4368
  13   2.0000     -11.260277      -306.4077
  14   2.0000     -11.257656      -306.3364
  15   2.0000     -11.253312      -306.2182
  16   2.0000     -11.245623      -306.0090
  17   2.0000     -11.240173      -305.8607
  18   2.0000     -11.239973      -305.8552
  19   2.0000     -11.221656      -305.3568
  20   2.0000      -8.895523      -242.0595
  21   2.0000      -6.577088      -178.9717
  22   2.0000      -6.575095      -178.9174
  23   2.0000      -6.574499      -178.9012
  24   2.0000      -1.448436       -39.4140
  25   2.0000      -1.418321       -38.5945
  26   2.0000      -1.351457       -36.7750
  27   2.0000      -1.341775       -36.5116
  28   2.0000      -1.239823       -33.7373
  29   2.0000      -1.159256       -31.5449
  30   2.0000      -1.120924       -30.5019
  31   2.0000      -1.043994       -28.4085
  32   2.0000      -1.031698       -28.0739
  33   2.0000      -1.017330       -27.6830
  34   2.0000      -0.997681       -27.1483
  35   2.0000      -0.985780       -26.8244
  36   2.0000      -0.924129       -25.1468
  37   2.0000      -0.894827       -24.3495
  38   2.0000      -0.847980       -23.0747
  39   2.0000      -0.840900       -22.8821
  40   2.0000      -0.836047       -22.7500
  41   2.0000      -0.815595       -22.1935
  42   2.0000      -0.750706       -20.4278
  43   2.0000      -0.733901       -19.9705
  44   2.0000      -0.722775       -19.6677
  45   2.0000      -0.697960       -18.9925
  46   2.0000      -0.690835       -18.7986
  47   2.0000      -0.676382       -18.4053
  48   2.0000      -0.668671       -18.1955
  49   2.0000      -0.665487       -18.1088
  50   2.0000      -0.649505       -17.6739
  51   2.0000      -0.643874       -17.5207
  52   2.0000      -0.636549       -17.3214
  53   2.0000      -0.613753       -16.7011
  54   2.0000      -0.608893       -16.5688
  55   2.0000      -0.601317       -16.3627
  56   2.0000      -0.600028       -16.3276
  57   2.0000      -0.579505       -15.7691
  58   2.0000      -0.571497       -15.5512
  59   2.0000      -0.565325       -15.3833
  60   2.0000      -0.551773       -15.0145
  61   2.0000      -0.543647       -14.7934
  62   2.0000      -0.536819       -14.6076
  63   2.0000      -0.530204       -14.4276
  64   2.0000      -0.526792       -14.3347
  65   2.0000      -0.515154       -14.0180
  66   2.0000      -0.503275       -13.6948
  67   2.0000      -0.501501       -13.6465
  68   2.0000      -0.475710       -12.9447
  69   2.0000      -0.465158       -12.6576
  70   2.0000      -0.452698       -12.3186
  71   2.0000      -0.444255       -12.0888
  72   2.0000      -0.357067        -9.7163
  73   2.0000      -0.351107        -9.5541
  74   2.0000      -0.329719        -8.9721
  75   2.0000      -0.324461        -8.8290
  76   2.0000      -0.317253        -8.6329
  77   0.0000       0.069246         1.8843
  78   0.0000       0.105507         2.8710
  79   0.0000       0.122123         3.3231
  80   0.0000       0.130011         3.5378
  81   0.0000       0.135392         3.6842

MULLIKEN ATOMIC CHARGES
-----------------------
   0 C :   -0.322068
   1 C :    0.032668
   2 O :   -0.385072
   3 C :    0.463721
   4 O :   -0.418904
   5 C :   -0.209967
   6 C :    0.150378
   7 C :   -0.270456
   8 N :   -0.123844
   9 C :    0.202790
  10 S :   -0.434648
  11 N :   -0.194987
  12 C :    0.033597
  13 C :    0.046566
  14 C :   -0.179040
  15 C :   -0.134546
  16 C :   -0.272845
  17 C :    0.299088
  18 O :   -0.358937
  19 C :   -0.243459
  20 H :    0.111555
  21 H :    0.112276
  22 H :    0.107134
  23 H :    0.113727
  24 H :    0.119839
  25 H :    0.134518
  26 H :    0.094821
  27 H :    0.128844
  28 H :    0.198547
  29 H :    0.191428
  30 H :    0.151315
  31 H :    0.155550
  32 H :    0.161286
  33 H :    0.131804
  34 H :    0.240963
  35 H :    0.166360
Sum of atomic charges:    0.0000000

LOEWDIN ATOMIC CHARGES
----------------------
   0 C :    0.107853
   1 C :   -0.014752
   2 O :    0.286794
   3 C :   -0.418473
   4 O :    0.110286
   5 C :   -0.096623
   6 C :   -0.057983
   7 C :    0.130957
   8 N :    0.406823
   9 C :   -0.458229
  10 S :   -0.032120
  11 N :    0.396736
  12 C :   -0.052457
  13 C :   -0.039166
  14 C :    0.014910
  15 C :    0.038945
  16 C :   -0.002528
  17 C :   -0.191622
  18 O :    0.396529
  19 C :    0.032556
  20 H :   -0.028353
  21 H :   -0.024694
  22 H :   -0.028099
  23 H :   -0.023830
  24 H :   -0.028511
  25 H :   -0.003207
  26 H :   -0.023238
  27 H :   -0.006201
  28 H :   -0.057680
  29 H :   -0.065015
  30 H :   -0.006988
  31 H :   -0.028866
  32 H :   -0.020741
  33 H :   -0.035111
  34 H :   -0.153440
  35 H :   -0.024464

  Mayer bond orders larger than 0.100000
B(  0-C ,  1-C ) :   0.9565 B(  0-C , 20-H ) :   0.9704 B(  0-C , 21-H ) :   0.9782
B(  0-C , 22-H ) :   0.9734 B(  1-C ,  2-O ) :   0.8845 B(  1-C , 23-H ) :   0.9826
B(  1-C , 24-H ) :   0.9842 B(  2-O ,  3-C ) :   1.1104 B(  3-C ,  4-O ) :   1.9925
B(  3-C ,  5-C ) :   1.0685 B(  5-C ,  6-C ) :   1.6526 B(  5-C , 12-C ) :   0.9706
B(  6-C ,  7-C ) :   0.9704 B(  6-C ,  8-N ) :   1.1498 B(  7-C , 25-H ) :   0.9576
B(  7-C , 26-H ) :   0.9892 B(  7-C , 27-H ) :   0.9637 B(  8-N ,  9-C ) :   1.1782
B(  8-N , 28-H ) :   0.9483 B(  9-C , 10-S ) :   1.6173 B(  9-C , 11-N ) :   1.3005
B( 11-N , 12-C ) :   0.9848 B( 11-N , 29-H ) :   0.9538 B( 12-C , 13-C ) :   0.9367
B( 12-C , 30-H ) :   1.0041 B( 13-C , 14-C ) :   1.3627 B( 13-C , 19-C ) :   1.3780
B( 14-C , 15-C ) :   1.3863 B( 14-C , 31-H ) :   0.9690 B( 15-C , 16-C ) :   1.3620
B( 15-C , 32-H ) :   0.9715 B( 16-C , 17-C ) :   1.3308 B( 16-C , 33-H ) :   0.9848
B( 17-C , 18-O ) :   1.1135 B( 17-C , 19-C ) :   1.3784 B( 18-O , 34-H ) :   0.9796
B( 19-C , 35-H ) :   0.9565

MP2 TOTAL ENERGY:    -1274.336465078 Eh
FINAL SINGLE POINT ENERGY     -1274.336465077952

DIPOLE MOMENT
-------------
                                X             Y             Z
Electronic contribution:      9.70391       9.23306       5.82859
Nuclear contribution   :    -10.70746     -10.89964      -5.90485
                        -----------------------------------------
Total Dipole Moment    :     -1.00355      -1.66658      -0.07625
                        -----------------------------------------
Magnitude (a.u.)       :      1.94690
Magnitude (Debye)      :      4.94862

Rotational constants in cm-1:     0.011982     0.009570     0.006568
Rotational constants in MHz :   359.199220   286.891337   196.892380

                             ****ORCA TERMINATED NORMALLY****
TOTAL RUN TIME: 0 days 2 hours 12 minutes 17 seconds 101 msec
