                         Program Version 5.0.0 -  RELEASE  -
|  1> ! ri-mp2 cc-pvtz cc-pvtz/c TightSCF NoKeepInts
|  2>
|  3> %scf
|  4>   MaxCore 4096
|  5> end
|  6> *xyz  0  1
|  7>     C       14.8100892   15.7530259   16.8596163
|  8>     C       15.8685954   14.6455658   17.0313099
|  9>     O       17.0185899   14.8788611   16.1903347
| 10>     C       17.8636028   15.9617617   16.1949720
| 11>     O       18.5409819   16.2067039   15.2146912
| 12>     C       17.8035740   16.9249916   17.3353279
| 13>     C       17.3588510   18.1849318   17.1233252
| 14>     C       16.7263658   18.7084003   15.8523733
| 15>     N       17.5249415   19.1642193   18.1044259
| 16>     C       18.3024672   19.0135147   19.2221410
| 17>     S       18.5538987   20.2548680   20.2852202
| 18>     N       18.8703126   17.7778385   19.4133033
| 19>     C       18.5789844   16.5714046   18.6128107
| 20>     C       17.8965643   15.5284767   19.4857798
| 21>     C       18.3916946   14.2117223   19.5351242
| 22>     C       17.7623044   13.2420953   20.3336894
| 23>     C       16.6314593   13.5916684   21.0914524
| 24>     C       16.1391565   14.9031269   21.0495523
| 25>     O       15.0435891   15.2419740   21.7738106
| 26>     C       16.7657365   15.8664079   20.2526829
| 27>     H       15.0849749   16.6635734   17.4015715
| 28>     H       13.8473370   15.4150260   17.2622592
| 29>     H       14.6654753   15.9945506   15.7992198
| 30>     H       16.1361959   14.5289927   18.0812525
| 31>     H       15.4176828   13.6943517   16.7202708
| 32>     H       16.2096296   17.9160733   15.2978593
| 33>     H       17.4979057   19.1149956   15.1856495
| 34>     H       15.9933798   19.4993247   16.0511926
| 35>     H       17.1466056   20.0869805   17.9591254
| 36>     H       19.4268530   17.6956751   20.2548559
| 37>     H       19.5449909   16.1548058   18.2924769
| 38>     H       19.2636784   13.9356073   18.9470189
| 39>     H       18.1515753   12.2254393   20.3639001
| 40>     H       16.1426833   12.8451098   21.7092496
| 41>     H       14.7975556   14.4735694   22.3111135
| 42>     H       16.3687179   16.8763663   20.2350414
| 43> *
| 44>
| 45>                          ****END OF INPUT****

CARTESIAN COORDINATES (ANGSTROEM)
---------------------------------
  C     14.810089   15.753026   16.859616
  C     15.868595   14.645566   17.031310
  O     17.018590   14.878861   16.190335
  C     17.863603   15.961762   16.194972
  O     18.540982   16.206704   15.214691
  C     17.803574   16.924992   17.335328
  C     17.358851   18.184932   17.123325
  C     16.726366   18.708400   15.852373
  N     17.524942   19.164219   18.104426
  C     18.302467   19.013515   19.222141
  S     18.553899   20.254868   20.285220
  N     18.870313   17.777838   19.413303
  C     18.578984   16.571405   18.612811
  C     17.896564   15.528477   19.485780
  C     18.391695   14.211722   19.535124
  C     17.762304   13.242095   20.333689
  C     16.631459   13.591668   21.091452
  C     16.139156   14.903127   21.049552
  O     15.043589   15.241974   21.773811
  C     16.765736   15.866408   20.252683
  H     15.084975   16.663573   17.401571
  H     13.847337   15.415026   17.262259
  H     14.665475   15.994551   15.799220
  H     16.136196   14.528993   18.081253
  H     15.417683   13.694352   16.720271
  H     16.209630   17.916073   15.297859
  H     17.497906   19.114996   15.185649
  H     15.993380   19.499325   16.051193
  H     17.146606   20.086980   17.959125
  H     19.426853   17.695675   20.254856
  H     19.544991   16.154806   18.292477
  H     19.263678   13.935607   18.947019
  H     18.151575   12.225439   20.363900
  H     16.142683   12.845110   21.709250
  H     14.797556   14.473569   22.311113
  H     16.368718   16.876366   20.235041

 Total Charge           Charge          ....    0
 Multiplicity           Mult            ....    1
 Number of Electrons    NEL             ....  154
 Basis Dimension        Dim             ....  828

ORBITAL ENERGIES
----------------

  NO   OCC          E(Eh)            E(eV)
   0   2.0000     -91.889605     -2500.4433
   1   2.0000     -20.606231      -560.7241
   2   2.0000     -20.596570      -560.4612
   3   2.0000     -20.549501      -559.1804
   4   2.0000     -15.625589      -425.1939
   5   2.0000     -15.611795      -424.8186
   6   2.0000     -11.397044      -310.1293
   7   2.0000     -11.385601      -309.8179
   8   2.0000     -11.325878      -308.1928
   9   2.0000     -11.325089      -308.1713
  10   2.0000     -11.320113      -308.0359
  11   2.0000     -11.299772      -307.4824
  12   2.0000     -11.270390      -306.6829
  13   2.0000     -11.266487      -306.5767
  14   2.0000     -11.260026      -306.4009
  15   2.0000     -11.257748      -306.3389
  16   2.0000     -11.254682      -306.2555
  17   2.0000     -11.249497      -306.1144
  18   2.0000     -11.248660      -306.0916
  19   2.0000     -11.232535      -305.6528
  20   2.0000      -8.894699      -242.0371
  21   2.0000      -6.576284      -178.9498
  22   2.0000      -6.574264      -178.8948
  23   2.0000      -6.573687      -178.8791
  24   2.0000      -1.443613       -39.2827
  25   2.0000      -1.425998       -38.8034
  26   2.0000      -1.356932       -36.9240
  27   2.0000      -1.339652       -36.4538
  28   2.0000      -1.240477       -33.7551
  29   2.0000      -1.168059       -31.7845
  30   2.0000      -1.124904       -30.6102
  31   2.0000      -1.052179       -28.6312
  32   2.0000      -1.036432       -28.2027
  33   2.0000      -1.026324       -27.9277
  34   2.0000      -1.003870       -27.3167
  35   2.0000      -0.989316       -26.9207
  36   2.0000      -0.929357       -25.2891
  37   2.0000      -0.896702       -24.4005
  38   2.0000      -0.852077       -23.1862
  39   2.0000      -0.845596       -23.0098
  40   2.0000      -0.844733       -22.9863
  41   2.0000      -0.831992       -22.6397
  42   2.0000      -0.753038       -20.4912
  43   2.0000      -0.739701       -20.1283
  44   2.0000      -0.723044       -19.6750
  45   2.0000      -0.705409       -19.1952
  46   2.0000      -0.694057       -18.8862
  47   2.0000      -0.680352       -18.5133
  48   2.0000      -0.675900       -18.3922
  49   2.0000      -0.664564       -18.0837
  50   2.0000      -0.654273       -17.8037
  51   2.0000      -0.646110       -17.5815
  52   2.0000      -0.637068       -17.3355
  53   2.0000      -0.622117       -16.9287
  54   2.0000      -0.615059       -16.7366
  55   2.0000      -0.609468       -16.5845
  56   2.0000      -0.605378       -16.4732
  57   2.0000      -0.585433       -15.9304
  58   2.0000      -0.579066       -15.7572
  59   2.0000      -0.568073       -15.4581
  60   2.0000      -0.565471       -15.3873
  61   2.0000      -0.551244       -15.0001
  62   2.0000      -0.540168       -14.6987
  63   2.0000      -0.535605       -14.5745
  64   2.0000      -0.531292       -14.4572
  65   2.0000      -0.518741       -14.1157
  66   2.0000      -0.506223       -13.7750
  67   2.0000      -0.504727       -13.7343
  68   2.0000      -0.487708       -13.2712
  69   2.0000      -0.465208       -12.6590
  70   2.0000      -0.452346       -12.3090
  71   2.0000      -0.447697       -12.1824
  72   2.0000      -0.358457        -9.7541
  73   2.0000      -0.355100        -9.6628
  74   2.0000      -0.334747        -9.1089
  75   2.0000      -0.328756        -8.9459
  76   2.0000      -0.317393        -8.6367
  77   0.0000       0.084376         2.2960
  78   0.0000       0.098454         2.6791
  79   0.0000       0.118628         3.2280
  80   0.0000       0.125834         3.4241
  81   0.0000       0.131602         3.5811

MULLIKEN ATOMIC CHARGES
-----------------------
   0 C :   -0.334391
   1 C :    0.037062
   2 O :   -0.315209
   3 C :    0.387381
   4 O :   -0.371378
   5 C :   -0.201210
   6 C :    0.142578
   7 C :   -0.294397
   8 N :   -0.129655
   9 C :    0.201743
  10 S :   -0.440438
  11 N :   -0.201481
  12 C :    0.036921
  13 C :    0.018197
  14 C :   -0.189927
  15 C :   -0.132124
  16 C :   -0.270666
  17 C :    0.305001
  18 O :   -0.354181
  19 C :   -0.249170
  20 H :    0.105553
  21 H :    0.117709
  22 H :    0.111795
  23 H :    0.098877
  24 H :    0.124383
  25 H :    0.118081
  26 H :    0.149163
  27 H :    0.101344
  28 H :    0.197529
  29 H :    0.194011
  30 H :    0.162931
  31 H :    0.155224
  32 H :    0.164648
  33 H :    0.135791
  34 H :    0.242150
  35 H :    0.176156
Sum of atomic charges:   -0.0000000

LOEWDIN ATOMIC CHARGES
----------------------
   0 C :    0.102811
   1 C :   -0.016266
   2 O :    0.301013
   3 C :   -0.417599
   4 O :    0.127900
   5 C :   -0.084354
   6 C :   -0.092425
   7 C :    0.129311
   8 N :    0.403794
   9 C :   -0.456834
  10 S :   -0.037064
  11 N :    0.396951
  12 C :   -0.052223
  13 C :   -0.047309
  14 C :    0.013524
  15 C :    0.045215
  16 C :    0.001598
  17 C :   -0.191805
  18 O :    0.398309
  19 C :    0.032721
  20 H :   -0.035759
  21 H :   -0.022440
  22 H :   -0.027693
  23 H :   -0.038652
  24 H :   -0.019916
  25 H :   -0.010075
  26 H :   -0.003627
  27 H :   -0.019375
  28 H :   -0.057848
  29 H :   -0.064591
  30 H :   -0.006027
  31 H :   -0.027166
  32 H :   -0.017873
  33 H :   -0.032941
  34 H :   -0.151861
  35 H :   -0.021424

  Mayer bond orders larger than 0.100000
B(  0-C ,  1-C ) :   0.9556 B(  0-C , 20-H ) :   0.9736 B(  0-C , 21-H ) :   0.9774
B(  0-C , 22-H ) :   0.9764 B(  1-C ,  2-O ) :   0.9055 B(  1-C , 23-H ) :   0.9628
B(  1-C , 24-H ) :   0.9851 B(  2-O ,  3-C ) :   1.2051 B(  3-C ,  4-O ) :   2.1197
B(  3-C ,  5-C ) :   0.8979 B(  5-C ,  6-C ) :   1.7335 B(  5-C , 12-C ) :   0.9581
B(  6-C ,  7-C ) :   0.9529 B(  6-C ,  8-N ) :   1.1123 B(  7-C , 25-H ) :   0.9762
B(  7-C , 26-H ) :   0.9607 B(  7-C , 27-H ) :   0.9791 B(  8-N ,  9-C ) :   1.1986
B(  8-N , 28-H ) :   0.9506 B(  9-C , 10-S ) :   1.6134 B(  9-C , 11-N ) :   1.2811
B( 11-N , 12-C ) :   0.9979 B( 11-N , 29-H ) :   0.9507 B( 12-C , 13-C ) :   0.9373
B( 12-C , 30-H ) :   1.0060 B( 13-C , 14-C ) :   1.3742 B( 13-C , 19-C ) :   1.3580
B( 14-C , 15-C ) :   1.3912 B( 14-C , 31-H ) :   0.9695 B( 15-C , 16-C ) :   1.3696
B( 15-C , 32-H ) :   0.9698 B( 16-C , 17-C ) :   1.3243 B( 16-C , 33-H ) :   0.9831
B( 17-C , 18-O ) :   1.1169 B( 17-C , 19-C ) :   1.3687 B( 18-O , 34-H ) :   0.9783
B( 19-C , 35-H ) :   0.9570

MP2 TOTAL ENERGY:    -1274.328374305 Eh
FINAL SINGLE POINT ENERGY     -1274.328374304538

DIPOLE MOMENT
-------------
                                X             Y             Z
Electronic contribution:      9.93980       6.04720       6.15174
Nuclear contribution   :    -11.37851      -7.77656      -5.75415
                        -----------------------------------------
Total Dipole Moment    :     -1.43871      -1.72936       0.39759
                        -----------------------------------------
Magnitude (a.u.)       :      2.28443
Magnitude (Debye)      :      5.80657

Rotational constants in cm-1:     0.011801     0.009566     0.006691
Rotational constants in MHz :   353.775689   286.780757   200.599035

                             ****ORCA TERMINATED NORMALLY****
TOTAL RUN TIME: 0 days 2 hours 24 minutes 29 seconds 51 msec
