                         Program Version 4.2.0 -  RELEASE  -
|  1> ! ri-mp2 cc-pvtz cc-pvtz/c TightSCF  NoKeepInts
|  2>
|  3> %scf
|  4>   MaxCore 4096
|  5> end
|  6> *xyz  0  1
|  7>     C       15.6827208   13.7768089   17.4359693
|  8>     C       16.2241478   14.3081820   16.1010762
|  9>     O       17.4952540   14.9678210   16.2946915
| 10>     C       17.5657530   16.3038980   16.0179322
| 11>     O       17.1187684   16.7233980   14.9644635
| 12>     C       17.7228510   17.1658128   17.2410302
| 13>     C       17.3602254   18.4752143   17.2644566
| 14>     C       16.6171714   19.2484249   16.1959840
| 15>     N       17.7428342   19.2835888   18.3403479
| 16>     C       18.6965733   18.9370296   19.2617059
| 17>     S       19.2841919   20.0182204   20.3669131
| 18>     N       19.1533048   17.6440146   19.2034212
| 19>     C       18.5008516   16.5727858   18.4282758
| 20>     C       17.6516136   15.7406972   19.3824724
| 21>     C       18.0811930   14.4577956   19.7715983
| 22>     C       17.3368840   13.7026721   20.6938871
| 23>     C       16.1570495   14.2372271   21.2387228
| 24>     C       15.7342969   15.5204093   20.8661377
| 25>     O       14.5983982   16.0417249   21.3938809
| 26>     C       16.4770806   16.2699686   19.9486136
| 27>     H       16.4299564   13.1527211   17.9393837
| 28>     H       14.7888895   13.1645876   17.2666527
| 29>     H       15.3991803   14.6026787   18.0954973
| 30>     H       16.3659459   13.4644068   15.4135156
| 31>     H       15.4821596   14.9809083   15.6488667
| 32>     H       15.7046095   18.7171436   15.8975625
| 33>     H       17.2394709   19.3596724   15.2987086
| 34>     H       16.3194324   20.2514872   16.5230921
| 35>     H       17.4309362   20.2408621   18.3794680
| 36>     H       19.8393742   17.4072910   19.9084076
| 37>     H       19.2900731   15.9262176   18.0192615
| 38>     H       18.9959891   14.0430821   19.3566166
| 39>     H       17.6761566   12.7100514   20.9851764
| 40>     H       15.5791300   13.6579698   21.9513557
| 41>     H       14.2647257   15.4101584   22.0488300
| 42>     H       16.1398072   17.2670680   19.6900246
| 43> *
| 44>
| 45>                          ****END OF INPUT****

CARTESIAN COORDINATES (ANGSTROEM)
---------------------------------
  C     15.682721   13.776809   17.435969
  C     16.224148   14.308182   16.101076
  O     17.495254   14.967821   16.294691
  C     17.565753   16.303898   16.017932
  O     17.118768   16.723398   14.964464
  C     17.722851   17.165813   17.241030
  C     17.360225   18.475214   17.264457
  C     16.617171   19.248425   16.195984
  N     17.742834   19.283589   18.340348
  C     18.696573   18.937030   19.261706
  S     19.284192   20.018220   20.366913
  N     19.153305   17.644015   19.203421
  C     18.500852   16.572786   18.428276
  C     17.651614   15.740697   19.382472
  C     18.081193   14.457796   19.771598
  C     17.336884   13.702672   20.693887
  C     16.157049   14.237227   21.238723
  C     15.734297   15.520409   20.866138
  O     14.598398   16.041725   21.393881
  C     16.477081   16.269969   19.948614
  H     16.429956   13.152721   17.939384
  H     14.788889   13.164588   17.266653
  H     15.399180   14.602679   18.095497
  H     16.365946   13.464407   15.413516
  H     15.482160   14.980908   15.648867
  H     15.704610   18.717144   15.897562
  H     17.239471   19.359672   15.298709
  H     16.319432   20.251487   16.523092
  H     17.430936   20.240862   18.379468
  H     19.839374   17.407291   19.908408
  H     19.290073   15.926218   18.019261
  H     18.995989   14.043082   19.356617
  H     17.676157   12.710051   20.985176
  H     15.579130   13.657970   21.951356
  H     14.264726   15.410158   22.048830
  H     16.139807   17.267068   19.690025

 Total Charge           Charge          ....    0
 Multiplicity           Mult            ....    1
 Number of Electrons    NEL             ....  154
 Basis Dimension        Dim             ....  828

ORBITAL ENERGIES
----------------

  NO   OCC          E(Eh)            E(eV)
   0   2.0000     -91.890472     -2500.4669
   1   2.0000     -20.599560      -560.5425
   2   2.0000     -20.586396      -560.1843
   3   2.0000     -20.547907      -559.1370
   4   2.0000     -15.630981      -425.3406
   5   2.0000     -15.608645      -424.7328
   6   2.0000     -11.393891      -310.0435
   7   2.0000     -11.384743      -309.7946
   8   2.0000     -11.337098      -308.4981
   9   2.0000     -11.316669      -307.9422
  10   2.0000     -11.311432      -307.7997
  11   2.0000     -11.295055      -307.3541
  12   2.0000     -11.261930      -306.4527
  13   2.0000     -11.260542      -306.4149
  14   2.0000     -11.257828      -306.3411
  15   2.0000     -11.253502      -306.2234
  16   2.0000     -11.245795      -306.0136
  17   2.0000     -11.240123      -305.8593
  18   2.0000     -11.240068      -305.8578
  19   2.0000     -11.219197      -305.2899
  20   2.0000      -8.895473      -242.0581
  21   2.0000      -6.577035      -178.9702
  22   2.0000      -6.575047      -178.9161
  23   2.0000      -6.574448      -178.8998
  24   2.0000      -1.448971       -39.4285
  25   2.0000      -1.419231       -38.6192
  26   2.0000      -1.351279       -36.7702
  27   2.0000      -1.341990       -36.5174
  28   2.0000      -1.240008       -33.7423
  29   2.0000      -1.159417       -31.5494
  30   2.0000      -1.120767       -30.4976
  31   2.0000      -1.044128       -28.4122
  32   2.0000      -1.033115       -28.1125
  33   2.0000      -1.018009       -27.7014
  34   2.0000      -0.998175       -27.1617
  35   2.0000      -0.985262       -26.8103
  36   2.0000      -0.924459       -25.1558
  37   2.0000      -0.885642       -24.0995
  38   2.0000      -0.847928       -23.0733
  39   2.0000      -0.841470       -22.8976
  40   2.0000      -0.835965       -22.7478
  41   2.0000      -0.818835       -22.2816
  42   2.0000      -0.759907       -20.6781
  43   2.0000      -0.734140       -19.9770
  44   2.0000      -0.721047       -19.6207
  45   2.0000      -0.698753       -19.0140
  46   2.0000      -0.690257       -18.7828
  47   2.0000      -0.679429       -18.4882
  48   2.0000      -0.671233       -18.2652
  49   2.0000      -0.665136       -18.0993
  50   2.0000      -0.649228       -17.6664
  51   2.0000      -0.646220       -17.5845
  52   2.0000      -0.637765       -17.3545
  53   2.0000      -0.610174       -16.6037
  54   2.0000      -0.603177       -16.4133
  55   2.0000      -0.600273       -16.3343
  56   2.0000      -0.586276       -15.9534
  57   2.0000      -0.579228       -15.7616
  58   2.0000      -0.573784       -15.6134
  59   2.0000      -0.568787       -15.4775
  60   2.0000      -0.564284       -15.3550
  61   2.0000      -0.548544       -14.9266
  62   2.0000      -0.538163       -14.6442
  63   2.0000      -0.527534       -14.3549
  64   2.0000      -0.517605       -14.0848
  65   2.0000      -0.513717       -13.9789
  66   2.0000      -0.503617       -13.7041
  67   2.0000      -0.498725       -13.5710
  68   2.0000      -0.481768       -13.1096
  69   2.0000      -0.462411       -12.5828
  70   2.0000      -0.450984       -12.2719
  71   2.0000      -0.445945       -12.1348
  72   2.0000      -0.358593        -9.7578
  73   2.0000      -0.351365        -9.5611
  74   2.0000      -0.329777        -8.9737
  75   2.0000      -0.324266        -8.8237
  76   2.0000      -0.316826        -8.6213
  77   0.0000       0.068595         1.8666
  78   0.0000       0.103284         2.8105
  79   0.0000       0.120522         3.2796
  80   0.0000       0.129664         3.5283
  81   0.0000       0.133369         3.6291

MULLIKEN ATOMIC CHARGES
-----------------------
   0 C :   -0.302157
   1 C :    0.049864
   2 O :   -0.379591
   3 C :    0.472229
   4 O :   -0.408083
   5 C :   -0.226866
   6 C :    0.143780
   7 C :   -0.270878
   8 N :   -0.125555
   9 C :    0.209559
  10 S :   -0.435128
  11 N :   -0.195094
  12 C :    0.026229
  13 C :    0.087236
  14 C :   -0.197594
  15 C :   -0.129418
  16 C :   -0.268759
  17 C :    0.305558
  18 O :   -0.359416
  19 C :   -0.264024
  20 H :    0.102367
  21 H :    0.111757
  22 H :    0.104123
  23 H :    0.103210
  24 H :    0.096923
  25 H :    0.126179
  26 H :    0.136983
  27 H :    0.094061
  28 H :    0.198814
  29 H :    0.190923
  30 H :    0.148231
  31 H :    0.148292
  32 H :    0.164248
  33 H :    0.132615
  34 H :    0.241508
  35 H :    0.167877
Sum of atomic charges:    0.0000000

LOEWDIN ATOMIC CHARGES
----------------------
   0 C :    0.104870
   1 C :   -0.011806
   2 O :    0.281865
   3 C :   -0.418778
   4 O :    0.117388
   5 C :   -0.097431
   6 C :   -0.059433
   7 C :    0.129680
   8 N :    0.407068
   9 C :   -0.456272
  10 S :   -0.031769
  11 N :    0.396336
  12 C :   -0.053553
  13 C :   -0.035678
  14 C :    0.015407
  15 C :    0.044596
  16 C :   -0.000320
  17 C :   -0.190241
  18 O :    0.396212
  19 C :    0.030589
  20 H :   -0.028329
  21 H :   -0.026296
  22 H :   -0.029367
  23 H :   -0.027698
  24 H :   -0.028709
  25 H :   -0.006628
  26 H :   -0.003093
  27 H :   -0.023172
  28 H :   -0.057824
  29 H :   -0.066041
  30 H :   -0.005933
  31 H :   -0.030500
  32 H :   -0.020623
  33 H :   -0.034869
  34 H :   -0.153047
  35 H :   -0.026599

  Mayer bond orders larger than 0.100000
B(  0-C ,  1-C ) :   0.9714 B(  0-C , 20-H ) :   0.9718 B(  0-C , 21-H ) :   0.9780
B(  0-C , 22-H ) :   0.9728 B(  1-C ,  2-O ) :   0.8849 B(  1-C , 23-H ) :   0.9893
B(  1-C , 24-H ) :   0.9730 B(  2-O ,  3-C ) :   1.1064 B(  3-C ,  4-O ) :   2.0069
B(  3-C ,  5-C ) :   1.0600 B(  5-C ,  6-C ) :   1.6523 B(  5-C , 12-C ) :   0.9768
B(  6-C ,  7-C ) :   0.9725 B(  6-C ,  8-N ) :   1.1448 B(  7-C , 25-H ) :   0.9662
B(  7-C , 26-H ) :   0.9560 B(  7-C , 27-H ) :   0.9879 B(  8-N ,  9-C ) :   1.1770
B(  8-N , 28-H ) :   0.9487 B(  9-C , 10-S ) :   1.6162 B(  9-C , 11-N ) :   1.3006
B( 11-N , 12-C ) :   0.9703 B( 11-N , 29-H ) :   0.9549 B( 12-C , 13-C ) :   0.9455
B( 12-C , 30-H ) :   1.0040 B( 13-C , 14-C ) :   1.3491 B( 13-C , 19-C ) :   1.3684
B( 14-C , 15-C ) :   1.3807 B( 14-C , 31-H ) :   0.9757 B( 15-C , 16-C ) :   1.3668
B( 15-C , 32-H ) :   0.9700 B( 16-C , 17-C ) :   1.3279 B( 16-C , 33-H ) :   0.9840
B( 17-C , 18-O ) :   1.1122 B( 17-C , 19-C ) :   1.3773 B( 18-O , 34-H ) :   0.9794
B( 19-C , 35-H ) :   0.9573

MP2 TOTAL ENERGY:    -1274.328759350 Eh
FINAL SINGLE POINT ENERGY     -1274.328759350340

DIPOLE MOMENT
-------------
                                X             Y             Z
Electronic contribution:      8.95092      10.36056       4.97079
Nuclear contribution   :    -10.05566     -11.94935      -4.91540
                        -----------------------------------------
Total Dipole Moment    :     -1.10475      -1.58879       0.05539
                        -----------------------------------------
Magnitude (a.u.)       :      1.93592
Magnitude (Debye)      :      4.92073

Rotational constants in cm-1:     0.011715     0.009638     0.006517
Rotational constants in MHz :   351.216341   288.926267   195.360834

                             ****ORCA TERMINATED NORMALLY****
TOTAL RUN TIME: 0 days 1 hours 48 minutes 9 seconds 388 msec
