                         Program Version 4.2.0 -  RELEASE  -
|  1> ! ri-mp2 cc-pvtz cc-pvtz/c TightSCF  NoKeepInts
|  2>
|  3> %scf
|  4>   MaxCore 4096
|  5> end
|  6> *xyz  0  1
|  7>     C       14.9721276   14.0053441   16.3262610
|  8>     C       16.4704798   14.0008989   15.9491357
|  9>     O       17.1882508   15.0517543   16.6298916
| 10>     C       16.8064982   16.3658688   16.5701932
| 11>     O       16.0157842   16.7837580   15.7417641
| 12>     C       17.6096560   17.2359042   17.4974525
| 13>     C       17.5363390   18.5911134   17.4754327
| 14>     C       16.6886258   19.4493809   16.5609281
| 15>     N       18.3213440   19.3503518   18.3483468
| 16>     C       19.2541886   18.8400047   19.2109313
| 17>     S       20.1955117   19.8156118   20.1585942
| 18>     N       19.3688701   17.4740128   19.2509131
| 19>     C       18.5049093   16.5248756   18.5252834
| 20>     C       17.6819562   15.7082684   19.5176489
| 21>     C       17.8896773   14.3222594   19.6481597
| 22>     C       17.1267094   13.5671669   20.5547347
| 23>     C       16.1497136   14.2031550   21.3395499
| 24>     C       15.9430845   15.5838764   21.2151007
| 25>     O       15.0007017   16.2008437   21.9715580
| 26>     C       16.7036568   16.3325916   20.3117544
| 27>     H       14.8471742   14.0642014   17.4149391
| 28>     H       14.4923741   13.0825574   15.9788385
| 29>     H       14.4373545   14.8451837   15.8671655
| 30>     H       16.9102948   13.0334245   16.2228629
| 31>     H       16.5708130   14.1230269   14.8623787
| 32>     H       16.9367743   19.2547295   15.5097667
| 33>     H       16.8180410   20.5234612   16.7379506
| 34>     H       15.6239986   19.2179256   16.6936563
| 35>     H       18.2508867   20.3552453   18.3333651
| 36>     H       20.0368390   17.1260383   19.9266082
| 37>     H       19.1665956   15.8411329   17.9752310
| 38>     H       18.6399402   13.8271782   19.0375675
| 39>     H       17.2929878   12.4953015   20.6465202
| 40>     H       15.5579670   13.6243920   22.0410659
| 41>     H       14.6045180   15.5302118   22.5478117
| 42>     H       16.5323563   17.4009491   20.2346384
| 43> *
| 44>
| 45>                          ****END OF INPUT****

CARTESIAN COORDINATES (ANGSTROEM)
---------------------------------
  C     14.972128   14.005344   16.326261
  C     16.470480   14.000899   15.949136
  O     17.188251   15.051754   16.629892
  C     16.806498   16.365869   16.570193
  O     16.015784   16.783758   15.741764
  C     17.609656   17.235904   17.497453
  C     17.536339   18.591113   17.475433
  C     16.688626   19.449381   16.560928
  N     18.321344   19.350352   18.348347
  C     19.254189   18.840005   19.210931
  S     20.195512   19.815612   20.158594
  N     19.368870   17.474013   19.250913
  C     18.504909   16.524876   18.525283
  C     17.681956   15.708268   19.517649
  C     17.889677   14.322259   19.648160
  C     17.126709   13.567167   20.554735
  C     16.149714   14.203155   21.339550
  C     15.943084   15.583876   21.215101
  O     15.000702   16.200844   21.971558
  C     16.703657   16.332592   20.311754
  H     14.847174   14.064201   17.414939
  H     14.492374   13.082557   15.978838
  H     14.437354   14.845184   15.867166
  H     16.910295   13.033425   16.222863
  H     16.570813   14.123027   14.862379
  H     16.936774   19.254729   15.509767
  H     16.818041   20.523461   16.737951
  H     15.623999   19.217926   16.693656
  H     18.250887   20.355245   18.333365
  H     20.036839   17.126038   19.926608
  H     19.166596   15.841133   17.975231
  H     18.639940   13.827178   19.037568
  H     17.292988   12.495302   20.646520
  H     15.557967   13.624392   22.041066
  H     14.604518   15.530212   22.547812
  H     16.532356   17.400949   20.234638

 Total Charge           Charge          ....    0
 Multiplicity           Mult            ....    1
 Number of Electrons    NEL             ....  154
 Basis Dimension        Dim             ....  828

ORBITAL ENERGIES
----------------

  NO   OCC          E(Eh)            E(eV)
   0   2.0000     -91.888278     -2500.4072
   1   2.0000     -20.599948      -560.5531
   2   2.0000     -20.596341      -560.4549
   3   2.0000     -20.541529      -558.9634
   4   2.0000     -15.628324      -425.2683
   5   2.0000     -15.607665      -424.7062
   6   2.0000     -11.395943      -310.0994
   7   2.0000     -11.383421      -309.7586
   8   2.0000     -11.335262      -308.4482
   9   2.0000     -11.313501      -307.8560
  10   2.0000     -11.307879      -307.7030
  11   2.0000     -11.300388      -307.4992
  12   2.0000     -11.259241      -306.3795
  13   2.0000     -11.258545      -306.3606
  14   2.0000     -11.254872      -306.2606
  15   2.0000     -11.251552      -306.1703
  16   2.0000     -11.243008      -305.9378
  17   2.0000     -11.238382      -305.8119
  18   2.0000     -11.237984      -305.8011
  19   2.0000     -11.222179      -305.3710
  20   2.0000      -8.893349      -242.0003
  21   2.0000      -6.574926      -178.9128
  22   2.0000      -6.572919      -178.8582
  23   2.0000      -6.572334      -178.8423
  24   2.0000      -1.448545       -39.4169
  25   2.0000      -1.416019       -38.5318
  26   2.0000      -1.354252       -36.8511
  27   2.0000      -1.339337       -36.4452
  28   2.0000      -1.237841       -33.6834
  29   2.0000      -1.157423       -31.4951
  30   2.0000      -1.119849       -30.4726
  31   2.0000      -1.042354       -28.3639
  32   2.0000      -1.035361       -28.1736
  33   2.0000      -1.014771       -27.6133
  34   2.0000      -0.994823       -27.0705
  35   2.0000      -0.983514       -26.7628
  36   2.0000      -0.921969       -25.0881
  37   2.0000      -0.896808       -24.4034
  38   2.0000      -0.846596       -23.0371
  39   2.0000      -0.837425       -22.7875
  40   2.0000      -0.833833       -22.6898
  41   2.0000      -0.816857       -22.2278
  42   2.0000      -0.750382       -20.4189
  43   2.0000      -0.731842       -19.9144
  44   2.0000      -0.722120       -19.6499
  45   2.0000      -0.695415       -18.9232
  46   2.0000      -0.688091       -18.7239
  47   2.0000      -0.678323       -18.4581
  48   2.0000      -0.670616       -18.2484
  49   2.0000      -0.657529       -17.8923
  50   2.0000      -0.649683       -17.6788
  51   2.0000      -0.641107       -17.4454
  52   2.0000      -0.633182       -17.2297
  53   2.0000      -0.613343       -16.6899
  54   2.0000      -0.606214       -16.4959
  55   2.0000      -0.599690       -16.3184
  56   2.0000      -0.598407       -16.2835
  57   2.0000      -0.577137       -15.7047
  58   2.0000      -0.570702       -15.5296
  59   2.0000      -0.570159       -15.5148
  60   2.0000      -0.560263       -15.2455
  61   2.0000      -0.542343       -14.7579
  62   2.0000      -0.535179       -14.5630
  63   2.0000      -0.525049       -14.2873
  64   2.0000      -0.521441       -14.1891
  65   2.0000      -0.512962       -13.9584
  66   2.0000      -0.502086       -13.6625
  67   2.0000      -0.499373       -13.5886
  68   2.0000      -0.483982       -13.1698
  69   2.0000      -0.463436       -12.6107
  70   2.0000      -0.455291       -12.3891
  71   2.0000      -0.444382       -12.0922
  72   2.0000      -0.353477        -9.6186
  73   2.0000      -0.349211        -9.5025
  74   2.0000      -0.327720        -8.9177
  75   2.0000      -0.321033        -8.7358
  76   2.0000      -0.315518        -8.5857
  77   0.0000       0.076745         2.0883
  78   0.0000       0.106869         2.9080
  79   0.0000       0.125179         3.4063
  80   0.0000       0.132928         3.6172
  81   0.0000       0.137632         3.7451

MULLIKEN ATOMIC CHARGES
-----------------------
   0 C :   -0.313005
   1 C :    0.032199
   2 O :   -0.356675
   3 C :    0.471746
   4 O :   -0.437750
   5 C :   -0.216920
   6 C :    0.148859
   7 C :   -0.274043
   8 N :   -0.119211
   9 C :    0.211071
  10 S :   -0.441032
  11 N :   -0.205058
  12 C :    0.059295
  13 C :    0.059005
  14 C :   -0.183984
  15 C :   -0.131457
  16 C :   -0.279176
  17 C :    0.316350
  18 O :   -0.356472
  19 C :   -0.269672
  20 H :    0.104263
  21 H :    0.095112
  22 H :    0.126258
  23 H :    0.109058
  24 H :    0.105527
  25 H :    0.131520
  26 H :    0.095008
  27 H :    0.130886
  28 H :    0.196838
  29 H :    0.194837
  30 H :    0.150656
  31 H :    0.150213
  32 H :    0.159855
  33 H :    0.130007
  34 H :    0.240596
  35 H :    0.165295
Sum of atomic charges:   -0.0000000

LOEWDIN ATOMIC CHARGES
----------------------
   0 C :    0.104975
   1 C :   -0.014351
   2 O :    0.302789
   3 C :   -0.411690
   4 O :    0.099266
   5 C :   -0.093376
   6 C :   -0.059448
   7 C :    0.131230
   8 N :    0.406387
   9 C :   -0.456610
  10 S :   -0.036385
  11 N :    0.396583
  12 C :   -0.052430
  13 C :   -0.039672
  14 C :    0.014470
  15 C :    0.038840
  16 C :   -0.001751
  17 C :   -0.190095
  18 O :    0.395214
  19 C :    0.031282
  20 H :   -0.026779
  21 H :   -0.027921
  22 H :   -0.026191
  23 H :   -0.025102
  24 H :   -0.028262
  25 H :   -0.003999
  26 H :   -0.023535
  27 H :   -0.004879
  28 H :   -0.057704
  29 H :   -0.064532
  30 H :   -0.011823
  31 H :   -0.030051
  32 H :   -0.021505
  33 H :   -0.035522
  34 H :   -0.153958
  35 H :   -0.023465

  Mayer bond orders larger than 0.100000
B(  0-C ,  1-C ) :   0.9605 B(  0-C , 20-H ) :   0.9740 B(  0-C , 21-H ) :   0.9775
B(  0-C , 22-H ) :   0.9724 B(  1-C ,  2-O ) :   0.9019 B(  1-C , 23-H ) :   0.9845
B(  1-C , 24-H ) :   0.9828 B(  2-O ,  3-C ) :   1.1622 B(  3-C ,  4-O ) :   1.9592
B(  3-C ,  5-C ) :   1.0579 B(  5-C ,  6-C ) :   1.6546 B(  5-C , 12-C ) :   0.9711
B(  6-C ,  7-C ) :   0.9672 B(  6-C ,  8-N ) :   1.1646 B(  7-C , 25-H ) :   0.9601
B(  7-C , 26-H ) :   0.9904 B(  7-C , 27-H ) :   0.9610 B(  8-N ,  9-C ) :   1.1838
B(  8-N , 28-H ) :   0.9479 B(  9-C , 10-S ) :   1.6064 B(  9-C , 11-N ) :   1.3053
B( 11-N , 12-C ) :   0.9899 B( 11-N , 29-H ) :   0.9513 B( 12-C , 13-C ) :   0.9344
B( 12-C , 30-H ) :   1.0026 B( 13-C , 14-C ) :   1.3556 B( 13-C , 19-C ) :   1.3819
B( 14-C , 15-C ) :   1.3922 B( 14-C , 31-H ) :   0.9712 B( 15-C , 16-C ) :   1.3629
B( 15-C , 32-H ) :   0.9708 B( 16-C , 17-C ) :   1.3315 B( 16-C , 33-H ) :   0.9852
B( 17-C , 18-O ) :   1.1101 B( 17-C , 19-C ) :   1.3716 B( 18-O , 34-H ) :   0.9799
B( 19-C , 35-H ) :   0.9584

MP2 TOTAL ENERGY:    -1274.347388432 Eh
FINAL SINGLE POINT ENERGY     -1274.347388431899

DIPOLE MOMENT
-------------
                                X             Y             Z
Electronic contribution:     10.21042      10.04302       8.18219
Nuclear contribution   :    -11.24849     -11.79934      -8.61956
                        -----------------------------------------
Total Dipole Moment    :     -1.03808      -1.75632      -0.43738
                        -----------------------------------------
Magnitude (a.u.)       :      2.08652
Magnitude (Debye)      :      5.30351

Rotational constants in cm-1:     0.011855     0.008687     0.006177
Rotational constants in MHz :   355.403933   260.422939   185.168615

                             ****ORCA TERMINATED NORMALLY****
TOTAL RUN TIME: 0 days 1 hours 39 minutes 3 seconds 191 msec
