                         Program Version 4.2.0 -  RELEASE  -
|  1> ! ri-mp2 cc-pvtz cc-pvtz/c TightSCF  NoKeepInts
|  2>
|  3> %scf
|  4>   MaxCore 4096
|  5> end
|  6> *xyz  0  1
|  7>     C       14.8351229   15.3405548   17.0877846
|  8>     C       15.8039546   14.7644656   16.0387899
|  9>     O       16.7546510   15.7800596   15.6669835
| 10>     C       17.9201914   15.8589981   16.3720268
| 11>     O       18.6252788   14.8735908   16.5080145
| 12>     C       17.9245705   16.9660556   17.3844855
| 13>     C       17.3165396   18.1642301   17.1941192
| 14>     C       16.5612620   18.6302760   15.9666691
| 15>     N       17.4392041   19.1664048   18.1615945
| 16>     C       18.2864725   19.1121911   19.2373533
| 17>     S       18.4822177   20.3984173   20.2582453
| 18>     N       18.9633461   17.9328324   19.4241672
| 19>     C       18.7102557   16.6889118   18.6713642
| 20>     C       17.9906769   15.6636052   19.5460173
| 21>     C       18.4426002   14.3319021   19.5970679
| 22>     C       17.7803409   13.3784715   20.3881942
| 23>     C       16.6544308   13.7581537   21.1379449
| 24>     C       16.1996921   15.0826339   21.0907152
| 25>     O       15.1067995   15.4507840   21.8054334
| 26>     C       16.8612561   16.0294220   20.3024505
| 27>     H       15.3699619   15.6339102   17.9974820
| 28>     H       14.0857364   14.5898301   17.3665445
| 29>     H       14.3079017   16.2172076   16.6935621
| 30>     H       16.3065724   13.8683217   16.4290393
| 31>     H       15.2285464   14.4683341   15.1523198
| 32>     H       15.5517541   18.2034738   15.9447230
| 33>     H       17.0757552   18.3214056   15.0480846
| 34>     H       16.4634520   19.7219312   15.9242963
| 35>     H       16.9527188   20.0402787   18.0394177
| 36>     H       19.5622195   17.9094813   20.2396141
| 37>     H       19.6861842   16.2697818   18.3860846
| 38>     H       19.3040016   14.0307956   19.0051577
| 39>     H       18.1383731   12.3507295   20.4128339
| 40>     H       16.1384635   13.0244259   21.7482756
| 41>     H       14.8271158   14.6820395   22.3248876
| 42>     H       16.4893798   17.0480928   20.2822559
| 43> *
| 44>
| 45>                          ****END OF INPUT****

CARTESIAN COORDINATES (ANGSTROEM)
---------------------------------
  C     14.835123   15.340555   17.087785
  C     15.803955   14.764466   16.038790
  O     16.754651   15.780060   15.666983
  C     17.920191   15.858998   16.372027
  O     18.625279   14.873591   16.508015
  C     17.924570   16.966056   17.384485
  C     17.316540   18.164230   17.194119
  C     16.561262   18.630276   15.966669
  N     17.439204   19.166405   18.161594
  C     18.286472   19.112191   19.237353
  S     18.482218   20.398417   20.258245
  N     18.963346   17.932832   19.424167
  C     18.710256   16.688912   18.671364
  C     17.990677   15.663605   19.546017
  C     18.442600   14.331902   19.597068
  C     17.780341   13.378471   20.388194
  C     16.654431   13.758154   21.137945
  C     16.199692   15.082634   21.090715
  O     15.106799   15.450784   21.805433
  C     16.861256   16.029422   20.302450
  H     15.369962   15.633910   17.997482
  H     14.085736   14.589830   17.366544
  H     14.307902   16.217208   16.693562
  H     16.306572   13.868322   16.429039
  H     15.228546   14.468334   15.152320
  H     15.551754   18.203474   15.944723
  H     17.075755   18.321406   15.048085
  H     16.463452   19.721931   15.924296
  H     16.952719   20.040279   18.039418
  H     19.562220   17.909481   20.239614
  H     19.686184   16.269782   18.386085
  H     19.304002   14.030796   19.005158
  H     18.138373   12.350729   20.412834
  H     16.138464   13.024426   21.748276
  H     14.827116   14.682040   22.324888
  H     16.489380   17.048093   20.282256

 Total Charge           Charge          ....    0
 Multiplicity           Mult            ....    1
 Number of Electrons    NEL             ....  154
 Basis Dimension        Dim             ....  828

ORBITAL ENERGIES
----------------

  NO   OCC          E(Eh)            E(eV)
   0   2.0000     -91.890040     -2500.4551
   1   2.0000     -20.595658      -560.4363
   2   2.0000     -20.585563      -560.1617
   3   2.0000     -20.554133      -559.3064
   4   2.0000     -15.629911      -425.3115
   5   2.0000     -15.608939      -424.7408
   6   2.0000     -11.395382      -310.0841
   7   2.0000     -11.385186      -309.8067
   8   2.0000     -11.335530      -308.4555
   9   2.0000     -11.311969      -307.8143
  10   2.0000     -11.309334      -307.7426
  11   2.0000     -11.300041      -307.4897
  12   2.0000     -11.261122      -306.4307
  13   2.0000     -11.260541      -306.4149
  14   2.0000     -11.258318      -306.3544
  15   2.0000     -11.252218      -306.1884
  16   2.0000     -11.241707      -305.9024
  17   2.0000     -11.237623      -305.7913
  18   2.0000     -11.234352      -305.7022
  19   2.0000     -11.227264      -305.5094
  20   2.0000      -8.895096      -242.0479
  21   2.0000      -6.576671      -178.9603
  22   2.0000      -6.574665      -178.9057
  23   2.0000      -6.574076      -178.8897
  24   2.0000      -1.452082       -39.5132
  25   2.0000      -1.415470       -38.5169
  26   2.0000      -1.356272       -36.9060
  27   2.0000      -1.340941       -36.4889
  28   2.0000      -1.238790       -33.7092
  29   2.0000      -1.156121       -31.4596
  30   2.0000      -1.121696       -30.5229
  31   2.0000      -1.044381       -28.4191
  32   2.0000      -1.033411       -28.1205
  33   2.0000      -1.013973       -27.5916
  34   2.0000      -1.000222       -27.2174
  35   2.0000      -0.986719       -26.8500
  36   2.0000      -0.924156       -25.1476
  37   2.0000      -0.890076       -24.2202
  38   2.0000      -0.848885       -23.0993
  39   2.0000      -0.838946       -22.8289
  40   2.0000      -0.832289       -22.6477
  41   2.0000      -0.819514       -22.3001
  42   2.0000      -0.755606       -20.5611
  43   2.0000      -0.735865       -20.0239
  44   2.0000      -0.728203       -19.8154
  45   2.0000      -0.694472       -18.8976
  46   2.0000      -0.686517       -18.6811
  47   2.0000      -0.676638       -18.4122
  48   2.0000      -0.676269       -18.4022
  49   2.0000      -0.660731       -17.9794
  50   2.0000      -0.653552       -17.7840
  51   2.0000      -0.646003       -17.5786
  52   2.0000      -0.637471       -17.3465
  53   2.0000      -0.606942       -16.5157
  54   2.0000      -0.603002       -16.4085
  55   2.0000      -0.599728       -16.3194
  56   2.0000      -0.592797       -16.1308
  57   2.0000      -0.585382       -15.9290
  58   2.0000      -0.575361       -15.6564
  59   2.0000      -0.566813       -15.4238
  60   2.0000      -0.562221       -15.2988
  61   2.0000      -0.551610       -15.0101
  62   2.0000      -0.545382       -14.8406
  63   2.0000      -0.521995       -14.2042
  64   2.0000      -0.519398       -14.1336
  65   2.0000      -0.512831       -13.9548
  66   2.0000      -0.500260       -13.6128
  67   2.0000      -0.496249       -13.5036
  68   2.0000      -0.482062       -13.1176
  69   2.0000      -0.464003       -12.6262
  70   2.0000      -0.458550       -12.4778
  71   2.0000      -0.451312       -12.2808
  72   2.0000      -0.355482        -9.6732
  73   2.0000      -0.347488        -9.4556
  74   2.0000      -0.329198        -8.9579
  75   2.0000      -0.319771        -8.7014
  76   2.0000      -0.316907        -8.6235
  77   0.0000       0.069611         1.8942
  78   0.0000       0.106403         2.8954
  79   0.0000       0.120049         3.2667
  80   0.0000       0.132517         3.6060
  81   0.0000       0.135887         3.6977

MULLIKEN ATOMIC CHARGES
-----------------------
   0 C :   -0.310029
   1 C :    0.040679
   2 O :   -0.377190
   3 C :    0.481822
   4 O :   -0.405988
   5 C :   -0.224459
   6 C :    0.159205
   7 C :   -0.284402
   8 N :   -0.123834
   9 C :    0.190819
  10 S :   -0.436109
  11 N :   -0.202307
  12 C :    0.054114
  13 C :    0.054650
  14 C :   -0.184432
  15 C :   -0.136110
  16 C :   -0.276675
  17 C :    0.326190
  18 O :   -0.359916
  19 C :   -0.303098
  20 H :    0.115312
  21 H :    0.112165
  22 H :    0.091325
  23 H :    0.109052
  24 H :    0.107771
  25 H :    0.124377
  26 H :    0.126773
  27 H :    0.106270
  28 H :    0.197726
  29 H :    0.194535
  30 H :    0.158632
  31 H :    0.164845
  32 H :    0.162128
  33 H :    0.130954
  34 H :    0.240390
  35 H :    0.174819
Sum of atomic charges:   -0.0000000

LOEWDIN ATOMIC CHARGES
----------------------
   0 C :    0.105150
   1 C :   -0.015077
   2 O :    0.288530
   3 C :   -0.415534
   4 O :    0.125239
   5 C :   -0.094145
   6 C :   -0.070334
   7 C :    0.126728
   8 N :    0.405411
   9 C :   -0.459270
  10 S :   -0.034411
  11 N :    0.397172
  12 C :   -0.045104
  13 C :   -0.041440
  14 C :    0.020818
  15 C :    0.041222
  16 C :   -0.002280
  17 C :   -0.193925
  18 O :    0.394434
  19 C :    0.028299
  20 H :   -0.029976
  21 H :   -0.023687
  22 H :   -0.033106
  23 H :   -0.026011
  24 H :   -0.024762
  25 H :   -0.012793
  26 H :   -0.007121
  27 H :   -0.019353
  28 H :   -0.058518
  29 H :   -0.063982
  30 H :   -0.003463
  31 H :   -0.023838
  32 H :   -0.020157
  33 H :   -0.035647
  34 H :   -0.154042
  35 H :   -0.025025

  Mayer bond orders larger than 0.100000
B(  0-C ,  1-C ) :   0.9633 B(  0-C , 20-H ) :   0.9690 B(  0-C , 21-H ) :   0.9794
B(  0-C , 22-H ) :   0.9793 B(  1-C ,  2-O ) :   0.8892 B(  1-C , 23-H ) :   0.9736
B(  1-C , 24-H ) :   0.9851 B(  2-O ,  3-C ) :   1.0988 B(  3-C ,  4-O ) :   2.0179
B(  3-C ,  5-C ) :   1.0237 B(  5-C ,  6-C ) :   1.6599 B(  5-C , 12-C ) :   0.9580
B(  6-C ,  7-C ) :   0.9551 B(  6-C ,  8-N ) :   1.1385 B(  7-C , 25-H ) :   0.9637
B(  7-C , 26-H ) :   0.9686 B(  7-C , 27-H ) :   0.9883 B(  8-N ,  9-C ) :   1.1816
B(  8-N , 28-H ) :   0.9494 B(  9-C , 10-S ) :   1.6159 B(  9-C , 11-N ) :   1.2977
B( 11-N , 12-C ) :   0.9878 B( 11-N , 29-H ) :   0.9517 B( 12-C , 13-C ) :   0.9477
B( 12-C , 30-H ) :   0.9986 B( 13-C , 14-C ) :   1.3834 B( 13-C , 19-C ) :   1.3475
B( 14-C , 15-C ) :   1.3969 B( 14-C , 31-H ) :   0.9598 B( 15-C , 16-C ) :   1.3623
B( 15-C , 32-H ) :   0.9706 B( 16-C , 17-C ) :   1.3315 B( 16-C , 33-H ) :   0.9847
B( 17-C , 18-O ) :   1.1093 B( 17-C , 19-C ) :   1.3682 B( 18-O , 34-H ) :   0.9804
B( 19-C , 35-H ) :   0.9594

MP2 TOTAL ENERGY:    -1274.328589007 Eh
FINAL SINGLE POINT ENERGY     -1274.328589006820

DIPOLE MOMENT
-------------
                                X             Y             Z
Electronic contribution:     10.29751       7.73908       6.50395
Nuclear contribution   :    -11.59257      -9.01521      -7.20456
                        -----------------------------------------
Total Dipole Moment    :     -1.29506      -1.27613      -0.70061
                        -----------------------------------------
Magnitude (a.u.)       :      1.94847
Magnitude (Debye)      :      4.95263

Rotational constants in cm-1:     0.011513     0.009690     0.006814
Rotational constants in MHz :   345.145884   290.511701   204.283849

                             ****ORCA TERMINATED NORMALLY****
TOTAL RUN TIME: 0 days 1 hours 47 minutes 31 seconds 587 msec
