                         Program Version 5.0.0 -  RELEASE  -
|  1> ! ri-mp2 cc-pvtz cc-pvtz/c TightSCF NoKeepInts
|  2>
|  3> %scf
|  4>   MaxCore 4096
|  5> end
|  6> *xyz  0  1
|  7>     C       14.5823901   16.1062698   16.5707939
|  8>     C       15.5427514   15.0595736   17.1639190
|  9>     O       16.7463435   14.9335625   16.3755015
| 10>     C       17.8598216   15.7364331   16.4364598
| 11>     O       18.9249857   15.3124735   16.0296672
| 12>     C       17.8306035   16.8651803   17.4082766
| 13>     C       17.3538562   18.0801792   17.0568685
| 14>     C       16.7905573   18.4766056   15.7086070
| 15>     N       17.4600582   19.1541179   17.9425579
| 16>     C       18.1211951   19.1117167   19.1424181
| 17>     S       18.2299656   20.4392201   20.1221567
| 18>     N       18.6923787   17.9122888   19.4913215
| 19>     C       18.5874560   16.6554678   18.7222732
| 20>     C       17.9925364   15.5252711   19.5574155
| 21>     C       18.4387716   14.2051364   19.3617808
| 22>     C       17.8910104   13.1454256   20.1032026
| 23>     C       16.8870600   13.4058506   21.0509299
| 24>     C       16.4371343   14.7179862   21.2484655
| 25>     O       15.4589892   14.9712061   22.1535096
| 26>     C       16.9819549   15.7715689   20.5071497
| 27>     H       14.7983431   17.1070078   16.9555618
| 28>     H       13.5504195   15.8694819   16.8578446
| 29>     H       14.6329580   16.1148429   15.4748235
| 30>     H       15.7562653   15.2822981   18.2138466
| 31>     H       15.0321240   14.0880597   17.1411661
| 32>     H       16.6138562   17.6130836   15.0563592
| 33>     H       17.4918287   19.1357457   15.1809717
| 34>     H       15.8389140   19.0120694   15.8126314
| 35>     H       17.0747476   20.0510307   17.6912604
| 36>     H       19.1655280   17.9095794   20.3863089
| 37>     H       19.6111660   16.3541153   18.4539267
| 38>     H       19.2071730   13.9980087   18.6191668
| 39>     H       18.2436971   12.1284597   19.9384558
| 40>     H       16.4607827   12.5894909   21.6248774
| 41>     H       15.2517718   14.1365469   22.6007655
| 42>     H       16.6076054   16.7766454   20.6727592
| 43> *
| 44>
| 45>                          ****END OF INPUT****

CARTESIAN COORDINATES (ANGSTROEM)
---------------------------------
  C     14.582390   16.106270   16.570794
  C     15.542751   15.059574   17.163919
  O     16.746343   14.933562   16.375501
  C     17.859822   15.736433   16.436460
  O     18.924986   15.312473   16.029667
  C     17.830603   16.865180   17.408277
  C     17.353856   18.080179   17.056869
  C     16.790557   18.476606   15.708607
  N     17.460058   19.154118   17.942558
  C     18.121195   19.111717   19.142418
  S     18.229966   20.439220   20.122157
  N     18.692379   17.912289   19.491322
  C     18.587456   16.655468   18.722273
  C     17.992536   15.525271   19.557416
  C     18.438772   14.205136   19.361781
  C     17.891010   13.145426   20.103203
  C     16.887060   13.405851   21.050930
  C     16.437134   14.717986   21.248465
  O     15.458989   14.971206   22.153510
  C     16.981955   15.771569   20.507150
  H     14.798343   17.107008   16.955562
  H     13.550419   15.869482   16.857845
  H     14.632958   16.114843   15.474823
  H     15.756265   15.282298   18.213847
  H     15.032124   14.088060   17.141166
  H     16.613856   17.613084   15.056359
  H     17.491829   19.135746   15.180972
  H     15.838914   19.012069   15.812631
  H     17.074748   20.051031   17.691260
  H     19.165528   17.909579   20.386309
  H     19.611166   16.354115   18.453927
  H     19.207173   13.998009   18.619167
  H     18.243697   12.128460   19.938456
  H     16.460783   12.589491   21.624877
  H     15.251772   14.136547   22.600766
  H     16.607605   16.776645   20.672759

 Total Charge           Charge          ....    0
 Multiplicity           Mult            ....    1
 Number of Electrons    NEL             ....  154
 Basis Dimension        Dim             ....  828

ORBITAL ENERGIES
----------------

  NO   OCC          E(Eh)            E(eV)
   0   2.0000     -91.889732     -2500.4467
   1   2.0000     -20.602158      -560.6132
   2   2.0000     -20.598607      -560.5166
   3   2.0000     -20.551899      -559.2456
   4   2.0000     -15.625092      -425.1804
   5   2.0000     -15.612463      -424.8367
   6   2.0000     -11.398825      -310.1778
   7   2.0000     -11.386733      -309.8488
   8   2.0000     -11.326330      -308.2051
   9   2.0000     -11.319873      -308.0294
  10   2.0000     -11.318275      -307.9859
  11   2.0000     -11.302378      -307.5533
  12   2.0000     -11.267522      -306.6049
  13   2.0000     -11.266607      -306.5800
  14   2.0000     -11.264589      -306.5250
  15   2.0000     -11.260332      -306.4092
  16   2.0000     -11.248771      -306.0946
  17   2.0000     -11.244550      -305.9798
  18   2.0000     -11.242089      -305.9128
  19   2.0000     -11.235552      -305.7349
  20   2.0000      -8.894854      -242.0413
  21   2.0000      -6.576447      -178.9542
  22   2.0000      -6.574416      -178.8989
  23   2.0000      -6.573845      -178.8834
  24   2.0000      -1.446595       -39.3638
  25   2.0000      -1.421970       -38.6938
  26   2.0000      -1.358858       -36.9764
  27   2.0000      -1.339519       -36.4502
  28   2.0000      -1.240170       -33.7467
  29   2.0000      -1.163817       -31.6691
  30   2.0000      -1.126149       -30.6441
  31   2.0000      -1.050533       -28.5865
  32   2.0000      -1.039974       -28.2991
  33   2.0000      -1.021846       -27.8058
  34   2.0000      -1.005244       -27.3541
  35   2.0000      -0.990336       -26.9484
  36   2.0000      -0.928792       -25.2737
  37   2.0000      -0.895450       -24.3664
  38   2.0000      -0.853006       -23.2115
  39   2.0000      -0.842604       -22.9284
  40   2.0000      -0.838894       -22.8275
  41   2.0000      -0.835265       -22.7287
  42   2.0000      -0.754347       -20.5268
  43   2.0000      -0.735448       -20.0126
  44   2.0000      -0.730384       -19.8747
  45   2.0000      -0.699535       -19.0353
  46   2.0000      -0.690927       -18.8011
  47   2.0000      -0.679867       -18.5001
  48   2.0000      -0.677291       -18.4300
  49   2.0000      -0.665950       -18.1214
  50   2.0000      -0.655005       -17.8236
  51   2.0000      -0.640040       -17.4164
  52   2.0000      -0.636765       -17.3272
  53   2.0000      -0.622462       -16.9380
  54   2.0000      -0.611311       -16.6346
  55   2.0000      -0.608611       -16.5612
  56   2.0000      -0.605396       -16.4737
  57   2.0000      -0.587311       -15.9815
  58   2.0000      -0.579902       -15.7799
  59   2.0000      -0.576256       -15.6807
  60   2.0000      -0.567566       -15.4443
  61   2.0000      -0.558335       -15.1931
  62   2.0000      -0.539252       -14.6738
  63   2.0000      -0.537201       -14.6180
  64   2.0000      -0.524041       -14.2599
  65   2.0000      -0.515682       -14.0324
  66   2.0000      -0.504135       -13.7182
  67   2.0000      -0.499059       -13.5801
  68   2.0000      -0.489275       -13.3138
  69   2.0000      -0.468771       -12.7559
  70   2.0000      -0.452585       -12.3155
  71   2.0000      -0.450632       -12.2623
  72   2.0000      -0.356866        -9.7108
  73   2.0000      -0.353462        -9.6182
  74   2.0000      -0.329622        -8.9695
  75   2.0000      -0.327567        -8.9135
  76   2.0000      -0.319089        -8.6828
  77   0.0000       0.092561         2.5187
  78   0.0000       0.103034         2.8037
  79   0.0000       0.116317         3.1651
  80   0.0000       0.125850         3.4246
  81   0.0000       0.128025         3.4837

MULLIKEN ATOMIC CHARGES
-----------------------
   0 C :   -0.324321
   1 C :    0.039819
   2 O :   -0.321802
   3 C :    0.389265
   4 O :   -0.377079
   5 C :   -0.166464
   6 C :    0.115902
   7 C :   -0.324945
   8 N :   -0.139485
   9 C :    0.211739
  10 S :   -0.443467
  11 N :   -0.231936
  12 C :    0.092635
  13 C :    0.000341
  14 C :   -0.202255
  15 C :   -0.136163
  16 C :   -0.271569
  17 C :    0.314020
  18 O :   -0.355717
  19 C :   -0.262872
  20 H :    0.096122
  21 H :    0.118479
  22 H :    0.108695
  23 H :    0.104666
  24 H :    0.123178
  25 H :    0.119201
  26 H :    0.150465
  27 H :    0.116209
  28 H :    0.196034
  29 H :    0.204285
  30 H :    0.165284
  31 H :    0.169641
  32 H :    0.165563
  33 H :    0.133933
  34 H :    0.241661
  35 H :    0.180941
Sum of atomic charges:    0.0000000

LOEWDIN ATOMIC CHARGES
----------------------
   0 C :    0.103277
   1 C :   -0.016621
   2 O :    0.302544
   3 C :   -0.417937
   4 O :    0.125698
   5 C :   -0.079748
   6 C :   -0.107216
   7 C :    0.124328
   8 N :    0.401483
   9 C :   -0.454947
  10 S :   -0.039144
  11 N :    0.397553
  12 C :   -0.043466
  13 C :   -0.044438
  14 C :    0.021599
  15 C :    0.046793
  16 C :    0.000028
  17 C :   -0.193468
  18 O :    0.396265
  19 C :    0.024357
  20 H :   -0.033757
  21 H :   -0.022305
  22 H :   -0.026235
  23 H :   -0.034658
  24 H :   -0.019487
  25 H :   -0.010402
  26 H :   -0.008240
  27 H :   -0.017477
  28 H :   -0.058045
  29 H :   -0.064128
  30 H :   -0.002634
  31 H :   -0.021189
  32 H :   -0.017433
  33 H :   -0.034108
  34 H :   -0.152461
  35 H :   -0.024382

  Mayer bond orders larger than 0.100000
B(  0-C ,  1-C ) :   0.9541 B(  0-C , 20-H ) :   0.9770 B(  0-C , 21-H ) :   0.9797
B(  0-C , 22-H ) :   0.9747 B(  1-C ,  2-O ) :   0.8971 B(  1-C , 23-H ) :   0.9607
B(  1-C , 24-H ) :   0.9868 B(  2-O ,  3-C ) :   1.1799 B(  3-C ,  4-O ) :   2.1011
B(  3-C ,  5-C ) :   0.8950 B(  5-C ,  6-C ) :   1.7174 B(  5-C , 12-C ) :   0.9485
B(  6-C ,  7-C ) :   0.9524 B(  6-C ,  8-N ) :   1.1000 B(  7-C , 25-H ) :   0.9806
B(  7-C , 26-H ) :   0.9645 B(  7-C , 27-H ) :   0.9695 B(  8-N ,  9-C ) :   1.2046
B(  8-N , 28-H ) :   0.9519 B(  9-C , 10-S ) :   1.6056 B(  9-C , 11-N ) :   1.2850
B( 11-N , 12-C ) :   0.9889 B( 11-N , 29-H ) :   0.9452 B( 12-C , 13-C ) :   0.9565
B( 12-C , 30-H ) :   0.9960 B( 13-C , 14-C ) :   1.3909 B( 13-C , 19-C ) :   1.3361
B( 14-C , 15-C ) :   1.3996 B( 14-C , 31-H ) :   0.9621 B( 15-C , 16-C ) :   1.3606
B( 15-C , 32-H ) :   0.9690 B( 16-C , 17-C ) :   1.3305 B( 16-C , 33-H ) :   0.9840
B( 17-C , 18-O ) :   1.1103 B( 17-C , 19-C ) :   1.3654 B( 18-O , 34-H ) :   0.9789
B( 19-C , 35-H ) :   0.9584

MP2 TOTAL ENERGY:    -1274.327353922 Eh
FINAL SINGLE POINT ENERGY     -1274.327353922272

DIPOLE MOMENT
-------------
                                X             Y             Z
Electronic contribution:     10.14395       4.93628       7.38626
Nuclear contribution   :    -11.65040      -6.19942      -7.62766
                        -----------------------------------------
Total Dipole Moment    :     -1.50645      -1.26314      -0.24140
                        -----------------------------------------
Magnitude (a.u.)       :      1.98070
Magnitude (Debye)      :      5.03454

Rotational constants in cm-1:     0.011916     0.009237     0.006724
Rotational constants in MHz :   357.226923   276.917554   201.574329

                             ****ORCA TERMINATED NORMALLY****
TOTAL RUN TIME: 0 days 1 hours 42 minutes 51 seconds 485 msec
