                         Program Version 4.2.0 -  RELEASE  -
|  1> ! ri-mp2 cc-pvtz cc-pvtz/c TightSCF  NoKeepInts
|  2>
|  3> %scf
|  4>   MaxCore 4096
|  5> end
|  6> *xyz  0  1
|  7>     C       14.8309777   14.2919968   16.9670011
|  8>     C       15.4959675   15.6446891   16.6656996
|  9>     O       16.7391619   15.3633741   15.9900969
| 10>     C       17.9547014   15.6446674   16.5560390
| 11>     O       18.8357310   14.8047798   16.5694504
| 12>     C       18.0374793   16.8842967   17.3915105
| 13>     C       17.5465092   18.0855751   17.0025588
| 14>     C       16.8975187   18.4268605   15.6780057
| 15>     N       17.6910532   19.1974770   17.8358500
| 16>     C       18.3986101   19.2071519   19.0098039
| 17>     S       18.5761599   20.5860421   19.9047636
| 18>     N       18.9470662   18.0130953   19.4088737
| 19>     C       18.7449642   16.7151125   18.7354038
| 20>     C       17.9595776   15.7496738   19.6184196
| 21>     C       18.3893456   14.4188689   19.7711217
| 22>     C       17.6508739   13.5123241   20.5497141
| 23>     C       16.4688820   13.9379130   21.1791296
| 24>     C       16.0337931   15.2608325   21.0247334
| 25>     O       14.8848992   15.6717288   21.6177014
| 26>     C       16.7712825   16.1615036   20.2498929
| 27>     H       15.4628065   13.6954466   17.6379782
| 28>     H       14.6739513   13.7218479   16.0427776
| 29>     H       13.8586576   14.4385341   17.4526464
| 30>     H       14.8399237   16.2305922   16.0095790
| 31>     H       15.6330667   16.1939031   17.6052620
| 32>     H       17.1399742   17.6918544   14.9003685
| 33>     H       17.2452544   19.3982713   15.3040688
| 34>     H       15.8062941   18.4751899   15.7720809
| 35>     H       17.3058004   20.0861607   17.5565973
| 36>     H       19.4439213   18.0450865   20.2902604
| 37>     H       19.7361996   16.2790770   18.5414614
| 38>     H       19.2909755   14.0801184   19.2651515
| 39>     H       17.9919701   12.4836834   20.6543110
| 40>     H       15.8934746   13.2391400   21.7773896
| 41>     H       14.5560272   14.9348452   22.1548329
| 42>     H       16.4141486   17.1802866   20.1434647
| 43> *
| 44>
| 45>                          ****END OF INPUT****

CARTESIAN COORDINATES (ANGSTROEM)
---------------------------------
  C     14.830978   14.291997   16.967001
  C     15.495967   15.644689   16.665700
  O     16.739162   15.363374   15.990097
  C     17.954701   15.644667   16.556039
  O     18.835731   14.804780   16.569450
  C     18.037479   16.884297   17.391510
  C     17.546509   18.085575   17.002559
  C     16.897519   18.426860   15.678006
  N     17.691053   19.197477   17.835850
  C     18.398610   19.207152   19.009804
  S     18.576160   20.586042   19.904764
  N     18.947066   18.013095   19.408874
  C     18.744964   16.715113   18.735404
  C     17.959578   15.749674   19.618420
  C     18.389346   14.418869   19.771122
  C     17.650874   13.512324   20.549714
  C     16.468882   13.937913   21.179130
  C     16.033793   15.260832   21.024733
  O     14.884899   15.671729   21.617701
  C     16.771283   16.161504   20.249893
  H     15.462806   13.695447   17.637978
  H     14.673951   13.721848   16.042778
  H     13.858658   14.438534   17.452646
  H     14.839924   16.230592   16.009579
  H     15.633067   16.193903   17.605262
  H     17.139974   17.691854   14.900369
  H     17.245254   19.398271   15.304069
  H     15.806294   18.475190   15.772081
  H     17.305800   20.086161   17.556597
  H     19.443921   18.045086   20.290260
  H     19.736200   16.279077   18.541461
  H     19.290975   14.080118   19.265152
  H     17.991970   12.483683   20.654311
  H     15.893475   13.239140   21.777390
  H     14.556027   14.934845   22.154833
  H     16.414149   17.180287   20.143465

 Total Charge           Charge          ....    0
 Multiplicity           Mult            ....    1
 Number of Electrons    NEL             ....  154
 Basis Dimension        Dim             ....  828

ORBITAL ENERGIES
----------------

  NO   OCC          E(Eh)            E(eV)
   0   2.0000     -91.891140     -2500.4850
   1   2.0000     -20.599992      -560.5543
   2   2.0000     -20.597162      -560.4773
   3   2.0000     -20.549959      -559.1928
   4   2.0000     -15.629693      -425.3056
   5   2.0000     -15.611633      -424.8141
   6   2.0000     -11.396536      -310.1155
   7   2.0000     -11.387468      -309.8687
   8   2.0000     -11.334273      -308.4212
   9   2.0000     -11.316706      -307.9432
  10   2.0000     -11.312733      -307.8351
  11   2.0000     -11.303911      -307.5950
  12   2.0000     -11.266934      -306.5889
  13   2.0000     -11.263930      -306.5071
  14   2.0000     -11.262801      -306.4764
  15   2.0000     -11.256365      -306.3013
  16   2.0000     -11.245910      -306.0168
  17   2.0000     -11.242474      -305.9233
  18   2.0000     -11.238836      -305.8243
  19   2.0000     -11.227689      -305.5209
  20   2.0000      -8.896233      -242.0788
  21   2.0000      -6.577814      -178.9914
  22   2.0000      -6.575797      -178.9365
  23   2.0000      -6.575214      -178.9207
  24   2.0000      -1.448187       -39.4072
  25   2.0000      -1.419792       -38.6345
  26   2.0000      -1.359414       -36.9915
  27   2.0000      -1.341934       -36.5159
  28   2.0000      -1.240812       -33.7642
  29   2.0000      -1.161232       -31.5987
  30   2.0000      -1.125382       -30.6232
  31   2.0000      -1.048515       -28.5316
  32   2.0000      -1.036971       -28.2174
  33   2.0000      -1.018611       -27.7178
  34   2.0000      -1.004990       -27.3472
  35   2.0000      -0.989534       -26.9266
  36   2.0000      -0.927737       -25.2450
  37   2.0000      -0.882231       -24.0067
  38   2.0000      -0.855776       -23.2869
  39   2.0000      -0.842761       -22.9327
  40   2.0000      -0.836875       -22.7725
  41   2.0000      -0.835760       -22.7422
  42   2.0000      -0.753587       -20.5061
  43   2.0000      -0.740017       -20.1369
  44   2.0000      -0.731379       -19.9018
  45   2.0000      -0.698061       -18.9952
  46   2.0000      -0.688310       -18.7299
  47   2.0000      -0.679529       -18.4909
  48   2.0000      -0.677844       -18.4451
  49   2.0000      -0.661650       -18.0044
  50   2.0000      -0.656897       -17.8751
  51   2.0000      -0.649618       -17.6770
  52   2.0000      -0.641166       -17.4470
  53   2.0000      -0.610966       -16.6252
  54   2.0000      -0.608450       -16.5568
  55   2.0000      -0.603970       -16.4349
  56   2.0000      -0.596833       -16.2406
  57   2.0000      -0.581762       -15.8305
  58   2.0000      -0.578763       -15.7489
  59   2.0000      -0.571884       -15.5617
  60   2.0000      -0.563046       -15.3213
  61   2.0000      -0.559495       -15.2246
  62   2.0000      -0.546054       -14.8589
  63   2.0000      -0.526852       -14.3364
  64   2.0000      -0.517588       -14.0843
  65   2.0000      -0.515227       -14.0200
  66   2.0000      -0.502812       -13.6822
  67   2.0000      -0.499592       -13.5946
  68   2.0000      -0.489471       -13.3192
  69   2.0000      -0.471704       -12.8357
  70   2.0000      -0.456062       -12.4101
  71   2.0000      -0.449453       -12.2302
  72   2.0000      -0.357522        -9.7287
  73   2.0000      -0.352205        -9.5840
  74   2.0000      -0.330616        -8.9965
  75   2.0000      -0.324120        -8.8197
  76   2.0000      -0.319298        -8.6885
  77   0.0000       0.077069         2.0972
  78   0.0000       0.103146         2.8068
  79   0.0000       0.116780         3.1778
  80   0.0000       0.128037         3.4841
  81   0.0000       0.135521         3.6877

MULLIKEN ATOMIC CHARGES
-----------------------
   0 C :   -0.255554
   1 C :   -0.002859
   2 O :   -0.330158
   3 C :    0.427099
   4 O :   -0.385758
   5 C :   -0.226310
   6 C :    0.155620
   7 C :   -0.317707
   8 N :   -0.131868
   9 C :    0.200192
  10 S :   -0.438192
  11 N :   -0.208443
  12 C :    0.070494
  13 C :    0.037650
  14 C :   -0.186279
  15 C :   -0.132078
  16 C :   -0.277817
  17 C :    0.321963
  18 O :   -0.358572
  19 C :   -0.302922
  20 H :    0.107555
  21 H :    0.103601
  22 H :    0.088881
  23 H :    0.105312
  24 H :    0.110006
  25 H :    0.138954
  26 H :    0.127973
  27 H :    0.120788
  28 H :    0.197376
  29 H :    0.196831
  30 H :    0.161429
  31 H :    0.166117
  32 H :    0.164175
  33 H :    0.132143
  34 H :    0.241896
  35 H :    0.178461
Sum of atomic charges:   -0.0000000

LOEWDIN ATOMIC CHARGES
----------------------
   0 C :    0.109611
   1 C :   -0.022088
   2 O :    0.302810
   3 C :   -0.417919
   4 O :    0.123899
   5 C :   -0.089652
   6 C :   -0.088856
   7 C :    0.127377
   8 N :    0.402916
   9 C :   -0.457173
  10 S :   -0.035330
  11 N :    0.397097
  12 C :   -0.045700
  13 C :   -0.044084
  14 C :    0.022888
  15 C :    0.044616
  16 C :   -0.000174
  17 C :   -0.194150
  18 O :    0.394242
  19 C :    0.026302
  20 H :   -0.022072
  21 H :   -0.025020
  22 H :   -0.026759
  23 H :   -0.033356
  24 H :   -0.036695
  25 H :   -0.006362
  26 H :   -0.012559
  27 H :   -0.016622
  28 H :   -0.057370
  29 H :   -0.063515
  30 H :   -0.002956
  31 H :   -0.021998
  32 H :   -0.018742
  33 H :   -0.034714
  34 H :   -0.152868
  35 H :   -0.025028

  Mayer bond orders larger than 0.100000
B(  0-C ,  1-C ) :   0.9877 B(  0-C , 20-H ) :   0.9743 B(  0-C , 21-H ) :   0.9792
B(  0-C , 22-H ) :   0.9766 B(  1-C ,  2-O ) :   0.8921 B(  1-C , 23-H ) :   0.9784
B(  1-C , 24-H ) :   0.9576 B(  2-O ,  3-C ) :   1.1756 B(  3-C ,  4-O ) :   2.0823
B(  3-C ,  5-C ) :   0.9431 B(  5-C ,  6-C ) :   1.6755 B(  5-C , 12-C ) :   0.9595
B(  6-C ,  7-C ) :   0.9412 B(  6-C ,  8-N ) :   1.1308 B(  7-C , 25-H ) :   0.9746
B(  7-C , 26-H ) :   0.9775 B(  7-C , 27-H ) :   0.9647 B(  8-N ,  9-C ) :   1.1886
B(  8-N , 28-H ) :   0.9510 B(  9-C , 10-S ) :   1.6140 B(  9-C , 11-N ) :   1.2927
B( 11-N , 12-C ) :   0.9978 B( 11-N , 29-H ) :   0.9504 B( 12-C , 13-C ) :   0.9404
B( 12-C , 30-H ) :   0.9979 B( 13-C , 14-C ) :   1.3874 B( 13-C , 19-C ) :   1.3432
B( 14-C , 15-C ) :   1.3953 B( 14-C , 31-H ) :   0.9606 B( 15-C , 16-C ) :   1.3629
B( 15-C , 32-H ) :   0.9700 B( 16-C , 17-C ) :   1.3303 B( 16-C , 33-H ) :   0.9845
B( 17-C , 18-O ) :   1.1103 B( 17-C , 19-C ) :   1.3661 B( 18-O , 34-H ) :   0.9792
B( 19-C , 35-H ) :   0.9564

MP2 TOTAL ENERGY:    -1274.336724780 Eh
FINAL SINGLE POINT ENERGY     -1274.336724779691

DIPOLE MOMENT
-------------
                                X             Y             Z
Electronic contribution:     10.49969       8.56348       6.31856
Nuclear contribution   :    -12.00427      -9.48444      -6.66319
                        -----------------------------------------
Total Dipole Moment    :     -1.50458      -0.92096      -0.34463
                        -----------------------------------------
Magnitude (a.u.)       :      1.79741
Magnitude (Debye)      :      4.56866

Rotational constants in cm-1:     0.012197     0.009148     0.006809
Rotational constants in MHz :   365.664888   274.259489   204.141517

                             ****ORCA TERMINATED NORMALLY****
TOTAL RUN TIME: 0 days 1 hours 50 minutes 9 seconds 302 msec
