                         Program Version 5.0.0 -  RELEASE  -
|  1> ! ri-mp2 cc-pvtz cc-pvtz/c TightSCF NoKeepInts
|  2>
|  3> %scf
|  4>   MaxCore 4096
|  5> end
|  6> *xyz  0  1
|  7>     C       15.9360875   13.3938378   17.4127412
|  8>     C       16.1265962   14.2757232   16.1690836
|  9>     O       17.3432058   15.0400933   16.3002014
| 10>     C       17.2806937   16.3830719   16.0569369
| 11>     O       16.6410148   16.8043693   15.1086209
| 12>     C       17.6646591   17.2293814   17.2405033
| 13>     C       17.4290413   18.5669621   17.2874304
| 14>     C       16.6881541   19.4108725   16.2720339
| 15>     N       17.9518417   19.3306089   18.3363739
| 16>     C       18.9001546   18.8854063   19.2192121
| 17>     S       19.6365757   19.8968625   20.3012455
| 18>     N       19.2243231   17.5546650   19.1408625
| 19>     C       18.4554027   16.5567220   18.3756958
| 20>     C       17.5845479   15.7712099   19.3503277
| 21>     C       18.0288308   14.5292795   19.8426016
| 22>     C       17.2643546   13.8158725   20.7814078
| 23>     C       16.0483565   14.3516751   21.2386348
| 24>     C       15.6084953   15.5936476   20.7606754
| 25>     O       14.4377978   16.1165363   21.2041697
| 26>     C       16.3707296   16.3011507   19.8258151
| 27>     H       16.8560629   12.8455020   17.6494443
| 28>     H       15.1355624   12.6638306   17.2433604
| 29>     H       15.6531707   14.0019815   18.2775458
| 30>     H       16.1908672   13.6463565   15.2719913
| 31>     H       15.2498100   14.9294730   16.0605764
| 32>     H       15.6736972   19.0231193   16.1142369
| 33>     H       17.2020283   19.3871830   15.3025248
| 34>     H       16.5956601   20.4610779   16.5725953
| 35>     H       17.7349029   20.3128246   18.3934583
| 36>     H       19.9091479   17.2480693   19.8194605
| 37>     H       19.1720808   15.8603843   17.9175813
| 38>     H       18.9723408   14.1156396   19.4967272
| 39>     H       17.6163583   12.8554013   21.1540228
| 40>     H       15.4553998   13.8054980   21.9649309
| 41>     H       14.0904168   15.5188371   21.8833583
| 42>     H       16.0186307   17.2688740   19.4876119
| 43> *
| 44>
| 45>                          ****END OF INPUT****

CARTESIAN COORDINATES (ANGSTROEM)
---------------------------------
  C     15.936087   13.393838   17.412741
  C     16.126596   14.275723   16.169084
  O     17.343206   15.040093   16.300201
  C     17.280694   16.383072   16.056937
  O     16.641015   16.804369   15.108621
  C     17.664659   17.229381   17.240503
  C     17.429041   18.566962   17.287430
  C     16.688154   19.410872   16.272034
  N     17.951842   19.330609   18.336374
  C     18.900155   18.885406   19.219212
  S     19.636576   19.896863   20.301246
  N     19.224323   17.554665   19.140863
  C     18.455403   16.556722   18.375696
  C     17.584548   15.771210   19.350328
  C     18.028831   14.529279   19.842602
  C     17.264355   13.815872   20.781408
  C     16.048357   14.351675   21.238635
  C     15.608495   15.593648   20.760675
  O     14.437798   16.116536   21.204170
  C     16.370730   16.301151   19.825815
  H     16.856063   12.845502   17.649444
  H     15.135562   12.663831   17.243360
  H     15.653171   14.001981   18.277546
  H     16.190867   13.646356   15.271991
  H     15.249810   14.929473   16.060576
  H     15.673697   19.023119   16.114237
  H     17.202028   19.387183   15.302525
  H     16.595660   20.461078   16.572595
  H     17.734903   20.312825   18.393458
  H     19.909148   17.248069   19.819461
  H     19.172081   15.860384   17.917581
  H     18.972341   14.115640   19.496727
  H     17.616358   12.855401   21.154023
  H     15.455400   13.805498   21.964931
  H     14.090417   15.518837   21.883358
  H     16.018631   17.268874   19.487612

 Total Charge           Charge          ....    0
 Multiplicity           Mult            ....    1
 Number of Electrons    NEL             ....  154
 Basis Dimension        Dim             ....  828

ORBITAL ENERGIES
----------------

  NO   OCC          E(Eh)            E(eV)
   0   2.0000     -91.890045     -2500.4553
   1   2.0000     -20.600276      -560.5620
   2   2.0000     -20.589819      -560.2775
   3   2.0000     -20.544556      -559.0458
   4   2.0000     -15.630896      -425.3383
   5   2.0000     -15.608556      -424.7304
   6   2.0000     -11.393401      -310.0302
   7   2.0000     -11.384517      -309.7885
   8   2.0000     -11.337490      -308.5088
   9   2.0000     -11.317643      -307.9687
  10   2.0000     -11.310697      -307.7797
  11   2.0000     -11.294553      -307.3404
  12   2.0000     -11.262691      -306.4734
  13   2.0000     -11.260123      -306.4035
  14   2.0000     -11.258574      -306.3614
  15   2.0000     -11.253036      -306.2107
  16   2.0000     -11.246210      -306.0249
  17   2.0000     -11.241020      -305.8837
  18   2.0000     -11.240582      -305.8718
  19   2.0000     -11.220947      -305.3375
  20   2.0000      -8.895064      -242.0470
  21   2.0000      -6.576630      -178.9592
  22   2.0000      -6.574637      -178.9050
  23   2.0000      -6.574042      -178.8888
  24   2.0000      -1.449145       -39.4332
  25   2.0000      -1.419933       -38.6383
  26   2.0000      -1.351395       -36.7733
  27   2.0000      -1.341823       -36.5129
  28   2.0000      -1.239973       -33.7414
  29   2.0000      -1.160158       -31.5695
  30   2.0000      -1.120917       -30.5017
  31   2.0000      -1.044365       -28.4186
  32   2.0000      -1.034160       -28.1409
  33   2.0000      -1.018583       -27.7170
  34   2.0000      -0.997572       -27.1453
  35   2.0000      -0.985051       -26.8046
  36   2.0000      -0.924391       -25.1540
  37   2.0000      -0.884949       -24.0807
  38   2.0000      -0.848209       -23.0809
  39   2.0000      -0.841254       -22.8917
  40   2.0000      -0.835974       -22.7480
  41   2.0000      -0.818903       -22.2835
  42   2.0000      -0.761820       -20.7302
  43   2.0000      -0.734683       -19.9917
  44   2.0000      -0.720643       -19.6097
  45   2.0000      -0.698998       -19.0207
  46   2.0000      -0.689422       -18.7601
  47   2.0000      -0.678918       -18.4743
  48   2.0000      -0.672816       -18.3083
  49   2.0000      -0.665171       -18.1002
  50   2.0000      -0.648421       -17.6444
  51   2.0000      -0.645846       -17.5744
  52   2.0000      -0.638469       -17.3736
  53   2.0000      -0.611340       -16.6354
  54   2.0000      -0.603839       -16.4313
  55   2.0000      -0.600314       -16.3354
  56   2.0000      -0.588689       -16.0190
  57   2.0000      -0.579623       -15.7723
  58   2.0000      -0.572350       -15.5744
  59   2.0000      -0.566066       -15.4035
  60   2.0000      -0.562109       -15.2958
  61   2.0000      -0.550183       -14.9713
  62   2.0000      -0.537669       -14.6307
  63   2.0000      -0.528466       -14.3803
  64   2.0000      -0.518730       -14.1154
  65   2.0000      -0.513353       -13.9691
  66   2.0000      -0.504032       -13.7154
  67   2.0000      -0.496721       -13.5165
  68   2.0000      -0.483882       -13.1671
  69   2.0000      -0.462648       -12.5893
  70   2.0000      -0.452072       -12.3015
  71   2.0000      -0.445181       -12.1140
  72   2.0000      -0.357903        -9.7390
  73   2.0000      -0.353124        -9.6090
  74   2.0000      -0.329852        -8.9757
  75   2.0000      -0.324739        -8.8366
  76   2.0000      -0.316886        -8.6229
  77   0.0000       0.070945         1.9305
  78   0.0000       0.104211         2.8357
  79   0.0000       0.121650         3.3103
  80   0.0000       0.128745         3.5033
  81   0.0000       0.132867         3.6155

MULLIKEN ATOMIC CHARGES
-----------------------
   0 C :   -0.292531
   1 C :    0.048027
   2 O :   -0.374135
   3 C :    0.474722
   4 O :   -0.416476
   5 C :   -0.247130
   6 C :    0.148055
   7 C :   -0.268542
   8 N :   -0.122989
   9 C :    0.216480
  10 S :   -0.438623
  11 N :   -0.204357
  12 C :    0.045008
  13 C :    0.078038
  14 C :   -0.208838
  15 C :   -0.118877
  16 C :   -0.275397
  17 C :    0.302281
  18 O :   -0.359410
  19 C :   -0.245757
  20 H :    0.097108
  21 H :    0.109283
  22 H :    0.105175
  23 H :    0.105065
  24 H :    0.091887
  25 H :    0.129021
  26 H :    0.134834
  27 H :    0.094648
  28 H :    0.198650
  29 H :    0.192079
  30 H :    0.149326
  31 H :    0.149336
  32 H :    0.161889
  33 H :    0.132206
  34 H :    0.241829
  35 H :    0.168116
Sum of atomic charges:   -0.0000000

LOEWDIN ATOMIC CHARGES
----------------------
   0 C :    0.105039
   1 C :   -0.012566
   2 O :    0.288346
   3 C :   -0.418578
   4 O :    0.109663
   5 C :   -0.097136
   6 C :   -0.057446
   7 C :    0.130595
   8 N :    0.407818
   9 C :   -0.454822
  10 S :   -0.033472
  11 N :    0.396112
  12 C :   -0.053679
  13 C :   -0.035068
  14 C :    0.015080
  15 C :    0.045153
  16 C :   -0.001672
  17 C :   -0.190739
  18 O :    0.396199
  19 C :    0.028380
  20 H :   -0.028562
  21 H :   -0.026113
  22 H :   -0.027058
  23 H :   -0.029232
  24 H :   -0.027764
  25 H :   -0.005720
  26 H :   -0.003043
  27 H :   -0.023305
  28 H :   -0.057547
  29 H :   -0.066403
  30 H :   -0.006740
  31 H :   -0.031094
  32 H :   -0.020304
  33 H :   -0.034941
  34 H :   -0.152849
  35 H :   -0.026532

  Mayer bond orders larger than 0.100000
B(  0-C ,  1-C ) :   0.9704 B(  0-C , 20-H ) :   0.9737 B(  0-C , 21-H ) :   0.9794
B(  0-C , 22-H ) :   0.9747 B(  1-C ,  2-O ) :   0.8896 B(  1-C , 23-H ) :   0.9897
B(  1-C , 24-H ) :   0.9714 B(  2-O ,  3-C ) :   1.1176 B(  3-C ,  4-O ) :   1.9956
B(  3-C ,  5-C ) :   1.0705 B(  5-C ,  6-C ) :   1.6472 B(  5-C , 12-C ) :   0.9745
B(  6-C ,  7-C ) :   0.9710 B(  6-C ,  8-N ) :   1.1542 B(  7-C , 25-H ) :   0.9628
B(  7-C , 26-H ) :   0.9573 B(  7-C , 27-H ) :   0.9893 B(  8-N ,  9-C ) :   1.1802
B(  8-N , 28-H ) :   0.9481 B(  9-C , 10-S ) :   1.6082 B(  9-C , 11-N ) :   1.3048
B( 11-N , 12-C ) :   0.9587 B( 11-N , 29-H ) :   0.9539 B( 12-C , 13-C ) :   0.9483
B( 12-C , 30-H ) :   1.0025 B( 13-C , 14-C ) :   1.3475 B( 13-C , 19-C ) :   1.3735
B( 14-C , 15-C ) :   1.3836 B( 14-C , 31-H ) :   0.9754 B( 15-C , 16-C ) :   1.3658
B( 15-C , 32-H ) :   0.9705 B( 16-C , 17-C ) :   1.3303 B( 16-C , 33-H ) :   0.9848
B( 17-C , 18-O ) :   1.1140 B( 17-C , 19-C ) :   1.3740 B( 18-O , 34-H ) :   0.9791
B( 19-C , 35-H ) :   0.9554

MP2 TOTAL ENERGY:    -1274.336082914 Eh
FINAL SINGLE POINT ENERGY     -1274.336082914070

DIPOLE MOMENT
-------------
                                X             Y             Z
Electronic contribution:      8.38247      10.93456       4.64418
Nuclear contribution   :     -9.43318     -12.48007      -4.55041
                        -----------------------------------------
Total Dipole Moment    :     -1.05071      -1.54550       0.09377
                        -----------------------------------------
Magnitude (a.u.)       :      1.87119
Magnitude (Debye)      :      4.75619

Rotational constants in cm-1:     0.012011     0.009221     0.006510
Rotational constants in MHz :   360.085371   276.445111   195.175651

                             ****ORCA TERMINATED NORMALLY****
TOTAL RUN TIME: 0 days 1 hours 35 minutes 46 seconds 178 msec
