                         Program Version 4.2.0 -  RELEASE  -
|  1> ! ri-mp2 cc-pvtz cc-pvtz/c TightSCF  NoKeepInts
|  2>
|  3> %scf
|  4>   MaxCore 4096
|  5> end
|  6> *xyz  0  1
|  7>     C       14.6697574   14.4217374   16.3917080
|  8>     C       15.7177801   14.8287116   15.3398418
|  9>     O       16.4143330   15.9860120   15.8363609
| 10>     C       17.5262199   15.8256691   16.6131125
| 11>     O       18.1049190   14.7557634   16.7130830
| 12>     C       17.8221976   16.9860856   17.5197564
| 13>     C       17.3512886   18.2498196   17.3514011
| 14>     C       16.4674161   18.7773516   16.2396971
| 15>     N       17.7407439   19.2593094   18.2381507
| 16>     C       18.6941171   19.1232017   19.2123500
| 17>     S       19.1856195   20.4040443   20.1362343
| 18>     N       19.2200649   17.8677448   19.3811478
| 19>     C       18.7273096   16.6502306   18.7103559
| 20>     C       18.0041517   15.7467921   19.7060463
| 21>     C       18.3999176   14.4064649   19.8701970
| 22>     C       17.7324688   13.5682747   20.7789559
| 23>     C       16.6585787   14.0735589   21.5313063
| 24>     C       16.2585973   15.4067744   21.3682202
| 25>     O       15.2175185   15.8957909   22.0882081
| 26>     C       16.9247020   16.2385131   20.4627417
| 27>     H       15.1582321   14.1234703   17.3285423
| 28>     H       14.0745019   13.5733740   16.0330045
| 29>     H       13.9888226   15.2547783   16.6056603
| 30>     H       16.4022913   13.9973437   15.1218372
| 31>     H       15.1988020   15.0917792   14.4092889
| 32>     H       16.8605795   18.4863581   15.2576661
| 33>     H       16.3901048   19.8713386   16.2428305
| 34>     H       15.4508697   18.3743894   16.3300264
| 35>     H       17.3658709   20.1882212   18.1308728
| 36>     H       19.8978827   17.7865115   20.1280443
| 37>     H       19.6018342   16.1069359   18.3240358
| 38>     H       19.2182310   14.0080532   19.2753417
| 39>     H       18.0446909   12.5316209   20.8914694
| 40>     H       16.1389988   13.4291048   22.2324497
| 41>     H       14.9172583   15.1892006   22.6792423
| 42>     H       16.6003280   17.2676698   20.3548126
| 43> *
| 44>
| 45>                          ****END OF INPUT****

CARTESIAN COORDINATES (ANGSTROEM)
---------------------------------
  C     14.669757   14.421737   16.391708
  C     15.717780   14.828712   15.339842
  O     16.414333   15.986012   15.836361
  C     17.526220   15.825669   16.613112
  O     18.104919   14.755763   16.713083
  C     17.822198   16.986086   17.519756
  C     17.351289   18.249820   17.351401
  C     16.467416   18.777352   16.239697
  N     17.740744   19.259309   18.238151
  C     18.694117   19.123202   19.212350
  S     19.185620   20.404044   20.136234
  N     19.220065   17.867745   19.381148
  C     18.727310   16.650231   18.710356
  C     18.004152   15.746792   19.706046
  C     18.399918   14.406465   19.870197
  C     17.732469   13.568275   20.778956
  C     16.658579   14.073559   21.531306
  C     16.258597   15.406774   21.368220
  O     15.217518   15.895791   22.088208
  C     16.924702   16.238513   20.462742
  H     15.158232   14.123470   17.328542
  H     14.074502   13.573374   16.033005
  H     13.988823   15.254778   16.605660
  H     16.402291   13.997344   15.121837
  H     15.198802   15.091779   14.409289
  H     16.860580   18.486358   15.257666
  H     16.390105   19.871339   16.242831
  H     15.450870   18.374389   16.330026
  H     17.365871   20.188221   18.130873
  H     19.897883   17.786511   20.128044
  H     19.601834   16.106936   18.324036
  H     19.218231   14.008053   19.275342
  H     18.044691   12.531621   20.891469
  H     16.138999   13.429105   22.232450
  H     14.917258   15.189201   22.679242
  H     16.600328   17.267670   20.354813

 Total Charge           Charge          ....    0
 Multiplicity           Mult            ....    1
 Number of Electrons    NEL             ....  154
 Basis Dimension        Dim             ....  828

ORBITAL ENERGIES
----------------

  NO   OCC          E(Eh)            E(eV)
   0   2.0000     -91.888114     -2500.4027
   1   2.0000     -20.602585      -560.6248
   2   2.0000     -20.592131      -560.3404
   3   2.0000     -20.546092      -559.0876
   4   2.0000     -15.628381      -425.2699
   5   2.0000     -15.606874      -424.6846
   6   2.0000     -11.396359      -310.1107
   7   2.0000     -11.383081      -309.7494
   8   2.0000     -11.336149      -308.4723
   9   2.0000     -11.308044      -307.7075
  10   2.0000     -11.305802      -307.6465
  11   2.0000     -11.298590      -307.4503
  12   2.0000     -11.260463      -306.4128
  13   2.0000     -11.258870      -306.3694
  14   2.0000     -11.253845      -306.2327
  15   2.0000     -11.248193      -306.0789
  16   2.0000     -11.237873      -305.7981
  17   2.0000     -11.233913      -305.6903
  18   2.0000     -11.230916      -305.6088
  19   2.0000     -11.228244      -305.5361
  20   2.0000      -8.893179      -241.9957
  21   2.0000      -6.574756      -178.9082
  22   2.0000      -6.572749      -178.8536
  23   2.0000      -6.572163      -178.8377
  24   2.0000      -1.454016       -39.5658
  25   2.0000      -1.411878       -38.4192
  26   2.0000      -1.357354       -36.9355
  27   2.0000      -1.339345       -36.4454
  28   2.0000      -1.237041       -33.6616
  29   2.0000      -1.152660       -31.3655
  30   2.0000      -1.119765       -30.4704
  31   2.0000      -1.042708       -28.3735
  32   2.0000      -1.034868       -28.1602
  33   2.0000      -1.009947       -27.4821
  34   2.0000      -0.997754       -27.1503
  35   2.0000      -0.983245       -26.7555
  36   2.0000      -0.921509       -25.0755
  37   2.0000      -0.893023       -24.3004
  38   2.0000      -0.847451       -23.0603
  39   2.0000      -0.835274       -22.7290
  40   2.0000      -0.828346       -22.5404
  41   2.0000      -0.814932       -22.1754
  42   2.0000      -0.756836       -20.5946
  43   2.0000      -0.736314       -20.0361
  44   2.0000      -0.725157       -19.7325
  45   2.0000      -0.691214       -18.8089
  46   2.0000      -0.685513       -18.6537
  47   2.0000      -0.679392       -18.4872
  48   2.0000      -0.671560       -18.2741
  49   2.0000      -0.657044       -17.8791
  50   2.0000      -0.650043       -17.6886
  51   2.0000      -0.644541       -17.5389
  52   2.0000      -0.632400       -17.2085
  53   2.0000      -0.608144       -16.5485
  54   2.0000      -0.600462       -16.3394
  55   2.0000      -0.599410       -16.3108
  56   2.0000      -0.595398       -16.2016
  57   2.0000      -0.581485       -15.8230
  58   2.0000      -0.574268       -15.6266
  59   2.0000      -0.562724       -15.3125
  60   2.0000      -0.558080       -15.1861
  61   2.0000      -0.551436       -15.0054
  62   2.0000      -0.534236       -14.5373
  63   2.0000      -0.531942       -14.4749
  64   2.0000      -0.517452       -14.0806
  65   2.0000      -0.509493       -13.8640
  66   2.0000      -0.497632       -13.5412
  67   2.0000      -0.495174       -13.4744
  68   2.0000      -0.481916       -13.1136
  69   2.0000      -0.463284       -12.6066
  70   2.0000      -0.459510       -12.5039
  71   2.0000      -0.452389       -12.3101
  72   2.0000      -0.354249        -9.6396
  73   2.0000      -0.344488        -9.3740
  74   2.0000      -0.327263        -8.9053
  75   2.0000      -0.315859        -8.5950
  76   2.0000      -0.314222        -8.5504
  77   0.0000       0.075965         2.0671
  78   0.0000       0.112323         3.0565
  79   0.0000       0.120061         3.2670
  80   0.0000       0.135445         3.6856
  81   0.0000       0.141692         3.8556

MULLIKEN ATOMIC CHARGES
-----------------------
   0 C :   -0.281570
   1 C :    0.020149
   2 O :   -0.350349
   3 C :    0.443767
   4 O :   -0.427797
   5 C :   -0.169467
   6 C :    0.141200
   7 C :   -0.284509
   8 N :   -0.122496
   9 C :    0.202307
  10 S :   -0.439354
  11 N :   -0.198361
  12 C :    0.039942
  13 C :    0.054576
  14 C :   -0.161550
  15 C :   -0.134123
  16 C :   -0.280179
  17 C :    0.312558
  18 O :   -0.358943
  19 C :   -0.274059
  20 H :    0.113573
  21 H :    0.094636
  22 H :    0.091511
  23 H :    0.117598
  24 H :    0.104548
  25 H :    0.126479
  26 H :    0.101716
  27 H :    0.127150
  28 H :    0.196883
  29 H :    0.193831
  30 H :    0.153745
  31 H :    0.153888
  32 H :    0.159393
  33 H :    0.128565
  34 H :    0.240105
  35 H :    0.164638
Sum of atomic charges:   -0.0000000

LOEWDIN ATOMIC CHARGES
----------------------
   0 C :    0.105356
   1 C :   -0.017303
   2 O :    0.306657
   3 C :   -0.414576
   4 O :    0.103542
   5 C :   -0.091104
   6 C :   -0.066417
   7 C :    0.125214
   8 N :    0.404767
   9 C :   -0.458597
  10 S :   -0.036019
  11 N :    0.397835
  12 C :   -0.046323
  13 C :   -0.039269
  14 C :    0.021947
  15 C :    0.040545
  16 C :   -0.002513
  17 C :   -0.192820
  18 O :    0.393137
  19 C :    0.028537
  20 H :   -0.022565
  21 H :   -0.026162
  22 H :   -0.029254
  23 H :   -0.027424
  24 H :   -0.027597
  25 H :   -0.008273
  26 H :   -0.020955
  27 H :   -0.010111
  28 H :   -0.059114
  29 H :   -0.063697
  30 H :   -0.005032
  31 H :   -0.025196
  32 H :   -0.021134
  33 H :   -0.036291
  34 H :   -0.154848
  35 H :   -0.024944

  Mayer bond orders larger than 0.100000
B(  0-C ,  1-C ) :   0.9659 B(  0-C , 20-H ) :   0.9753 B(  0-C , 21-H ) :   0.9757
B(  0-C , 22-H ) :   0.9782 B(  1-C ,  2-O ) :   0.8889 B(  1-C , 23-H ) :   0.9751
B(  1-C , 24-H ) :   0.9842 B(  2-O ,  3-C ) :   1.1535 B(  3-C ,  4-O ) :   1.9849
B(  3-C ,  5-C ) :   1.0461 B(  5-C ,  6-C ) :   1.6488 B(  5-C , 12-C ) :   0.9663
B(  6-C ,  7-C ) :   0.9555 B(  6-C ,  8-N ) :   1.1468 B(  7-C , 25-H ) :   0.9664
B(  7-C , 26-H ) :   0.9907 B(  7-C , 27-H ) :   0.9633 B(  8-N ,  9-C ) :   1.1793
B(  8-N , 28-H ) :   0.9489 B(  9-C , 10-S ) :   1.6106 B(  9-C , 11-N ) :   1.3038
B( 11-N , 12-C ) :   0.9922 B( 11-N , 29-H ) :   0.9519 B( 12-C , 13-C ) :   0.9459
B( 12-C , 30-H ) :   0.9999 B( 13-C , 14-C ) :   1.3758 B( 13-C , 19-C ) :   1.3697
B( 14-C , 15-C ) :   1.3948 B( 14-C , 31-H ) :   0.9646 B( 15-C , 16-C ) :   1.3624
B( 15-C , 32-H ) :   0.9714 B( 16-C , 17-C ) :   1.3312 B( 16-C , 33-H ) :   0.9858
B( 17-C , 18-O ) :   1.1082 B( 17-C , 19-C ) :   1.3785 B( 18-O , 34-H ) :   0.9805
B( 19-C , 35-H ) :   0.9585

MP2 TOTAL ENERGY:    -1274.347564843 Eh
FINAL SINGLE POINT ENERGY     -1274.347564843177

DIPOLE MOMENT
-------------
                                X             Y             Z
Electronic contribution:     11.05650       9.51295       8.64222
Nuclear contribution   :    -12.51879     -10.77971      -9.68453
                        -----------------------------------------
Total Dipole Moment    :     -1.46229      -1.26677      -1.04232
                        -----------------------------------------
Magnitude (a.u.)       :      2.19759
Magnitude (Debye)      :      5.58583

Rotational constants in cm-1:     0.010899     0.009209     0.006196
Rotational constants in MHz :   326.735715   276.092242   185.746613

                             ****ORCA TERMINATED NORMALLY****
TOTAL RUN TIME: 0 days 1 hours 39 minutes 2 seconds 628 msec
