                         Program Version 5.0.0 -  RELEASE  -
|  1> ! ri-mp2 cc-pvtz cc-pvtz/c TightSCF NoKeepInts
|  2>
|  3> %scf
|  4>   MaxCore 4096
|  5> end
|  6> *xyz  0  1
|  7>     C       15.1677975   13.7832818   15.6463068
|  8>     C       15.2169928   14.9966558   16.5943417
|  9>     O       16.2238964   15.9125087   16.1265401
| 10>     C       17.4932881   15.7914800   16.6143201
| 11>     O       18.0079212   14.6981525   16.7804177
| 12>     C       17.8726922   16.9618134   17.4702697
| 13>     C       17.4977969   18.2397665   17.2113916
| 14>     C       16.6881926   18.7399917   16.0332160
| 15>     N       17.9333537   19.2744424   18.0448791
| 16>     C       18.8420505   19.1304687   19.0604492
| 17>     S       19.3895470   20.4268691   19.9293473
| 18>     N       19.2745105   17.8539923   19.3199727
| 19>     C       18.7306231   16.6328213   18.6955595
| 20>     C       17.9293977   15.8222484   19.7110469
| 21>     C       18.2372299   14.4696202   19.9463811
| 22>     C       17.4933528   13.7154809   20.8692686
| 23>     C       16.4307296   14.3180668   21.5637650
| 24>     C       16.1179777   15.6638479   21.3293265
| 25>     O       15.0867894   16.2463411   21.9914584
| 26>     C       16.8595158   16.4115542   20.4093175
| 27>     H       16.1110286   13.2235922   15.6749143
| 28>     H       14.9886876   14.1056021   14.6132432
| 29>     H       14.3607356   13.1008472   15.9385290
| 30>     H       14.2396822   15.4957008   16.5802629
| 31>     H       15.4225425   14.6758297   17.6256210
| 32>     H       16.9937298   18.2398227   15.1056351
| 33>     H       16.8082631   19.8178605   15.8694055
| 34>     H       15.6201444   18.5404631   16.1852428
| 35>     H       17.6279590   20.2185720   17.8699631
| 36>     H       19.9212874   17.7726820   20.0939781
| 37>     H       19.5803975   16.0223236   18.3572714
| 38>     H       19.0463914   13.9960258   19.3955798
| 39>     H       17.7385769   12.6683195   21.0375519
| 40>     H       15.8526046   13.7386425   22.2758812
| 41>     H       14.7392648   15.5940613   22.6182075
| 42>     H       16.6020492   17.4522513   20.2451375
| 43> *
| 44>
| 45>                          ****END OF INPUT****

CARTESIAN COORDINATES (ANGSTROEM)
---------------------------------
  C     15.167798   13.783282   15.646307
  C     15.216993   14.996656   16.594342
  O     16.223896   15.912509   16.126540
  C     17.493288   15.791480   16.614320
  O     18.007921   14.698153   16.780418
  C     17.872692   16.961813   17.470270
  C     17.497797   18.239767   17.211392
  C     16.688193   18.739992   16.033216
  N     17.933354   19.274442   18.044879
  C     18.842050   19.130469   19.060449
  S     19.389547   20.426869   19.929347
  N     19.274511   17.853992   19.319973
  C     18.730623   16.632821   18.695559
  C     17.929398   15.822248   19.711047
  C     18.237230   14.469620   19.946381
  C     17.493353   13.715481   20.869269
  C     16.430730   14.318067   21.563765
  C     16.117978   15.663848   21.329326
  O     15.086789   16.246341   21.991458
  C     16.859516   16.411554   20.409317
  H     16.111029   13.223592   15.674914
  H     14.988688   14.105602   14.613243
  H     14.360736   13.100847   15.938529
  H     14.239682   15.495701   16.580263
  H     15.422543   14.675830   17.625621
  H     16.993730   18.239823   15.105635
  H     16.808263   19.817860   15.869405
  H     15.620144   18.540463   16.185243
  H     17.627959   20.218572   17.869963
  H     19.921287   17.772682   20.093978
  H     19.580397   16.022324   18.357271
  H     19.046391   13.996026   19.395580
  H     17.738577   12.668319   21.037552
  H     15.852605   13.738642   22.275881
  H     14.739265   15.594061   22.618208
  H     16.602049   17.452251   20.245137

 Total Charge           Charge          ....    0
 Multiplicity           Mult            ....    1
 Number of Electrons    NEL             ....  154
 Basis Dimension        Dim             ....  828

ORBITAL ENERGIES
----------------

  NO   OCC          E(Eh)            E(eV)
   0   2.0000     -91.888433     -2500.4114
   1   2.0000     -20.595188      -560.4236
   2   2.0000     -20.588094      -560.2305
   3   2.0000     -20.555037      -559.3310
   4   2.0000     -15.627930      -425.2576
   5   2.0000     -15.607954      -424.7140
   6   2.0000     -11.396303      -310.1092
   7   2.0000     -11.383868      -309.7708
   8   2.0000     -11.332844      -308.3824
   9   2.0000     -11.311456      -307.8004
  10   2.0000     -11.308285      -307.7141
  11   2.0000     -11.300128      -307.4921
  12   2.0000     -11.259582      -306.3888
  13   2.0000     -11.259531      -306.3874
  14   2.0000     -11.257074      -306.3205
  15   2.0000     -11.251637      -306.1726
  16   2.0000     -11.241280      -305.8908
  17   2.0000     -11.237131      -305.7779
  18   2.0000     -11.234400      -305.7036
  19   2.0000     -11.220148      -305.3158
  20   2.0000      -8.893511      -242.0047
  21   2.0000      -6.575090      -178.9173
  22   2.0000      -6.573080      -178.8626
  23   2.0000      -6.572496      -178.8467
  24   2.0000      -1.453066       -39.5399
  25   2.0000      -1.414959       -38.5030
  26   2.0000      -1.357817       -36.9481
  27   2.0000      -1.339141       -36.4399
  28   2.0000      -1.237440       -33.6724
  29   2.0000      -1.155626       -31.4462
  30   2.0000      -1.120916       -30.5017
  31   2.0000      -1.043847       -28.4045
  32   2.0000      -1.031450       -28.0672
  33   2.0000      -1.013050       -27.5665
  34   2.0000      -0.998236       -27.1634
  35   2.0000      -0.983500       -26.7624
  36   2.0000      -0.922891       -25.1131
  37   2.0000      -0.885003       -24.0822
  38   2.0000      -0.848367       -23.0852
  39   2.0000      -0.838201       -22.8086
  40   2.0000      -0.831668       -22.6308
  41   2.0000      -0.824130       -22.4257
  42   2.0000      -0.751822       -20.4581
  43   2.0000      -0.733209       -19.9516
  44   2.0000      -0.727763       -19.8034
  45   2.0000      -0.693654       -18.8753
  46   2.0000      -0.686168       -18.6716
  47   2.0000      -0.681135       -18.5346
  48   2.0000      -0.672587       -18.3020
  49   2.0000      -0.663261       -18.0483
  50   2.0000      -0.646792       -17.6001
  51   2.0000      -0.641858       -17.4658
  52   2.0000      -0.634021       -17.2526
  53   2.0000      -0.605167       -16.4674
  54   2.0000      -0.602898       -16.4057
  55   2.0000      -0.599219       -16.3056
  56   2.0000      -0.595596       -16.2070
  57   2.0000      -0.585536       -15.9332
  58   2.0000      -0.575828       -15.6691
  59   2.0000      -0.568919       -15.4811
  60   2.0000      -0.561954       -15.2915
  61   2.0000      -0.548281       -14.9195
  62   2.0000      -0.534731       -14.5508
  63   2.0000      -0.520645       -14.1675
  64   2.0000      -0.514314       -13.9952
  65   2.0000      -0.511202       -13.9105
  66   2.0000      -0.503374       -13.6975
  67   2.0000      -0.497385       -13.5345
  68   2.0000      -0.481421       -13.1001
  69   2.0000      -0.464393       -12.6368
  70   2.0000      -0.454356       -12.3637
  71   2.0000      -0.452107       -12.3025
  72   2.0000      -0.353658        -9.6235
  73   2.0000      -0.347378        -9.4526
  74   2.0000      -0.327753        -8.9186
  75   2.0000      -0.318637        -8.6705
  76   2.0000      -0.315307        -8.5799
  77   0.0000       0.072402         1.9702
  78   0.0000       0.106706         2.9036
  79   0.0000       0.120186         3.2704
  80   0.0000       0.132994         3.6190
  81   0.0000       0.137169         3.7326

MULLIKEN ATOMIC CHARGES
-----------------------
   0 C :   -0.275703
   1 C :    0.044539
   2 O :   -0.369530
   3 C :    0.429187
   4 O :   -0.407286
   5 C :   -0.158740
   6 C :    0.135068
   7 C :   -0.280748
   8 N :   -0.123784
   9 C :    0.203102
  10 S :   -0.440171
  11 N :   -0.200827
  12 C :    0.051472
  13 C :    0.041228
  14 C :   -0.162316
  15 C :   -0.134272
  16 C :   -0.280828
  17 C :    0.310819
  18 O :   -0.358307
  19 C :   -0.272356
  20 H :    0.117764
  21 H :    0.090405
  22 H :    0.087726
  23 H :    0.098073
  24 H :    0.101647
  25 H :    0.122952
  26 H :    0.102809
  27 H :    0.126476
  28 H :    0.197049
  29 H :    0.194119
  30 H :    0.154932
  31 H :    0.156130
  32 H :    0.160782
  33 H :    0.130415
  34 H :    0.240589
  35 H :    0.167587
Sum of atomic charges:   -0.0000000

LOEWDIN ATOMIC CHARGES
----------------------
   0 C :    0.104908
   1 C :   -0.014805
   2 O :    0.291604
   3 C :   -0.413958
   4 O :    0.126231
   5 C :   -0.092612
   6 C :   -0.073329
   7 C :    0.126110
   8 N :    0.404066
   9 C :   -0.457602
  10 S :   -0.036688
  11 N :    0.397117
  12 C :   -0.045436
  13 C :   -0.040698
  14 C :    0.020734
  15 C :    0.040832
  16 C :   -0.002437
  17 C :   -0.193733
  18 O :    0.393574
  19 C :    0.028287
  20 H :   -0.024840
  21 H :   -0.029561
  22 H :   -0.029981
  23 H :   -0.026778
  24 H :   -0.025939
  25 H :   -0.008336
  26 H :   -0.019735
  27 H :   -0.009527
  28 H :   -0.058778
  29 H :   -0.064067
  30 H :   -0.004951
  31 H :   -0.024872
  32 H :   -0.020536
  33 H :   -0.035749
  34 H :   -0.154265
  35 H :   -0.024250

  Mayer bond orders larger than 0.100000
B(  0-C ,  1-C ) :   0.9764 B(  0-C , 20-H ) :   0.9731 B(  0-C , 21-H ) :   0.9769
B(  0-C , 22-H ) :   0.9763 B(  1-C ,  2-O ) :   0.8938 B(  1-C , 23-H ) :   0.9830
B(  1-C , 24-H ) :   0.9706 B(  2-O ,  3-C ) :   1.0843 B(  3-C ,  4-O ) :   1.9952
B(  3-C ,  5-C ) :   1.0389 B(  5-C ,  6-C ) :   1.6661 B(  5-C , 12-C ) :   0.9628
B(  6-C ,  7-C ) :   0.9523 B(  6-C ,  8-N ) :   1.1380 B(  7-C , 25-H ) :   0.9703
B(  7-C , 26-H ) :   0.9886 B(  7-C , 27-H ) :   0.9628 B(  8-N ,  9-C ) :   1.1844
B(  8-N , 28-H ) :   0.9498 B(  9-C , 10-S ) :   1.6102 B(  9-C , 11-N ) :   1.2999
B( 11-N , 12-C ) :   0.9932 B( 11-N , 29-H ) :   0.9516 B( 12-C , 13-C ) :   0.9441
B( 12-C , 30-H ) :   0.9986 B( 13-C , 14-C ) :   1.3775 B( 13-C , 19-C ) :   1.3695
B( 14-C , 15-C ) :   1.3947 B( 14-C , 31-H ) :   0.9640 B( 15-C , 16-C ) :   1.3633
B( 15-C , 32-H ) :   0.9710 B( 16-C , 17-C ) :   1.3304 B( 16-C , 33-H ) :   0.9852
B( 17-C , 18-O ) :   1.1098 B( 17-C , 19-C ) :   1.3765 B( 18-O , 34-H ) :   0.9800
B( 19-C , 35-H ) :   0.9577

MP2 TOTAL ENERGY:    -1274.327548850 Eh
FINAL SINGLE POINT ENERGY     -1274.327548849631

DIPOLE MOMENT
-------------
                                X             Y             Z
Electronic contribution:     10.67131      10.59772       8.69676
Nuclear contribution   :    -12.16192     -11.77469      -9.27757
                        -----------------------------------------
Total Dipole Moment    :     -1.49061      -1.17697      -0.58081
                        -----------------------------------------
Magnitude (a.u.)       :      1.98608
Magnitude (Debye)      :      5.04822

Rotational constants in cm-1:     0.011524     0.009003     0.006231
Rotational constants in MHz :   345.479358   269.908735   186.807441

                             ****ORCA TERMINATED NORMALLY****
TOTAL RUN TIME: 0 days 1 hours 58 minutes 49 seconds 865 msec
