                         Program Version 5.0.0 -  RELEASE  -
|  1> ! ri-mp2 cc-pvtz cc-pvtz/c TightSCF NoKeepInts
|  2>
|  3> %scf
|  4>   MaxCore 4096
|  5> end
|  6> *xyz  0  1
|  7>     C       15.2591712   14.6989969   17.1778370
|  8>     C       16.4065178   14.0912899   16.3434389
|  9>     O       17.6332485   14.8489486   16.4511322
| 10>     C       17.6346963   16.1675390   16.0976618
| 11>     O       17.1303704   16.5099068   15.0423347
| 12>     C       17.7802995   17.0875259   17.2802249
| 13>     C       17.3824462   18.3858301   17.2527994
| 14>     C       16.6304409   19.0971588   16.1482967
| 15>     N       17.7255407   19.2418893   18.3045484
| 16>     C       18.6519895   18.9472787   19.2704118
| 17>     S       19.1693267   20.0757222   20.3631921
| 18>     N       19.1336645   17.6621507   19.2784800
| 19>     C       18.5566684   16.5525466   18.4962421
| 20>     C       17.7194527   15.6694480   19.4170468
| 21>     C       18.0389225   14.3076542   19.5779836
| 22>     C       17.2900599   13.4937908   20.4446621
| 23>     C       16.2164042   14.0465527   21.1633497
| 24>     C       15.8995230   15.4034867   21.0127081
| 25>     O       14.8620845   15.9396317   21.7031507
| 26>     C       16.6444134   16.2103232   20.1468427
| 27>     H       15.4616725   14.6062922   18.2480594
| 28>     H       14.3252197   14.1613122   16.9751566
| 29>     H       15.0918080   15.7555474   16.9364701
| 30>     H       16.5852553   13.0598479   16.6730188
| 31>     H       16.0985449   14.0536120   15.2896045
| 32>     H       17.2460265   19.1595241   15.2417669
| 33>     H       16.3327095   20.1164765   16.4204686
| 34>     H       15.7174942   18.5475060   15.8863951
| 35>     H       17.3903229   20.1920468   18.3018714
| 36>     H       19.7948850   17.4636325   20.0183347
| 37>     H       19.3931795   15.9497829   18.1154834
| 38>     H       18.8685072   13.8766115   19.0236132
| 39>     H       17.5444243   12.4414617   20.5592594
| 40>     H       15.6361548   13.4223574   21.8350083
| 41>     H       14.5102280   15.2492869   22.2850321
| 42>     H       16.3853271   17.2590308   20.0521138
| 43> *
| 44>
| 45>                          ****END OF INPUT****

CARTESIAN COORDINATES (ANGSTROEM)
---------------------------------
  C     15.259171   14.698997   17.177837
  C     16.406518   14.091290   16.343439
  O     17.633248   14.848949   16.451132
  C     17.634696   16.167539   16.097662
  O     17.130370   16.509907   15.042335
  C     17.780299   17.087526   17.280225
  C     17.382446   18.385830   17.252799
  C     16.630441   19.097159   16.148297
  N     17.725541   19.241889   18.304548
  C     18.651989   18.947279   19.270412
  S     19.169327   20.075722   20.363192
  N     19.133664   17.662151   19.278480
  C     18.556668   16.552547   18.496242
  C     17.719453   15.669448   19.417047
  C     18.038923   14.307654   19.577984
  C     17.290060   13.493791   20.444662
  C     16.216404   14.046553   21.163350
  C     15.899523   15.403487   21.012708
  O     14.862084   15.939632   21.703151
  C     16.644413   16.210323   20.146843
  H     15.461672   14.606292   18.248059
  H     14.325220   14.161312   16.975157
  H     15.091808   15.755547   16.936470
  H     16.585255   13.059848   16.673019
  H     16.098545   14.053612   15.289604
  H     17.246026   19.159524   15.241767
  H     16.332709   20.116477   16.420469
  H     15.717494   18.547506   15.886395
  H     17.390323   20.192047   18.301871
  H     19.794885   17.463632   20.018335
  H     19.393179   15.949783   18.115483
  H     18.868507   13.876611   19.023613
  H     17.544424   12.441462   20.559259
  H     15.636155   13.422357   21.835008
  H     14.510228   15.249287   22.285032
  H     16.385327   17.259031   20.052114

 Total Charge           Charge          ....    0
 Multiplicity           Mult            ....    1
 Number of Electrons    NEL             ....  154
 Basis Dimension        Dim             ....  828

ORBITAL ENERGIES
----------------

  NO   OCC          E(Eh)            E(eV)
   0   2.0000     -91.890853     -2500.4772
   1   2.0000     -20.598464      -560.5127
   2   2.0000     -20.584478      -560.1321
   3   2.0000     -20.548767      -559.1604
   4   2.0000     -15.630965      -425.3402
   5   2.0000     -15.609177      -424.7473
   6   2.0000     -11.394392      -310.0572
   7   2.0000     -11.385230      -309.8079
   8   2.0000     -11.337010      -308.4957
   9   2.0000     -11.315872      -307.9205
  10   2.0000     -11.311581      -307.8038
  11   2.0000     -11.298211      -307.4399
  12   2.0000     -11.261394      -306.4381
  13   2.0000     -11.260538      -306.4148
  14   2.0000     -11.257518      -306.3326
  15   2.0000     -11.253801      -306.2315
  16   2.0000     -11.245660      -306.0100
  17   2.0000     -11.240127      -305.8594
  18   2.0000     -11.239798      -305.8505
  19   2.0000     -11.222618      -305.3830
  20   2.0000      -8.895863      -242.0687
  21   2.0000      -6.577427      -178.9809
  22   2.0000      -6.575435      -178.9267
  23   2.0000      -6.574837      -178.9104
  24   2.0000      -1.448673       -39.4204
  25   2.0000      -1.418226       -38.5919
  26   2.0000      -1.351297       -36.7707
  27   2.0000      -1.341935       -36.5159
  28   2.0000      -1.239933       -33.7403
  29   2.0000      -1.159061       -31.5397
  30   2.0000      -1.120879       -30.5007
  31   2.0000      -1.044036       -28.4097
  32   2.0000      -1.031575       -28.0706
  33   2.0000      -1.017281       -27.6816
  34   2.0000      -0.998481       -27.1701
  35   2.0000      -0.986158       -26.8347
  36   2.0000      -0.924353       -25.1529
  37   2.0000      -0.894793       -24.3486
  38   2.0000      -0.848035       -23.0762
  39   2.0000      -0.841303       -22.8930
  40   2.0000      -0.836051       -22.7501
  41   2.0000      -0.816094       -22.2070
  42   2.0000      -0.750518       -20.4226
  43   2.0000      -0.733903       -19.9705
  44   2.0000      -0.722955       -19.6726
  45   2.0000      -0.697841       -18.9892
  46   2.0000      -0.691052       -18.8045
  47   2.0000      -0.676509       -18.4087
  48   2.0000      -0.668245       -18.1839
  49   2.0000      -0.666342       -18.1321
  50   2.0000      -0.649874       -17.6840
  51   2.0000      -0.644764       -17.5449
  52   2.0000      -0.637236       -17.3401
  53   2.0000      -0.613962       -16.7068
  54   2.0000      -0.608593       -16.5607
  55   2.0000      -0.601024       -16.3547
  56   2.0000      -0.600206       -16.3324
  57   2.0000      -0.579428       -15.7670
  58   2.0000      -0.571917       -15.5627
  59   2.0000      -0.564851       -15.3704
  60   2.0000      -0.552210       -15.0264
  61   2.0000      -0.544030       -14.8038
  62   2.0000      -0.539885       -14.6910
  63   2.0000      -0.528668       -14.3858
  64   2.0000      -0.526457       -14.3256
  65   2.0000      -0.515346       -14.0233
  66   2.0000      -0.503305       -13.6956
  67   2.0000      -0.501715       -13.6524
  68   2.0000      -0.475231       -12.9317
  69   2.0000      -0.465047       -12.6546
  70   2.0000      -0.452629       -12.3167
  71   2.0000      -0.444388       -12.0924
  72   2.0000      -0.357539        -9.7291
  73   2.0000      -0.350593        -9.5401
  74   2.0000      -0.329956        -8.9786
  75   2.0000      -0.324467        -8.8292
  76   2.0000      -0.317505        -8.6398
  77   0.0000       0.067560         1.8384
  78   0.0000       0.105370         2.8673
  79   0.0000       0.121150         3.2967
  80   0.0000       0.129779         3.5315
  81   0.0000       0.133956         3.6451

MULLIKEN ATOMIC CHARGES
-----------------------
   0 C :   -0.323417
   1 C :    0.035736
   2 O :   -0.387852
   3 C :    0.468827
   4 O :   -0.411300
   5 C :   -0.216358
   6 C :    0.155408
   7 C :   -0.271741
   8 N :   -0.123259
   9 C :    0.196476
  10 S :   -0.432969
  11 N :   -0.192039
  12 C :    0.027816
  13 C :    0.046099
  14 C :   -0.180205
  15 C :   -0.135885
  16 C :   -0.272280
  17 C :    0.298473
  18 O :   -0.358858
  19 C :   -0.243193
  20 H :    0.114120
  21 H :    0.115127
  22 H :    0.103042
  23 H :    0.113537
  24 H :    0.119321
  25 H :    0.136034
  26 H :    0.094694
  27 H :    0.126960
  28 H :    0.198360
  29 H :    0.190516
  30 H :    0.150411
  31 H :    0.156630
  32 H :    0.161749
  33 H :    0.132061
  34 H :    0.240849
  35 H :    0.167111
Sum of atomic charges:    0.0000000

LOEWDIN ATOMIC CHARGES
----------------------
   0 C :    0.108216
   1 C :   -0.013953
   2 O :    0.282247
   3 C :   -0.419359
   4 O :    0.117215
   5 C :   -0.096903
   6 C :   -0.059348
   7 C :    0.130448
   8 N :    0.406830
   9 C :   -0.459005
  10 S :   -0.031424
  11 N :    0.396634
  12 C :   -0.052365
  13 C :   -0.039301
  14 C :    0.015799
  15 C :    0.038698
  16 C :   -0.002632
  17 C :   -0.192253
  18 O :    0.396567
  19 C :    0.032654
  20 H :   -0.028496
  21 H :   -0.024122
  22 H :   -0.029218
  23 H :   -0.023164
  24 H :   -0.028641
  25 H :   -0.003187
  26 H :   -0.023070
  27 H :   -0.007354
  28 H :   -0.057830
  29 H :   -0.065106
  30 H :   -0.006342
  31 H :   -0.028532
  32 H :   -0.020678
  33 H :   -0.035066
  34 H :   -0.153495
  35 H :   -0.024463

  Mayer bond orders larger than 0.100000
B(  0-C ,  1-C ) :   0.9570 B(  0-C , 20-H ) :   0.9704 B(  0-C , 21-H ) :   0.9783
B(  0-C , 22-H ) :   0.9729 B(  1-C ,  2-O ) :   0.8825 B(  1-C , 23-H ) :   0.9823
B(  1-C , 24-H ) :   0.9846 B(  2-O ,  3-C ) :   1.1034 B(  3-C ,  4-O ) :   2.0024
B(  3-C ,  5-C ) :   1.0639 B(  5-C ,  6-C ) :   1.6539 B(  5-C , 12-C ) :   0.9703
B(  6-C ,  7-C ) :   0.9710 B(  6-C ,  8-N ) :   1.1425 B(  7-C , 25-H ) :   0.9570
B(  7-C , 26-H ) :   0.9885 B(  7-C , 27-H ) :   0.9651 B(  8-N ,  9-C ) :   1.1778
B(  8-N , 28-H ) :   0.9486 B(  9-C , 10-S ) :   1.6207 B(  9-C , 11-N ) :   1.2981
B( 11-N , 12-C ) :   0.9875 B( 11-N , 29-H ) :   0.9540 B( 12-C , 13-C ) :   0.9367
B( 12-C , 30-H ) :   1.0051 B( 13-C , 14-C ) :   1.3667 B( 13-C , 19-C ) :   1.3735
B( 14-C , 15-C ) :   1.3864 B( 14-C , 31-H ) :   0.9676 B( 15-C , 16-C ) :   1.3620
B( 15-C , 32-H ) :   0.9713 B( 16-C , 17-C ) :   1.3307 B( 16-C , 33-H ) :   0.9847
B( 17-C , 18-O ) :   1.1136 B( 17-C , 19-C ) :   1.3795 B( 18-O , 34-H ) :   0.9796
B( 19-C , 35-H ) :   0.9565

MP2 TOTAL ENERGY:    -1274.329810015 Eh
FINAL SINGLE POINT ENERGY     -1274.329810014900

DIPOLE MOMENT
-------------
                                X             Y             Z
Electronic contribution:      9.80503       8.83325       5.80927
Nuclear contribution   :    -10.85740     -10.48435      -5.86218
                        -----------------------------------------
Total Dipole Moment    :     -1.05237      -1.65110      -0.05292
                        -----------------------------------------
Magnitude (a.u.)       :      1.95867
Magnitude (Debye)      :      4.97856

Rotational constants in cm-1:     0.011823     0.009814     0.006589
Rotational constants in MHz :   354.455234   294.229453   197.526524

                             ****ORCA TERMINATED NORMALLY****
TOTAL RUN TIME: 0 days 2 hours 13 minutes 36 seconds 166 msec
