                         Program Version 4.2.0 -  RELEASE  -
|  1> ! ri-mp2 cc-pvtz cc-pvtz/c TightSCF  NoKeepInts
|  2>
|  3> %scf
|  4>   MaxCore 4096
|  5> end
|  6> *xyz  0  1
|  7>     C       15.4607151   13.7774729   15.2883013
|  8>     C       15.6693830   14.3453056   16.7031146
|  9>     O       16.7883863   15.2475318   16.6588279
| 10>     C       16.5525952   16.5927482   16.6246629
| 11>     O       15.5684266   17.0592396   16.0764436
| 12>     C       17.4474000   17.3618399   17.5575295
| 13>     C       17.3779988   18.7116402   17.6821859
| 14>     C       16.4443822   19.6526158   16.9510974
| 15>     N       18.2595631   19.3835600   18.5342043
| 16>     C       19.3000167   18.7984673   19.2050843
| 17>     S       20.3587805   19.6813797   20.1190466
| 18>     N       19.4234246   17.4385613   19.0769928
| 19>     C       18.4592037   16.5584817   18.3921010
| 20>     C       17.7717988   15.6575610   19.4145485
| 21>     C       18.0507204   14.2782613   19.4496537
| 22>     C       17.4142349   13.4435435   20.3835750
| 23>     C       16.4939834   13.9926768   21.2926869
| 24>     C       16.2186549   15.3667519   21.2647872
| 25>     O       15.3318924   15.9001651   22.1422425
| 26>     C       16.8527330   16.1946804   20.3333751
| 27>     H       15.2105024   14.5813083   14.5841695
| 28>     H       14.6397179   13.0504886   15.2825505
| 29>     H       16.3691267   13.2755029   14.9332275
| 30>     H       14.7591799   14.8461100   17.0614729
| 31>     H       15.8958195   13.5198578   17.3902693
| 32>     H       15.4006814   19.4427728   17.2183001
| 33>     H       16.5359393   19.5224353   15.8652752
| 34>     H       16.6384615   20.7084150   17.1734711
| 35>     H       18.1851053   20.3828565   18.6389502
| 36>     H       20.1784821   17.0315222   19.6137048
| 37>     H       19.0301570   15.9241025   17.6994629
| 38>     H       18.7586572   13.8506123   18.7445842
| 39>     H       17.6358831   12.3778045   20.4021423
| 40>     H       16.0008551   13.3525590   22.0169186
| 41>     H       15.0333531   15.1867432   22.7260261
| 42>     H       16.6307850   17.2564252   20.3330136
| 43> *
| 44>
| 45>                          ****END OF INPUT****

CARTESIAN COORDINATES (ANGSTROEM)
---------------------------------
  C     15.460715   13.777473   15.288301
  C     15.669383   14.345306   16.703115
  O     16.788386   15.247532   16.658828
  C     16.552595   16.592748   16.624663
  O     15.568427   17.059240   16.076444
  C     17.447400   17.361840   17.557530
  C     17.377999   18.711640   17.682186
  C     16.444382   19.652616   16.951097
  N     18.259563   19.383560   18.534204
  C     19.300017   18.798467   19.205084
  S     20.358781   19.681380   20.119047
  N     19.423425   17.438561   19.076993
  C     18.459204   16.558482   18.392101
  C     17.771799   15.657561   19.414548
  C     18.050720   14.278261   19.449654
  C     17.414235   13.443544   20.383575
  C     16.493983   13.992677   21.292687
  C     16.218655   15.366752   21.264787
  O     15.331892   15.900165   22.142242
  C     16.852733   16.194680   20.333375
  H     15.210502   14.581308   14.584169
  H     14.639718   13.050489   15.282550
  H     16.369127   13.275503   14.933227
  H     14.759180   14.846110   17.061473
  H     15.895819   13.519858   17.390269
  H     15.400681   19.442773   17.218300
  H     16.535939   19.522435   15.865275
  H     16.638461   20.708415   17.173471
  H     18.185105   20.382856   18.638950
  H     20.178482   17.031522   19.613705
  H     19.030157   15.924102   17.699463
  H     18.758657   13.850612   18.744584
  H     17.635883   12.377804   20.402142
  H     16.000855   13.352559   22.016919
  H     15.033353   15.186743   22.726026
  H     16.630785   17.256425   20.333014

 Total Charge           Charge          ....    0
 Multiplicity           Mult            ....    1
 Number of Electrons    NEL             ....  154
 Basis Dimension        Dim             ....  828

ORBITAL ENERGIES
----------------

  NO   OCC          E(Eh)            E(eV)
   0   2.0000     -91.889377     -2500.4371
   1   2.0000     -20.597937      -560.4984
   2   2.0000     -20.594668      -560.4094
   3   2.0000     -20.544210      -559.0364
   4   2.0000     -15.629642      -425.3042
   5   2.0000     -15.608785      -424.7366
   6   2.0000     -11.394959      -310.0726
   7   2.0000     -11.384509      -309.7882
   8   2.0000     -11.336299      -308.4764
   9   2.0000     -11.315345      -307.9062
  10   2.0000     -11.309855      -307.7568
  11   2.0000     -11.295235      -307.3590
  12   2.0000     -11.261080      -306.4296
  13   2.0000     -11.259112      -306.3760
  14   2.0000     -11.256815      -306.3135
  15   2.0000     -11.252720      -306.2021
  16   2.0000     -11.244425      -305.9764
  17   2.0000     -11.239710      -305.8481
  18   2.0000     -11.239447      -305.8409
  19   2.0000     -11.221426      -305.3505
  20   2.0000      -8.894435      -242.0299
  21   2.0000      -6.576008      -178.9423
  22   2.0000      -6.574005      -178.8878
  23   2.0000      -6.573417      -178.8718
  24   2.0000      -1.450905       -39.4811
  25   2.0000      -1.417581       -38.5744
  26   2.0000      -1.354441       -36.8562
  27   2.0000      -1.340598       -36.4795
  28   2.0000      -1.239128       -33.7184
  29   2.0000      -1.158867       -31.5344
  30   2.0000      -1.120863       -30.5002
  31   2.0000      -1.043647       -28.3991
  32   2.0000      -1.035122       -28.1671
  33   2.0000      -1.016570       -27.6623
  34   2.0000      -0.995762       -27.0961
  35   2.0000      -0.984397       -26.7868
  36   2.0000      -0.923353       -25.1257
  37   2.0000      -0.887408       -24.1476
  38   2.0000      -0.847779       -23.0692
  39   2.0000      -0.839024       -22.8310
  40   2.0000      -0.835352       -22.7311
  41   2.0000      -0.821263       -22.3477
  42   2.0000      -0.759528       -20.6678
  43   2.0000      -0.733240       -19.9525
  44   2.0000      -0.723611       -19.6905
  45   2.0000      -0.696912       -18.9640
  46   2.0000      -0.689024       -18.7493
  47   2.0000      -0.679785       -18.4979
  48   2.0000      -0.671514       -18.2728
  49   2.0000      -0.654099       -17.7989
  50   2.0000      -0.647119       -17.6090
  51   2.0000      -0.644637       -17.5415
  52   2.0000      -0.629619       -17.1328
  53   2.0000      -0.611681       -16.6447
  54   2.0000      -0.608332       -16.5536
  55   2.0000      -0.600461       -16.3394
  56   2.0000      -0.599616       -16.3164
  57   2.0000      -0.580125       -15.7860
  58   2.0000      -0.572688       -15.5836
  59   2.0000      -0.569845       -15.5063
  60   2.0000      -0.564594       -15.3634
  61   2.0000      -0.539419       -14.6783
  62   2.0000      -0.534438       -14.5428
  63   2.0000      -0.526193       -14.3184
  64   2.0000      -0.519782       -14.1440
  65   2.0000      -0.514196       -13.9920
  66   2.0000      -0.501858       -13.6563
  67   2.0000      -0.496933       -13.5222
  68   2.0000      -0.487806       -13.2739
  69   2.0000      -0.464255       -12.6330
  70   2.0000      -0.454172       -12.3586
  71   2.0000      -0.447591       -12.1796
  72   2.0000      -0.354618        -9.6496
  73   2.0000      -0.350729        -9.5438
  74   2.0000      -0.328840        -8.9482
  75   2.0000      -0.322896        -8.7865
  76   2.0000      -0.316675        -8.6172
  77   0.0000       0.073875         2.0103
  78   0.0000       0.104582         2.8458
  79   0.0000       0.124769         3.3951
  80   0.0000       0.131735         3.5847
  81   0.0000       0.137198         3.7333

MULLIKEN ATOMIC CHARGES
-----------------------
   0 C :   -0.272314
   1 C :    0.040049
   2 O :   -0.366146
   3 C :    0.452973
   4 O :   -0.426001
   5 C :   -0.222899
   6 C :    0.156787
   7 C :   -0.271893
   8 N :   -0.122434
   9 C :    0.212405
  10 S :   -0.439529
  11 N :   -0.206002
  12 C :    0.064861
  13 C :    0.064852
  14 C :   -0.201511
  15 C :   -0.126385
  16 C :   -0.280770
  17 C :    0.315915
  18 O :   -0.356006
  19 C :   -0.267000
  20 H :    0.110143
  21 H :    0.089857
  22 H :    0.090462
  23 H :    0.097198
  24 H :    0.109460
  25 H :    0.132488
  26 H :    0.130079
  27 H :    0.095518
  28 H :    0.197583
  29 H :    0.194954
  30 H :    0.150262
  31 H :    0.152111
  32 H :    0.163302
  33 H :    0.131050
  34 H :    0.240972
  35 H :    0.165613
Sum of atomic charges:   -0.0000000

LOEWDIN ATOMIC CHARGES
----------------------
   0 C :    0.104557
   1 C :   -0.015904
   2 O :    0.304564
   3 C :   -0.416039
   4 O :    0.101893
   5 C :   -0.095853
   6 C :   -0.058908
   7 C :    0.131601
   8 N :    0.406687
   9 C :   -0.456149
  10 S :   -0.035014
  11 N :    0.396269
  12 C :   -0.052225
  13 C :   -0.037817
  14 C :    0.014602
  15 C :    0.038678
  16 C :   -0.002333
  17 C :   -0.189388
  18 O :    0.395573
  19 C :    0.031124
  20 H :   -0.023865
  21 H :   -0.028799
  22 H :   -0.029459
  23 H :   -0.027939
  24 H :   -0.028063
  25 H :   -0.004596
  26 H :   -0.004015
  27 H :   -0.023212
  28 H :   -0.057474
  29 H :   -0.064656
  30 H :   -0.010164
  31 H :   -0.029829
  32 H :   -0.021157
  33 H :   -0.035408
  34 H :   -0.153612
  35 H :   -0.023668

  Mayer bond orders larger than 0.100000
B(  0-C ,  1-C ) :   0.9787 B(  0-C , 20-H ) :   0.9768 B(  0-C , 21-H ) :   0.9774
B(  0-C , 22-H ) :   0.9777 B(  1-C ,  2-O ) :   0.8793 B(  1-C , 23-H ) :   0.9722
B(  1-C , 24-H ) :   0.9762 B(  2-O ,  3-C ) :   1.1375 B(  3-C ,  4-O ) :   1.9745
B(  3-C ,  5-C ) :   1.0665 B(  5-C ,  6-C ) :   1.6514 B(  5-C , 12-C ) :   0.9715
B(  6-C ,  7-C ) :   0.9669 B(  6-C ,  8-N ) :   1.1616 B(  7-C , 25-H ) :   0.9594
B(  7-C , 26-H ) :   0.9611 B(  7-C , 27-H ) :   0.9906 B(  8-N ,  9-C ) :   1.1829
B(  8-N , 28-H ) :   0.9477 B(  9-C , 10-S ) :   1.6072 B(  9-C , 11-N ) :   1.3059
B( 11-N , 12-C ) :   0.9820 B( 11-N , 29-H ) :   0.9516 B( 12-C , 13-C ) :   0.9361
B( 12-C , 30-H ) :   1.0023 B( 13-C , 14-C ) :   1.3489 B( 13-C , 19-C ) :   1.3822
B( 14-C , 15-C ) :   1.3874 B( 14-C , 31-H ) :   0.9727 B( 15-C , 16-C ) :   1.3632
B( 15-C , 32-H ) :   0.9699 B( 16-C , 17-C ) :   1.3308 B( 16-C , 33-H ) :   0.9847
B( 17-C , 18-O ) :   1.1111 B( 17-C , 19-C ) :   1.3711 B( 18-O , 34-H ) :   0.9796
B( 19-C , 35-H ) :   0.9584

MP2 TOTAL ENERGY:    -1274.343273455 Eh
FINAL SINGLE POINT ENERGY     -1274.343273455083

DIPOLE MOMENT
-------------
                                X             Y             Z
Electronic contribution:      9.99009      10.15241       9.00070
Nuclear contribution   :    -11.04622     -11.74259      -9.20216
                        -----------------------------------------
Total Dipole Moment    :     -1.05614      -1.59018      -0.20146
                        -----------------------------------------
Magnitude (a.u.)       :      1.91955
Magnitude (Debye)      :      4.87912

Rotational constants in cm-1:     0.011766     0.008615     0.006128
Rotational constants in MHz :   352.739995   258.282606   183.703640

                             ****ORCA TERMINATED NORMALLY****
TOTAL RUN TIME: 0 days 1 hours 39 minutes 58 seconds 561 msec
