                         Program Version 4.2.0 -  RELEASE  -
|  1> ! ri-mp2 cc-pvtz cc-pvtz/c TightSCF  NoKeepInts
|  2>
|  3> %scf
|  4>   MaxCore 4096
|  5> end
|  6> *xyz  0  1
|  7>     C       14.1754970   14.9891552   16.1384259
|  8>     C       15.5999856   14.8027666   16.6863063
|  9>     O       16.4435697   15.7660927   16.0361978
| 10>     C       17.7316945   15.8415072   16.4717371
| 11>     O       18.4135629   14.8340326   16.5561392
| 12>     C       17.9248934   16.9881066   17.4164001
| 13>     C       17.3452602   18.2027267   17.2490511
| 14>     C       16.4580145   18.6449667   16.1043027
| 15>     N       17.6093431   19.2303015   18.1594779
| 16>     C       18.5329322   19.1606260   19.1696470
| 17>     S       18.8652209   20.4604948   20.1366405
| 18>     N       19.1677608   17.9552674   19.3387384
| 19>     C       18.8272840   16.7113486   18.6217677
| 20>     C       18.1649974   15.7112408   19.5657420
| 21>     C       18.6813041   14.4096211   19.7025345
| 22>     C       18.0634584   13.4797181   20.5553769
| 23>     C       16.9175507   13.8530279   21.2779752
| 24>     C       16.3974643   15.1470825   21.1414862
| 25>     O       15.2847923   15.5077045   21.8290213
| 26>     C       17.0141303   16.0701603   20.2912534
| 27>     H       13.4895653   14.2683206   16.5998013
| 28>     H       14.1565206   14.8346013   15.0523454
| 29>     H       13.8068131   15.9997685   16.3525337
| 30>     H       15.6046053   14.9597200   17.7738103
| 31>     H       15.9539374   13.7834070   16.4796265
| 32>     H       16.8267566   18.2553577   15.1471278
| 33>     H       16.4112518   19.7366057   16.0084217
| 34>     H       15.4345098   18.2752552   16.2432388
| 35>     H       17.1543351   20.1228378   18.0512882
| 36>     H       19.8224510   17.9234431   20.1097601
| 37>     H       19.7633125   16.2708833   18.2487014
| 38>     H       19.5557768   14.1121618   19.1286547
| 39>     H       18.4701158   12.4741168   20.6476526
| 40>     H       16.4361234   13.1369933   21.9357734
| 41>     H       15.0460761   14.7655424   22.4047435
| 42>     H       16.5961330   17.0670375   20.2022995
| 43> *
| 44>
| 45>                          ****END OF INPUT****

CARTESIAN COORDINATES (ANGSTROEM)
---------------------------------
  C     14.175497   14.989155   16.138426
  C     15.599986   14.802767   16.686306
  O     16.443570   15.766093   16.036198
  C     17.731694   15.841507   16.471737
  O     18.413563   14.834033   16.556139
  C     17.924893   16.988107   17.416400
  C     17.345260   18.202727   17.249051
  C     16.458015   18.644967   16.104303
  N     17.609343   19.230301   18.159478
  C     18.532932   19.160626   19.169647
  S     18.865221   20.460495   20.136640
  N     19.167761   17.955267   19.338738
  C     18.827284   16.711349   18.621768
  C     18.164997   15.711241   19.565742
  C     18.681304   14.409621   19.702534
  C     18.063458   13.479718   20.555377
  C     16.917551   13.853028   21.277975
  C     16.397464   15.147082   21.141486
  O     15.284792   15.507704   21.829021
  C     17.014130   16.070160   20.291253
  H     13.489565   14.268321   16.599801
  H     14.156521   14.834601   15.052345
  H     13.806813   15.999769   16.352534
  H     15.604605   14.959720   17.773810
  H     15.953937   13.783407   16.479626
  H     16.826757   18.255358   15.147128
  H     16.411252   19.736606   16.008422
  H     15.434510   18.275255   16.243239
  H     17.154335   20.122838   18.051288
  H     19.822451   17.923443   20.109760
  H     19.763313   16.270883   18.248701
  H     19.555777   14.112162   19.128655
  H     18.470116   12.474117   20.647653
  H     16.436123   13.136993   21.935773
  H     15.046076   14.765542   22.404743
  H     16.596133   17.067038   20.202299

 Total Charge           Charge          ....    0
 Multiplicity           Mult            ....    1
 Number of Electrons    NEL             ....  154
 Basis Dimension        Dim             ....  828

ORBITAL ENERGIES
----------------

  NO   OCC          E(Eh)            E(eV)
   0   2.0000     -91.889091     -2500.4293
   1   2.0000     -20.596384      -560.4561
   2   2.0000     -20.584515      -560.1331
   3   2.0000     -20.555743      -559.3502
   4   2.0000     -15.628694      -425.2784
   5   2.0000     -15.608586      -424.7312
   6   2.0000     -11.393684      -310.0379
   7   2.0000     -11.384588      -309.7904
   8   2.0000     -11.333320      -308.3953
   9   2.0000     -11.312580      -307.8309
  10   2.0000     -11.308957      -307.7324
  11   2.0000     -11.297345      -307.4164
  12   2.0000     -11.260638      -306.4175
  13   2.0000     -11.259692      -306.3918
  14   2.0000     -11.257968      -306.3449
  15   2.0000     -11.252599      -306.1988
  16   2.0000     -11.242267      -305.9176
  17   2.0000     -11.238093      -305.8040
  18   2.0000     -11.235285      -305.7277
  19   2.0000     -11.232471      -305.6511
  20   2.0000      -8.894162      -242.0225
  21   2.0000      -6.575740      -178.9350
  22   2.0000      -6.573731      -178.8803
  23   2.0000      -6.573147      -178.8644
  24   2.0000      -1.454022       -39.5659
  25   2.0000      -1.416194       -38.5366
  26   2.0000      -1.356877       -36.9225
  27   2.0000      -1.339794       -36.4576
  28   2.0000      -1.238075       -33.6897
  29   2.0000      -1.156626       -31.4734
  30   2.0000      -1.121592       -30.5201
  31   2.0000      -1.045175       -28.4407
  32   2.0000      -1.035535       -28.1783
  33   2.0000      -1.014121       -27.5956
  34   2.0000      -0.999583       -27.2000
  35   2.0000      -0.985259       -26.8103
  36   2.0000      -0.923600       -25.1324
  37   2.0000      -0.881342       -23.9825
  38   2.0000      -0.848415       -23.0866
  39   2.0000      -0.838942       -22.8288
  40   2.0000      -0.832626       -22.6569
  41   2.0000      -0.826280       -22.4842
  42   2.0000      -0.757527       -20.6133
  43   2.0000      -0.735956       -20.0264
  44   2.0000      -0.728570       -19.8254
  45   2.0000      -0.694367       -18.8947
  46   2.0000      -0.685938       -18.6653
  47   2.0000      -0.681581       -18.5468
  48   2.0000      -0.675600       -18.3840
  49   2.0000      -0.655811       -17.8455
  50   2.0000      -0.651482       -17.7277
  51   2.0000      -0.642509       -17.4836
  52   2.0000      -0.634114       -17.2551
  53   2.0000      -0.616907       -16.7869
  54   2.0000      -0.604956       -16.4617
  55   2.0000      -0.603167       -16.4130
  56   2.0000      -0.599923       -16.3247
  57   2.0000      -0.578009       -15.7284
  58   2.0000      -0.575759       -15.6672
  59   2.0000      -0.564552       -15.3622
  60   2.0000      -0.557878       -15.1806
  61   2.0000      -0.547086       -14.8870
  62   2.0000      -0.540850       -14.7173
  63   2.0000      -0.522080       -14.2065
  64   2.0000      -0.519731       -14.1426
  65   2.0000      -0.512127       -13.9357
  66   2.0000      -0.504673       -13.7328
  67   2.0000      -0.498132       -13.5548
  68   2.0000      -0.482431       -13.1276
  69   2.0000      -0.465460       -12.6658
  70   2.0000      -0.458711       -12.4822
  71   2.0000      -0.451404       -12.2833
  72   2.0000      -0.354675        -9.6512
  73   2.0000      -0.348248        -9.4763
  74   2.0000      -0.328401        -8.9362
  75   2.0000      -0.319712        -8.6998
  76   2.0000      -0.315984        -8.5984
  77   0.0000       0.070431         1.9165
  78   0.0000       0.104362         2.8398
  79   0.0000       0.118934         3.2364
  80   0.0000       0.131793         3.5863
  81   0.0000       0.135437         3.6854

MULLIKEN ATOMIC CHARGES
-----------------------
   0 C :   -0.271508
   1 C :    0.043581
   2 O :   -0.368093
   3 C :    0.456889
   4 O :   -0.397429
   5 C :   -0.199781
   6 C :    0.132429
   7 C :   -0.281279
   8 N :   -0.124048
   9 C :    0.202205
  10 S :   -0.439304
  11 N :   -0.201219
  12 C :    0.056631
  13 C :    0.047290
  14 C :   -0.159176
  15 C :   -0.133578
  16 C :   -0.279227
  17 C :    0.320163
  18 O :   -0.360353
  19 C :   -0.295236
  20 H :    0.096889
  21 H :    0.101530
  22 H :    0.089119
  23 H :    0.093079
  24 H :    0.109783
  25 H :    0.123927
  26 H :    0.105742
  27 H :    0.124328
  28 H :    0.197318
  29 H :    0.194245
  30 H :    0.155552
  31 H :    0.157048
  32 H :    0.161101
  33 H :    0.130980
  34 H :    0.240953
  35 H :    0.169448
Sum of atomic charges:    0.0000000

LOEWDIN ATOMIC CHARGES
----------------------
   0 C :    0.109313
   1 C :   -0.018374
   2 O :    0.290592
   3 C :   -0.417323
   4 O :    0.130256
   5 C :   -0.094377
   6 C :   -0.074998
   7 C :    0.126453
   8 N :    0.404097
   9 C :   -0.457465
  10 S :   -0.036057
  11 N :    0.397025
  12 C :   -0.045273
  13 C :   -0.041061
  14 C :    0.022035
  15 C :    0.042459
  16 C :   -0.002080
  17 C :   -0.194966
  18 O :    0.393574
  19 C :    0.027330
  20 H :   -0.023441
  21 H :   -0.025132
  22 H :   -0.030698
  23 H :   -0.030766
  24 H :   -0.027200
  25 H :   -0.007678
  26 H :   -0.019334
  27 H :   -0.010926
  28 H :   -0.058672
  29 H :   -0.064095
  30 H :   -0.004491
  31 H :   -0.024377
  32 H :   -0.020145
  33 H :   -0.035548
  34 H :   -0.153914
  35 H :   -0.024743

  Mayer bond orders larger than 0.100000
B(  0-C ,  1-C ) :   0.9759 B(  0-C , 20-H ) :   0.9769 B(  0-C , 21-H ) :   0.9778
B(  0-C , 22-H ) :   0.9787 B(  1-C ,  2-O ) :   0.8955 B(  1-C , 23-H ) :   0.9647
B(  1-C , 24-H ) :   0.9807 B(  2-O ,  3-C ) :   1.0941 B(  3-C ,  4-O ) :   2.0269
B(  3-C ,  5-C ) :   1.0255 B(  5-C ,  6-C ) :   1.6694 B(  5-C , 12-C ) :   0.9614
B(  6-C ,  7-C ) :   0.9520 B(  6-C ,  8-N ) :   1.1378 B(  7-C , 25-H ) :   0.9707
B(  7-C , 26-H ) :   0.9879 B(  7-C , 27-H ) :   0.9628 B(  8-N ,  9-C ) :   1.1842
B(  8-N , 28-H ) :   0.9499 B(  9-C , 10-S ) :   1.6116 B(  9-C , 11-N ) :   1.2995
B( 11-N , 12-C ) :   0.9931 B( 11-N , 29-H ) :   0.9518 B( 12-C , 13-C ) :   0.9451
B( 12-C , 30-H ) :   0.9985 B( 13-C , 14-C ) :   1.3790 B( 13-C , 19-C ) :   1.3611
B( 14-C , 15-C ) :   1.3944 B( 14-C , 31-H ) :   0.9633 B( 15-C , 16-C ) :   1.3640
B( 15-C , 32-H ) :   0.9709 B( 16-C , 17-C ) :   1.3307 B( 16-C , 33-H ) :   0.9847
B( 17-C , 18-O ) :   1.1091 B( 17-C , 19-C ) :   1.3692 B( 18-O , 34-H ) :   0.9798
B( 19-C , 35-H ) :   0.9594

MP2 TOTAL ENERGY:    -1274.325206846 Eh
FINAL SINGLE POINT ENERGY     -1274.325206846083

DIPOLE MOMENT
-------------
                                X             Y             Z
Electronic contribution:     12.07606       8.41422       7.52934
Nuclear contribution   :    -13.41312      -9.68266      -8.06676
                        -----------------------------------------
Total Dipole Moment    :     -1.33706      -1.26844      -0.53742
                        -----------------------------------------
Magnitude (a.u.)       :      1.91976
Magnitude (Debye)      :      4.87965

Rotational constants in cm-1:     0.011309     0.009198     0.006610
Rotational constants in MHz :   339.041967   275.735126   198.148253

                             ****ORCA TERMINATED NORMALLY****
TOTAL RUN TIME: 0 days 1 hours 51 minutes 47 seconds 697 msec
