                         Program Version 4.2.0 -  RELEASE  -
|  1> ! ri-mp2 cc-pvtz cc-pvtz/c TightSCF  NoKeepInts
|  2>
|  3> %scf
|  4>   MaxCore 4096
|  5> end
|  6> *xyz  0  1
|  7>     C       14.9653934   14.5691198   17.0435025
|  8>     C       15.6878324   14.8058977   15.7027165
|  9>     O       16.4885021   15.9956040   15.8239973
| 10>     C       17.6854812   15.9266177   16.4775636
| 11>     O       18.3150419   14.8846037   16.5627436
| 12>     C       17.8903144   17.0572173   17.4409810
| 13>     C       17.3844364   18.3059991   17.2759078
| 14>     C       16.5712426   18.8277123   16.1094592
| 15>     N       17.6649500   19.2992864   18.2194924
| 16>     C       18.5369554   19.1604831   19.2672316
| 17>     S       18.8968278   20.4223723   20.2740891
| 18>     N       19.0965694   17.9193073   19.4382641
| 19>     C       18.7213372   16.7108674   18.6799995
| 20>     C       17.9669858   15.7298428   19.5734844
| 21>     C       18.4183703   14.4051726   19.7192039
| 22>     C       17.7152025   13.4932278   20.5240399
| 23>     C       16.5488012   13.9080240   21.1889399
| 24>     C       16.0937038   15.2254746   21.0435123
| 25>     O       14.9623149   15.6264664   21.6761598
| 26>     C       16.7959245   16.1309217   20.2421819
| 27>     H       15.6860733   14.3440145   17.8404435
| 28>     H       14.2756493   13.7204515   16.9629767
| 29>     H       14.3888249   15.4545998   17.3383244
| 30>     H       16.2988185   13.9347277   15.4286600
| 31>     H       14.9370887   14.9548986   14.9162093
| 32>     H       15.5384770   18.4612920   16.1643172
| 33>     H       16.9963773   18.4932191   15.1549490
| 34>     H       16.5357190   19.9234393   16.0775753
| 35>     H       17.2636815   20.2171287   18.1117004
| 36>     H       19.7114904   17.8358575   20.2375254
| 37>     H       19.6484695   16.2277602   18.3391051
| 38>     H       19.3084602   14.0762317   19.1883903
| 39>     H       18.0716485   12.4694952   20.6230965
| 40>     H       16.0011647   13.2060619   21.8088680
| 41>     H       14.6523246   14.8827671   22.2144055
| 42>     H       16.4265451   17.1458373   20.1439830
| 43> *
| 44>
| 45>                          ****END OF INPUT****

CARTESIAN COORDINATES (ANGSTROEM)
---------------------------------
  C     14.965393   14.569120   17.043502
  C     15.687832   14.805898   15.702716
  O     16.488502   15.995604   15.823997
  C     17.685481   15.926618   16.477564
  O     18.315042   14.884604   16.562744
  C     17.890314   17.057217   17.440981
  C     17.384436   18.305999   17.275908
  C     16.571243   18.827712   16.109459
  N     17.664950   19.299286   18.219492
  C     18.536955   19.160483   19.267232
  S     18.896828   20.422372   20.274089
  N     19.096569   17.919307   19.438264
  C     18.721337   16.710867   18.680000
  C     17.966986   15.729843   19.573484
  C     18.418370   14.405173   19.719204
  C     17.715203   13.493228   20.524040
  C     16.548801   13.908024   21.188940
  C     16.093704   15.225475   21.043512
  O     14.962315   15.626466   21.676160
  C     16.795925   16.130922   20.242182
  H     15.686073   14.344014   17.840443
  H     14.275649   13.720451   16.962977
  H     14.388825   15.454600   17.338324
  H     16.298818   13.934728   15.428660
  H     14.937089   14.954899   14.916209
  H     15.538477   18.461292   16.164317
  H     16.996377   18.493219   15.154949
  H     16.535719   19.923439   16.077575
  H     17.263682   20.217129   18.111700
  H     19.711490   17.835857   20.237525
  H     19.648470   16.227760   18.339105
  H     19.308460   14.076232   19.188390
  H     18.071648   12.469495   20.623096
  H     16.001165   13.206062   21.808868
  H     14.652325   14.882767   22.214406
  H     16.426545   17.145837   20.143983

 Total Charge           Charge          ....    0
 Multiplicity           Mult            ....    1
 Number of Electrons    NEL             ....  154
 Basis Dimension        Dim             ....  828

ORBITAL ENERGIES
----------------

  NO   OCC          E(Eh)            E(eV)
   0   2.0000     -91.888224     -2500.4057
   1   2.0000     -20.596186      -560.4507
   2   2.0000     -20.594329      -560.4002
   3   2.0000     -20.549517      -559.1808
   4   2.0000     -15.627906      -425.2569
   5   2.0000     -15.607562      -424.7034
   6   2.0000     -11.395745      -310.0940
   7   2.0000     -11.383551      -309.7622
   8   2.0000     -11.333849      -308.4097
   9   2.0000     -11.310405      -307.7718
  10   2.0000     -11.307451      -307.6914
  11   2.0000     -11.297676      -307.4254
  12   2.0000     -11.259759      -306.3936
  13   2.0000     -11.258988      -306.3726
  14   2.0000     -11.255999      -306.2913
  15   2.0000     -11.250822      -306.1504
  16   2.0000     -11.240443      -305.8680
  17   2.0000     -11.236053      -305.7486
  18   2.0000     -11.233575      -305.6811
  19   2.0000     -11.224751      -305.4410
  20   2.0000      -8.893297      -241.9989
  21   2.0000      -6.574875      -178.9115
  22   2.0000      -6.572866      -178.8568
  23   2.0000      -6.572283      -178.8409
  24   2.0000      -1.453157       -39.5424
  25   2.0000      -1.414101       -38.4797
  26   2.0000      -1.356903       -36.9232
  27   2.0000      -1.339085       -36.4383
  28   2.0000      -1.237243       -33.6671
  29   2.0000      -1.154988       -31.4288
  30   2.0000      -1.120683       -30.4953
  31   2.0000      -1.043395       -28.3922
  32   2.0000      -1.032404       -28.0931
  33   2.0000      -1.012204       -27.5435
  34   2.0000      -0.998442       -27.1690
  35   2.0000      -0.984030       -26.7768
  36   2.0000      -0.922644       -25.1064
  37   2.0000      -0.892228       -24.2788
  38   2.0000      -0.847429       -23.0597
  39   2.0000      -0.836739       -22.7688
  40   2.0000      -0.830747       -22.6058
  41   2.0000      -0.814629       -22.1672
  42   2.0000      -0.753532       -20.5047
  43   2.0000      -0.736206       -20.0332
  44   2.0000      -0.726862       -19.7789
  45   2.0000      -0.692849       -18.8534
  46   2.0000      -0.685797       -18.6615
  47   2.0000      -0.678530       -18.4637
  48   2.0000      -0.672721       -18.3057
  49   2.0000      -0.659285       -17.9401
  50   2.0000      -0.651480       -17.7277
  51   2.0000      -0.645202       -17.5568
  52   2.0000      -0.633934       -17.2502
  53   2.0000      -0.607633       -16.5345
  54   2.0000      -0.601718       -16.3736
  55   2.0000      -0.600633       -16.3440
  56   2.0000      -0.598027       -16.2732
  57   2.0000      -0.579962       -15.7816
  58   2.0000      -0.575441       -15.6586
  59   2.0000      -0.562822       -15.3152
  60   2.0000      -0.555097       -15.1050
  61   2.0000      -0.551486       -15.0067
  62   2.0000      -0.535925       -14.5833
  63   2.0000      -0.529699       -14.4138
  64   2.0000      -0.519655       -14.1405
  65   2.0000      -0.510440       -13.8898
  66   2.0000      -0.498210       -13.5570
  67   2.0000      -0.493313       -13.4237
  68   2.0000      -0.481962       -13.1149
  69   2.0000      -0.464258       -12.6331
  70   2.0000      -0.460100       -12.5200
  71   2.0000      -0.449981       -12.2446
  72   2.0000      -0.353845        -9.6286
  73   2.0000      -0.346635        -9.4324
  74   2.0000      -0.327501        -8.9118
  75   2.0000      -0.317846        -8.6490
  76   2.0000      -0.315189        -8.5767
  77   0.0000       0.074947         2.0394
  78   0.0000       0.108774         2.9599
  79   0.0000       0.119368         3.2482
  80   0.0000       0.133354         3.6288
  81   0.0000       0.143133         3.8948

MULLIKEN ATOMIC CHARGES
-----------------------
   0 C :   -0.299885
   1 C :    0.030667
   2 O :   -0.361894
   3 C :    0.428774
   4 O :   -0.416567
   5 C :   -0.160766
   6 C :    0.137960
   7 C :   -0.283658
   8 N :   -0.124391
   9 C :    0.204187
  10 S :   -0.440107
  11 N :   -0.200566
  12 C :    0.053133
  13 C :    0.031622
  14 C :   -0.154547
  15 C :   -0.135955
  16 C :   -0.278885
  17 C :    0.310620
  18 O :   -0.359979
  19 C :   -0.266403
  20 H :    0.121295
  21 H :    0.100170
  22 H :    0.095030
  23 H :    0.113282
  24 H :    0.105141
  25 H :    0.126513
  26 H :    0.124870
  27 H :    0.102141
  28 H :    0.197012
  29 H :    0.194076
  30 H :    0.154101
  31 H :    0.155409
  32 H :    0.160147
  33 H :    0.129921
  34 H :    0.240539
  35 H :    0.166993
Sum of atomic charges:   -0.0000000

LOEWDIN ATOMIC CHARGES
----------------------
   0 C :    0.105695
   1 C :   -0.018369
   2 O :    0.300166
   3 C :   -0.414008
   4 O :    0.111528
   5 C :   -0.091613
   6 C :   -0.071199
   7 C :    0.125790
   8 N :    0.404285
   9 C :   -0.457641
  10 S :   -0.036583
  11 N :    0.397493
  12 C :   -0.045450
  13 C :   -0.041220
  14 C :    0.021157
  15 C :    0.040620
  16 C :   -0.002451
  17 C :   -0.193333
  18 O :    0.393927
  19 C :    0.029955
  20 H :   -0.022341
  21 H :   -0.026464
  22 H :   -0.028808
  23 H :   -0.027698
  24 H :   -0.026620
  25 H :   -0.010221
  26 H :   -0.008203
  27 H :   -0.020275
  28 H :   -0.058935
  29 H :   -0.063955
  30 H :   -0.004860
  31 H :   -0.024848
  32 H :   -0.020659
  33 H :   -0.035864
  34 H :   -0.154421
  35 H :   -0.024574

  Mayer bond orders larger than 0.100000
B(  0-C ,  1-C ) :   0.9631 B(  0-C , 20-H ) :   0.9689 B(  0-C , 21-H ) :   0.9770
B(  0-C , 22-H ) :   0.9770 B(  1-C ,  2-O ) :   0.8916 B(  1-C , 23-H ) :   0.9771
B(  1-C , 24-H ) :   0.9846 B(  2-O ,  3-C ) :   1.1245 B(  3-C ,  4-O ) :   2.0001
B(  3-C ,  5-C ) :   1.0328 B(  5-C ,  6-C ) :   1.6605 B(  5-C , 12-C ) :   0.9652
B(  6-C ,  7-C ) :   0.9538 B(  6-C ,  8-N ) :   1.1409 B(  7-C , 25-H ) :   0.9628
B(  7-C , 26-H ) :   0.9688 B(  7-C , 27-H ) :   0.9893 B(  8-N ,  9-C ) :   1.1830
B(  8-N , 28-H ) :   0.9495 B(  9-C , 10-S ) :   1.6100 B(  9-C , 11-N ) :   1.3014
B( 11-N , 12-C ) :   0.9929 B( 11-N , 29-H ) :   0.9518 B( 12-C , 13-C ) :   0.9422
B( 12-C , 30-H ) :   0.9990 B( 13-C , 14-C ) :   1.3793 B( 13-C , 19-C ) :   1.3719
B( 14-C , 15-C ) :   1.3936 B( 14-C , 31-H ) :   0.9641 B( 15-C , 16-C ) :   1.3621
B( 15-C , 32-H ) :   0.9716 B( 16-C , 17-C ) :   1.3315 B( 16-C , 33-H ) :   0.9854
B( 17-C , 18-O ) :   1.1088 B( 17-C , 19-C ) :   1.3756 B( 18-O , 34-H ) :   0.9802
B( 19-C , 35-H ) :   0.9578

MP2 TOTAL ENERGY:    -1274.341298500 Eh
FINAL SINGLE POINT ENERGY     -1274.341298500043

DIPOLE MOMENT
-------------
                                X             Y             Z
Electronic contribution:     10.17877       9.36822       7.00459
Nuclear contribution   :    -11.54975     -10.68140      -7.91195
                        -----------------------------------------
Total Dipole Moment    :     -1.37098      -1.31318      -0.90736
                        -----------------------------------------
Magnitude (a.u.)       :      2.10412
Magnitude (Debye)      :      5.34825

Rotational constants in cm-1:     0.011811     0.009268     0.006566
Rotational constants in MHz :   354.099542   277.861304   196.852317

                             ****ORCA TERMINATED NORMALLY****
TOTAL RUN TIME: 0 days 1 hours 51 minutes 3 seconds 482 msec
