                         Program Version 4.2.0 -  RELEASE  -
|  1> ! ri-mp2 cc-pvtz cc-pvtz/c TightSCF  NoKeepInts
|  2>
|  3> %scf
|  4>   MaxCore 4096
|  5> end
|  6> *xyz  0  1
|  7>     C       14.7774623   14.4471903   14.7775766
|  8>     C       15.3835268   14.5580013   16.1866011
|  9>     O       16.3530108   15.6211105   16.1516108
| 10>     C       17.5097563   15.5067474   16.8674923
| 11>     O       17.9922073   14.4219538   17.1485933
| 12>     C       17.8805944   16.7564639   17.6125659
| 13>     C       17.5101997   18.0119375   17.2485868
| 14>     C       16.6918780   18.4282938   16.0434037
| 15>     N       17.9621562   19.1107032   17.9867913
| 16>     C       18.8937358   19.0512259   18.9895063
| 17>     S       19.4695514   20.4153944   19.7264324
| 18>     N       19.3248003   17.7997029   19.3497968
| 19>     C       18.7480873   16.5347812   18.8567179
| 20>     C       17.9532731   15.8442325   19.9621022
| 21>     C       18.2468038   14.5177275   20.3285681
| 22>     C       17.5160749   13.8758346   21.3424417
| 23>     C       16.4814575   14.5655502   21.9970208
| 24>     C       16.1831022   15.8854805   21.6325691
| 25>     O       15.1802436   16.5520193   22.2581435
| 26>     C       16.9117820   16.5214956   20.6226287
| 27>     H       14.2954772   15.3889771   14.4875304
| 28>     H       14.0243200   13.6505413   14.7445386
| 29>     H       15.5560143   14.2137453   14.0404642
| 30>     H       14.6057302   14.7760785   16.9299090
| 31>     H       15.8454849   13.5946353   16.4422750
| 32>     H       17.0478593   17.9241854   15.1361899
| 33>     H       16.7422508   19.5067946   15.8506069
| 34>     H       15.6360149   18.1647968   16.1829381
| 35>     H       17.6580111   20.0380848   17.7368238
| 36>     H       19.9886092   17.7812190   20.1133140
| 37>     H       19.5825351   15.8781119   18.5708662
| 38>     H       19.0351084   13.9761746   19.8112803
| 39>     H       17.7496892   12.8474539   21.6120817
| 40>     H       15.9135500   14.0729966   22.7792000
| 41>     H       14.8300493   15.9677309   22.9471907
| 42>     H       16.6665925   17.5446280   20.3596416
| 43> *
| 44>
| 45>                          ****END OF INPUT****

CARTESIAN COORDINATES (ANGSTROEM)
---------------------------------
  C     14.777462   14.447190   14.777577
  C     15.383527   14.558001   16.186601
  O     16.353011   15.621111   16.151611
  C     17.509756   15.506747   16.867492
  O     17.992207   14.421954   17.148593
  C     17.880594   16.756464   17.612566
  C     17.510200   18.011937   17.248587
  C     16.691878   18.428294   16.043404
  N     17.962156   19.110703   17.986791
  C     18.893736   19.051226   18.989506
  S     19.469551   20.415394   19.726432
  N     19.324800   17.799703   19.349797
  C     18.748087   16.534781   18.856718
  C     17.953273   15.844233   19.962102
  C     18.246804   14.517727   20.328568
  C     17.516075   13.875835   21.342442
  C     16.481458   14.565550   21.997021
  C     16.183102   15.885480   21.632569
  O     15.180244   16.552019   22.258143
  C     16.911782   16.521496   20.622629
  H     14.295477   15.388977   14.487530
  H     14.024320   13.650541   14.744539
  H     15.556014   14.213745   14.040464
  H     14.605730   14.776079   16.929909
  H     15.845485   13.594635   16.442275
  H     17.047859   17.924185   15.136190
  H     16.742251   19.506795   15.850607
  H     15.636015   18.164797   16.182938
  H     17.658011   20.038085   17.736824
  H     19.988609   17.781219   20.113314
  H     19.582535   15.878112   18.570866
  H     19.035108   13.976175   19.811280
  H     17.749689   12.847454   21.612082
  H     15.913550   14.072997   22.779200
  H     14.830049   15.967731   22.947191
  H     16.666593   17.544628   20.359642

 Total Charge           Charge          ....    0
 Multiplicity           Mult            ....    1
 Number of Electrons    NEL             ....  154
 Basis Dimension        Dim             ....  828

ORBITAL ENERGIES
----------------

  NO   OCC          E(Eh)            E(eV)
   0   2.0000     -91.888067     -2500.4014
   1   2.0000     -20.597712      -560.4922
   2   2.0000     -20.592417      -560.3481
   3   2.0000     -20.548614      -559.1562
   4   2.0000     -15.628212      -425.2653
   5   2.0000     -15.606875      -424.6847
   6   2.0000     -11.395937      -310.0992
   7   2.0000     -11.383098      -309.7498
   8   2.0000     -11.335198      -308.4464
   9   2.0000     -11.308271      -307.7137
  10   2.0000     -11.306165      -307.6564
  11   2.0000     -11.298453      -307.4465
  12   2.0000     -11.260182      -306.4051
  13   2.0000     -11.259211      -306.3787
  14   2.0000     -11.254134      -306.2406
  15   2.0000     -11.248398      -306.0845
  16   2.0000     -11.238030      -305.8024
  17   2.0000     -11.234116      -305.6958
  18   2.0000     -11.231689      -305.6298
  19   2.0000     -11.231169      -305.6156
  20   2.0000      -8.893133      -241.9945
  21   2.0000      -6.574711      -178.9070
  22   2.0000      -6.572703      -178.8524
  23   2.0000      -6.572119      -178.8364
  24   2.0000      -1.453252       -39.5450
  25   2.0000      -1.412154       -38.4267
  26   2.0000      -1.357429       -36.9375
  27   2.0000      -1.339188       -36.4412
  28   2.0000      -1.236957       -33.6593
  29   2.0000      -1.152732       -31.3674
  30   2.0000      -1.119767       -30.4704
  31   2.0000      -1.043997       -28.4086
  32   2.0000      -1.036481       -28.2041
  33   2.0000      -1.010138       -27.4873
  34   2.0000      -0.997713       -27.1491
  35   2.0000      -0.983226       -26.7549
  36   2.0000      -0.921370       -25.0718
  37   2.0000      -0.886651       -24.1270
  38   2.0000      -0.847268       -23.0553
  39   2.0000      -0.835710       -22.7408
  40   2.0000      -0.828570       -22.5465
  41   2.0000      -0.820230       -22.3196
  42   2.0000      -0.760146       -20.6846
  43   2.0000      -0.735858       -20.0237
  44   2.0000      -0.725488       -19.7415
  45   2.0000      -0.690888       -18.8000
  46   2.0000      -0.684869       -18.6362
  47   2.0000      -0.680257       -18.5107
  48   2.0000      -0.673878       -18.3371
  49   2.0000      -0.654190       -17.8014
  50   2.0000      -0.649312       -17.6687
  51   2.0000      -0.642053       -17.4712
  52   2.0000      -0.631578       -17.1861
  53   2.0000      -0.615007       -16.7352
  54   2.0000      -0.601087       -16.3564
  55   2.0000      -0.600586       -16.3428
  56   2.0000      -0.595743       -16.2110
  57   2.0000      -0.579165       -15.7599
  58   2.0000      -0.573858       -15.6155
  59   2.0000      -0.562196       -15.2981
  60   2.0000      -0.561714       -15.2850
  61   2.0000      -0.545696       -14.8491
  62   2.0000      -0.536335       -14.5944
  63   2.0000      -0.528926       -14.3928
  64   2.0000      -0.517873       -14.0920
  65   2.0000      -0.509832       -13.8732
  66   2.0000      -0.499751       -13.5989
  67   2.0000      -0.495467       -13.4823
  68   2.0000      -0.481323       -13.0975
  69   2.0000      -0.463614       -12.6156
  70   2.0000      -0.461058       -12.5460
  71   2.0000      -0.452082       -12.3018
  72   2.0000      -0.353956        -9.6316
  73   2.0000      -0.344573        -9.3763
  74   2.0000      -0.327234        -8.9045
  75   2.0000      -0.315836        -8.5943
  76   2.0000      -0.314418        -8.5557
  77   0.0000       0.074597         2.0299
  78   0.0000       0.111046         3.0217
  79   0.0000       0.120244         3.2720
  80   0.0000       0.135273         3.6810
  81   0.0000       0.138396         3.7659

MULLIKEN ATOMIC CHARGES
-----------------------
   0 C :   -0.263512
   1 C :    0.026244
   2 O :   -0.358157
   3 C :    0.457702
   4 O :   -0.418589
   5 C :   -0.185550
   6 C :    0.142498
   7 C :   -0.285301
   8 N :   -0.123576
   9 C :    0.201846
  10 S :   -0.439718
  11 N :   -0.198190
  12 C :    0.040213
  13 C :    0.054216
  14 C :   -0.161870
  15 C :   -0.133688
  16 C :   -0.279391
  17 C :    0.310986
  18 O :   -0.359056
  19 C :   -0.272589
  20 H :    0.089794
  21 H :    0.091854
  22 H :    0.099358
  23 H :    0.097757
  24 H :    0.119514
  25 H :    0.125951
  26 H :    0.103407
  27 H :    0.126040
  28 H :    0.196962
  29 H :    0.193827
  30 H :    0.154106
  31 H :    0.153884
  32 H :    0.159358
  33 H :    0.128320
  34 H :    0.240180
  35 H :    0.165167
Sum of atomic charges:   -0.0000000

LOEWDIN ATOMIC CHARGES
----------------------
   0 C :    0.105359
   1 C :   -0.012031
   2 O :    0.301850
   3 C :   -0.413574
   4 O :    0.110786
   5 C :   -0.091912
   6 C :   -0.068494
   7 C :    0.125070
   8 N :    0.404569
   9 C :   -0.458519
  10 S :   -0.036318
  11 N :    0.397582
  12 C :   -0.046113
  13 C :   -0.039065
  14 C :    0.021820
  15 C :    0.040955
  16 C :   -0.002373
  17 C :   -0.192910
  18 O :    0.392973
  19 C :    0.028252
  20 H :   -0.030430
  21 H :   -0.025304
  22 H :   -0.024841
  23 H :   -0.031268
  24 H :   -0.026810
  25 H :   -0.008375
  26 H :   -0.020542
  27 H :   -0.010193
  28 H :   -0.059032
  29 H :   -0.063811
  30 H :   -0.004878
  31 H :   -0.025222
  32 H :   -0.021127
  33 H :   -0.036332
  34 H :   -0.154800
  35 H :   -0.024941

  Mayer bond orders larger than 0.100000
B(  0-C ,  1-C ) :   0.9748 B(  0-C , 20-H ) :   0.9797 B(  0-C , 21-H ) :   0.9765
B(  0-C , 22-H ) :   0.9778 B(  1-C ,  2-O ) :   0.8869 B(  1-C , 23-H ) :   0.9758
B(  1-C , 24-H ) :   0.9741 B(  2-O ,  3-C ) :   1.1249 B(  3-C ,  4-O ) :   2.0032
B(  3-C ,  5-C ) :   1.0443 B(  5-C ,  6-C ) :   1.6555 B(  5-C , 12-C ) :   0.9648
B(  6-C ,  7-C ) :   0.9532 B(  6-C ,  8-N ) :   1.1429 B(  7-C , 25-H ) :   0.9677
B(  7-C , 26-H ) :   0.9905 B(  7-C , 27-H ) :   0.9636 B(  8-N ,  9-C ) :   1.1808
B(  8-N , 28-H ) :   0.9492 B(  9-C , 10-S ) :   1.6104 B(  9-C , 11-N ) :   1.3030
B( 11-N , 12-C ) :   0.9910 B( 11-N , 29-H ) :   0.9519 B( 12-C , 13-C ) :   0.9476
B( 12-C , 30-H ) :   0.9991 B( 13-C , 14-C ) :   1.3767 B( 13-C , 19-C ) :   1.3687
B( 14-C , 15-C ) :   1.3946 B( 14-C , 31-H ) :   0.9646 B( 15-C , 16-C ) :   1.3629
B( 15-C , 32-H ) :   0.9713 B( 16-C , 17-C ) :   1.3314 B( 16-C , 33-H ) :   0.9859
B( 17-C , 18-O ) :   1.1082 B( 17-C , 19-C ) :   1.3785 B( 18-O , 34-H ) :   0.9805
B( 19-C , 35-H ) :   0.9584

MP2 TOTAL ENERGY:    -1274.339115298 Eh
FINAL SINGLE POINT ENERGY     -1274.339115297911

DIPOLE MOMENT
-------------
                                X             Y             Z
Electronic contribution:     11.43631       9.42738      11.02098
Nuclear contribution   :    -13.00983     -10.69342     -11.80485
                        -----------------------------------------
Total Dipole Moment    :     -1.57351      -1.26603      -0.78386
                        -----------------------------------------
Magnitude (a.u.)       :      2.16639
Magnitude (Debye)      :      5.50652

Rotational constants in cm-1:     0.010471     0.008959     0.005910
Rotational constants in MHz :   313.911485   268.582546   177.182869

                             ****ORCA TERMINATED NORMALLY****
TOTAL RUN TIME: 0 days 1 hours 34 minutes 36 seconds 676 msec
