                         Program Version 4.2.0 -  RELEASE  -
|  1> ! ri-mp2 cc-pvtz cc-pvtz/c TightSCF  NoKeepInts
|  2>
|  3> %scf
|  4>   MaxCore 4096
|  5> end
|  6> *xyz  0  1
|  7>     C       15.2474769   15.2676311   17.3419306
|  8>     C       15.6019495   15.2236075   15.8399968
|  9>     O       16.9781922   15.5496969   15.5169923
| 10>     C       17.9947868   15.6864443   16.4238697
| 11>     O       18.7927151   14.7793576   16.5765878
| 12>     C       17.9169256   16.8451783   17.3788134
| 13>     C       17.3241524   18.0323846   17.0900639
| 14>     C       16.6475534   18.4457494   15.7993343
| 15>     N       17.3866804   19.0824920   18.0111399
| 16>     C       18.1757791   19.0930224   19.1308469
| 17>     S       18.3028903   20.4311758   20.0939447
| 18>     N       18.8543495   17.9339682   19.4107798
| 19>     C       18.6540323   16.6506019   18.7104433
| 20>     C       17.9303892   15.6511326   19.6099039
| 21>     C       18.3890142   14.3243156   19.7064961
| 22>     C       17.7226576   13.3917638   20.5187020
| 23>     C       16.5858977   13.7875623   21.2433737
| 24>     C       16.1242987   15.1072350   21.1504773
| 25>     O       15.0205697   15.4903363   21.8401866
| 26>     C       16.7897414   16.0335072   20.3413660
| 27>     H       15.9097309   14.6125506   17.9213925
| 28>     H       14.2228732   14.9066781   17.4927865
| 29>     H       15.2940018   16.2838514   17.7472991
| 30>     H       15.4074352   14.2036577   15.4829641
| 31>     H       14.9283420   15.8876358   15.2838783
| 32>     H       15.5991891   18.1277729   15.7846538
| 33>     H       17.1515299   18.0120617   14.9266561
| 34>     H       16.6658984   19.5333579   15.6559025
| 35>     H       16.9029707   19.9451949   17.8181959
| 36>     H       19.4130478   17.9594420   20.2543286
| 37>     H       19.6496996   16.2415026   18.4841532
| 38>     H       19.2589577   14.0099960   19.1338459
| 39>     H       18.0857989   12.3671828   20.5783539
| 40>     H       16.0667369   13.0694758   21.8694361
| 41>     H       14.7390870   14.7359326   22.3794495
| 42>     H       16.4116490   17.0485442   20.2854552
| 43> *
| 44>
| 45>                          ****END OF INPUT****

CARTESIAN COORDINATES (ANGSTROEM)
---------------------------------
  C     15.247477   15.267631   17.341931
  C     15.601949   15.223607   15.839997
  O     16.978192   15.549697   15.516992
  C     17.994787   15.686444   16.423870
  O     18.792715   14.779358   16.576588
  C     17.916926   16.845178   17.378813
  C     17.324152   18.032385   17.090064
  C     16.647553   18.445749   15.799334
  N     17.386680   19.082492   18.011140
  C     18.175779   19.093022   19.130847
  S     18.302890   20.431176   20.093945
  N     18.854350   17.933968   19.410780
  C     18.654032   16.650602   18.710443
  C     17.930389   15.651133   19.609904
  C     18.389014   14.324316   19.706496
  C     17.722658   13.391764   20.518702
  C     16.585898   13.787562   21.243374
  C     16.124299   15.107235   21.150477
  O     15.020570   15.490336   21.840187
  C     16.789741   16.033507   20.341366
  H     15.909731   14.612551   17.921392
  H     14.222873   14.906678   17.492787
  H     15.294002   16.283851   17.747299
  H     15.407435   14.203658   15.482964
  H     14.928342   15.887636   15.283878
  H     15.599189   18.127773   15.784654
  H     17.151530   18.012062   14.926656
  H     16.665898   19.533358   15.655902
  H     16.902971   19.945195   17.818196
  H     19.413048   17.959442   20.254329
  H     19.649700   16.241503   18.484153
  H     19.258958   14.009996   19.133846
  H     18.085799   12.367183   20.578354
  H     16.066737   13.069476   21.869436
  H     14.739087   14.735933   22.379449
  H     16.411649   17.048544   20.285455

 Total Charge           Charge          ....    0
 Multiplicity           Mult            ....    1
 Number of Electrons    NEL             ....  154
 Basis Dimension        Dim             ....  828

ORBITAL ENERGIES
----------------

  NO   OCC          E(Eh)            E(eV)
   0   2.0000     -91.891162     -2500.4856
   1   2.0000     -20.596313      -560.4542
   2   2.0000     -20.585079      -560.1485
   3   2.0000     -20.550947      -559.2197
   4   2.0000     -15.631401      -425.3521
   5   2.0000     -15.609733      -424.7624
   6   2.0000     -11.396611      -310.1176
   7   2.0000     -11.386299      -309.8370
   8   2.0000     -11.338029      -308.5234
   9   2.0000     -11.312456      -307.8276
  10   2.0000     -11.310028      -307.7615
  11   2.0000     -11.309400      -307.7444
  12   2.0000     -11.264984      -306.5358
  13   2.0000     -11.263656      -306.4997
  14   2.0000     -11.258347      -306.3552
  15   2.0000     -11.252704      -306.2016
  16   2.0000     -11.242442      -305.9224
  17   2.0000     -11.237816      -305.7965
  18   2.0000     -11.234474      -305.7056
  19   2.0000     -11.233480      -305.6785
  20   2.0000      -8.896221      -242.0785
  21   2.0000      -6.577796      -178.9909
  22   2.0000      -6.575788      -178.9363
  23   2.0000      -6.575199      -178.9203
  24   2.0000      -1.443705       -39.2852
  25   2.0000      -1.416133       -38.5349
  26   2.0000      -1.354057       -36.8458
  27   2.0000      -1.342758       -36.5383
  28   2.0000      -1.240290       -33.7500
  29   2.0000      -1.156861       -31.4798
  30   2.0000      -1.122660       -30.5491
  31   2.0000      -1.045116       -28.4390
  32   2.0000      -1.037073       -28.2202
  33   2.0000      -1.014820       -27.6146
  34   2.0000      -1.003694       -27.3119
  35   2.0000      -0.988853       -26.9081
  36   2.0000      -0.926351       -25.2073
  37   2.0000      -0.898966       -24.4621
  38   2.0000      -0.852691       -23.2029
  39   2.0000      -0.840392       -22.8682
  40   2.0000      -0.832851       -22.6630
  41   2.0000      -0.822537       -22.3824
  42   2.0000      -0.745184       -20.2775
  43   2.0000      -0.731254       -19.8984
  44   2.0000      -0.728741       -19.8301
  45   2.0000      -0.694058       -18.8863
  46   2.0000      -0.687643       -18.7117
  47   2.0000      -0.677889       -18.4463
  48   2.0000      -0.674212       -18.3462
  49   2.0000      -0.662932       -18.0393
  50   2.0000      -0.652348       -17.7513
  51   2.0000      -0.651220       -17.7206
  52   2.0000      -0.641767       -17.4634
  53   2.0000      -0.622597       -16.9417
  54   2.0000      -0.605631       -16.4801
  55   2.0000      -0.604203       -16.4412
  56   2.0000      -0.600571       -16.3424
  57   2.0000      -0.584007       -15.8916
  58   2.0000      -0.575713       -15.6659
  59   2.0000      -0.564233       -15.3536
  60   2.0000      -0.558700       -15.2030
  61   2.0000      -0.549480       -14.9521
  62   2.0000      -0.544189       -14.8081
  63   2.0000      -0.534163       -14.5353
  64   2.0000      -0.521488       -14.1904
  65   2.0000      -0.513057       -13.9610
  66   2.0000      -0.500142       -13.6096
  67   2.0000      -0.489039       -13.3074
  68   2.0000      -0.484451       -13.1826
  69   2.0000      -0.470710       -12.8087
  70   2.0000      -0.456038       -12.4094
  71   2.0000      -0.447846       -12.1865
  72   2.0000      -0.357032        -9.7153
  73   2.0000      -0.347514        -9.4563
  74   2.0000      -0.330329        -8.9887
  75   2.0000      -0.321093        -8.7374
  76   2.0000      -0.318352        -8.6628
  77   0.0000       0.070911         1.9296
  78   0.0000       0.107828         2.9341
  79   0.0000       0.117166         3.1882
  80   0.0000       0.131830         3.5873
  81   0.0000       0.135061         3.6752

MULLIKEN ATOMIC CHARGES
-----------------------
   0 C :   -0.349711
   1 C :    0.038595
   2 O :   -0.373548
   3 C :    0.470892
   4 O :   -0.388249
   5 C :   -0.220138
   6 C :    0.146649
   7 C :   -0.316407
   8 N :   -0.126939
   9 C :    0.189749
  10 S :   -0.435456
  11 N :   -0.203189
  12 C :    0.052399
  13 C :    0.032037
  14 C :   -0.182176
  15 C :   -0.134949
  16 C :   -0.279498
  17 C :    0.314911
  18 O :   -0.359555
  19 C :   -0.270523
  20 H :    0.132124
  21 H :    0.124786
  22 H :    0.107984
  23 H :    0.122769
  24 H :    0.098619
  25 H :    0.116212
  26 H :    0.144933
  27 H :    0.118792
  28 H :    0.197823
  29 H :    0.195440
  30 H :    0.160695
  31 H :    0.167192
  32 H :    0.162436
  33 H :    0.131243
  34 H :    0.240892
  35 H :    0.173164
Sum of atomic charges:   -0.0000000

LOEWDIN ATOMIC CHARGES
----------------------
   0 C :    0.104667
   1 C :   -0.015116
   2 O :    0.280753
   3 C :   -0.420440
   4 O :    0.125867
   5 C :   -0.090958
   6 C :   -0.074774
   7 C :    0.128305
   8 N :    0.405032
   9 C :   -0.460315
  10 S :   -0.033752
  11 N :    0.397877
  12 C :   -0.045129
  13 C :   -0.042466
  14 C :    0.020211
  15 C :    0.041371
  16 C :   -0.002217
  17 C :   -0.194166
  18 O :    0.394310
  19 C :    0.029942
  20 H :   -0.018974
  21 H :   -0.020617
  22 H :   -0.034829
  23 H :   -0.022717
  24 H :   -0.032146
  25 H :   -0.016040
  26 H :   -0.005564
  27 H :   -0.016012
  28 H :   -0.058259
  29 H :   -0.063316
  30 H :   -0.002780
  31 H :   -0.023041
  32 H :   -0.019621
  33 H :   -0.035399
  34 H :   -0.153948
  35 H :   -0.025741

  Mayer bond orders larger than 0.100000
B(  0-C ,  1-C ) :   0.9636 B(  0-C , 20-H ) :   0.9654 B(  0-C , 21-H ) :   0.9752
B(  0-C , 22-H ) :   0.9696 B(  1-C ,  2-O ) :   0.8921 B(  1-C , 23-H ) :   0.9830
B(  1-C , 24-H ) :   0.9792 B(  2-O ,  3-C ) :   1.1201 B(  3-C ,  4-O ) :   2.0593
B(  3-C ,  5-C ) :   0.9812 B(  5-C ,  6-C ) :   1.6658 B(  5-C , 12-C ) :   0.9622
B(  6-C ,  7-C ) :   0.9491 B(  6-C ,  8-N ) :   1.1295 B(  7-C , 25-H ) :   0.9650
B(  7-C , 26-H ) :   0.9661 B(  7-C , 27-H ) :   0.9875 B(  8-N ,  9-C ) :   1.1804
B(  8-N , 28-H ) :   0.9494 B(  9-C , 10-S ) :   1.6159 B(  9-C , 11-N ) :   1.2980
B( 11-N , 12-C ) :   0.9871 B( 11-N , 29-H ) :   0.9518 B( 12-C , 13-C ) :   0.9467
B( 12-C , 30-H ) :   0.9984 B( 13-C , 14-C ) :   1.3882 B( 13-C , 19-C ) :   1.3481
B( 14-C , 15-C ) :   1.3961 B( 14-C , 31-H ) :   0.9595 B( 15-C , 16-C ) :   1.3616
B( 15-C , 32-H ) :   0.9708 B( 16-C , 17-C ) :   1.3299 B( 16-C , 33-H ) :   0.9849
B( 17-C , 18-O ) :   1.1103 B( 17-C , 19-C ) :   1.3751 B( 18-O , 34-H ) :   0.9800
B( 19-C , 35-H ) :   0.9581

MP2 TOTAL ENERGY:    -1274.327490378 Eh
FINAL SINGLE POINT ENERGY     -1274.327490377745

DIPOLE MOMENT
-------------
                                X             Y             Z
Electronic contribution:      9.58488       7.08786       6.26818
Nuclear contribution   :    -11.11565      -8.13812      -6.84888
                        -----------------------------------------
Total Dipole Moment    :     -1.53077      -1.05026      -0.58071
                        -----------------------------------------
Magnitude (a.u.)       :      1.94513
Magnitude (Debye)      :      4.94413

Rotational constants in cm-1:     0.011361     0.009912     0.006827
Rotational constants in MHz :   340.584875   297.167688   204.655928

                             ****ORCA TERMINATED NORMALLY****
TOTAL RUN TIME: 0 days 1 hours 50 minutes 18 seconds 677 msec
