                         Program Version 5.0.0 -  RELEASE  -
|  1> ! ri-mp2 cc-pvtz cc-pvtz/c TightSCF NoKeepInts
|  2>
|  3> %scf
|  4>   MaxCore 4096
|  5> end
|  6> *xyz  0  1
|  7>     C       14.9013505   16.2186628   17.3232897
|  8>     C       15.6007230   14.8990266   16.9375248
|  9>     O       16.8268963   15.0109597   16.1669190
| 10>     C       17.9778806   15.7131616   16.4425944
| 11>     O       19.0557301   15.2085768   16.1887439
| 12>     C       17.9043415   16.8763381   17.3659785
| 13>     C       17.4251483   18.0731651   16.9597079
| 14>     C       16.8978626   18.4149031   15.5828065
| 15>     N       17.4645657   19.1676255   17.8257672
| 16>     C       18.0266336   19.1516386   19.0762704
| 17>     S       18.0391976   20.4952829   20.0398725
| 18>     N       18.5766114   17.9635995   19.4936238
| 19>     C       18.5660051   16.6977926   18.7322957
| 20>     C       17.9213795   15.5592840   19.5196405
| 21>     C       18.4243439   14.2509524   19.3938632
| 22>     C       17.8300431   13.1835591   20.0869389
| 23>     C       16.7210453   13.4240268   20.9152643
| 24>     C       16.2155348   14.7243707   21.0440571
| 25>     O       15.1376771   14.9588028   21.8335344
| 26>     C       16.8085905   15.7852150   20.3521717
| 27>     H       15.4182408   16.7497871   18.1272407
| 28>     H       13.8944937   15.9976119   17.6983466
| 29>     H       14.7844451   16.8742440   16.4542642
| 30>     H       15.8099823   14.3363968   17.8571372
| 31>     H       14.8930783   14.2957479   16.3543040
| 32>     H       16.6701387   17.5214293   14.9888092
| 33>     H       17.6407706   18.9956891   15.0214354
| 34>     H       15.9778119   19.0091878   15.6425052
| 35>     H       17.0887702   20.0548471   17.5298000
| 36>     H       18.9709205   17.9800626   20.4258445
| 37>     H       19.6140978   16.4180994   18.5483217
| 38>     H       19.2742417   14.0584147   18.7416722
| 39>     H       18.2281686   12.1760561   19.9765022
| 40>     H       16.2580925   12.6017727   21.4511216
| 41>     H       14.9092661   14.1245065   22.2710395
| 42>     H       16.3929207   16.7812038   20.4647914
| 43> *
| 44>
| 45>                          ****END OF INPUT****

CARTESIAN COORDINATES (ANGSTROEM)
---------------------------------
  C     14.901350   16.218663   17.323290
  C     15.600723   14.899027   16.937525
  O     16.826896   15.010960   16.166919
  C     17.977881   15.713162   16.442594
  O     19.055730   15.208577   16.188744
  C     17.904342   16.876338   17.365978
  C     17.425148   18.073165   16.959708
  C     16.897863   18.414903   15.582806
  N     17.464566   19.167625   17.825767
  C     18.026634   19.151639   19.076270
  S     18.039198   20.495283   20.039873
  N     18.576611   17.963600   19.493624
  C     18.566005   16.697793   18.732296
  C     17.921380   15.559284   19.519640
  C     18.424344   14.250952   19.393863
  C     17.830043   13.183559   20.086939
  C     16.721045   13.424027   20.915264
  C     16.215535   14.724371   21.044057
  O     15.137677   14.958803   21.833534
  C     16.808591   15.785215   20.352172
  H     15.418241   16.749787   18.127241
  H     13.894494   15.997612   17.698347
  H     14.784445   16.874244   16.454264
  H     15.809982   14.336397   17.857137
  H     14.893078   14.295748   16.354304
  H     16.670139   17.521429   14.988809
  H     17.640771   18.995689   15.021435
  H     15.977812   19.009188   15.642505
  H     17.088770   20.054847   17.529800
  H     18.970920   17.980063   20.425845
  H     19.614098   16.418099   18.548322
  H     19.274242   14.058415   18.741672
  H     18.228169   12.176056   19.976502
  H     16.258093   12.601773   21.451122
  H     14.909266   14.124507   22.271039
  H     16.392921   16.781204   20.464791

 Total Charge           Charge          ....    0
 Multiplicity           Mult            ....    1
 Number of Electrons    NEL             ....  154
 Basis Dimension        Dim             ....  828

ORBITAL ENERGIES
----------------

  NO   OCC          E(Eh)            E(eV)
   0   2.0000     -91.890160     -2500.4584
   1   2.0000     -20.602677      -560.6273
   2   2.0000     -20.593282      -560.3717
   3   2.0000     -20.550928      -559.2192
   4   2.0000     -15.626083      -425.2073
   5   2.0000     -15.612622      -424.8411
   6   2.0000     -11.398293      -310.1633
   7   2.0000     -11.387223      -309.8621
   8   2.0000     -11.325505      -308.1827
   9   2.0000     -11.320164      -308.0373
  10   2.0000     -11.316936      -307.9495
  11   2.0000     -11.306703      -307.6710
  12   2.0000     -11.267749      -306.6110
  13   2.0000     -11.265447      -306.5484
  14   2.0000     -11.261004      -306.4275
  15   2.0000     -11.260281      -306.4078
  16   2.0000     -11.249430      -306.1125
  17   2.0000     -11.245372      -306.0021
  18   2.0000     -11.242244      -305.9170
  19   2.0000     -11.234021      -305.6933
  20   2.0000      -8.895275      -242.0527
  21   2.0000      -6.576864      -178.9656
  22   2.0000      -6.574837      -178.9104
  23   2.0000      -6.574262      -178.8948
  24   2.0000      -1.442111       -39.2418
  25   2.0000      -1.422502       -38.7082
  26   2.0000      -1.354504       -36.8579
  27   2.0000      -1.339521       -36.4502
  28   2.0000      -1.240093       -33.7446
  29   2.0000      -1.164226       -31.6802
  30   2.0000      -1.125906       -30.6375
  31   2.0000      -1.050505       -28.5857
  32   2.0000      -1.038215       -28.2513
  33   2.0000      -1.022089       -27.8124
  34   2.0000      -1.005303       -27.3557
  35   2.0000      -0.990793       -26.9608
  36   2.0000      -0.928896       -25.2766
  37   2.0000      -0.897374       -24.4188
  38   2.0000      -0.852734       -23.2041
  39   2.0000      -0.842711       -22.9313
  40   2.0000      -0.839468       -22.8431
  41   2.0000      -0.831298       -22.6208
  42   2.0000      -0.749811       -20.4034
  43   2.0000      -0.735823       -20.0228
  44   2.0000      -0.729093       -19.8396
  45   2.0000      -0.700391       -19.0586
  46   2.0000      -0.689153       -18.7528
  47   2.0000      -0.677895       -18.4465
  48   2.0000      -0.675629       -18.3848
  49   2.0000      -0.662372       -18.0241
  50   2.0000      -0.655977       -17.8500
  51   2.0000      -0.648276       -17.6405
  52   2.0000      -0.640042       -17.4164
  53   2.0000      -0.614898       -16.7322
  54   2.0000      -0.608558       -16.5597
  55   2.0000      -0.606786       -16.5115
  56   2.0000      -0.603182       -16.4134
  57   2.0000      -0.591551       -16.0969
  58   2.0000      -0.581944       -15.8355
  59   2.0000      -0.578587       -15.7442
  60   2.0000      -0.567660       -15.4468
  61   2.0000      -0.556897       -15.1539
  62   2.0000      -0.540220       -14.7001
  63   2.0000      -0.533119       -14.5069
  64   2.0000      -0.522219       -14.2103
  65   2.0000      -0.514598       -14.0029
  66   2.0000      -0.504315       -13.7231
  67   2.0000      -0.497862       -13.5475
  68   2.0000      -0.488843       -13.3021
  69   2.0000      -0.465253       -12.6602
  70   2.0000      -0.454755       -12.3745
  71   2.0000      -0.447894       -12.1878
  72   2.0000      -0.355980        -9.6867
  73   2.0000      -0.352867        -9.6020
  74   2.0000      -0.329975        -8.9791
  75   2.0000      -0.328028        -8.9261
  76   2.0000      -0.318626        -8.6703
  77   0.0000       0.089514         2.4358
  78   0.0000       0.102591         2.7916
  79   0.0000       0.118703         3.2301
  80   0.0000       0.124178         3.3790
  81   0.0000       0.127858         3.4792

MULLIKEN ATOMIC CHARGES
-----------------------
   0 C :   -0.343866
   1 C :    0.043483
   2 O :   -0.343549
   3 C :    0.395513
   4 O :   -0.376590
   5 C :   -0.181256
   6 C :    0.135741
   7 C :   -0.327905
   8 N :   -0.137626
   9 C :    0.211893
  10 S :   -0.441924
  11 N :   -0.230663
  12 C :    0.106322
  13 C :    0.000225
  14 C :   -0.208735
  15 C :   -0.131651
  16 C :   -0.278098
  17 C :    0.322076
  18 O :   -0.356306
  19 C :   -0.280936
  20 H :    0.115700
  21 H :    0.127104
  22 H :    0.103625
  23 H :    0.103023
  24 H :    0.125688
  25 H :    0.121258
  26 H :    0.150572
  27 H :    0.111610
  28 H :    0.196385
  29 H :    0.202950
  30 H :    0.165278
  31 H :    0.172571
  32 H :    0.165889
  33 H :    0.133858
  34 H :    0.242126
  35 H :    0.186217
Sum of atomic charges:    0.0000000

LOEWDIN ATOMIC CHARGES
----------------------
   0 C :    0.103181
   1 C :   -0.010742
   2 O :    0.286870
   3 C :   -0.416892
   4 O :    0.128007
   5 C :   -0.082839
   6 C :   -0.099847
   7 C :    0.124183
   8 N :    0.402804
   9 C :   -0.454768
  10 S :   -0.038211
  11 N :    0.397681
  12 C :   -0.044368
  13 C :   -0.043671
  14 C :    0.021224
  15 C :    0.044553
  16 C :   -0.001016
  17 C :   -0.194120
  18 O :    0.396194
  19 C :    0.026968
  20 H :   -0.035398
  21 H :   -0.020017
  22 H :   -0.030952
  23 H :   -0.027593
  24 H :   -0.019355
  25 H :   -0.010464
  26 H :   -0.007945
  27 H :   -0.017941
  28 H :   -0.057838
  29 H :   -0.064380
  30 H :   -0.003049
  31 H :   -0.021111
  32 H :   -0.017629
  33 H :   -0.034022
  34 H :   -0.152442
  35 H :   -0.025056

  Mayer bond orders larger than 0.100000
B(  0-C ,  1-C ) :   0.9577 B(  0-C , 20-H ) :   0.9685 B(  0-C , 21-H ) :   0.9777
B(  0-C , 22-H ) :   0.9768 B(  1-C ,  2-O ) :   0.9033 B(  1-C , 23-H ) :   0.9710
B(  1-C , 24-H ) :   0.9826 B(  2-O ,  3-C ) :   1.1711 B(  3-C ,  4-O ) :   2.1028
B(  3-C ,  5-C ) :   0.9223 B(  5-C ,  6-C ) :   1.6963 B(  5-C , 12-C ) :   0.9465
B(  6-C ,  7-C ) :   0.9499 B(  6-C ,  8-N ) :   1.1147 B(  7-C , 25-H ) :   0.9786
B(  7-C , 26-H ) :   0.9649 B(  7-C , 27-H ) :   0.9720 B(  8-N ,  9-C ) :   1.2004
B(  8-N , 28-H ) :   0.9519 B(  9-C , 10-S ) :   1.6079 B(  9-C , 11-N ) :   1.2836
B( 11-N , 12-C ) :   0.9950 B( 11-N , 29-H ) :   0.9465 B( 12-C , 13-C ) :   0.9419
B( 12-C , 30-H ) :   0.9976 B( 13-C , 14-C ) :   1.3889 B( 13-C , 19-C ) :   1.3386
B( 14-C , 15-C ) :   1.4025 B( 14-C , 31-H ) :   0.9608 B( 15-C , 16-C ) :   1.3570
B( 15-C , 32-H ) :   0.9695 B( 16-C , 17-C ) :   1.3313 B( 16-C , 33-H ) :   0.9843
B( 17-C , 18-O ) :   1.1117 B( 17-C , 19-C ) :   1.3639 B( 18-O , 34-H ) :   0.9787
B( 19-C , 35-H ) :   0.9506

MP2 TOTAL ENERGY:    -1274.324569588 Eh
FINAL SINGLE POINT ENERGY     -1274.324569587660

DIPOLE MOMENT
-------------
                                X             Y             Z
Electronic contribution:      9.23601       5.25339       5.88171
Nuclear contribution   :    -10.68200      -6.54565      -6.14677
                        -----------------------------------------
Total Dipole Moment    :     -1.44599      -1.29226      -0.26506
                        -----------------------------------------
Magnitude (a.u.)       :      1.95731
Magnitude (Debye)      :      4.97510

Rotational constants in cm-1:     0.012627     0.009232     0.006909
Rotational constants in MHz :   378.549425   276.762236   207.125731

                             ****ORCA TERMINATED NORMALLY****
TOTAL RUN TIME: 0 days 2 hours 18 minutes 9 seconds 618 msec
