                         Program Version 4.2.0 -  RELEASE  -
|  1> ! ri-mp2 cc-pvtz cc-pvtz/c TightSCF  NoKeepInts
|  2>
|  3> %scf
|  4>   MaxCore 4096
|  5> end
|  6> *xyz  0  1
|  7>     C       15.3199709   14.7455709   17.3549999
|  8>     C       16.2964797   14.2990827   16.2522461
|  9>     O       17.6252000   14.8341913   16.4485326
| 10>     C       17.8552642   16.1335854   16.0987224
| 11>     O       17.5842651   16.4966765   14.9675824
| 12>     C       17.8147981   17.0688143   17.2751040
| 13>     C       17.3242002   18.3321125   17.1946570
| 14>     C       16.5928716   18.9636319   16.0297399
| 15>     N       17.5282192   19.2259595   18.2506494
| 16>     C       18.4151030   19.0195525   19.2749521
| 17>     S       18.7726452   20.1999265   20.3766910
| 18>     N       18.9961976   17.7772184   19.3352213
| 19>     C       18.5547019   16.6123818   18.5441768
| 20>     C       17.7535842   15.6708114   19.4386888
| 21>     C       18.1528135   14.3292893   19.5920790
| 22>     C       17.4495585   13.4659043   20.4491552
| 23>     C       16.3402215   13.9478561   21.1647077
| 24>     C       15.9420956   15.2838375   21.0196523
| 25>     O       14.8693757   15.7513433   21.7060057
| 26>     C       16.6428233   16.1404845   20.1647588
| 27>     H       15.5847531   14.2858029   18.3119194
| 28>     H       14.3012986   14.4235131   17.1078974
| 29>     H       15.3074641   15.8354790   17.4698880
| 30>     H       16.3494818   13.2028744   16.2596352
| 31>     H       15.9090798   14.6000105   15.2690807
| 32>     H       15.8027215   18.2976907   15.6608455
| 33>     H       17.2833113   19.1447295   15.1958795
| 34>     H       16.1210636   19.9184237   16.2895803
| 35>     H       17.1224437   20.1472499   18.2081744
| 36>     H       19.6256768   17.6431173   20.1162228
| 37>     H       19.4582269   16.0771585   18.2198936
| 38>     H       19.0104802   13.9524135   19.0409790
| 39>     H       17.7661313   12.4299298   20.5578258
| 40>     H       15.7946485   13.2850084   21.8283352
| 41>     H       14.5575783   15.0376120   22.2825178
| 42>     H       16.3222516   17.1727562   20.0770031
| 43> *
| 44>
| 45>                          ****END OF INPUT****

CARTESIAN COORDINATES (ANGSTROEM)
---------------------------------
  C     15.319971   14.745571   17.355000
  C     16.296480   14.299083   16.252246
  O     17.625200   14.834191   16.448533
  C     17.855264   16.133585   16.098722
  O     17.584265   16.496676   14.967582
  C     17.814798   17.068814   17.275104
  C     17.324200   18.332112   17.194657
  C     16.592872   18.963632   16.029740
  N     17.528219   19.225959   18.250649
  C     18.415103   19.019552   19.274952
  S     18.772645   20.199926   20.376691
  N     18.996198   17.777218   19.335221
  C     18.554702   16.612382   18.544177
  C     17.753584   15.670811   19.438689
  C     18.152814   14.329289   19.592079
  C     17.449558   13.465904   20.449155
  C     16.340221   13.947856   21.164708
  C     15.942096   15.283837   21.019652
  O     14.869376   15.751343   21.706006
  C     16.642823   16.140484   20.164759
  H     15.584753   14.285803   18.311919
  H     14.301299   14.423513   17.107897
  H     15.307464   15.835479   17.469888
  H     16.349482   13.202874   16.259635
  H     15.909080   14.600010   15.269081
  H     15.802721   18.297691   15.660845
  H     17.283311   19.144730   15.195879
  H     16.121064   19.918424   16.289580
  H     17.122444   20.147250   18.208174
  H     19.625677   17.643117   20.116223
  H     19.458227   16.077158   18.219894
  H     19.010480   13.952413   19.040979
  H     17.766131   12.429930   20.557826
  H     15.794648   13.285008   21.828335
  H     14.557578   15.037612   22.282518
  H     16.322252   17.172756   20.077003

 Total Charge           Charge          ....    0
 Multiplicity           Mult            ....    1
 Number of Electrons    NEL             ....  154
 Basis Dimension        Dim             ....  828

ORBITAL ENERGIES
----------------

  NO   OCC          E(Eh)            E(eV)
   0   2.0000     -91.890755     -2500.4746
   1   2.0000     -20.598065      -560.5018
   2   2.0000     -20.582166      -560.0692
   3   2.0000     -20.554215      -559.3086
   4   2.0000     -15.630262      -425.3211
   5   2.0000     -15.609373      -424.7526
   6   2.0000     -11.394882      -310.0705
   7   2.0000     -11.385219      -309.8076
   8   2.0000     -11.335522      -308.4552
   9   2.0000     -11.315231      -307.9031
  10   2.0000     -11.312882      -307.8392
  11   2.0000     -11.297816      -307.4292
  12   2.0000     -11.261054      -306.4289
  13   2.0000     -11.261003      -306.4275
  14   2.0000     -11.256827      -306.3138
  15   2.0000     -11.254501      -306.2506
  16   2.0000     -11.245299      -306.0002
  17   2.0000     -11.239626      -305.8458
  18   2.0000     -11.239507      -305.8425
  19   2.0000     -11.221796      -305.3606
  20   2.0000      -8.895769      -242.0662
  21   2.0000      -6.577334      -178.9784
  22   2.0000      -6.575341      -178.9241
  23   2.0000      -6.574744      -178.9079
  24   2.0000      -1.450318       -39.4652
  25   2.0000      -1.417835       -38.5813
  26   2.0000      -1.352462       -36.8024
  27   2.0000      -1.341616       -36.5072
  28   2.0000      -1.239897       -33.7393
  29   2.0000      -1.158604       -31.5272
  30   2.0000      -1.121031       -30.5048
  31   2.0000      -1.044029       -28.4095
  32   2.0000      -1.032249       -28.0889
  33   2.0000      -1.016766       -27.6676
  34   2.0000      -0.999506       -27.1980
  35   2.0000      -0.986324       -26.8392
  36   2.0000      -0.924671       -25.1616
  37   2.0000      -0.891389       -24.2559
  38   2.0000      -0.847871       -23.0717
  39   2.0000      -0.841279       -22.8924
  40   2.0000      -0.835718       -22.7410
  41   2.0000      -0.817717       -22.2512
  42   2.0000      -0.754239       -20.5239
  43   2.0000      -0.733657       -19.9638
  44   2.0000      -0.724141       -19.7049
  45   2.0000      -0.697639       -18.9837
  46   2.0000      -0.690672       -18.7941
  47   2.0000      -0.678876       -18.4731
  48   2.0000      -0.669129       -18.2079
  49   2.0000      -0.667164       -18.1545
  50   2.0000      -0.649998       -17.6873
  51   2.0000      -0.646575       -17.5942
  52   2.0000      -0.637092       -17.3362
  53   2.0000      -0.608607       -16.5610
  54   2.0000      -0.605306       -16.4712
  55   2.0000      -0.600554       -16.3419
  56   2.0000      -0.596868       -16.2416
  57   2.0000      -0.579131       -15.7589
  58   2.0000      -0.573356       -15.6018
  59   2.0000      -0.564857       -15.3705
  60   2.0000      -0.562812       -15.3149
  61   2.0000      -0.549983       -14.9658
  62   2.0000      -0.540316       -14.7027
  63   2.0000      -0.526117       -14.3164
  64   2.0000      -0.519088       -14.1251
  65   2.0000      -0.514931       -14.0120
  66   2.0000      -0.503825       -13.7098
  67   2.0000      -0.502783       -13.6814
  68   2.0000      -0.474694       -12.9171
  69   2.0000      -0.464499       -12.6397
  70   2.0000      -0.452959       -12.3256
  71   2.0000      -0.446242       -12.1429
  72   2.0000      -0.357525        -9.7287
  73   2.0000      -0.349434        -9.5086
  74   2.0000      -0.329818        -8.9748
  75   2.0000      -0.323970        -8.8157
  76   2.0000      -0.317483        -8.6392
  77   0.0000       0.067230         1.8294
  78   0.0000       0.104998         2.8571
  79   0.0000       0.118180         3.2158
  80   0.0000       0.129801         3.5321
  81   0.0000       0.131880         3.5886

MULLIKEN ATOMIC CHARGES
-----------------------
   0 C :   -0.319900
   1 C :    0.040619
   2 O :   -0.382290
   3 C :    0.475879
   4 O :   -0.399218
   5 C :   -0.237292
   6 C :    0.162478
   7 C :   -0.275338
   8 N :   -0.122961
   9 C :    0.192981
  10 S :   -0.432726
  11 N :   -0.190208
  12 C :    0.025656
  13 C :    0.066928
  14 C :   -0.184971
  15 C :   -0.131544
  16 C :   -0.278962
  17 C :    0.305242
  18 O :   -0.358308
  19 C :   -0.255112
  20 H :    0.112229
  21 H :    0.118497
  22 H :    0.097604
  23 H :    0.110003
  24 H :    0.112439
  25 H :    0.122873
  26 H :    0.140084
  27 H :    0.094652
  28 H :    0.198255
  29 H :    0.190384
  30 H :    0.148264
  31 H :    0.150684
  32 H :    0.161582
  33 H :    0.131875
  34 H :    0.240879
  35 H :    0.168742
Sum of atomic charges:   -0.0000000

LOEWDIN ATOMIC CHARGES
----------------------
   0 C :    0.105203
   1 C :   -0.013943
   2 O :    0.279820
   3 C :   -0.417136
   4 O :    0.129488
   5 C :   -0.095633
   6 C :   -0.065437
   7 C :    0.129028
   8 N :    0.406448
   9 C :   -0.459024
  10 S :   -0.031683
  11 N :    0.396707
  12 C :   -0.052341
  13 C :   -0.038761
  14 C :    0.015696
  15 C :    0.038743
  16 C :   -0.002836
  17 C :   -0.192121
  18 O :    0.396497
  19 C :    0.034554
  20 H :   -0.025669
  21 H :   -0.025375
  22 H :   -0.033260
  23 H :   -0.022310
  24 H :   -0.029524
  25 H :   -0.008416
  26 H :   -0.003479
  27 H :   -0.022694
  28 H :   -0.058009
  29 H :   -0.065099
  30 H :   -0.006618
  31 H :   -0.028861
  32 H :   -0.020593
  33 H :   -0.035147
  34 H :   -0.153580
  35 H :   -0.024632

  Mayer bond orders larger than 0.100000
B(  0-C ,  1-C ) :   0.9611 B(  0-C , 20-H ) :   0.9737 B(  0-C , 21-H ) :   0.9777
B(  0-C , 22-H ) :   0.9709 B(  1-C ,  2-O ) :   0.8818 B(  1-C , 23-H ) :   0.9852
B(  1-C , 24-H ) :   0.9808 B(  2-O ,  3-C ) :   1.1061 B(  3-C ,  4-O ) :   2.0168
B(  3-C ,  5-C ) :   1.0379 B(  5-C ,  6-C ) :   1.6641 B(  5-C , 12-C ) :   0.9696
B(  6-C ,  7-C ) :   0.9676 B(  6-C ,  8-N ) :   1.1341 B(  7-C , 25-H ) :   0.9678
B(  7-C , 26-H ) :   0.9573 B(  7-C , 27-H ) :   0.9869 B(  8-N ,  9-C ) :   1.1798
B(  8-N , 28-H ) :   0.9490 B(  9-C , 10-S ) :   1.6211 B(  9-C , 11-N ) :   1.2951
B( 11-N , 12-C ) :   0.9920 B( 11-N , 29-H ) :   0.9539 B( 12-C , 13-C ) :   0.9387
B( 12-C , 30-H ) :   1.0082 B( 13-C , 14-C ) :   1.3657 B( 13-C , 19-C ) :   1.3615
B( 14-C , 15-C ) :   1.3897 B( 14-C , 31-H ) :   0.9692 B( 15-C , 16-C ) :   1.3600
B( 15-C , 32-H ) :   0.9713 B( 16-C , 17-C ) :   1.3314 B( 16-C , 33-H ) :   0.9849
B( 17-C , 18-O ) :   1.1133 B( 17-C , 19-C ) :   1.3773 B( 18-O , 34-H ) :   0.9797
B( 19-C , 35-H ) :   0.9574

MP2 TOTAL ENERGY:    -1274.320894683 Eh
FINAL SINGLE POINT ENERGY     -1274.320894683373

DIPOLE MOMENT
-------------
                                X             Y             Z
Electronic contribution:      9.52536       8.71371       5.70839
Nuclear contribution   :    -10.58856     -10.37477      -5.81142
                        -----------------------------------------
Total Dipole Moment    :     -1.06320      -1.66105      -0.10303
                        -----------------------------------------
Magnitude (a.u.)       :      1.97487
Magnitude (Debye)      :      5.01972

Rotational constants in cm-1:     0.011697     0.010000     0.006592
Rotational constants in MHz :   350.653566   299.802052   197.615688

                             ****ORCA TERMINATED NORMALLY****
TOTAL RUN TIME: 0 days 1 hours 51 minutes 17 seconds 499 msec
