                         Program Version 5.0.0 -  RELEASE  -
|  1> ! ri-mp2 cc-pvtz cc-pvtz/c TightSCF NoKeepInts
|  2>
|  3> %scf
|  4>   MaxCore 4096
|  5> end
|  6> *xyz  0  1
|  7>     C       15.7337277   13.6413795   15.2036641
|  8>     C       15.5660705   14.3687811   16.5483093
|  9>     O       16.6652931   15.2865738   16.6857533
| 10>     C       16.4282937   16.6325311   16.6930063
| 11>     O       15.4540179   17.1235422   16.1485040
| 12>     C       17.3731038   17.3825097   17.5912203
| 13>     C       17.3324744   18.7326150   17.7243670
| 14>     C       16.3856317   19.6931103   17.0370542
| 15>     N       18.2596689   19.3847829   18.5426956
| 16>     C       19.3147650   18.7779036   19.1700113
| 17>     S       20.4247072   19.6375343   20.0446121
| 18>     N       19.4073302   17.4163561   19.0333215
| 19>     C       18.4011934   16.5571260   18.3828650
| 20>     C       17.7344107   15.6649584   19.4264222
| 21>     C       17.9527152   14.2743330   19.4198648
| 22>     C       17.3355639   13.4490676   20.3749345
| 23>     C       16.4957750   14.0188984   21.3470373
| 24>     C       16.2803382   15.4038647   21.3597888
| 25>     O       15.4710987   15.9571247   22.2978437
| 26>     C       16.8951042   16.2224126   20.4073523
| 27>     H       15.6863891   14.3563444   14.3724707
| 28>     H       14.9365155   12.9012400   15.0644551
| 29>     H       16.6988049   13.1216572   15.1606426
| 30>     H       14.5933281   14.8780132   16.5881659
| 31>     H       15.5985717   13.6365501   17.3655422
| 32>     H       15.3487639   19.4887951   17.3334911
| 33>     H       16.4423674   19.5785531   15.9470943
| 34>     H       16.5963045   20.7435526   17.2694237
| 35>     H       18.2081881   20.3848805   18.6533205
| 36>     H       20.1748987   16.9930275   19.5387740
| 37>     H       18.9340465   15.9154719   17.6669934
| 38>     H       18.5976767   13.8308614   18.6658943
| 39>     H       17.5096602   12.3745234   20.3607499
| 40>     H       16.0177449   13.3860709   22.0875639
| 41>     H       15.1717749   15.2445130   22.8821501
| 42>     H       16.7206815   17.2925408   20.4386406
| 43> *
| 44>
| 45>                          ****END OF INPUT****

CARTESIAN COORDINATES (ANGSTROEM)
---------------------------------
  C     15.733728   13.641379   15.203664
  C     15.566070   14.368781   16.548309
  O     16.665293   15.286574   16.685753
  C     16.428294   16.632531   16.693006
  O     15.454018   17.123542   16.148504
  C     17.373104   17.382510   17.591220
  C     17.332474   18.732615   17.724367
  C     16.385632   19.693110   17.037054
  N     18.259669   19.384783   18.542696
  C     19.314765   18.777904   19.170011
  S     20.424707   19.637534   20.044612
  N     19.407330   17.416356   19.033321
  C     18.401193   16.557126   18.382865
  C     17.734411   15.664958   19.426422
  C     17.952715   14.274333   19.419865
  C     17.335564   13.449068   20.374934
  C     16.495775   14.018898   21.347037
  C     16.280338   15.403865   21.359789
  O     15.471099   15.957125   22.297844
  C     16.895104   16.222413   20.407352
  H     15.686389   14.356344   14.372471
  H     14.936515   12.901240   15.064455
  H     16.698805   13.121657   15.160643
  H     14.593328   14.878013   16.588166
  H     15.598572   13.636550   17.365542
  H     15.348764   19.488795   17.333491
  H     16.442367   19.578553   15.947094
  H     16.596304   20.743553   17.269424
  H     18.208188   20.384881   18.653320
  H     20.174899   16.993028   19.538774
  H     18.934046   15.915472   17.666993
  H     18.597677   13.830861   18.665894
  H     17.509660   12.374523   20.360750
  H     16.017745   13.386071   22.087564
  H     15.171775   15.244513   22.882150
  H     16.720682   17.292541   20.438641

 Total Charge           Charge          ....    0
 Multiplicity           Mult            ....    1
 Number of Electrons    NEL             ....  154
 Basis Dimension        Dim             ....  828

ORBITAL ENERGIES
----------------

  NO   OCC          E(Eh)            E(eV)
   0   2.0000     -91.889130     -2500.4303
   1   2.0000     -20.597828      -560.4954
   2   2.0000     -20.597070      -560.4748
   3   2.0000     -20.542822      -558.9986
   4   2.0000     -15.629341      -425.2960
   5   2.0000     -15.608508      -424.7291
   6   2.0000     -11.395085      -310.0760
   7   2.0000     -11.384251      -309.7812
   8   2.0000     -11.336092      -308.4707
   9   2.0000     -11.314394      -307.8803
  10   2.0000     -11.309391      -307.7442
  11   2.0000     -11.294850      -307.3485
  12   2.0000     -11.260263      -306.4073
  13   2.0000     -11.258864      -306.3693
  14   2.0000     -11.255941      -306.2897
  15   2.0000     -11.252295      -306.1905
  16   2.0000     -11.243633      -305.9548
  17   2.0000     -11.238967      -305.8279
  18   2.0000     -11.238756      -305.8221
  19   2.0000     -11.225357      -305.4575
  20   2.0000      -8.894189      -242.0232
  21   2.0000      -6.575762      -178.9356
  22   2.0000      -6.573759      -178.8811
  23   2.0000      -6.573171      -178.8651
  24   2.0000      -1.450846       -39.4795
  25   2.0000      -1.416718       -38.5508
  26   2.0000      -1.354602       -36.8606
  27   2.0000      -1.340285       -36.4710
  28   2.0000      -1.238777       -33.7088
  29   2.0000      -1.158130       -31.5143
  30   2.0000      -1.120598       -30.4930
  31   2.0000      -1.043225       -28.3876
  32   2.0000      -1.037397       -28.2290
  33   2.0000      -1.015707       -27.6388
  34   2.0000      -0.995687       -27.0940
  35   2.0000      -0.984312       -26.7845
  36   2.0000      -0.922873       -25.1126
  37   2.0000      -0.888550       -24.1787
  38   2.0000      -0.847262       -23.0552
  39   2.0000      -0.838236       -22.8096
  40   2.0000      -0.834602       -22.7107
  41   2.0000      -0.819710       -22.3054
  42   2.0000      -0.761908       -20.7326
  43   2.0000      -0.732905       -19.9434
  44   2.0000      -0.723462       -19.6864
  45   2.0000      -0.696093       -18.9417
  46   2.0000      -0.688319       -18.7301
  47   2.0000      -0.679860       -18.4999
  48   2.0000      -0.672046       -18.2873
  49   2.0000      -0.653980       -17.7957
  50   2.0000      -0.646675       -17.5969
  51   2.0000      -0.643554       -17.5120
  52   2.0000      -0.628325       -17.0976
  53   2.0000      -0.616151       -16.7663
  54   2.0000      -0.607404       -16.5283
  55   2.0000      -0.600008       -16.3270
  56   2.0000      -0.598995       -16.2995
  57   2.0000      -0.578934       -15.7536
  58   2.0000      -0.571479       -15.5507
  59   2.0000      -0.568145       -15.4600
  60   2.0000      -0.564078       -15.3494
  61   2.0000      -0.539736       -14.6870
  62   2.0000      -0.533819       -14.5260
  63   2.0000      -0.526967       -14.3395
  64   2.0000      -0.525431       -14.2977
  65   2.0000      -0.513833       -13.9821
  66   2.0000      -0.501715       -13.6524
  67   2.0000      -0.496670       -13.5151
  68   2.0000      -0.487151       -13.2560
  69   2.0000      -0.464371       -12.6362
  70   2.0000      -0.453967       -12.3531
  71   2.0000      -0.448915       -12.2156
  72   2.0000      -0.354438        -9.6448
  73   2.0000      -0.349926        -9.5220
  74   2.0000      -0.328516        -8.9394
  75   2.0000      -0.322074        -8.7641
  76   2.0000      -0.316344        -8.6082
  77   0.0000       0.075080         2.0430
  78   0.0000       0.105588         2.8732
  79   0.0000       0.124681         3.3927
  80   0.0000       0.132037         3.5929
  81   0.0000       0.136463         3.7134

MULLIKEN ATOMIC CHARGES
-----------------------
   0 C :   -0.267497
   1 C :    0.030187
   2 O :   -0.362028
   3 C :    0.462882
   4 O :   -0.429507
   5 C :   -0.228277
   6 C :    0.154896
   7 C :   -0.272336
   8 N :   -0.121891
   9 C :    0.211191
  10 S :   -0.439512
  11 N :   -0.204812
  12 C :    0.059458
  13 C :    0.068693
  14 C :   -0.198260
  15 C :   -0.128692
  16 C :   -0.280512
  17 C :    0.316320
  18 O :   -0.356237
  19 C :   -0.268336
  20 H :    0.103264
  21 H :    0.089918
  22 H :    0.090522
  23 H :    0.108440
  24 H :    0.110201
  25 H :    0.132408
  26 H :    0.130411
  27 H :    0.095205
  28 H :    0.197595
  29 H :    0.194787
  30 H :    0.150480
  31 H :    0.152316
  32 H :    0.162253
  33 H :    0.130535
  34 H :    0.240758
  35 H :    0.165177
Sum of atomic charges:    0.0000000

LOEWDIN ATOMIC CHARGES
----------------------
   0 C :    0.104699
   1 C :   -0.014158
   2 O :    0.308269
   3 C :   -0.415351
   4 O :    0.097769
   5 C :   -0.095493
   6 C :   -0.058838
   7 C :    0.131636
   8 N :    0.406622
   9 C :   -0.456392
  10 S :   -0.035129
  11 N :    0.396399
  12 C :   -0.052385
  13 C :   -0.038313
  14 C :    0.014480
  15 C :    0.038228
  16 C :   -0.002251
  17 C :   -0.189330
  18 O :    0.395407
  19 C :    0.031446
  20 H :   -0.024290
  21 H :   -0.027376
  22 H :   -0.029522
  23 H :   -0.028027
  24 H :   -0.029359
  25 H :   -0.004514
  26 H :   -0.003984
  27 H :   -0.023328
  28 H :   -0.057518
  29 H :   -0.064592
  30 H :   -0.010558
  31 H :   -0.029974
  32 H :   -0.021360
  33 H :   -0.035532
  34 H :   -0.153795
  35 H :   -0.023585

  Mayer bond orders larger than 0.100000
B(  0-C ,  1-C ) :   0.9762 B(  0-C , 20-H ) :   0.9785 B(  0-C , 21-H ) :   0.9760
B(  0-C , 22-H ) :   0.9789 B(  1-C ,  2-O ) :   0.8777 B(  1-C , 23-H ) :   0.9734
B(  1-C , 24-H ) :   0.9754 B(  2-O ,  3-C ) :   1.1536 B(  3-C ,  4-O ) :   1.9761
B(  3-C ,  5-C ) :   1.0629 B(  5-C ,  6-C ) :   1.6536 B(  5-C , 12-C ) :   0.9717
B(  6-C ,  7-C ) :   0.9669 B(  6-C ,  8-N ) :   1.1627 B(  7-C , 25-H ) :   0.9596
B(  7-C , 26-H ) :   0.9609 B(  7-C , 27-H ) :   0.9905 B(  8-N ,  9-C ) :   1.1830
B(  8-N , 28-H ) :   0.9478 B(  9-C , 10-S ) :   1.6077 B(  9-C , 11-N ) :   1.3051
B( 11-N , 12-C ) :   0.9863 B( 11-N , 29-H ) :   0.9517 B( 12-C , 13-C ) :   0.9362
B( 12-C , 30-H ) :   1.0024 B( 13-C , 14-C ) :   1.3502 B( 13-C , 19-C ) :   1.3831
B( 14-C , 15-C ) :   1.3882 B( 14-C , 31-H ) :   0.9720 B( 15-C , 16-C ) :   1.3629
B( 15-C , 32-H ) :   0.9702 B( 16-C , 17-C ) :   1.3311 B( 16-C , 33-H ) :   0.9849
B( 17-C , 18-O ) :   1.1106 B( 17-C , 19-C ) :   1.3716 B( 18-O , 34-H ) :   0.9798
B( 19-C , 35-H ) :   0.9582

MP2 TOTAL ENERGY:    -1274.346473780 Eh
FINAL SINGLE POINT ENERGY     -1274.346473779653

DIPOLE MOMENT
-------------
                                X             Y             Z
Electronic contribution:      9.48621      10.38255       9.33511
Nuclear contribution   :    -10.59497     -11.99971      -9.60172
                        -----------------------------------------
Total Dipole Moment    :     -1.10876      -1.61716      -0.26661
                        -----------------------------------------
Magnitude (a.u.)       :      1.97880
Magnitude (Debye)      :      5.02970

Rotational constants in cm-1:     0.011527     0.008582     0.006097
Rotational constants in MHz :   345.560119   257.278494   182.792641

                             ****ORCA TERMINATED NORMALLY****
TOTAL RUN TIME: 0 days 2 hours 16 minutes 42 seconds 243 msec
