                         Program Version 5.0.0 -  RELEASE  -
|  1> ! ri-mp2 cc-pvtz cc-pvtz/c TightSCF NoKeepInts
|  2>
|  3> %scf
|  4>   MaxCore 4096
|  5> end
|  6> *xyz  0  1
|  7>     C       14.9723469   14.0047866   16.3266390
|  8>     C       16.4707655   14.0001141   15.9497806
|  9>     O       17.1884872   15.0511480   16.6303129
| 10>     C       16.8068342   16.3652684   16.5701085
| 11>     O       16.0162953   16.7829346   15.7414000
| 12>     C       17.6098868   17.2355588   17.4972196
| 13>     C       17.5366656   18.5907655   17.4747347
| 14>     C       16.6891726   19.4487851   16.5597935
| 15>     N       18.3215674   19.3502420   18.3475344
| 16>     C       19.2542242   18.8401196   19.2104547
| 17>     S       20.1954453   19.8159792   20.1579591
| 18>     N       19.3688061   17.4741333   19.2509127
| 19>     C       18.5049101   16.5248126   18.5254461
| 20>     C       17.6817264   15.7085912   19.5179379
| 21>     C       17.8893326   14.3226122   19.6489485
| 22>     C       17.1261536   13.5678729   20.5556399
| 23>     C       16.1490603   14.2041876   21.3400689
| 24>     C       15.9425446   15.5848810   21.2151217
| 25>     O       15.0000680   16.2021632   21.9712053
| 26>     C       16.7033270   16.3332442   20.3116608
| 27>     H       14.8472047   14.0640155   17.4152753
| 28>     H       14.4925924   13.0819165   15.9794394
| 29>     H       14.4377120   14.8445092   15.8671686
| 30>     H       16.9104665   13.0327013   16.2239085
| 31>     H       16.5712995   14.1218727   14.8630007
| 32>     H       16.9374940   19.2537660   15.5087411
| 33>     H       16.8186293   20.5229157   16.7364803
| 34>     H       15.6245062   19.2174464   16.6924104
| 35>     H       18.2511809   20.3551352   18.3322049
| 36>     H       20.0366315   17.1263392   19.9268425
| 37>     H       19.1666479   15.8408422   17.9757389
| 38>     H       18.6396714   13.8272775   19.0386552
| 39>     H       17.2923449   12.4960273   20.6478131
| 40>     H       15.5571508   13.6256980   22.0416729
| 41>     H       14.6037375   15.5317499   22.5476124
| 42>     H       16.5321109   17.4015872   20.2341575
| 43> *
| 44>
| 45>                          ****END OF INPUT****

CARTESIAN COORDINATES (ANGSTROEM)
---------------------------------
  C     14.972347   14.004787   16.326639
  C     16.470765   14.000114   15.949781
  O     17.188487   15.051148   16.630313
  C     16.806834   16.365268   16.570108
  O     16.016295   16.782935   15.741400
  C     17.609887   17.235559   17.497220
  C     17.536666   18.590765   17.474735
  C     16.689173   19.448785   16.559794
  N     18.321567   19.350242   18.347534
  C     19.254224   18.840120   19.210455
  S     20.195445   19.815979   20.157959
  N     19.368806   17.474133   19.250913
  C     18.504910   16.524813   18.525446
  C     17.681726   15.708591   19.517938
  C     17.889333   14.322612   19.648948
  C     17.126154   13.567873   20.555640
  C     16.149060   14.204188   21.340069
  C     15.942545   15.584881   21.215122
  O     15.000068   16.202163   21.971205
  C     16.703327   16.333244   20.311661
  H     14.847205   14.064015   17.415275
  H     14.492592   13.081916   15.979439
  H     14.437712   14.844509   15.867169
  H     16.910466   13.032701   16.223909
  H     16.571299   14.121873   14.863001
  H     16.937494   19.253766   15.508741
  H     16.818629   20.522916   16.736480
  H     15.624506   19.217446   16.692410
  H     18.251181   20.355135   18.332205
  H     20.036631   17.126339   19.926842
  H     19.166648   15.840842   17.975739
  H     18.639671   13.827277   19.038655
  H     17.292345   12.496027   20.647813
  H     15.557151   13.625698   22.041673
  H     14.603737   15.531750   22.547612
  H     16.532111   17.401587   20.234157

 Total Charge           Charge          ....    0
 Multiplicity           Mult            ....    1
 Number of Electrons    NEL             ....  154
 Basis Dimension        Dim             ....  828

ORBITAL ENERGIES
----------------

  NO   OCC          E(Eh)            E(eV)
   0   2.0000     -91.888278     -2500.4072
   1   2.0000     -20.599948      -560.5531
   2   2.0000     -20.596341      -560.4549
   3   2.0000     -20.541529      -558.9634
   4   2.0000     -15.628324      -425.2683
   5   2.0000     -15.607665      -424.7062
   6   2.0000     -11.395943      -310.0994
   7   2.0000     -11.383421      -309.7586
   8   2.0000     -11.335262      -308.4482
   9   2.0000     -11.313501      -307.8560
  10   2.0000     -11.307879      -307.7030
  11   2.0000     -11.300388      -307.4992
  12   2.0000     -11.259241      -306.3795
  13   2.0000     -11.258545      -306.3606
  14   2.0000     -11.254872      -306.2606
  15   2.0000     -11.251552      -306.1703
  16   2.0000     -11.243008      -305.9378
  17   2.0000     -11.238382      -305.8119
  18   2.0000     -11.237984      -305.8011
  19   2.0000     -11.222179      -305.3710
  20   2.0000      -8.893349      -242.0003
  21   2.0000      -6.574926      -178.9128
  22   2.0000      -6.572919      -178.8582
  23   2.0000      -6.572334      -178.8423
  24   2.0000      -1.448545       -39.4169
  25   2.0000      -1.416019       -38.5318
  26   2.0000      -1.354252       -36.8511
  27   2.0000      -1.339337       -36.4452
  28   2.0000      -1.237841       -33.6834
  29   2.0000      -1.157423       -31.4951
  30   2.0000      -1.119849       -30.4726
  31   2.0000      -1.042354       -28.3639
  32   2.0000      -1.035361       -28.1736
  33   2.0000      -1.014771       -27.6133
  34   2.0000      -0.994823       -27.0705
  35   2.0000      -0.983514       -26.7628
  36   2.0000      -0.921969       -25.0881
  37   2.0000      -0.896808       -24.4034
  38   2.0000      -0.846596       -23.0371
  39   2.0000      -0.837425       -22.7875
  40   2.0000      -0.833833       -22.6898
  41   2.0000      -0.816857       -22.2278
  42   2.0000      -0.750382       -20.4189
  43   2.0000      -0.731842       -19.9144
  44   2.0000      -0.722120       -19.6499
  45   2.0000      -0.695415       -18.9232
  46   2.0000      -0.688091       -18.7239
  47   2.0000      -0.678323       -18.4581
  48   2.0000      -0.670616       -18.2484
  49   2.0000      -0.657529       -17.8923
  50   2.0000      -0.649683       -17.6788
  51   2.0000      -0.641107       -17.4454
  52   2.0000      -0.633182       -17.2297
  53   2.0000      -0.613343       -16.6899
  54   2.0000      -0.606214       -16.4959
  55   2.0000      -0.599690       -16.3184
  56   2.0000      -0.598407       -16.2835
  57   2.0000      -0.577137       -15.7047
  58   2.0000      -0.570702       -15.5296
  59   2.0000      -0.570159       -15.5148
  60   2.0000      -0.560263       -15.2455
  61   2.0000      -0.542343       -14.7579
  62   2.0000      -0.535179       -14.5630
  63   2.0000      -0.525049       -14.2873
  64   2.0000      -0.521441       -14.1891
  65   2.0000      -0.512962       -13.9584
  66   2.0000      -0.502086       -13.6625
  67   2.0000      -0.499373       -13.5886
  68   2.0000      -0.483982       -13.1698
  69   2.0000      -0.463436       -12.6107
  70   2.0000      -0.455291       -12.3891
  71   2.0000      -0.444382       -12.0922
  72   2.0000      -0.353477        -9.6186
  73   2.0000      -0.349211        -9.5025
  74   2.0000      -0.327720        -8.9177
  75   2.0000      -0.321033        -8.7358
  76   2.0000      -0.315518        -8.5857
  77   0.0000       0.076745         2.0883
  78   0.0000       0.106869         2.9080
  79   0.0000       0.125179         3.4063
  80   0.0000       0.132928         3.6172
  81   0.0000       0.137632         3.7451

MULLIKEN ATOMIC CHARGES
-----------------------
   0 C :   -0.313005
   1 C :    0.032199
   2 O :   -0.356675
   3 C :    0.471747
   4 O :   -0.437750
   5 C :   -0.216921
   6 C :    0.148859
   7 C :   -0.274044
   8 N :   -0.119210
   9 C :    0.211069
  10 S :   -0.441031
  11 N :   -0.205057
  12 C :    0.059295
  13 C :    0.059004
  14 C :   -0.183984
  15 C :   -0.131457
  16 C :   -0.279177
  17 C :    0.316350
  18 O :   -0.356473
  19 C :   -0.269670
  20 H :    0.104263
  21 H :    0.095112
  22 H :    0.126258
  23 H :    0.109058
  24 H :    0.105526
  25 H :    0.131520
  26 H :    0.095008
  27 H :    0.130886
  28 H :    0.196838
  29 H :    0.194837
  30 H :    0.150656
  31 H :    0.150213
  32 H :    0.159855
  33 H :    0.130007
  34 H :    0.240596
  35 H :    0.165295
Sum of atomic charges:    0.0000000

LOEWDIN ATOMIC CHARGES
----------------------
   0 C :    0.104975
   1 C :   -0.014351
   2 O :    0.302789
   3 C :   -0.411691
   4 O :    0.099266
   5 C :   -0.093376
   6 C :   -0.059448
   7 C :    0.131230
   8 N :    0.406387
   9 C :   -0.456610
  10 S :   -0.036385
  11 N :    0.396583
  12 C :   -0.052430
  13 C :   -0.039672
  14 C :    0.014470
  15 C :    0.038840
  16 C :   -0.001751
  17 C :   -0.190095
  18 O :    0.395214
  19 C :    0.031282
  20 H :   -0.026779
  21 H :   -0.027920
  22 H :   -0.026191
  23 H :   -0.025102
  24 H :   -0.028262
  25 H :   -0.003999
  26 H :   -0.023535
  27 H :   -0.004879
  28 H :   -0.057704
  29 H :   -0.064532
  30 H :   -0.011823
  31 H :   -0.030051
  32 H :   -0.021505
  33 H :   -0.035522
  34 H :   -0.153958
  35 H :   -0.023465

  Mayer bond orders larger than 0.100000
B(  0-C ,  1-C ) :   0.9605 B(  0-C , 20-H ) :   0.9740 B(  0-C , 21-H ) :   0.9775
B(  0-C , 22-H ) :   0.9724 B(  1-C ,  2-O ) :   0.9019 B(  1-C , 23-H ) :   0.9845
B(  1-C , 24-H ) :   0.9828 B(  2-O ,  3-C ) :   1.1622 B(  3-C ,  4-O ) :   1.9592
B(  3-C ,  5-C ) :   1.0579 B(  5-C ,  6-C ) :   1.6546 B(  5-C , 12-C ) :   0.9711
B(  6-C ,  7-C ) :   0.9672 B(  6-C ,  8-N ) :   1.1646 B(  7-C , 25-H ) :   0.9601
B(  7-C , 26-H ) :   0.9904 B(  7-C , 27-H ) :   0.9610 B(  8-N ,  9-C ) :   1.1838
B(  8-N , 28-H ) :   0.9479 B(  9-C , 10-S ) :   1.6064 B(  9-C , 11-N ) :   1.3053
B( 11-N , 12-C ) :   0.9899 B( 11-N , 29-H ) :   0.9513 B( 12-C , 13-C ) :   0.9344
B( 12-C , 30-H ) :   1.0026 B( 13-C , 14-C ) :   1.3556 B( 13-C , 19-C ) :   1.3819
B( 14-C , 15-C ) :   1.3922 B( 14-C , 31-H ) :   0.9712 B( 15-C , 16-C ) :   1.3629
B( 15-C , 32-H ) :   0.9708 B( 16-C , 17-C ) :   1.3315 B( 16-C , 33-H ) :   0.9852
B( 17-C , 18-O ) :   1.1101 B( 17-C , 19-C ) :   1.3716 B( 18-O , 34-H ) :   0.9799
B( 19-C , 35-H ) :   0.9584

MP2 TOTAL ENERGY:    -1274.347388477 Eh
FINAL SINGLE POINT ENERGY     -1274.347388477457

DIPOLE MOMENT
-------------
                                X             Y             Z
Electronic contribution:     10.20964      10.04506       8.18064
Nuclear contribution   :    -11.24776     -11.80145      -8.61762
                        -----------------------------------------
Total Dipole Moment    :     -1.03812      -1.75640      -0.43698
                        -----------------------------------------
Magnitude (a.u.)       :      2.08652
Magnitude (Debye)      :      5.30351

Rotational constants in cm-1:     0.011855     0.008687     0.006177
Rotational constants in MHz :   355.403993   260.422890   185.168612

                             ****ORCA TERMINATED NORMALLY****
TOTAL RUN TIME: 0 days 1 hours 59 minutes 44 seconds 513 msec
