                         Program Version 4.2.0 -  RELEASE  -
|  1> ! ri-mp2 cc-pvtz cc-pvtz/c TightSCF  NoKeepInts
|  2>
|  3> %scf
|  4>   MaxCore 4096
|  5> end
|  6> *xyz  0  1
|  7>     C       14.1967264   15.0311336   16.3318760
|  8>     C       15.4483405   15.5406097   17.0643042
|  9>     O       16.5678296   15.3455433   16.1773359
| 10>     C       17.8343403   15.7758444   16.4793994
| 11>     O       18.7893360   15.0532702   16.2622054
| 12>     C       17.9363645   16.9325400   17.4206807
| 13>     C       17.3617252   18.1332820   17.1738374
| 14>     C       16.5715842   18.5327396   15.9451288
| 15>     N       17.5422332   19.1876809   18.0715871
| 16>     C       18.3641119   19.1456401   19.1680763
| 17>     S       18.5715015   20.4610805   20.1480369
| 18>     N       19.0027967   17.9549033   19.4156719
| 19>     C       18.7946817   16.7018790   18.6625725
| 20>     C       18.1658084   15.6233121   19.5389111
| 21>     C       18.6539467   14.3046886   19.4965428
| 22>     C       18.0605865   13.2960345   20.2736131
| 23>     C       16.9660682   13.6064878   21.0983209
| 24>     C       16.4717321   14.9169602   21.1378178
| 25>     O       15.4048355   15.2173989   21.9199149
| 26>     C       17.0635965   15.9191460   20.3625513
| 27>     H       13.3093675   15.1311805   16.9687184
| 28>     H       14.3107193   13.9724957   16.0661255
| 29>     H       14.0268840   15.6019869   15.4105818
| 30>     H       15.2982478   16.5918674   17.3294974
| 31>     H       15.5982778   14.9667048   17.9889662
| 32>     H       16.6404233   17.7862755   15.1442667
| 33>     H       16.9478040   19.4750904   15.5268869
| 34>     H       15.5098419   18.6704121   16.1831496
| 35>     H       17.0946803   20.0745430   17.8998421
| 36>     H       19.5864191   17.9478117   20.2427960
| 37>     H       19.7796002   16.3434162   18.3280870
| 38>     H       19.4875711   14.0569974   18.8425204
| 39>     H       18.4455244   12.2785657   20.2276876
| 40>     H       16.5030119   12.8289575   21.6970277
| 41>     H       15.1786109   14.4195559   22.4219556
| 42>     H       16.6618710   16.9259646   20.4075065
| 43> *
| 44>
| 45>                          ****END OF INPUT****

CARTESIAN COORDINATES (ANGSTROEM)
---------------------------------
  C     14.196726   15.031134   16.331876
  C     15.448341   15.540610   17.064304
  O     16.567830   15.345543   16.177336
  C     17.834340   15.775844   16.479399
  O     18.789336   15.053270   16.262205
  C     17.936364   16.932540   17.420681
  C     17.361725   18.133282   17.173837
  C     16.571584   18.532740   15.945129
  N     17.542233   19.187681   18.071587
  C     18.364112   19.145640   19.168076
  S     18.571501   20.461081   20.148037
  N     19.002797   17.954903   19.415672
  C     18.794682   16.701879   18.662572
  C     18.165808   15.623312   19.538911
  C     18.653947   14.304689   19.496543
  C     18.060586   13.296034   20.273613
  C     16.966068   13.606488   21.098321
  C     16.471732   14.916960   21.137818
  O     15.404836   15.217399   21.919915
  C     17.063596   15.919146   20.362551
  H     13.309367   15.131180   16.968718
  H     14.310719   13.972496   16.066125
  H     14.026884   15.601987   15.410582
  H     15.298248   16.591867   17.329497
  H     15.598278   14.966705   17.988966
  H     16.640423   17.786275   15.144267
  H     16.947804   19.475090   15.526887
  H     15.509842   18.670412   16.183150
  H     17.094680   20.074543   17.899842
  H     19.586419   17.947812   20.242796
  H     19.779600   16.343416   18.328087
  H     19.487571   14.056997   18.842520
  H     18.445524   12.278566   20.227688
  H     16.503012   12.828957   21.697028
  H     15.178611   14.419556   22.421956
  H     16.661871   16.925965   20.407506

 Total Charge           Charge          ....    0
 Multiplicity           Mult            ....    1
 Number of Electrons    NEL             ....  154
 Basis Dimension        Dim             ....  828

ORBITAL ENERGIES
----------------

  NO   OCC          E(Eh)            E(eV)
   0   2.0000     -91.890648     -2500.4717
   1   2.0000     -20.600001      -560.5545
   2   2.0000     -20.597532      -560.4873
   3   2.0000     -20.551678      -559.2396
   4   2.0000     -15.628468      -425.2722
   5   2.0000     -15.611642      -424.8144
   6   2.0000     -11.396775      -310.1220
   7   2.0000     -11.387274      -309.8635
   8   2.0000     -11.331829      -308.3548
   9   2.0000     -11.316712      -307.9434
  10   2.0000     -11.313795      -307.8640
  11   2.0000     -11.302821      -307.5654
  12   2.0000     -11.268448      -306.6301
  13   2.0000     -11.264088      -306.5114
  14   2.0000     -11.263011      -306.4821
  15   2.0000     -11.256824      -306.3138
  16   2.0000     -11.246338      -306.0284
  17   2.0000     -11.242135      -305.9140
  18   2.0000     -11.239323      -305.8375
  19   2.0000     -11.233880      -305.6894
  20   2.0000      -8.895752      -242.0657
  21   2.0000      -6.577336      -178.9784
  22   2.0000      -6.575315      -178.9234
  23   2.0000      -6.574736      -178.9077
  24   2.0000      -1.448365       -39.4120
  25   2.0000      -1.419831       -38.6356
  26   2.0000      -1.359816       -37.0025
  27   2.0000      -1.341158       -36.4948
  28   2.0000      -1.240432       -33.7539
  29   2.0000      -1.161473       -31.6053
  30   2.0000      -1.125745       -30.6331
  31   2.0000      -1.048988       -28.5444
  32   2.0000      -1.040142       -28.3037
  33   2.0000      -1.018831       -27.7238
  34   2.0000      -1.005166       -27.3520
  35   2.0000      -0.989635       -26.9293
  36   2.0000      -0.927900       -25.2495
  37   2.0000      -0.879936       -23.9443
  38   2.0000      -0.855532       -23.2802
  39   2.0000      -0.842803       -22.9338
  40   2.0000      -0.837373       -22.7861
  41   2.0000      -0.836378       -22.7590
  42   2.0000      -0.757630       -20.6162
  43   2.0000      -0.739923       -20.1343
  44   2.0000      -0.732220       -19.9247
  45   2.0000      -0.697553       -18.9814
  46   2.0000      -0.688281       -18.7291
  47   2.0000      -0.682485       -18.5714
  48   2.0000      -0.676799       -18.4166
  49   2.0000      -0.664159       -18.0727
  50   2.0000      -0.652967       -17.7681
  51   2.0000      -0.648961       -17.6591
  52   2.0000      -0.640882       -17.4393
  53   2.0000      -0.611972       -16.6526
  54   2.0000      -0.608145       -16.5485
  55   2.0000      -0.604015       -16.4361
  56   2.0000      -0.602260       -16.3883
  57   2.0000      -0.586584       -15.9618
  58   2.0000      -0.578165       -15.7327
  59   2.0000      -0.568057       -15.4576
  60   2.0000      -0.561098       -15.2682
  61   2.0000      -0.558043       -15.1851
  62   2.0000      -0.545577       -14.8459
  63   2.0000      -0.527004       -14.3405
  64   2.0000      -0.524779       -14.2800
  65   2.0000      -0.516023       -14.0417
  66   2.0000      -0.502675       -13.6785
  67   2.0000      -0.501254       -13.6398
  68   2.0000      -0.490467       -13.3463
  69   2.0000      -0.469388       -12.7727
  70   2.0000      -0.457484       -12.4488
  71   2.0000      -0.450239       -12.2516
  72   2.0000      -0.357834        -9.7372
  73   2.0000      -0.351920        -9.5762
  74   2.0000      -0.330219        -8.9857
  75   2.0000      -0.324701        -8.8356
  76   2.0000      -0.318914        -8.6781
  77   0.0000       0.080470         2.1897
  78   0.0000       0.104415         2.8413
  79   0.0000       0.113378         3.0852
  80   0.0000       0.128605         3.4995
  81   0.0000       0.131579         3.5805

MULLIKEN ATOMIC CHARGES
-----------------------
   0 C :   -0.259839
   1 C :    0.017410
   2 O :   -0.321089
   3 C :    0.409130
   4 O :   -0.380465
   5 C :   -0.198313
   6 C :    0.134042
   7 C :   -0.319435
   8 N :   -0.132643
   9 C :    0.202339
  10 S :   -0.439387
  11 N :   -0.210441
  12 C :    0.063136
  13 C :    0.024384
  14 C :   -0.187922
  15 C :   -0.132613
  16 C :   -0.276137
  17 C :    0.319166
  18 O :   -0.359023
  19 C :   -0.281360
  20 H :    0.090726
  21 H :    0.108011
  22 H :    0.094350
  23 H :    0.088420
  24 H :    0.122223
  25 H :    0.133334
  26 H :    0.135527
  27 H :    0.119617
  28 H :    0.196578
  29 H :    0.197253
  30 H :    0.163051
  31 H :    0.168039
  32 H :    0.163783
  33 H :    0.132828
  34 H :    0.241782
  35 H :    0.173537
Sum of atomic charges:   -0.0000000

LOEWDIN ATOMIC CHARGES
----------------------
   0 C :    0.111254
   1 C :   -0.022472
   2 O :    0.300719
   3 C :   -0.415923
   4 O :    0.126927
   5 C :   -0.085367
   6 C :   -0.097513
   7 C :    0.125862
   8 N :    0.402108
   9 C :   -0.456375
  10 S :   -0.036391
  11 N :    0.397160
  12 C :   -0.044923
  13 C :   -0.044674
  14 C :    0.021893
  15 C :    0.044908
  16 C :   -0.000702
  17 C :   -0.195209
  18 O :    0.394469
  19 C :    0.027685
  20 H :   -0.024424
  21 H :   -0.022687
  22 H :   -0.028294
  23 H :   -0.039726
  24 H :   -0.026838
  25 H :   -0.007539
  26 H :   -0.010861
  27 H :   -0.017305
  28 H :   -0.057289
  29 H :   -0.063639
  30 H :   -0.002699
  31 H :   -0.021886
  32 H :   -0.018474
  33 H :   -0.034531
  34 H :   -0.152888
  35 H :   -0.024355

  Mayer bond orders larger than 0.100000
B(  0-C ,  1-C ) :   0.9818 B(  0-C , 20-H ) :   0.9766 B(  0-C , 21-H ) :   0.9789
B(  0-C , 22-H ) :   0.9784 B(  1-C ,  2-O ) :   0.9025 B(  1-C , 23-H ) :   0.9665
B(  1-C , 24-H ) :   0.9713 B(  2-O ,  3-C ) :   1.1790 B(  3-C ,  4-O ) :   2.0997
B(  3-C ,  5-C ) :   0.9269 B(  5-C ,  6-C ) :   1.6836 B(  5-C , 12-C ) :   0.9621
B(  6-C ,  7-C ) :   0.9435 B(  6-C ,  8-N ) :   1.1204 B(  7-C , 25-H ) :   0.9772
B(  7-C , 26-H ) :   0.9729 B(  7-C , 27-H ) :   0.9650 B(  8-N ,  9-C ) :   1.1908
B(  8-N , 28-H ) :   0.9517 B(  9-C , 10-S ) :   1.6127 B(  9-C , 11-N ) :   1.2905
B( 11-N , 12-C ) :   0.9984 B( 11-N , 29-H ) :   0.9498 B( 12-C , 13-C ) :   0.9420
B( 12-C , 30-H ) :   0.9976 B( 13-C , 14-C ) :   1.3869 B( 13-C , 19-C ) :   1.3513
B( 14-C , 15-C ) :   1.3953 B( 14-C , 31-H ) :   0.9605 B( 15-C , 16-C ) :   1.3644
B( 15-C , 32-H ) :   0.9701 B( 16-C , 17-C ) :   1.3276 B( 16-C , 33-H ) :   0.9843
B( 17-C , 18-O ) :   1.1100 B( 17-C , 19-C ) :   1.3680 B( 18-O , 34-H ) :   0.9790
B( 19-C , 35-H ) :   0.9586

MP2 TOTAL ENERGY:    -1274.334529917 Eh
FINAL SINGLE POINT ENERGY     -1274.334529916522

DIPOLE MOMENT
-------------
                                X             Y             Z
Electronic contribution:     11.90356       6.95481       7.35509
Nuclear contribution   :    -13.42196      -7.95240      -7.61501
                        -----------------------------------------
Total Dipole Moment    :     -1.51840      -0.99759      -0.25991
                        -----------------------------------------
Magnitude (a.u.)       :      1.83529
Magnitude (Debye)      :      4.66493

Rotational constants in cm-1:     0.011415     0.009192     0.006768
Rotational constants in MHz :   342.224043   275.557413   202.885493

                             ****ORCA TERMINATED NORMALLY****
TOTAL RUN TIME: 0 days 1 hours 47 minutes 59 seconds 841 msec
