                         Program Version 4.2.0 -  RELEASE  -
|  1> ! ri-mp2 cc-pvtz cc-pvtz/c TightSCF  NoKeepInts
|  2>
|  3> %scf
|  4>   MaxCore 4096
|  5> end
|  6> *xyz  0  1
|  7>     C       15.0526354   14.0218701   16.0622876
|  8>     C       15.6936367   15.0173263   15.0687611
|  9>     O       16.3962104   16.0739605   15.7580822
| 10>     C       17.3547065   15.8180087   16.6977602
| 11>     O       17.9097970   14.7352832   16.7891536
| 12>     C       17.7175272   16.9831268   17.5769469
| 13>     C       17.2788941   18.2611901   17.4211900
| 14>     C       16.3455490   18.8137177   16.3630127
| 15>     N       17.7439563   19.2635778   18.2796935
| 16>     C       18.7387444   19.1045615   19.2076062
| 17>     S       19.3188974   20.3767764   20.0911234
| 18>     N       19.2271058   17.8331478   19.3660565
| 19>     C       18.6563547   16.6280674   18.7364824
| 20>     C       17.9415848   15.7688309   19.7765752
| 21>     C       18.2816676   14.4126350   19.9354224
| 22>     C       17.6239090   13.6153333   20.8870129
| 23>     C       16.6160868   14.1779991   21.6884111
| 24>     C       16.2715325   15.5272878   21.5311505
| 25>     O       15.2942790   16.0720012   22.2990346
| 26>     C       16.9276264   16.3181872   20.5827233
| 27>     H       15.8049061   13.3939600   16.5545813
| 28>     H       14.3630393   13.3524912   15.5341385
| 29>     H       14.4840700   14.5543872   16.8347233
| 30>     H       16.3874296   14.4754042   14.4120937
| 31>     H       14.9100203   15.4591464   14.4401012
| 32>     H       15.3539144   18.3508975   16.4414117
| 33>     H       16.7360159   18.6128989   15.3575517
| 34>     H       16.2054476   19.8983965   16.4440989
| 35>     H       17.3983035   20.2044383   18.1791615
| 36>     H       19.9377943   17.7349345   20.0795965
| 37>     H       19.4920704   16.0443606   18.3239529
| 38>     H       19.0485203   13.9704610   19.3039424
| 39>     H       17.8924151   12.5660355   20.9950010
| 40>     H       16.1041950   13.5653736   22.4229435
| 41>     H       14.9909335   15.3851519   22.9113816
| 42>     H       16.6472234   17.3607740   20.4808338
| 43> *
| 44>
| 45>                          ****END OF INPUT****

CARTESIAN COORDINATES (ANGSTROEM)
---------------------------------
  C     15.052635   14.021870   16.062288
  C     15.693637   15.017326   15.068761
  O     16.396210   16.073960   15.758082
  C     17.354706   15.818009   16.697760
  O     17.909797   14.735283   16.789154
  C     17.717527   16.983127   17.576947
  C     17.278894   18.261190   17.421190
  C     16.345549   18.813718   16.363013
  N     17.743956   19.263578   18.279694
  C     18.738744   19.104561   19.207606
  S     19.318897   20.376776   20.091123
  N     19.227106   17.833148   19.366056
  C     18.656355   16.628067   18.736482
  C     17.941585   15.768831   19.776575
  C     18.281668   14.412635   19.935422
  C     17.623909   13.615333   20.887013
  C     16.616087   14.177999   21.688411
  C     16.271532   15.527288   21.531150
  O     15.294279   16.072001   22.299035
  C     16.927626   16.318187   20.582723
  H     15.804906   13.393960   16.554581
  H     14.363039   13.352491   15.534138
  H     14.484070   14.554387   16.834723
  H     16.387430   14.475404   14.412094
  H     14.910020   15.459146   14.440101
  H     15.353914   18.350897   16.441412
  H     16.736016   18.612899   15.357552
  H     16.205448   19.898397   16.444099
  H     17.398304   20.204438   18.179161
  H     19.937794   17.734935   20.079596
  H     19.492070   16.044361   18.323953
  H     19.048520   13.970461   19.303942
  H     17.892415   12.566035   20.995001
  H     16.104195   13.565374   22.422943
  H     14.990934   15.385152   22.911382
  H     16.647223   17.360774   20.480834

 Total Charge           Charge          ....    0
 Multiplicity           Mult            ....    1
 Number of Electrons    NEL             ....  154
 Basis Dimension        Dim             ....  828

ORBITAL ENERGIES
----------------

  NO   OCC          E(Eh)            E(eV)
   0   2.0000     -91.888054     -2500.4011
   1   2.0000     -20.602045      -560.6101
   2   2.0000     -20.591452      -560.3219
   3   2.0000     -20.544369      -559.0407
   4   2.0000     -15.628569      -425.2750
   5   2.0000     -15.606561      -424.6761
   6   2.0000     -11.396825      -310.1234
   7   2.0000     -11.382755      -309.7405
   8   2.0000     -11.337224      -308.5016
   9   2.0000     -11.307241      -307.6857
  10   2.0000     -11.304882      -307.6215
  11   2.0000     -11.303617      -307.5870
  12   2.0000     -11.260795      -306.4218
  13   2.0000     -11.258523      -306.3600
  14   2.0000     -11.253106      -306.2126
  15   2.0000     -11.247343      -306.0558
  16   2.0000     -11.237012      -305.7746
  17   2.0000     -11.233201      -305.6709
  18   2.0000     -11.230008      -305.5840
  19   2.0000     -11.225854      -305.4710
  20   2.0000      -8.893114      -241.9939
  21   2.0000      -6.574690      -178.9064
  22   2.0000      -6.572685      -178.8518
  23   2.0000      -6.572098      -178.8359
  24   2.0000      -1.451382       -39.4941
  25   2.0000      -1.411194       -38.4005
  26   2.0000      -1.356329       -36.9076
  27   2.0000      -1.339450       -36.4483
  28   2.0000      -1.236935       -33.6587
  29   2.0000      -1.151837       -31.3431
  30   2.0000      -1.118994       -30.4494
  31   2.0000      -1.041571       -28.3426
  32   2.0000      -1.033820       -28.1317
  33   2.0000      -1.009216       -27.4622
  34   2.0000      -0.997226       -27.1359
  35   2.0000      -0.982647       -26.7392
  36   2.0000      -0.921265       -25.0689
  37   2.0000      -0.896565       -24.3968
  38   2.0000      -0.847829       -23.0706
  39   2.0000      -0.835301       -22.7297
  40   2.0000      -0.827577       -22.5195
  41   2.0000      -0.815946       -22.2030
  42   2.0000      -0.748587       -20.3701
  43   2.0000      -0.734038       -19.9742
  44   2.0000      -0.724492       -19.7144
  45   2.0000      -0.690331       -18.7849
  46   2.0000      -0.685273       -18.6472
  47   2.0000      -0.678430       -18.4610
  48   2.0000      -0.671006       -18.2590
  49   2.0000      -0.656466       -17.8634
  50   2.0000      -0.651179       -17.7195
  51   2.0000      -0.644057       -17.5257
  52   2.0000      -0.631382       -17.1808
  53   2.0000      -0.615177       -16.7398
  54   2.0000      -0.600155       -16.3310
  55   2.0000      -0.599307       -16.3080
  56   2.0000      -0.594900       -16.1880
  57   2.0000      -0.580848       -15.8057
  58   2.0000      -0.573287       -15.5999
  59   2.0000      -0.564757       -15.3678
  60   2.0000      -0.557703       -15.1759
  61   2.0000      -0.543212       -14.7816
  62   2.0000      -0.538271       -14.6471
  63   2.0000      -0.525573       -14.3016
  64   2.0000      -0.516378       -14.0514
  65   2.0000      -0.509699       -13.8696
  66   2.0000      -0.500857       -13.6290
  67   2.0000      -0.495149       -13.4737
  68   2.0000      -0.479675       -13.0526
  69   2.0000      -0.463375       -12.6091
  70   2.0000      -0.457581       -12.4514
  71   2.0000      -0.450710       -12.2645
  72   2.0000      -0.354148        -9.6369
  73   2.0000      -0.343810        -9.3555
  74   2.0000      -0.327153        -8.9023
  75   2.0000      -0.315584        -8.5875
  76   2.0000      -0.313374        -8.5274
  77   0.0000       0.075438         2.0528
  78   0.0000       0.113373         3.0850
  79   0.0000       0.121515         3.3066
  80   0.0000       0.136247         3.7075
  81   0.0000       0.141060         3.8384

MULLIKEN ATOMIC CHARGES
-----------------------
   0 C :   -0.310617
   1 C :    0.039539
   2 O :   -0.350628
   3 C :    0.458905
   4 O :   -0.437226
   5 C :   -0.179668
   6 C :    0.144630
   7 C :   -0.281744
   8 N :   -0.120378
   9 C :    0.201290
  10 S :   -0.438939
  11 N :   -0.197422
  12 C :    0.036246
  13 C :    0.058966
  14 C :   -0.163568
  15 C :   -0.133876
  16 C :   -0.278890
  17 C :    0.311702
  18 O :   -0.359227
  19 C :   -0.274521
  20 H :    0.130226
  21 H :    0.097039
  22 H :    0.095448
  23 H :    0.101083
  24 H :    0.106727
  25 H :    0.124881
  26 H :    0.128582
  27 H :    0.101281
  28 H :    0.196664
  29 H :    0.193689
  30 H :    0.153995
  31 H :    0.154071
  32 H :    0.159079
  33 H :    0.127955
  34 H :    0.240063
  35 H :    0.164644
Sum of atomic charges:   -0.0000000

LOEWDIN ATOMIC CHARGES
----------------------
   0 C :    0.105650
   1 C :   -0.014024
   2 O :    0.300638
   3 C :   -0.414086
   4 O :    0.104602
   5 C :   -0.090911
   6 C :   -0.063586
   7 C :    0.124932
   8 N :    0.405055
   9 C :   -0.459231
  10 S :   -0.035763
  11 N :    0.398171
  12 C :   -0.046751
  13 C :   -0.038878
  14 C :    0.022174
  15 C :    0.040508
  16 C :   -0.002347
  17 C :   -0.192782
  18 O :    0.392912
  19 C :    0.028069
  20 H :   -0.024330
  21 H :   -0.026815
  22 H :   -0.028971
  23 H :   -0.028243
  24 H :   -0.025109
  25 H :   -0.010113
  26 H :   -0.007957
  27 H :   -0.021538
  28 H :   -0.059284
  29 H :   -0.063545
  30 H :   -0.005339
  31 H :   -0.025257
  32 H :   -0.021305
  33 H :   -0.036438
  34 H :   -0.154915
  35 H :   -0.025193

  Mayer bond orders larger than 0.100000
B(  0-C ,  1-C ) :   0.9607 B(  0-C , 20-H ) :   0.9714 B(  0-C , 21-H ) :   0.9766
B(  0-C , 22-H ) :   0.9754 B(  1-C ,  2-O ) :   0.9001 B(  1-C , 23-H ) :   0.9814
B(  1-C , 24-H ) :   0.9843 B(  2-O ,  3-C ) :   1.1575 B(  3-C ,  4-O ) :   1.9640
B(  3-C ,  5-C ) :   1.0632 B(  5-C ,  6-C ) :   1.6409 B(  5-C , 12-C ) :   0.9666
B(  6-C ,  7-C ) :   0.9570 B(  6-C ,  8-N ) :   1.1534 B(  7-C , 25-H ) :   0.9648
B(  7-C , 26-H ) :   0.9636 B(  7-C , 27-H ) :   0.9917 B(  8-N ,  9-C ) :   1.1768
B(  8-N , 28-H ) :   0.9485 B(  9-C , 10-S ) :   1.6110 B(  9-C , 11-N ) :   1.3054
B( 11-N , 12-C ) :   0.9921 B( 11-N , 29-H ) :   0.9519 B( 12-C , 13-C ) :   0.9463
B( 12-C , 30-H ) :   1.0009 B( 13-C , 14-C ) :   1.3752 B( 13-C , 19-C ) :   1.3686
B( 14-C , 15-C ) :   1.3943 B( 14-C , 31-H ) :   0.9646 B( 15-C , 16-C ) :   1.3622
B( 15-C , 32-H ) :   0.9714 B( 16-C , 17-C ) :   1.3319 B( 16-C , 33-H ) :   0.9860
B( 17-C , 18-O ) :   1.1079 B( 17-C , 19-C ) :   1.3788 B( 18-O , 34-H ) :   0.9806
B( 19-C , 35-H ) :   0.9584

MP2 TOTAL ENERGY:    -1274.346293957 Eh
FINAL SINGLE POINT ENERGY     -1274.346293957488

DIPOLE MOMENT
-------------
                                X             Y             Z
Electronic contribution:     10.40965      10.09737       9.55182
Nuclear contribution   :    -11.96277     -11.32224     -10.62599
                        -----------------------------------------
Total Dipole Moment    :     -1.55312      -1.22488      -1.07417
                        -----------------------------------------
Magnitude (a.u.)       :      2.25086
Magnitude (Debye)      :      5.72122

Rotational constants in cm-1:     0.010683     0.009174     0.005987
Rotational constants in MHz :   320.260404   275.040436   179.475121

                             ****ORCA TERMINATED NORMALLY****
TOTAL RUN TIME: 0 days 1 hours 37 minutes 15 seconds 661 msec
