                         Program Version 4.2.0 -  RELEASE  -
|  1> ! ri-mp2 cc-pvtz cc-pvtz/c TightSCF  NoKeepInts
|  2>
|  3> %scf
|  4>   MaxCore 4096
|  5> end
|  6> *xyz  0  1
|  7>     C       15.6633784   13.6826286   15.1878240
|  8>     C       15.1566215   15.1310380   15.3566139
|  9>     O       16.0492158   16.0517903   16.0410497
| 10>     C       17.1397107   15.7603453   16.8212066
| 11>     O       17.6242583   14.6491056   16.9463328
| 12>     C       17.6338824   16.9232158   17.6390851
| 13>     C       17.2940710   18.2264486   17.4467646
| 14>     C       16.3750714   18.8144895   16.3948264
| 15>     N       17.8762015   19.2203411   18.2413582
| 16>     C       18.9034912   19.0188198   19.1243680
| 17>     S       19.6261322   20.2741126   19.9230113
| 18>     N       19.3007379   17.7198403   19.3105812
| 19>     C       18.6024060   16.5407458   18.7660228
| 20>     C       17.8799158   15.7873888   19.8803037
| 21>     C       18.1207271   14.4161605   20.0850914
| 22>     C       17.4578457   13.7166703   21.1074431
| 23>     C       16.5450324   14.3933724   21.9341188
| 24>     C       16.2992303   15.7581342   21.7314629
| 25>     O       15.4137542   16.4130609   22.5242299
| 26>     C       16.9602242   16.4515397   20.7127459
| 27>     H       16.6475627   13.6627895   14.7030175
| 28>     H       14.9692464   13.1092388   14.5618876
| 29>     H       15.7329098   13.1709548   16.1560405
| 30>     H       14.9280521   15.5423540   14.3650685
| 31>     H       14.2098484   15.0915358   15.9106801
| 32>     H       15.3378725   18.5022376   16.5689642
| 33>     H       16.6675707   18.4800064   15.3917501
| 34>     H       16.3893653   19.9110849   16.3837572
| 35>     H       17.5982855   20.1808975   18.1194514
| 36>     H       20.0387327   17.5927109   19.9910319
| 37>     H       19.3659011   15.8738390   18.3399292
| 38>     H       18.8131366   13.8864843   19.4352174
| 39>     H       17.6485967   12.6546565   21.2505293
| 40>     H       16.0294092   13.8565900   22.7233156
| 41>     H       15.0910360   15.7792598   23.1821366
| 42>     H       16.7575664   17.5081121   20.5767827
| 43> *
| 44>
| 45>                          ****END OF INPUT****

CARTESIAN COORDINATES (ANGSTROEM)
---------------------------------
  C     15.663378   13.682629   15.187824
  C     15.156621   15.131038   15.356614
  O     16.049216   16.051790   16.041050
  C     17.139711   15.760345   16.821207
  O     17.624258   14.649106   16.946333
  C     17.633882   16.923216   17.639085
  C     17.294071   18.226449   17.446765
  C     16.375071   18.814490   16.394826
  N     17.876202   19.220341   18.241358
  C     18.903491   19.018820   19.124368
  S     19.626132   20.274113   19.923011
  N     19.300738   17.719840   19.310581
  C     18.602406   16.540746   18.766023
  C     17.879916   15.787389   19.880304
  C     18.120727   14.416161   20.085091
  C     17.457846   13.716670   21.107443
  C     16.545032   14.393372   21.934119
  C     16.299230   15.758134   21.731463
  O     15.413754   16.413061   22.524230
  C     16.960224   16.451540   20.712746
  H     16.647563   13.662790   14.703017
  H     14.969246   13.109239   14.561888
  H     15.732910   13.170955   16.156040
  H     14.928052   15.542354   14.365068
  H     14.209848   15.091536   15.910680
  H     15.337872   18.502238   16.568964
  H     16.667571   18.480006   15.391750
  H     16.389365   19.911085   16.383757
  H     17.598285   20.180898   18.119451
  H     20.038733   17.592711   19.991032
  H     19.365901   15.873839   18.339929
  H     18.813137   13.886484   19.435217
  H     17.648597   12.654656   21.250529
  H     16.029409   13.856590   22.723316
  H     15.091036   15.779260   23.182137
  H     16.757566   17.508112   20.576783

 Total Charge           Charge          ....    0
 Multiplicity           Mult            ....    1
 Number of Electrons    NEL             ....  154
 Basis Dimension        Dim             ....  828

ORBITAL ENERGIES
----------------

  NO   OCC          E(Eh)            E(eV)
   0   2.0000     -91.887070     -2500.3743
   1   2.0000     -20.601175      -560.5865
   2   2.0000     -20.590717      -560.3019
   3   2.0000     -20.543211      -559.0092
   4   2.0000     -15.627112      -425.2353
   5   2.0000     -15.605583      -424.6495
   6   2.0000     -11.399323      -310.1914
   7   2.0000     -11.381722      -309.7124
   8   2.0000     -11.335093      -308.4436
   9   2.0000     -11.307474      -307.6920
  10   2.0000     -11.306456      -307.6643
  11   2.0000     -11.304018      -307.5980
  12   2.0000     -11.259485      -306.3862
  13   2.0000     -11.257779      -306.3397
  14   2.0000     -11.252293      -306.1905
  15   2.0000     -11.246652      -306.0370
  16   2.0000     -11.236257      -305.7541
  17   2.0000     -11.232287      -305.6461
  18   2.0000     -11.229270      -305.5640
  19   2.0000     -11.224853      -305.4438
  20   2.0000      -8.892143      -241.9675
  21   2.0000      -6.573723      -178.8801
  22   2.0000      -6.571715      -178.8254
  23   2.0000      -6.571131      -178.8096
  24   2.0000      -1.444818       -39.3155
  25   2.0000      -1.410448       -38.3802
  26   2.0000      -1.356879       -36.9226
  27   2.0000      -1.338273       -36.4163
  28   2.0000      -1.235856       -33.6293
  29   2.0000      -1.150817       -31.3153
  30   2.0000      -1.117577       -30.4108
  31   2.0000      -1.041563       -28.3424
  32   2.0000      -1.034514       -28.1506
  33   2.0000      -1.008362       -27.4389
  34   2.0000      -0.996087       -27.1049
  35   2.0000      -0.981386       -26.7049
  36   2.0000      -0.920498       -25.0480
  37   2.0000      -0.897118       -24.4118
  38   2.0000      -0.847196       -23.0534
  39   2.0000      -0.834912       -22.7191
  40   2.0000      -0.826822       -22.4990
  41   2.0000      -0.816998       -22.2316
  42   2.0000      -0.742733       -20.2108
  43   2.0000      -0.725495       -19.7417
  44   2.0000      -0.723439       -19.6858
  45   2.0000      -0.689431       -18.7604
  46   2.0000      -0.683437       -18.5973
  47   2.0000      -0.676939       -18.4205
  48   2.0000      -0.672996       -18.3131
  49   2.0000      -0.665176       -18.1004
  50   2.0000      -0.645354       -17.5610
  51   2.0000      -0.642902       -17.4942
  52   2.0000      -0.633796       -17.2465
  53   2.0000      -0.602353       -16.3909
  54   2.0000      -0.599058       -16.3012
  55   2.0000      -0.597315       -16.2538
  56   2.0000      -0.594174       -16.1683
  57   2.0000      -0.584728       -15.9112
  58   2.0000      -0.571243       -15.5443
  59   2.0000      -0.570574       -15.5261
  60   2.0000      -0.558604       -15.2004
  61   2.0000      -0.541918       -14.7463
  62   2.0000      -0.537330       -14.6215
  63   2.0000      -0.525445       -14.2981
  64   2.0000      -0.516322       -14.0498
  65   2.0000      -0.510108       -13.8807
  66   2.0000      -0.498760       -13.5720
  67   2.0000      -0.494138       -13.4462
  68   2.0000      -0.479204       -13.0398
  69   2.0000      -0.461578       -12.5602
  70   2.0000      -0.452676       -12.3179
  71   2.0000      -0.446522       -12.1505
  72   2.0000      -0.352958        -9.6045
  73   2.0000      -0.342902        -9.3308
  74   2.0000      -0.326246        -8.8776
  75   2.0000      -0.314648        -8.5620
  76   2.0000      -0.312656        -8.5078
  77   0.0000       0.077240         2.1018
  78   0.0000       0.114462         3.1147
  79   0.0000       0.121344         3.3019
  80   0.0000       0.136552         3.7158
  81   0.0000       0.139287         3.7902

MULLIKEN ATOMIC CHARGES
-----------------------
   0 C :   -0.287485
   1 C :    0.050128
   2 O :   -0.359505
   3 C :    0.437865
   4 O :   -0.429607
   5 C :   -0.146127
   6 C :    0.139565
   7 C :   -0.287177
   8 N :   -0.120490
   9 C :    0.200775
  10 S :   -0.440742
  11 N :   -0.196713
  12 C :    0.029888
  13 C :    0.059284
  14 C :   -0.163313
  15 C :   -0.134171
  16 C :   -0.279121
  17 C :    0.311650
  18 O :   -0.359180
  19 C :   -0.272062
  20 H :    0.107166
  21 H :    0.096919
  22 H :    0.115759
  23 H :    0.092737
  24 H :    0.089448
  25 H :    0.127106
  26 H :    0.125810
  27 H :    0.102917
  28 H :    0.196279
  29 H :    0.193362
  30 H :    0.154547
  31 H :    0.153765
  32 H :    0.158723
  33 H :    0.127648
  34 H :    0.239870
  35 H :    0.164480
Sum of atomic charges:   -0.0000000

LOEWDIN ATOMIC CHARGES
----------------------
   0 C :    0.102631
   1 C :   -0.008250
   2 O :    0.293151
   3 C :   -0.412751
   4 O :    0.113230
   5 C :   -0.090035
   6 C :   -0.065174
   7 C :    0.124109
   8 N :    0.404566
   9 C :   -0.459512
  10 S :   -0.037157
  11 N :    0.398012
  12 C :   -0.046718
  13 C :   -0.038543
  14 C :    0.021545
  15 C :    0.040352
  16 C :   -0.002625
  17 C :   -0.192572
  18 O :    0.392923
  19 C :    0.028597
  20 H :   -0.024829
  21 H :   -0.027943
  22 H :   -0.024247
  23 H :   -0.027342
  24 H :   -0.028685
  25 H :   -0.009842
  26 H :   -0.008853
  27 H :   -0.021489
  28 H :   -0.059546
  29 H :   -0.063696
  30 H :   -0.005633
  31 H :   -0.025417
  32 H :   -0.021472
  33 H :   -0.036590
  34 H :   -0.155070
  35 H :   -0.025126

  Mayer bond orders larger than 0.100000
B(  0-C ,  1-C ) :   0.9826 B(  0-C , 20-H ) :   0.9741 B(  0-C , 21-H ) :   0.9729
B(  0-C , 22-H ) :   0.9726 B(  1-C ,  2-O ) :   0.8988 B(  1-C , 23-H ) :   0.9793
B(  1-C , 24-H ) :   0.9777 B(  2-O ,  3-C ) :   1.1453 B(  3-C ,  4-O ) :   1.9780
B(  3-C ,  5-C ) :   1.0588 B(  5-C ,  6-C ) :   1.6508 B(  5-C , 12-C ) :   0.9647
B(  6-C ,  7-C ) :   0.9548 B(  6-C ,  8-N ) :   1.1473 B(  7-C , 25-H ) :   0.9643
B(  7-C , 26-H ) :   0.9658 B(  7-C , 27-H ) :   0.9922 B(  8-N ,  9-C ) :   1.1788
B(  8-N , 28-H ) :   0.9489 B(  9-C , 10-S ) :   1.6095 B(  9-C , 11-N ) :   1.3051
B( 11-N , 12-C ) :   0.9918 B( 11-N , 29-H ) :   0.9521 B( 12-C , 13-C ) :   0.9478
B( 12-C , 30-H ) :   1.0003 B( 13-C , 14-C ) :   1.3750 B( 13-C , 19-C ) :   1.3697
B( 14-C , 15-C ) :   1.3945 B( 14-C , 31-H ) :   0.9649 B( 15-C , 16-C ) :   1.3624
B( 15-C , 32-H ) :   0.9715 B( 16-C , 17-C ) :   1.3316 B( 16-C , 33-H ) :   0.9861
B( 17-C , 18-O ) :   1.1078 B( 17-C , 19-C ) :   1.3792 B( 18-O , 34-H ) :   0.9807
B( 19-C , 35-H ) :   0.9584

MP2 TOTAL ENERGY:    -1274.336629223 Eh
FINAL SINGLE POINT ENERGY     -1274.336629222561

DIPOLE MOMENT
-------------
                                X             Y             Z
Electronic contribution:      9.82082      10.25811      11.08463
Nuclear contribution   :    -11.50572     -11.43254     -12.15357
                        -----------------------------------------
Total Dipole Moment    :     -1.68490      -1.17443      -1.06894
                        -----------------------------------------
Magnitude (a.u.)       :      2.31534
Magnitude (Debye)      :      5.88512

Rotational constants in cm-1:     0.010621     0.008854     0.005811
Rotational constants in MHz :   318.404721   265.424976   174.200787

                             ****ORCA TERMINATED NORMALLY****
TOTAL RUN TIME: 0 days 2 hours 18 minutes 38 seconds 214 msec
