                         Program Version 4.2.0 -  RELEASE  -
|  1> ! ri-mp2 cc-pvtz cc-pvtz/c TightSCF  NoKeepInts
|  2>
|  3> %scf
|  4>   MaxCore 4096
|  5> end
|  6> *xyz  0  1
|  7>     C       14.6355423   14.4455984   17.1518833
|  8>     C       15.6022358   15.5857232   16.7948064
|  9>     O       16.8922244   14.9865443   16.5778481
| 10>     C       18.0733653   15.6826771   16.5375698
| 11>     O       19.1066683   15.0616545   16.3730165
| 12>     C       18.0867619   16.9099006   17.3848135
| 13>     C       17.5953032   18.0914233   16.9502981
| 14>     C       16.9903039   18.3754300   15.5928459
| 15>     N       17.6654639   19.2174399   17.7730019
| 16>     C       18.2834617   19.2498423   18.9967784
| 17>     S       18.3608150   20.6380423   19.8916346
| 18>     N       18.8271155   18.0708850   19.4473760
| 19>     C       18.7248199   16.7651689   18.7643580
| 20>     C       17.9537063   15.7504245   19.6029600
| 21>     C       18.4078422   14.4220758   19.6942708
| 22>     C       17.6863401   13.4673310   20.4299105
| 23>     C       16.4966337   13.8416919   21.0770690
| 24>     C       16.0366248   15.1618013   20.9822075
| 25>     O       14.8791852   15.5228229   21.5908864
| 26>     C       16.7575584   16.1110651   20.2510262
| 27>     H       14.9739989   13.9266540   18.0580358
| 28>     H       14.5803445   13.7143409   16.3357874
| 29>     H       13.6272988   14.8357211   17.3359976
| 30>     H       15.2591660   16.1062893   15.8919236
| 31>     H       15.6199179   16.2919924   17.6343237
| 32>     H       17.1495495   17.5525421   14.8850843
| 33>     H       17.4437754   19.2680083   15.1427904
| 34>     H       15.9101885   18.5498951   15.6710122
| 35>     H       17.2840005   20.0955168   17.4571933
| 36>     H       19.2565299   18.1209729   20.3627122
| 37>     H       19.7460183   16.3829349   18.6183604
| 38>     H       19.3148068   14.1235672   19.1727211
| 39>     H       18.0456762   12.4412102   20.4863464
| 40>     H       15.9338445   13.1054430   21.6412925
| 41>     H       14.5609384   14.7536867   22.0875656
| 42>     H       16.3789739   17.1256825   20.1882927
| 43> *
| 44>
| 45>                          ****END OF INPUT****

CARTESIAN COORDINATES (ANGSTROEM)
---------------------------------
  C     14.635542   14.445598   17.151883
  C     15.602236   15.585723   16.794806
  O     16.892224   14.986544   16.577848
  C     18.073365   15.682677   16.537570
  O     19.106668   15.061654   16.373016
  C     18.086762   16.909901   17.384813
  C     17.595303   18.091423   16.950298
  C     16.990304   18.375430   15.592846
  N     17.665464   19.217440   17.773002
  C     18.283462   19.249842   18.996778
  S     18.360815   20.638042   19.891635
  N     18.827116   18.070885   19.447376
  C     18.724820   16.765169   18.764358
  C     17.953706   15.750424   19.602960
  C     18.407842   14.422076   19.694271
  C     17.686340   13.467331   20.429910
  C     16.496634   13.841692   21.077069
  C     16.036625   15.161801   20.982207
  O     14.879185   15.522823   21.590886
  C     16.757558   16.111065   20.251026
  H     14.973999   13.926654   18.058036
  H     14.580345   13.714341   16.335787
  H     13.627299   14.835721   17.335998
  H     15.259166   16.106289   15.891924
  H     15.619918   16.291992   17.634324
  H     17.149549   17.552542   14.885084
  H     17.443775   19.268008   15.142790
  H     15.910188   18.549895   15.671012
  H     17.284001   20.095517   17.457193
  H     19.256530   18.120973   20.362712
  H     19.746018   16.382935   18.618360
  H     19.314807   14.123567   19.172721
  H     18.045676   12.441210   20.486346
  H     15.933844   13.105443   21.641292
  H     14.560938   14.753687   22.087566
  H     16.378974   17.125682   20.188293

 Total Charge           Charge          ....    0
 Multiplicity           Mult            ....    1
 Number of Electrons    NEL             ....  154
 Basis Dimension        Dim             ....  828

ORBITAL ENERGIES
----------------

  NO   OCC          E(Eh)            E(eV)
   0   2.0000     -91.889077     -2500.4289
   1   2.0000     -20.602846      -560.6320
   2   2.0000     -20.599917      -560.5522
   3   2.0000     -20.552795      -559.2700
   4   2.0000     -15.625027      -425.1786
   5   2.0000     -15.611560      -424.8121
   6   2.0000     -11.396625      -310.1179
   7   2.0000     -11.386139      -309.8326
   8   2.0000     -11.325088      -308.1713
   9   2.0000     -11.316581      -307.9398
  10   2.0000     -11.316148      -307.9280
  11   2.0000     -11.303148      -307.5743
  12   2.0000     -11.270597      -306.6885
  13   2.0000     -11.264189      -306.5142
  14   2.0000     -11.263459      -306.4943
  15   2.0000     -11.256401      -306.3022
  16   2.0000     -11.245670      -306.0102
  17   2.0000     -11.242064      -305.9121
  18   2.0000     -11.238948      -305.8273
  19   2.0000     -11.230816      -305.6060
  20   2.0000      -8.894209      -242.0237
  21   2.0000      -6.575803      -178.9367
  22   2.0000      -6.573771      -178.8814
  23   2.0000      -6.573201      -178.8659
  24   2.0000      -1.451572       -39.4993
  25   2.0000      -1.419723       -38.6326
  26   2.0000      -1.361009       -37.0349
  27   2.0000      -1.338889       -36.4330
  28   2.0000      -1.239180       -33.7198
  29   2.0000      -1.161103       -31.5952
  30   2.0000      -1.125409       -30.6239
  31   2.0000      -1.049114       -28.5479
  32   2.0000      -1.040019       -28.3004
  33   2.0000      -1.018620       -27.7181
  34   2.0000      -1.004940       -27.3458
  35   2.0000      -0.988844       -26.9078
  36   2.0000      -0.927795       -25.2466
  37   2.0000      -0.880878       -23.9699
  38   2.0000      -0.854889       -23.2627
  39   2.0000      -0.841251       -22.8916
  40   2.0000      -0.836846       -22.7717
  41   2.0000      -0.836623       -22.7657
  42   2.0000      -0.757662       -20.6170
  43   2.0000      -0.739169       -20.1138
  44   2.0000      -0.731370       -19.9016
  45   2.0000      -0.698294       -19.0015
  46   2.0000      -0.689019       -18.7492
  47   2.0000      -0.682505       -18.5719
  48   2.0000      -0.677252       -18.4290
  49   2.0000      -0.660363       -17.9694
  50   2.0000      -0.658321       -17.9138
  51   2.0000      -0.649301       -17.6684
  52   2.0000      -0.639688       -17.4068
  53   2.0000      -0.612040       -16.6544
  54   2.0000      -0.608419       -16.5559
  55   2.0000      -0.604210       -16.4414
  56   2.0000      -0.599364       -16.3095
  57   2.0000      -0.585630       -15.9358
  58   2.0000      -0.577833       -15.7236
  59   2.0000      -0.568349       -15.4656
  60   2.0000      -0.561733       -15.2855
  61   2.0000      -0.555316       -15.1109
  62   2.0000      -0.550548       -14.9812
  63   2.0000      -0.528386       -14.3781
  64   2.0000      -0.519031       -14.1235
  65   2.0000      -0.514819       -14.0089
  66   2.0000      -0.505643       -13.7592
  67   2.0000      -0.502045       -13.6613
  68   2.0000      -0.488180       -13.2841
  69   2.0000      -0.469723       -12.7818
  70   2.0000      -0.453986       -12.3536
  71   2.0000      -0.451428       -12.2840
  72   2.0000      -0.355937        -9.6855
  73   2.0000      -0.351543        -9.5660
  74   2.0000      -0.328893        -8.9496
  75   2.0000      -0.324079        -8.8186
  76   2.0000      -0.317412        -8.6372
  77   0.0000       0.089509         2.4357
  78   0.0000       0.103573         2.8184
  79   0.0000       0.108528         2.9532
  80   0.0000       0.126867         3.4522
  81   0.0000       0.131337         3.5739

MULLIKEN ATOMIC CHARGES
-----------------------
   0 C :   -0.261475
   1 C :    0.000938
   2 O :   -0.301702
   3 C :    0.386634
   4 O :   -0.374798
   5 C :   -0.165907
   6 C :    0.126110
   7 C :   -0.327531
   8 N :   -0.135718
   9 C :    0.206587
  10 S :   -0.442930
  11 N :   -0.215633
  12 C :    0.064242
  13 C :    0.036236
  14 C :   -0.187745
  15 C :   -0.127653
  16 C :   -0.281223
  17 C :    0.313271
  18 O :   -0.359664
  19 C :   -0.284571
  20 H :    0.109516
  21 H :    0.104680
  22 H :    0.088257
  23 H :    0.102138
  24 H :    0.103048
  25 H :    0.122276
  26 H :    0.137133
  27 H :    0.123449
  28 H :    0.195340
  29 H :    0.198880
  30 H :    0.165280
  31 H :    0.163545
  32 H :    0.163146
  33 H :    0.133126
  34 H :    0.241913
  35 H :    0.180805
Sum of atomic charges:   -0.0000000

LOEWDIN ATOMIC CHARGES
----------------------
   0 C :    0.112926
   1 C :   -0.028255
   2 O :    0.318858
   3 C :   -0.420402
   4 O :    0.130034
   5 C :   -0.080332
   6 C :   -0.109720
   7 C :    0.123504
   8 N :    0.400027
   9 C :   -0.455206
  10 S :   -0.039483
  11 N :    0.397329
  12 C :   -0.042930
  13 C :   -0.041235
  14 C :    0.025060
  15 C :    0.046337
  16 C :   -0.000465
  17 C :   -0.193875
  18 O :    0.394677
  19 C :    0.027326
  20 H :   -0.022270
  21 H :   -0.025704
  22 H :   -0.025227
  23 H :   -0.037942
  24 H :   -0.037809
  25 H :   -0.009930
  26 H :   -0.010014
  27 H :   -0.016728
  28 H :   -0.058823
  29 H :   -0.063674
  30 H :   -0.002311
  31 H :   -0.022273
  32 H :   -0.018535
  33 H :   -0.034893
  34 H :   -0.152965
  35 H :   -0.025074

  Mayer bond orders larger than 0.100000
B(  0-C ,  1-C ) :   0.9833 B(  0-C , 20-H ) :   0.9749 B(  0-C , 21-H ) :   0.9801
B(  0-C , 22-H ) :   0.9764 B(  1-C ,  2-O ) :   0.9180 B(  1-C , 23-H ) :   0.9753
B(  1-C , 24-H ) :   0.9590 B(  2-O ,  3-C ) :   1.1561 B(  3-C ,  4-O ) :   2.0966
B(  3-C ,  5-C ) :   0.9182 B(  5-C ,  6-C ) :   1.6999 B(  5-C , 12-C ) :   0.9642
B(  6-C ,  7-C ) :   0.9403 B(  6-C ,  8-N ) :   1.1094 B(  7-C , 25-H ) :   0.9825
B(  7-C , 26-H ) :   0.9712 B(  7-C , 27-H ) :   0.9658 B(  8-N ,  9-C ) :   1.1986
B(  8-N , 28-H ) :   0.9531 B(  9-C , 10-S ) :   1.6092 B(  9-C , 11-N ) :   1.2854
B( 11-N , 12-C ) :   0.9972 B( 11-N , 29-H ) :   0.9484 B( 12-C , 13-C ) :   0.9444
B( 12-C , 30-H ) :   0.9974 B( 13-C , 14-C ) :   1.3871 B( 13-C , 19-C ) :   1.3396
B( 14-C , 15-C ) :   1.3980 B( 14-C , 31-H ) :   0.9632 B( 15-C , 16-C ) :   1.3612
B( 15-C , 32-H ) :   0.9703 B( 16-C , 17-C ) :   1.3298 B( 16-C , 33-H ) :   0.9845
B( 17-C , 18-O ) :   1.1071 B( 17-C , 19-C ) :   1.3676 B( 18-O , 34-H ) :   0.9791
B( 19-C , 35-H ) :   0.9556

MP2 TOTAL ENERGY:    -1274.327550237 Eh
FINAL SINGLE POINT ENERGY     -1274.327550237190

DIPOLE MOMENT
-------------
                                X             Y             Z
Electronic contribution:     10.59107       8.11153       6.37299
Nuclear contribution   :    -12.15342      -9.16441      -6.92504
                        -----------------------------------------
Total Dipole Moment    :     -1.56236      -1.05288      -0.55205
                        -----------------------------------------
Magnitude (a.u.)       :      1.96323
Magnitude (Debye)      :      4.99015

Rotational constants in cm-1:     0.012611     0.008981     0.006907
Rotational constants in MHz :   378.059656   269.234385   207.071877

                             ****ORCA TERMINATED NORMALLY****
TOTAL RUN TIME: 0 days 1 hours 47 minutes 41 seconds 980 msec
