                         Program Version 4.2.0 -  RELEASE  -
|  1> ! ri-mp2 cc-pvtz cc-pvtz/c TightSCF  NoKeepInts
|  2>
|  3> %scf
|  4>   MaxCore 4096
|  5> end
|  6> *xyz  0  1
|  7>     C       15.2574086   14.3142901   17.2070905
|  8>     C       15.3526418   15.6047700   16.3685402
|  9>     O       16.6304990   15.6626655   15.6994774
| 10>     C       17.7866161   15.6991705   16.4275828
| 11>     O       18.4956547   14.7133136   16.5204652
| 12>     C       17.9324975   16.8819787   17.3396098
| 13>     C       17.4844389   18.1280129   17.0414074
| 14>     C       16.8145969   18.5899049   15.7629743
| 15>     N       17.7169533   19.1817440   17.9298867
| 16>     C       18.5092957   19.1044037   19.0448070
| 17>     S       18.8178023   20.4286244   19.9858621
| 18>     N       19.0338121   17.8711817   19.3396047
| 19>     C       18.6937748   16.6164270   18.6418452
| 20>     C       17.8995633   15.6931246   19.5593205
| 21>     C       18.3149936   14.3646131   19.7640500
| 22>     C       17.5774687   13.5040110   20.5942314
| 23>     C       16.4129641   13.9745437   21.2246127
| 24>     C       15.9941039   15.2961743   21.0205128
| 25>     O       14.8635724   15.7503306   21.6173521
| 26>     C       16.7302316   16.1509296   20.1941174
| 27>     H       15.9953056   14.3024072   18.0161142
| 28>     H       15.4297473   13.4327150   16.5768591
| 29>     H       14.2625630   14.2224824   17.6591097
| 30>     H       14.5512774   15.6077958   15.6184570
| 31>     H       15.2086046   16.4738226   17.0227824
| 32>     H       17.1869050   18.0342597   14.8930158
| 33>     H       17.0112807   19.6498246   15.5584384
| 34>     H       15.7278050   18.4569508   15.8115852
| 35>     H       17.3501471   20.0979730   17.7256253
| 36>     H       19.5949124   17.8368386   20.1812968
| 37>     H       19.6366734   16.1137249   18.3808379
| 38>     H       19.2039009   13.9920193   19.2599731
| 39>     H       17.9059423   12.4761826   20.7389338
| 40>     H       15.8387117   13.3114933   21.8632190
| 41>     H       14.5346105   15.0423963   22.1918972
| 42>     H       16.3897241   17.1709002   20.0525048
| 43> *
| 44>
| 45>                          ****END OF INPUT****

CARTESIAN COORDINATES (ANGSTROEM)
---------------------------------
  C     15.257409   14.314290   17.207090
  C     15.352642   15.604770   16.368540
  O     16.630499   15.662665   15.699477
  C     17.786616   15.699170   16.427583
  O     18.495655   14.713314   16.520465
  C     17.932498   16.881979   17.339610
  C     17.484439   18.128013   17.041407
  C     16.814597   18.589905   15.762974
  N     17.716953   19.181744   17.929887
  C     18.509296   19.104404   19.044807
  S     18.817802   20.428624   19.985862
  N     19.033812   17.871182   19.339605
  C     18.693775   16.616427   18.641845
  C     17.899563   15.693125   19.559320
  C     18.314994   14.364613   19.764050
  C     17.577469   13.504011   20.594231
  C     16.412964   13.974544   21.224613
  C     15.994104   15.296174   21.020513
  O     14.863572   15.750331   21.617352
  C     16.730232   16.150930   20.194117
  H     15.995306   14.302407   18.016114
  H     15.429747   13.432715   16.576859
  H     14.262563   14.222482   17.659110
  H     14.551277   15.607796   15.618457
  H     15.208605   16.473823   17.022782
  H     17.186905   18.034260   14.893016
  H     17.011281   19.649825   15.558438
  H     15.727805   18.456951   15.811585
  H     17.350147   20.097973   17.725625
  H     19.594912   17.836839   20.181297
  H     19.636673   16.113725   18.380838
  H     19.203901   13.992019   19.259973
  H     17.905942   12.476183   20.738934
  H     15.838712   13.311493   21.863219
  H     14.534610   15.042396   22.191897
  H     16.389724   17.170900   20.052505

 Total Charge           Charge          ....    0
 Multiplicity           Mult            ....    1
 Number of Electrons    NEL             ....  154
 Basis Dimension        Dim             ....  828

ORBITAL ENERGIES
----------------

  NO   OCC          E(Eh)            E(eV)
   0   2.0000     -91.890975     -2500.4806
   1   2.0000     -20.598491      -560.5134
   2   2.0000     -20.587826      -560.2232
   3   2.0000     -20.553485      -559.2888
   4   2.0000     -15.630898      -425.3384
   5   2.0000     -15.610360      -424.7795
   6   2.0000     -11.395539      -310.0884
   7   2.0000     -11.386570      -309.8443
   8   2.0000     -11.337812      -308.5176
   9   2.0000     -11.315049      -307.8981
  10   2.0000     -11.310324      -307.7696
  11   2.0000     -11.305966      -307.6510
  12   2.0000     -11.264510      -306.5229
  13   2.0000     -11.263292      -306.4898
  14   2.0000     -11.260373      -306.4103
  15   2.0000     -11.255088      -306.2665
  16   2.0000     -11.244641      -305.9822
  17   2.0000     -11.240546      -305.8708
  18   2.0000     -11.237508      -305.7881
  19   2.0000     -11.222946      -305.3919
  20   2.0000      -8.896050      -242.0738
  21   2.0000      -6.577626      -178.9863
  22   2.0000      -6.575615      -178.9316
  23   2.0000      -6.575029      -178.9156
  24   2.0000      -1.447820       -39.3972
  25   2.0000      -1.418261       -38.5928
  26   2.0000      -1.358119       -36.9563
  27   2.0000      -1.342517       -36.5317
  28   2.0000      -1.240614       -33.7588
  29   2.0000      -1.159354       -31.5476
  30   2.0000      -1.123671       -30.5766
  31   2.0000      -1.046680       -28.4816
  32   2.0000      -1.031980       -28.0816
  33   2.0000      -1.016798       -27.6685
  34   2.0000      -1.003637       -27.3103
  35   2.0000      -0.988265       -26.8921
  36   2.0000      -0.926660       -25.2157
  37   2.0000      -0.889315       -24.1995
  38   2.0000      -0.853753       -23.2318
  39   2.0000      -0.841701       -22.9039
  40   2.0000      -0.835178       -22.7263
  41   2.0000      -0.829876       -22.5821
  42   2.0000      -0.746246       -20.3064
  43   2.0000      -0.734264       -19.9803
  44   2.0000      -0.729973       -19.8636
  45   2.0000      -0.696627       -18.9562
  46   2.0000      -0.687121       -18.6975
  47   2.0000      -0.680706       -18.5230
  48   2.0000      -0.676672       -18.4132
  49   2.0000      -0.664189       -18.0735
  50   2.0000      -0.653259       -17.7761
  51   2.0000      -0.649008       -17.6604
  52   2.0000      -0.639291       -17.3960
  53   2.0000      -0.617230       -16.7957
  54   2.0000      -0.607644       -16.5348
  55   2.0000      -0.605207       -16.4685
  56   2.0000      -0.601193       -16.3593
  57   2.0000      -0.581718       -15.8293
  58   2.0000      -0.576115       -15.6769
  59   2.0000      -0.567849       -15.4520
  60   2.0000      -0.556279       -15.1371
  61   2.0000      -0.551028       -14.9942
  62   2.0000      -0.540742       -14.7143
  63   2.0000      -0.529657       -14.4127
  64   2.0000      -0.521159       -14.1814
  65   2.0000      -0.512970       -13.9586
  66   2.0000      -0.501597       -13.6491
  67   2.0000      -0.490569       -13.3491
  68   2.0000      -0.486848       -13.2478
  69   2.0000      -0.468392       -12.7456
  70   2.0000      -0.459721       -12.5097
  71   2.0000      -0.448324       -12.1995
  72   2.0000      -0.358265        -9.7489
  73   2.0000      -0.350950        -9.5498
  74   2.0000      -0.330312        -8.9883
  75   2.0000      -0.322701        -8.7811
  76   2.0000      -0.318902        -8.6778
  77   0.0000       0.071487         1.9453
  78   0.0000       0.103604         2.8192
  79   0.0000       0.117816         3.2059
  80   0.0000       0.129574         3.5259
  81   0.0000       0.137076         3.7300

MULLIKEN ATOMIC CHARGES
-----------------------
   0 C :   -0.278000
   1 C :    0.013786
   2 O :   -0.362684
   3 C :    0.451307
   4 O :   -0.385208
   5 C :   -0.232580
   6 C :    0.154749
   7 C :   -0.302244
   8 N :   -0.126867
   9 C :    0.199153
  10 S :   -0.437485
  11 N :   -0.200319
  12 C :    0.057333
  13 C :    0.008644
  14 C :   -0.159377
  15 C :   -0.134095
  16 C :   -0.273357
  17 C :    0.305424
  18 O :   -0.359847
  19 C :   -0.254191
  20 H :    0.107732
  21 H :    0.111973
  22 H :    0.095037
  23 H :    0.121401
  24 H :    0.086273
  25 H :    0.140012
  26 H :    0.116617
  27 H :    0.120827
  28 H :    0.197503
  29 H :    0.194819
  30 H :    0.157955
  31 H :    0.159956
  32 H :    0.161702
  33 H :    0.131952
  34 H :    0.241549
  35 H :    0.170547
Sum of atomic charges:   -0.0000000

LOEWDIN ATOMIC CHARGES
----------------------
   0 C :    0.111353
   1 C :   -0.023420
   2 O :    0.288860
   3 C :   -0.419405
   4 O :    0.129321
   5 C :   -0.092683
   6 C :   -0.077423
   7 C :    0.127713
   8 N :    0.404255
   9 C :   -0.458798
  10 S :   -0.034369
  11 N :    0.397595
  12 C :   -0.046099
  13 C :   -0.044593
  14 C :    0.021322
  15 C :    0.043498
  16 C :   -0.000452
  17 C :   -0.193014
  18 O :    0.394411
  19 C :    0.027617
  20 H :   -0.026416
  21 H :   -0.022346
  22 H :   -0.026311
  23 H :   -0.022150
  24 H :   -0.040748
  25 H :   -0.006090
  26 H :   -0.016101
  27 H :   -0.014978
  28 H :   -0.057844
  29 H :   -0.063358
  30 H :   -0.003613
  31 H :   -0.023308
  32 H :   -0.019309
  33 H :   -0.034903
  34 H :   -0.153283
  35 H :   -0.024933

  Mayer bond orders larger than 0.100000
B(  0-C ,  1-C ) :   0.9799 B(  0-C , 20-H ) :   0.9666 B(  0-C , 21-H ) :   0.9775
B(  0-C , 22-H ) :   0.9760 B(  1-C ,  2-O ) :   0.8971 B(  1-C , 23-H ) :   0.9789
B(  1-C , 24-H ) :   0.9680 B(  2-O ,  3-C ) :   1.1172 B(  3-C ,  4-O ) :   2.0706
B(  3-C ,  5-C ) :   0.9760 B(  5-C ,  6-C ) :   1.6660 B(  5-C , 12-C ) :   0.9637
B(  6-C ,  7-C ) :   0.9456 B(  6-C ,  8-N ) :   1.1385 B(  7-C , 25-H ) :   0.9685
B(  7-C , 26-H ) :   0.9852 B(  7-C , 27-H ) :   0.9649 B(  8-N ,  9-C ) :   1.1832
B(  8-N , 28-H ) :   0.9498 B(  9-C , 10-S ) :   1.6136 B(  9-C , 11-N ) :   1.2990
B( 11-N , 12-C ) :   0.9958 B( 11-N , 29-H ) :   0.9518 B( 12-C , 13-C ) :   0.9424
B( 12-C , 30-H ) :   0.9978 B( 13-C , 14-C ) :   1.3847 B( 13-C , 19-C ) :   1.3661
B( 14-C , 15-C ) :   1.3922 B( 14-C , 31-H ) :   0.9631 B( 15-C , 16-C ) :   1.3637
B( 15-C , 32-H ) :   0.9714 B( 16-C , 17-C ) :   1.3315 B( 16-C , 33-H ) :   0.9845
B( 17-C , 18-O ) :   1.1104 B( 17-C , 19-C ) :   1.3719 B( 18-O , 34-H ) :   0.9794
B( 19-C , 35-H ) :   0.9574

MP2 TOTAL ENERGY:    -1274.334518757 Eh
FINAL SINGLE POINT ENERGY     -1274.334518756969

DIPOLE MOMENT
-------------
                                X             Y             Z
Electronic contribution:      9.88522       8.38957       5.64596
Nuclear contribution   :    -11.37623      -9.28493      -6.02142
                        -----------------------------------------
Total Dipole Moment    :     -1.49101      -0.89536      -0.37546
                        -----------------------------------------
Magnitude (a.u.)       :      1.77925
Magnitude (Debye)      :      4.52250

Rotational constants in cm-1:     0.012072     0.009443     0.006787
Rotational constants in MHz :   361.906270   283.108473   203.478391

                             ****ORCA TERMINATED NORMALLY****
TOTAL RUN TIME: 0 days 1 hours 48 minutes 53 seconds 664 msec
