                         Program Version 4.2.0 -  RELEASE  -
|  1> ! ri-mp2 cc-pvtz cc-pvtz/c TightSCF  NoKeepInts
|  2>
|  3> %scf
|  4>   MaxCore 4096
|  5> end
|  6> *xyz  0  1
|  7>     C       14.9273712   15.4522171   17.1450009
|  8>     C       15.7981891   14.8094704   16.0485888
|  9>     O       16.8233234   15.7201801   15.6020004
| 10>     C       17.9631420   15.8439483   16.3442560
| 11>     O       18.6906925   14.8776003   16.4924107
| 12>     C       17.9100893   16.9370078   17.3708063
| 13>     C       17.2985945   18.1293198   17.1579154
| 14>     C       16.5987461   18.5920308   15.8963748
| 15>     N       17.3808948   19.1342959   18.1265029
| 16>     C       18.2106021   19.0982365   19.2166220
| 17>     S       18.3690644   20.3918952   20.2344623
| 18>     N       18.9037245   17.9308752   19.4194722
| 19>     C       18.6742407   16.6765677   18.6757738
| 20>     C       17.9610131   15.6476000   19.5527193
| 21>     C       18.3898835   14.3072062   19.5631629
| 22>     C       17.7379516   13.3496336   20.3577468
| 23>     C       16.6461126   13.7336418   21.1539839
| 24>     C       16.2154489   15.0668599   21.1499736
| 25>     O       15.1559962   15.4398315   21.9109970
| 26>     C       16.8666056   16.0178477   20.3579897
| 27>     H       15.5166970   15.6881602   18.0352427
| 28>     H       14.1332115   14.7596702   17.4493430
| 29>     H       14.4511994   16.3701808   16.7831620
| 30>     H       16.2473176   13.8776868   16.4200311
| 31>     H       15.1552534   14.5524048   15.1970058
| 32>     H       15.5846306   18.1823247   15.8345672
| 33>     H       17.1453425   18.2678453   15.0019103
| 34>     H       16.5207319   19.6846978   15.8396894
| 35>     H       16.8844588   20.0005655   17.9906634
| 36>     H       19.4917392   17.9216778   20.2431309
| 37>     H       19.6598296   16.2671338   18.4100430
| 38>     H       19.2272278   14.0028505   18.9391346
| 39>     H       18.0785666   12.3156939   20.3502819
| 40>     H       16.1384211   12.9968949   21.7676359
| 41>     H       14.8791199   14.6652611   22.4232345
| 42>     H       16.5115671   17.0426863   20.3721647
| 43> *
| 44>
| 45>                          ****END OF INPUT****

CARTESIAN COORDINATES (ANGSTROEM)
---------------------------------
  C     14.927371   15.452217   17.145001
  C     15.798189   14.809470   16.048589
  O     16.823323   15.720180   15.602000
  C     17.963142   15.843948   16.344256
  O     18.690693   14.877600   16.492411
  C     17.910089   16.937008   17.370806
  C     17.298595   18.129320   17.157915
  C     16.598746   18.592031   15.896375
  N     17.380895   19.134296   18.126503
  C     18.210602   19.098236   19.216622
  S     18.369064   20.391895   20.234462
  N     18.903724   17.930875   19.419472
  C     18.674241   16.676568   18.675774
  C     17.961013   15.647600   19.552719
  C     18.389883   14.307206   19.563163
  C     17.737952   13.349634   20.357747
  C     16.646113   13.733642   21.153984
  C     16.215449   15.066860   21.149974
  O     15.155996   15.439831   21.910997
  C     16.866606   16.017848   20.357990
  H     15.516697   15.688160   18.035243
  H     14.133211   14.759670   17.449343
  H     14.451199   16.370181   16.783162
  H     16.247318   13.877687   16.420031
  H     15.155253   14.552405   15.197006
  H     15.584631   18.182325   15.834567
  H     17.145343   18.267845   15.001910
  H     16.520732   19.684698   15.839689
  H     16.884459   20.000566   17.990663
  H     19.491739   17.921678   20.243131
  H     19.659830   16.267134   18.410043
  H     19.227228   14.002850   18.939135
  H     18.078567   12.315694   20.350282
  H     16.138421   12.996895   21.767636
  H     14.879120   14.665261   22.423234
  H     16.511567   17.042686   20.372165

 Total Charge           Charge          ....    0
 Multiplicity           Mult            ....    1
 Number of Electrons    NEL             ....  154
 Basis Dimension        Dim             ....  828

ORBITAL ENERGIES
----------------

  NO   OCC          E(Eh)            E(eV)
   0   2.0000     -91.890669     -2500.4722
   1   2.0000     -20.595846      -560.4415
   2   2.0000     -20.582793      -560.0863
   3   2.0000     -20.554982      -559.3295
   4   2.0000     -15.630499      -425.3275
   5   2.0000     -15.609415      -424.7538
   6   2.0000     -11.395208      -310.0794
   7   2.0000     -11.385796      -309.8233
   8   2.0000     -11.336046      -308.4695
   9   2.0000     -11.312332      -307.8242
  10   2.0000     -11.310221      -307.7668
  11   2.0000     -11.301831      -307.5385
  12   2.0000     -11.261760      -306.4481
  13   2.0000     -11.261260      -306.4345
  14   2.0000     -11.259104      -306.3758
  15   2.0000     -11.252583      -306.1984
  16   2.0000     -11.242015      -305.9108
  17   2.0000     -11.237954      -305.8003
  18   2.0000     -11.234410      -305.7038
  19   2.0000     -11.227326      -305.5111
  20   2.0000      -8.895721      -242.0649
  21   2.0000      -6.577296      -178.9773
  22   2.0000      -6.575289      -178.9227
  23   2.0000      -6.574699      -178.9067
  24   2.0000      -1.450547       -39.4714
  25   2.0000      -1.415672       -38.5224
  26   2.0000      -1.355131       -36.8750
  27   2.0000      -1.341563       -36.5058
  28   2.0000      -1.239348       -33.7244
  29   2.0000      -1.156339       -31.4656
  30   2.0000      -1.122090       -30.5336
  31   2.0000      -1.044601       -28.4251
  32   2.0000      -1.033118       -28.1126
  33   2.0000      -1.014430       -27.6041
  34   2.0000      -1.000930       -27.2367
  35   2.0000      -0.987772       -26.8786
  36   2.0000      -0.924796       -25.1650
  37   2.0000      -0.891031       -24.2462
  38   2.0000      -0.849724       -23.1222
  39   2.0000      -0.839658       -22.8483
  40   2.0000      -0.832579       -22.6556
  41   2.0000      -0.820561       -22.3286
  42   2.0000      -0.753697       -20.5091
  43   2.0000      -0.735156       -20.0046
  44   2.0000      -0.728497       -19.8234
  45   2.0000      -0.694708       -18.9040
  46   2.0000      -0.687048       -18.6955
  47   2.0000      -0.676111       -18.3979
  48   2.0000      -0.675217       -18.3736
  49   2.0000      -0.661152       -17.9909
  50   2.0000      -0.653614       -17.7857
  51   2.0000      -0.646496       -17.5921
  52   2.0000      -0.638393       -17.3716
  53   2.0000      -0.608812       -16.5666
  54   2.0000      -0.603278       -16.4160
  55   2.0000      -0.600112       -16.3299
  56   2.0000      -0.595634       -16.2080
  57   2.0000      -0.585896       -15.9431
  58   2.0000      -0.575085       -15.6489
  59   2.0000      -0.567029       -15.4296
  60   2.0000      -0.562467       -15.3055
  61   2.0000      -0.551513       -15.0074
  62   2.0000      -0.546365       -14.8674
  63   2.0000      -0.523507       -14.2453
  64   2.0000      -0.519628       -14.1398
  65   2.0000      -0.513124       -13.9628
  66   2.0000      -0.500304       -13.6140
  67   2.0000      -0.494061       -13.4441
  68   2.0000      -0.482149       -13.1199
  69   2.0000      -0.464318       -12.6347
  70   2.0000      -0.456842       -12.4313
  71   2.0000      -0.452286       -12.3073
  72   2.0000      -0.356283        -9.6950
  73   2.0000      -0.347413        -9.4536
  74   2.0000      -0.329815        -8.9747
  75   2.0000      -0.320523        -8.7219
  76   2.0000      -0.317582        -8.6418
  77   0.0000       0.068676         1.8688
  78   0.0000       0.106079         2.8866
  79   0.0000       0.119915         3.2630
  80   0.0000       0.132358         3.6017
  81   0.0000       0.133501         3.6327

MULLIKEN ATOMIC CHARGES
-----------------------
   0 C :   -0.321333
   1 C :    0.043918
   2 O :   -0.380825
   3 C :    0.484222
   4 O :   -0.400611
   5 C :   -0.244102
   6 C :    0.174221
   7 C :   -0.285114
   8 N :   -0.126633
   9 C :    0.187917
  10 S :   -0.434809
  11 N :   -0.206112
  12 C :    0.061522
  13 C :    0.038866
  14 C :   -0.192106
  15 C :   -0.137813
  16 C :   -0.275640
  17 C :    0.320837
  18 O :   -0.358487
  19 C :   -0.282772
  20 H :    0.118733
  21 H :    0.117276
  22 H :    0.092343
  23 H :    0.106035
  24 H :    0.110505
  25 H :    0.123145
  26 H :    0.127958
  27 H :    0.107473
  28 H :    0.197994
  29 H :    0.195635
  30 H :    0.160244
  31 H :    0.168733
  32 H :    0.162597
  33 H :    0.131176
  34 H :    0.240370
  35 H :    0.174641
Sum of atomic charges:   -0.0000000

LOEWDIN ATOMIC CHARGES
----------------------
   0 C :    0.106499
   1 C :   -0.015019
   2 O :    0.281545
   3 C :   -0.415735
   4 O :    0.128929
   5 C :   -0.093593
   6 C :   -0.069967
   7 C :    0.127254
   8 N :    0.405782
   9 C :   -0.459605
  10 S :   -0.033842
  11 N :    0.397034
  12 C :   -0.044498
  13 C :   -0.041601
  14 C :    0.020240
  15 C :    0.041326
  16 C :   -0.002140
  17 C :   -0.193773
  18 O :    0.394775
  19 C :    0.027871
  20 H :   -0.032187
  21 H :   -0.022571
  22 H :   -0.034053
  23 H :   -0.026460
  24 H :   -0.022891
  25 H :   -0.014397
  26 H :   -0.006761
  27 H :   -0.018732
  28 H :   -0.058354
  29 H :   -0.063935
  30 H :   -0.002960
  31 H :   -0.023668
  32 H :   -0.019922
  33 H :   -0.035550
  34 H :   -0.154023
  35 H :   -0.025020

  Mayer bond orders larger than 0.100000
B(  0-C ,  1-C ) :   0.9625 B(  0-C , 20-H ) :   0.9676 B(  0-C , 21-H ) :   0.9792
B(  0-C , 22-H ) :   0.9785 B(  1-C ,  2-O ) :   0.8920 B(  1-C , 23-H ) :   0.9760
B(  1-C , 24-H ) :   0.9843 B(  2-O ,  3-C ) :   1.0938 B(  3-C ,  4-O ) :   2.0242
B(  3-C ,  5-C ) :   1.0189 B(  5-C ,  6-C ) :   1.6571 B(  5-C , 12-C ) :   0.9549
B(  6-C ,  7-C ) :   0.9534 B(  6-C ,  8-N ) :   1.1371 B(  7-C , 25-H ) :   0.9637
B(  7-C , 26-H ) :   0.9684 B(  7-C , 27-H ) :   0.9880 B(  8-N ,  9-C ) :   1.1815
B(  8-N , 28-H ) :   0.9496 B(  9-C , 10-S ) :   1.6167 B(  9-C , 11-N ) :   1.2958
B( 11-N , 12-C ) :   0.9837 B( 11-N , 29-H ) :   0.9515 B( 12-C , 13-C ) :   0.9509
B( 12-C , 30-H ) :   0.9978 B( 13-C , 14-C ) :   1.3858 B( 13-C , 19-C ) :   1.3457
B( 14-C , 15-C ) :   1.3986 B( 14-C , 31-H ) :   0.9586 B( 15-C , 16-C ) :   1.3615
B( 15-C , 32-H ) :   0.9705 B( 16-C , 17-C ) :   1.3313 B( 16-C , 33-H ) :   0.9847
B( 17-C , 18-O ) :   1.1108 B( 17-C , 19-C ) :   1.3715 B( 18-O , 34-H ) :   0.9802
B( 19-C , 35-H ) :   0.9600

MP2 TOTAL ENERGY:    -1274.325423284 Eh
FINAL SINGLE POINT ENERGY     -1274.325423283649

DIPOLE MOMENT
-------------
                                X             Y             Z
Electronic contribution:      9.98915       7.43496       6.42731
Nuclear contribution   :    -11.28971      -8.66783      -7.08598
                        -----------------------------------------
Total Dipole Moment    :     -1.30056      -1.23287      -0.65868
                        -----------------------------------------
Magnitude (a.u.)       :      1.90926
Magnitude (Debye)      :      4.85296

Rotational constants in cm-1:     0.011410     0.009849     0.006800
Rotational constants in MHz :   342.057076   295.265093   203.856145

                             ****ORCA TERMINATED NORMALLY****
TOTAL RUN TIME: 0 days 1 hours 56 minutes 46 seconds 92 msec
