                         Program Version 4.2.0 -  RELEASE  -
|  1> ! ri-mp2 cc-pvtz cc-pvtz/c TightSCF  NoKeepInts
|  2>
|  3> %scf
|  4>   MaxCore 4096
|  5> end
|  6> *xyz  0  1
|  7>     C       14.6531213   14.2045945   15.9803865
|  8>     C       15.5796183   15.0180685   16.8986041
|  9>     O       16.5930181   15.6140030   16.0704512
| 10>     C       17.8502221   15.6790640   16.5895054
| 11>     O       18.4732998   14.6561961   16.8156689
| 12>     C       18.0351933   16.9040385   17.4310155
| 13>     C       17.5544853   18.1243826   17.0881877
| 14>     C       16.8087691   18.4900376   15.8220956
| 15>     N       17.7968167   19.2244706   17.9159327
| 16>     C       18.6074475   19.2065275   19.0210176
| 17>     S       18.9245972   20.5774977   19.8897510
| 18>     N       19.1409669   17.9911303   19.3719901
| 19>     C       18.7985930   16.7015032   18.7417533
| 20>     C       17.9855026   15.8332742   19.6980644
| 21>     C       18.4003127   14.5233863   20.0003740
| 22>     C       17.6405933   13.7116466   20.8592224
| 23>     C       16.4536143   14.2124399   21.4203747
| 24>     C       16.0345110   15.5150091   21.1184147
| 25>     O       14.8823205   15.9977280   21.6475941
| 26>     C       16.7923923   16.3203932   20.2627641
| 27>     H       15.2198360   13.4232557   15.4582179
| 28>     H       14.1838083   14.8526860   15.2300330
| 29>     H       13.8601450   13.7213741   16.5638834
| 30>     H       15.0161743   15.7932662   17.4341014
| 31>     H       16.0261754   14.3402280   17.6405719
| 32>     H       17.2292862   17.9690330   14.9526771
| 33>     H       16.8569550   19.5640540   15.6044718
| 34>     H       15.7510936   18.2092969   15.8997724
| 35>     H       17.4161730   20.1256905   17.6741863
| 36>     H       19.7119606   18.0020949   20.2075012
| 37>     H       19.7380751   16.1793729   18.5088653
| 38>     H       19.3066918   14.1259298   19.5496231
| 39>     H       17.9699238   12.6977172   21.0799501
| 40>     H       15.8625899   13.5873607   22.0816101
| 41>     H       14.5420403   15.3289092   22.2610989
| 42>     H       16.4506763   17.3263393   20.0442681
| 43> *
| 44>
| 45>                          ****END OF INPUT****

CARTESIAN COORDINATES (ANGSTROEM)
---------------------------------
  C     14.653121   14.204595   15.980386
  C     15.579618   15.018069   16.898604
  O     16.593018   15.614003   16.070451
  C     17.850222   15.679064   16.589505
  O     18.473300   14.656196   16.815669
  C     18.035193   16.904038   17.431015
  C     17.554485   18.124383   17.088188
  C     16.808769   18.490038   15.822096
  N     17.796817   19.224471   17.915933
  C     18.607447   19.206527   19.021018
  S     18.924597   20.577498   19.889751
  N     19.140967   17.991130   19.371990
  C     18.798593   16.701503   18.741753
  C     17.985503   15.833274   19.698064
  C     18.400313   14.523386   20.000374
  C     17.640593   13.711647   20.859222
  C     16.453614   14.212440   21.420375
  C     16.034511   15.515009   21.118415
  O     14.882321   15.997728   21.647594
  C     16.792392   16.320393   20.262764
  H     15.219836   13.423256   15.458218
  H     14.183808   14.852686   15.230033
  H     13.860145   13.721374   16.563883
  H     15.016174   15.793266   17.434101
  H     16.026175   14.340228   17.640572
  H     17.229286   17.969033   14.952677
  H     16.856955   19.564054   15.604472
  H     15.751094   18.209297   15.899772
  H     17.416173   20.125691   17.674186
  H     19.711961   18.002095   20.207501
  H     19.738075   16.179373   18.508865
  H     19.306692   14.125930   19.549623
  H     17.969924   12.697717   21.079950
  H     15.862590   13.587361   22.081610
  H     14.542040   15.328909   22.261099
  H     16.450676   17.326339   20.044268

 Total Charge           Charge          ....    0
 Multiplicity           Mult            ....    1
 Number of Electrons    NEL             ....  154
 Basis Dimension        Dim             ....  828

ORBITAL ENERGIES
----------------

  NO   OCC          E(Eh)            E(eV)
   0   2.0000     -91.889605     -2500.4433
   1   2.0000     -20.597416      -560.4842
   2   2.0000     -20.581381      -560.0478
   3   2.0000     -20.557403      -559.3954
   4   2.0000     -15.629195      -425.2920
   5   2.0000     -15.609219      -424.7485
   6   2.0000     -11.393979      -310.0459
   7   2.0000     -11.385235      -309.8080
   8   2.0000     -11.333608      -308.4032
   9   2.0000     -11.313579      -307.8581
  10   2.0000     -11.309650      -307.7512
  11   2.0000     -11.298747      -307.4545
  12   2.0000     -11.261681      -306.4459
  13   2.0000     -11.259640      -306.3904
  14   2.0000     -11.258959      -306.3719
  15   2.0000     -11.253732      -306.2296
  16   2.0000     -11.243449      -305.9498
  17   2.0000     -11.239119      -305.8320
  18   2.0000     -11.236443      -305.7592
  19   2.0000     -11.227831      -305.5248
  20   2.0000      -8.894681      -242.0366
  21   2.0000      -6.576258      -178.9491
  22   2.0000      -6.574249      -178.8944
  23   2.0000      -6.573664      -178.8785
  24   2.0000      -1.452934       -39.5363
  25   2.0000      -1.417199       -38.5639
  26   2.0000      -1.357167       -36.9304
  27   2.0000      -1.340288       -36.4711
  28   2.0000      -1.238639       -33.7051
  29   2.0000      -1.157769       -31.5045
  30   2.0000      -1.122288       -30.5390
  31   2.0000      -1.045776       -28.4570
  32   2.0000      -1.033674       -28.1277
  33   2.0000      -1.015192       -27.6248
  34   2.0000      -1.000351       -27.2209
  35   2.0000      -0.985735       -26.8232
  36   2.0000      -0.924438       -25.1552
  37   2.0000      -0.878439       -23.9035
  38   2.0000      -0.850086       -23.1320
  39   2.0000      -0.840357       -22.8673
  40   2.0000      -0.833785       -22.6884
  41   2.0000      -0.829913       -22.5831
  42   2.0000      -0.756284       -20.5795
  43   2.0000      -0.735527       -20.0147
  44   2.0000      -0.729576       -19.8528
  45   2.0000      -0.695318       -18.9206
  46   2.0000      -0.687408       -18.7053
  47   2.0000      -0.681039       -18.5320
  48   2.0000      -0.674645       -18.3580
  49   2.0000      -0.660292       -17.9674
  50   2.0000      -0.648676       -17.6514
  51   2.0000      -0.642320       -17.4784
  52   2.0000      -0.634121       -17.2553
  53   2.0000      -0.614898       -16.7322
  54   2.0000      -0.605811       -16.4850
  55   2.0000      -0.604051       -16.4371
  56   2.0000      -0.600907       -16.3515
  57   2.0000      -0.580405       -15.7936
  58   2.0000      -0.577151       -15.7051
  59   2.0000      -0.564455       -15.3596
  60   2.0000      -0.560235       -15.2448
  61   2.0000      -0.551247       -15.0002
  62   2.0000      -0.535846       -14.5811
  63   2.0000      -0.523062       -14.2332
  64   2.0000      -0.513825       -13.9819
  65   2.0000      -0.512121       -13.9355
  66   2.0000      -0.503936       -13.7128
  67   2.0000      -0.498671       -13.5695
  68   2.0000      -0.482861       -13.1393
  69   2.0000      -0.465777       -12.6744
  70   2.0000      -0.458140       -12.4666
  71   2.0000      -0.452974       -12.3260
  72   2.0000      -0.355236        -9.6665
  73   2.0000      -0.349285        -9.5045
  74   2.0000      -0.328942        -8.9510
  75   2.0000      -0.320934        -8.7331
  76   2.0000      -0.316608        -8.6153
  77   0.0000       0.069641         1.8950
  78   0.0000       0.102969         2.8019
  79   0.0000       0.117420         3.1951
  80   0.0000       0.130881         3.5615
  81   0.0000       0.134304         3.6546

MULLIKEN ATOMIC CHARGES
-----------------------
   0 C :   -0.255096
   1 C :    0.034525
   2 O :   -0.376777
   3 C :    0.456203
   4 O :   -0.390487
   5 C :   -0.209162
   6 C :    0.140447
   7 C :   -0.279854
   8 N :   -0.125207
   9 C :    0.202379
  10 S :   -0.438736
  11 N :   -0.201607
  12 C :    0.053128
  13 C :    0.034963
  14 C :   -0.159951
  15 C :   -0.134950
  16 C :   -0.279643
  17 C :    0.310082
  18 O :   -0.359011
  19 C :   -0.275872
  20 H :    0.104980
  21 H :    0.091497
  22 H :    0.087022
  23 H :    0.093137
  24 H :    0.112477
  25 H :    0.125114
  26 H :    0.106616
  27 H :    0.123411
  28 H :    0.197198
  29 H :    0.194228
  30 H :    0.155647
  31 H :    0.158378
  32 H :    0.161728
  33 H :    0.131583
  34 H :    0.241346
  35 H :    0.170266
Sum of atomic charges:   -0.0000000

LOEWDIN ATOMIC CHARGES
----------------------
   0 C :    0.109466
   1 C :   -0.017341
   2 O :    0.288505
   3 C :   -0.421143
   4 O :    0.133515
   5 C :   -0.094445
   6 C :   -0.076483
   7 C :    0.126801
   8 N :    0.404055
   9 C :   -0.457283
  10 S :   -0.035619
  11 N :    0.396936
  12 C :   -0.045496
  13 C :   -0.041688
  14 C :    0.021189
  15 C :    0.041685
  16 C :   -0.002029
  17 C :   -0.194689
  18 O :    0.393547
  19 C :    0.029178
  20 H :   -0.022212
  21 H :   -0.029266
  22 H :   -0.026364
  23 H :   -0.035922
  24 H :   -0.023447
  25 H :   -0.007340
  26 H :   -0.018835
  27 H :   -0.010450
  28 H :   -0.058587
  29 H :   -0.064075
  30 H :   -0.004430
  31 H :   -0.024219
  32 H :   -0.019917
  33 H :   -0.035277
  34 H :   -0.153567
  35 H :   -0.024752

  Mayer bond orders larger than 0.100000
B(  0-C ,  1-C ) :   0.9816 B(  0-C , 20-H ) :   0.9780 B(  0-C , 21-H ) :   0.9803
B(  0-C , 22-H ) :   0.9763 B(  1-C ,  2-O ) :   0.8784 B(  1-C , 23-H ) :   0.9735
B(  1-C , 24-H ) :   0.9691 B(  2-O ,  3-C ) :   1.0959 B(  3-C ,  4-O ) :   2.0456
B(  3-C ,  5-C ) :   1.0097 B(  5-C ,  6-C ) :   1.6667 B(  5-C , 12-C ) :   0.9668
B(  6-C ,  7-C ) :   0.9514 B(  6-C ,  8-N ) :   1.1382 B(  7-C , 25-H ) :   0.9711
B(  7-C , 26-H ) :   0.9869 B(  7-C , 27-H ) :   0.9638 B(  8-N ,  9-C ) :   1.1843
B(  8-N , 28-H ) :   0.9499 B(  9-C , 10-S ) :   1.6121 B(  9-C , 11-N ) :   1.2988
B( 11-N , 12-C ) :   0.9939 B( 11-N , 29-H ) :   0.9518 B( 12-C , 13-C ) :   0.9449
B( 12-C , 30-H ) :   0.9983 B( 13-C , 14-C ) :   1.3795 B( 13-C , 19-C ) :   1.3634
B( 14-C , 15-C ) :   1.3937 B( 14-C , 31-H ) :   0.9631 B( 15-C , 16-C ) :   1.3641
B( 15-C , 32-H ) :   0.9708 B( 16-C , 17-C ) :   1.3298 B( 16-C , 33-H ) :   0.9847
B( 17-C , 18-O ) :   1.1104 B( 17-C , 19-C ) :   1.3741 B( 18-O , 34-H ) :   0.9797
B( 19-C , 35-H ) :   0.9582

MP2 TOTAL ENERGY:    -1274.321930819 Eh
FINAL SINGLE POINT ENERGY     -1274.321930818821

DIPOLE MOMENT
-------------
                                X             Y             Z
Electronic contribution:     11.19383       9.78406       7.66139
Nuclear contribution   :    -12.53238     -10.95230      -8.09919
                        -----------------------------------------
Total Dipole Moment    :     -1.33856      -1.16824      -0.43781
                        -----------------------------------------
Magnitude (a.u.)       :      1.82981
Magnitude (Debye)      :      4.65100

Rotational constants in cm-1:     0.011743     0.009088     0.006558
Rotational constants in MHz :   352.055078   272.461495   196.613520

                             ****ORCA TERMINATED NORMALLY****
TOTAL RUN TIME: 0 days 1 hours 51 minutes 11 seconds 841 msec
