                         Program Version 4.2.0 -  RELEASE  -
|  1> ! ri-mp2 cc-pvtz cc-pvtz/c TightSCF  NoKeepInts
|  2>
|  3> %scf
|  4>   MaxCore 4096
|  5> end
|  6> *xyz  0  1
|  7>     C       15.0649190   14.3549258   16.9146896
|  8>     C       16.4692745   13.9398211   16.4185556
|  9>     O       17.4381339   15.0121645   16.4872497
| 10>     C       17.1014107   16.3280716   16.3283619
| 11>     O       16.3234631   16.6967396   15.4655232
| 12>     C       17.7172532   17.2213651   17.3699408
| 13>     C       17.5479035   18.5680504   17.3648098
| 14>     C       16.7493011   19.3878213   16.3740770
| 15>     N       18.1772406   19.3576086   18.3318913
| 16>     C       19.0709940   18.8952543   19.2605731
| 17>     S       19.8487587   19.9114725   20.3085194
| 18>     N       19.2922698   17.5418176   19.2760846
| 19>     C       18.5524604   16.5509304   18.4733571
| 20>     C       17.6951572   15.6843465   19.3911702
| 21>     C       18.0039368   14.3242187   19.5808391
| 22>     C       17.2107395   13.5208537   20.4171998
| 23>     C       16.1025183   14.0828998   21.0735617
| 24>     C       15.7973243   15.4390326   20.8939568
| 25>     O       14.7280561   15.9846263   21.5260171
| 26>     C       16.5877307   16.2356657   20.0599219
| 27>     H       15.1223795   14.8399071   17.8966072
| 28>     H       14.4253465   13.4699541   17.0149415
| 29>     H       14.5708671   15.0367127   16.2119735
| 30>     H       16.8322313   13.0919126   17.0133501
| 31>     H       16.3812846   13.6020610   15.3776160
| 32>     H       17.1167026   19.2244251   15.3528944
| 33>     H       16.7943396   20.4649696   16.5727702
| 34>     H       15.6927820   19.0910426   16.3923029
| 35>     H       18.0290280   20.3541626   18.3332832
| 36>     H       19.9296427   17.2271574   19.9962041
| 37>     H       19.2964087   15.9077301   17.9825172
| 38>     H       18.8581596   13.8865918   19.0710409
| 39>     H       17.4564092   12.4693938   20.5560854
| 40>     H       15.4872296   13.4668595   21.7211371
| 41>     H       14.3374575   15.2971867   22.0862268
| 42>     H       16.3378860   17.2842473   19.9387499
| 43> *
| 44>
| 45>                          ****END OF INPUT****

CARTESIAN COORDINATES (ANGSTROEM)
---------------------------------
  C     15.064919   14.354926   16.914690
  C     16.469275   13.939821   16.418556
  O     17.438134   15.012165   16.487250
  C     17.101411   16.328072   16.328362
  O     16.323463   16.696740   15.465523
  C     17.717253   17.221365   17.369941
  C     17.547904   18.568050   17.364810
  C     16.749301   19.387821   16.374077
  N     18.177241   19.357609   18.331891
  C     19.070994   18.895254   19.260573
  S     19.848759   19.911472   20.308519
  N     19.292270   17.541818   19.276085
  C     18.552460   16.550930   18.473357
  C     17.695157   15.684346   19.391170
  C     18.003937   14.324219   19.580839
  C     17.210739   13.520854   20.417200
  C     16.102518   14.082900   21.073562
  C     15.797324   15.439033   20.893957
  O     14.728056   15.984626   21.526017
  C     16.587731   16.235666   20.059922
  H     15.122379   14.839907   17.896607
  H     14.425346   13.469954   17.014941
  H     14.570867   15.036713   16.211973
  H     16.832231   13.091913   17.013350
  H     16.381285   13.602061   15.377616
  H     17.116703   19.224425   15.352894
  H     16.794340   20.464970   16.572770
  H     15.692782   19.091043   16.392303
  H     18.029028   20.354163   18.333283
  H     19.929643   17.227157   19.996204
  H     19.296409   15.907730   17.982517
  H     18.858160   13.886592   19.071041
  H     17.456409   12.469394   20.556085
  H     15.487230   13.466859   21.721137
  H     14.337457   15.297187   22.086227
  H     16.337886   17.284247   19.938750

 Total Charge           Charge          ....    0
 Multiplicity           Mult            ....    1
 Number of Electrons    NEL             ....  154
 Basis Dimension        Dim             ....  828

ORBITAL ENERGIES
----------------

  NO   OCC          E(Eh)            E(eV)
   0   2.0000     -91.889530     -2500.4412
   1   2.0000     -20.599412      -560.5385
   2   2.0000     -20.590535      -560.2970
   3   2.0000     -20.542196      -558.9816
   4   2.0000     -15.629731      -425.3066
   5   2.0000     -15.608883      -424.7393
   6   2.0000     -11.394270      -310.0538
   7   2.0000     -11.384598      -309.7907
   8   2.0000     -11.336372      -308.4784
   9   2.0000     -11.316901      -307.9485
  10   2.0000     -11.309742      -307.7537
  11   2.0000     -11.299410      -307.4726
  12   2.0000     -11.262381      -306.4650
  13   2.0000     -11.258706      -306.3650
  14   2.0000     -11.258614      -306.3625
  15   2.0000     -11.252382      -306.1929
  16   2.0000     -11.246315      -306.0278
  17   2.0000     -11.241255      -305.8901
  18   2.0000     -11.241157      -305.8874
  19   2.0000     -11.222120      -305.3694
  20   2.0000      -8.894586      -242.0340
  21   2.0000      -6.576159      -178.9464
  22   2.0000      -6.574156      -178.8919
  23   2.0000      -6.573567      -178.8759
  24   2.0000      -1.444719       -39.3128
  25   2.0000      -1.419132       -38.6166
  26   2.0000      -1.351573       -36.7782
  27   2.0000      -1.340705       -36.4824
  28   2.0000      -1.239270       -33.7222
  29   2.0000      -1.160412       -31.5764
  30   2.0000      -1.120985       -30.5035
  31   2.0000      -1.044518       -28.4228
  32   2.0000      -1.032675       -28.1005
  33   2.0000      -1.018333       -27.7102
  34   2.0000      -0.996587       -27.1185
  35   2.0000      -0.985227       -26.8094
  36   2.0000      -0.923835       -25.1388
  37   2.0000      -0.897043       -24.4098
  38   2.0000      -0.847940       -23.0736
  39   2.0000      -0.840535       -22.8721
  40   2.0000      -0.837027       -22.7767
  41   2.0000      -0.817124       -22.2351
  42   2.0000      -0.745817       -20.2947
  43   2.0000      -0.733686       -19.9646
  44   2.0000      -0.722127       -19.6501
  45   2.0000      -0.698407       -19.0046
  46   2.0000      -0.689863       -18.7721
  47   2.0000      -0.674574       -18.3561
  48   2.0000      -0.671033       -18.2597
  49   2.0000      -0.660736       -17.9795
  50   2.0000      -0.651371       -17.7247
  51   2.0000      -0.641896       -17.4669
  52   2.0000      -0.635479       -17.2923
  53   2.0000      -0.620784       -16.8924
  54   2.0000      -0.609727       -16.5915
  55   2.0000      -0.602584       -16.3971
  56   2.0000      -0.600083       -16.3291
  57   2.0000      -0.579785       -15.7767
  58   2.0000      -0.571239       -15.5442
  59   2.0000      -0.566582       -15.4175
  60   2.0000      -0.551975       -15.0200
  61   2.0000      -0.543459       -14.7883
  62   2.0000      -0.534460       -14.5434
  63   2.0000      -0.527148       -14.3444
  64   2.0000      -0.523752       -14.2520
  65   2.0000      -0.514313       -13.9952
  66   2.0000      -0.502374       -13.6703
  67   2.0000      -0.499553       -13.5935
  68   2.0000      -0.484396       -13.1811
  69   2.0000      -0.464507       -12.6399
  70   2.0000      -0.453982       -12.3535
  71   2.0000      -0.442862       -12.0509
  72   2.0000      -0.354915        -9.6577
  73   2.0000      -0.352003        -9.5785
  74   2.0000      -0.329191        -8.9577
  75   2.0000      -0.324761        -8.8372
  76   2.0000      -0.316856        -8.6221
  77   0.0000       0.073626         2.0035
  78   0.0000       0.102962         2.8017
  79   0.0000       0.123763         3.3678
  80   0.0000       0.130876         3.5613
  81   0.0000       0.136353         3.7103

MULLIKEN ATOMIC CHARGES
-----------------------
   0 C :   -0.327248
   1 C :    0.034547
   2 O :   -0.382126
   3 C :    0.483486
   4 O :   -0.427041
   5 C :   -0.244437
   6 C :    0.156617
   7 C :   -0.272067
   8 N :   -0.122010
   9 C :    0.210972
  10 S :   -0.439035
  11 N :   -0.205089
  12 C :    0.064424
  13 C :    0.041993
  14 C :   -0.184203
  15 C :   -0.131855
  16 C :   -0.272439
  17 C :    0.313797
  18 O :   -0.359387
  19 C :   -0.268333
  20 H :    0.108582
  21 H :    0.101314
  22 H :    0.127546
  23 H :    0.108471
  24 H :    0.119567
  25 H :    0.132466
  26 H :    0.095342
  27 H :    0.131250
  28 H :    0.197744
  29 H :    0.194511
  30 H :    0.151648
  31 H :    0.157085
  32 H :    0.163150
  33 H :    0.132361
  34 H :    0.241051
  35 H :    0.167346
Sum of atomic charges:   -0.0000000

LOEWDIN ATOMIC CHARGES
----------------------
   0 C :    0.105504
   1 C :   -0.012894
   2 O :    0.292640
   3 C :   -0.416811
   4 O :    0.104632
   5 C :   -0.096367
   6 C :   -0.058420
   7 C :    0.131737
   8 N :    0.406722
   9 C :   -0.456496
  10 S :   -0.034793
  11 N :    0.396521
  12 C :   -0.052049
  13 C :   -0.039589
  14 C :    0.016465
  15 C :    0.039596
  16 C :   -0.001548
  17 C :   -0.190821
  18 O :    0.396384
  19 C :    0.031040
  20 H :   -0.028057
  21 H :   -0.025605
  22 H :   -0.026144
  23 H :   -0.027427
  24 H :   -0.028555
  25 H :   -0.003420
  26 H :   -0.023384
  27 H :   -0.004898
  28 H :   -0.057468
  29 H :   -0.064691
  30 H :   -0.009863
  31 H :   -0.029197
  32 H :   -0.020836
  33 H :   -0.035013
  34 H :   -0.153271
  35 H :   -0.023626

  Mayer bond orders larger than 0.100000
B(  0-C ,  1-C ) :   0.9565 B(  0-C , 20-H ) :   0.9696 B(  0-C , 21-H ) :   0.9775
B(  0-C , 22-H ) :   0.9732 B(  1-C ,  2-O ) :   0.8849 B(  1-C , 23-H ) :   0.9800
B(  1-C , 24-H ) :   0.9864 B(  2-O ,  3-C ) :   1.1357 B(  3-C ,  4-O ) :   1.9884
B(  3-C ,  5-C ) :   1.0566 B(  5-C ,  6-C ) :   1.6519 B(  5-C , 12-C ) :   0.9691
B(  6-C ,  7-C ) :   0.9660 B(  6-C ,  8-N ) :   1.1627 B(  7-C , 25-H ) :   0.9599
B(  7-C , 26-H ) :   0.9902 B(  7-C , 27-H ) :   0.9607 B(  8-N ,  9-C ) :   1.1824
B(  8-N , 28-H ) :   0.9478 B(  9-C , 10-S ) :   1.6086 B(  9-C , 11-N ) :   1.3051
B( 11-N , 12-C ) :   0.9850 B( 11-N , 29-H ) :   0.9520 B( 12-C , 13-C ) :   0.9360
B( 12-C , 30-H ) :   1.0016 B( 13-C , 14-C ) :   1.3547 B( 13-C , 19-C ) :   1.3819
B( 14-C , 15-C ) :   1.3831 B( 14-C , 31-H ) :   0.9707 B( 15-C , 16-C ) :   1.3653
B( 15-C , 32-H ) :   0.9702 B( 16-C , 17-C ) :   1.3309 B( 16-C , 33-H ) :   0.9841
B( 17-C , 18-O ) :   1.1100 B( 17-C , 19-C ) :   1.3684 B( 18-O , 34-H ) :   0.9795
B( 19-C , 35-H ) :   0.9590

MP2 TOTAL ENERGY:    -1274.342525543 Eh
FINAL SINGLE POINT ENERGY     -1274.342525543176

DIPOLE MOMENT
-------------
                                X             Y             Z
Electronic contribution:      9.97992       9.56938       6.25080
Nuclear contribution   :    -10.99001     -11.28746      -6.37770
                        -----------------------------------------
Total Dipole Moment    :     -1.01009      -1.71808      -0.12690
                        -----------------------------------------
Magnitude (a.u.)       :      1.99704
Magnitude (Debye)      :      5.07608

Rotational constants in cm-1:     0.012595     0.008898     0.006485
Rotational constants in MHz :   377.595791   266.759904   194.424201

                             ****ORCA TERMINATED NORMALLY****
TOTAL RUN TIME: 0 days 2 hours 53 minutes 46 seconds 437 msec
