                         Program Version 4.2.0 -  RELEASE  -
|  1> ! ri-mp2 cc-pvtz cc-pvtz/c TightSCF  NoKeepInts
|  2>
|  3> %scf
|  4>   MaxCore 4096
|  5> end
|  6> *xyz  0  1
|  7>     C       16.0395598   13.3303763   15.4703233
|  8>     C       15.3755296   14.4913499   16.2293178
|  9>     O       16.4304439   15.3376659   16.7192836
| 10>     C       16.2706805   16.6955966   16.7474967
| 11>     O       15.3411663   17.2587832   16.1946014
| 12>     C       17.3138712   17.3828124   17.5850888
| 13>     C       17.3823088   18.7335194   17.6999944
| 14>     C       16.4741308   19.7560300   17.0510408
| 15>     N       18.3993527   19.3220932   18.4576777
| 16>     C       19.4393016   18.6436403   19.0350496
| 17>     S       20.6586785   19.4260227   19.8331074
| 18>     N       19.4202698   17.2774725   18.9153855
| 19>     C       18.3153860   16.4907514   18.3371438
| 20>     C       17.6361799   15.6721226   19.4316244
| 21>     C       17.7029196   14.2661294   19.4167414
| 22>     C       17.0760908   13.5097365   20.4212745
| 23>     C       16.3791204   14.1641453   21.4512947
| 24>     C       16.3138706   15.5641453   21.4713882
| 25>     O       15.6421821   16.1988496   22.4648865
| 26>     C       16.9381717   16.3141567   20.4699605
| 27>     H       15.2795567   12.6470990   15.0722261
| 28>     H       16.6995840   12.7606167   16.1360061
| 29>     H       16.6350178   13.7085925   14.6299724
| 30>     H       14.7163863   15.0274183   15.5329854
| 31>     H       14.7691947   14.1170779   17.0644847
| 32>     H       15.4381774   19.6177936   17.3863007
| 33>     H       16.4823746   19.6426790   15.9595265
| 34>     H       16.7602835   20.7896788   17.2779235
| 35>     H       18.4301636   20.3244047   18.5549775
| 36>     H       20.1802945   16.8021669   19.3847248
| 37>     H       18.7572410   15.7970596   17.6080564
| 38>     H       18.2358675   13.7577178   18.6177638
| 39>     H       17.1312740   12.4228039   20.3994837
| 40>     H       15.8936558   13.5845427   22.2295092
| 41>     H       15.3072068   15.5202511   23.0698918
| 42>     H       16.8815071   17.3966987   20.5074864
| 43> *
| 44>
| 45>                          ****END OF INPUT****

CARTESIAN COORDINATES (ANGSTROEM)
---------------------------------
  C     16.039560   13.330376   15.470323
  C     15.375530   14.491350   16.229318
  O     16.430444   15.337666   16.719284
  C     16.270681   16.695597   16.747497
  O     15.341166   17.258783   16.194601
  C     17.313871   17.382812   17.585089
  C     17.382309   18.733519   17.699994
  C     16.474131   19.756030   17.051041
  N     18.399353   19.322093   18.457678
  C     19.439302   18.643640   19.035050
  S     20.658678   19.426023   19.833107
  N     19.420270   17.277472   18.915385
  C     18.315386   16.490751   18.337144
  C     17.636180   15.672123   19.431624
  C     17.702920   14.266129   19.416741
  C     17.076091   13.509736   20.421274
  C     16.379120   14.164145   21.451295
  C     16.313871   15.564145   21.471388
  O     15.642182   16.198850   22.464886
  C     16.938172   16.314157   20.469960
  H     15.279557   12.647099   15.072226
  H     16.699584   12.760617   16.136006
  H     16.635018   13.708592   14.629972
  H     14.716386   15.027418   15.532985
  H     14.769195   14.117078   17.064485
  H     15.438177   19.617794   17.386301
  H     16.482375   19.642679   15.959527
  H     16.760283   20.789679   17.277923
  H     18.430164   20.324405   18.554977
  H     20.180294   16.802167   19.384725
  H     18.757241   15.797060   17.608056
  H     18.235868   13.757718   18.617764
  H     17.131274   12.422804   20.399484
  H     15.893656   13.584543   22.229509
  H     15.307207   15.520251   23.069892
  H     16.881507   17.396699   20.507486

 Total Charge           Charge          ....    0
 Multiplicity           Mult            ....    1
 Number of Electrons    NEL             ....  154
 Basis Dimension        Dim             ....  828

ORBITAL ENERGIES
----------------

  NO   OCC          E(Eh)            E(eV)
   0   2.0000     -91.888714     -2500.4190
   1   2.0000     -20.602085      -560.6112
   2   2.0000     -20.595694      -560.4373
   3   2.0000     -20.541337      -558.9582
   4   2.0000     -15.628862      -425.2830
   5   2.0000     -15.608031      -424.7161
   6   2.0000     -11.395059      -310.0753
   7   2.0000     -11.383793      -309.7688
   8   2.0000     -11.335728      -308.4609
   9   2.0000     -11.312817      -307.8374
  10   2.0000     -11.308669      -307.7245
  11   2.0000     -11.295401      -307.3635
  12   2.0000     -11.258840      -306.3686
  13   2.0000     -11.258689      -306.3645
  14   2.0000     -11.254345      -306.2463
  15   2.0000     -11.251721      -306.1749
  16   2.0000     -11.242221      -305.9164
  17   2.0000     -11.237711      -305.7937
  18   2.0000     -11.237497      -305.7878
  19   2.0000     -11.231036      -305.6120
  20   2.0000      -8.893774      -242.0119
  21   2.0000      -6.575348      -178.9243
  22   2.0000      -6.573344      -178.8698
  23   2.0000      -6.572757      -178.8538
  24   2.0000      -1.451346       -39.4931
  25   2.0000      -1.415351       -38.5136
  26   2.0000      -1.354971       -36.8706
  27   2.0000      -1.339814       -36.4582
  28   2.0000      -1.238232       -33.6940
  29   2.0000      -1.156867       -31.4800
  30   2.0000      -1.120079       -30.4789
  31   2.0000      -1.043315       -28.3900
  32   2.0000      -1.039862       -28.2961
  33   2.0000      -1.014273       -27.5998
  34   2.0000      -0.995545       -27.0902
  35   2.0000      -0.984120       -26.7793
  36   2.0000      -0.922104       -25.0917
  37   2.0000      -0.889524       -24.2052
  38   2.0000      -0.846481       -23.0339
  39   2.0000      -0.836897       -22.7731
  40   2.0000      -0.833231       -22.6734
  41   2.0000      -0.817553       -22.2467
  42   2.0000      -0.765006       -20.8169
  43   2.0000      -0.731855       -19.9148
  44   2.0000      -0.721628       -19.6365
  45   2.0000      -0.694799       -18.9064
  46   2.0000      -0.686305       -18.6753
  47   2.0000      -0.679637       -18.4939
  48   2.0000      -0.676041       -18.3960
  49   2.0000      -0.660284       -17.9672
  50   2.0000      -0.645941       -17.5769
  51   2.0000      -0.644331       -17.5331
  52   2.0000      -0.634866       -17.2756
  53   2.0000      -0.605978       -16.4895
  54   2.0000      -0.602154       -16.3854
  55   2.0000      -0.598542       -16.2872
  56   2.0000      -0.597116       -16.2484
  57   2.0000      -0.577411       -15.7121
  58   2.0000      -0.570448       -15.5227
  59   2.0000      -0.567933       -15.4542
  60   2.0000      -0.562254       -15.2997
  61   2.0000      -0.546479       -14.8704
  62   2.0000      -0.540017       -14.6946
  63   2.0000      -0.526795       -14.3348
  64   2.0000      -0.524434       -14.2706
  65   2.0000      -0.513113       -13.9625
  66   2.0000      -0.501489       -13.6462
  67   2.0000      -0.497236       -13.5305
  68   2.0000      -0.485187       -13.2026
  69   2.0000      -0.465030       -12.6541
  70   2.0000      -0.457971       -12.4620
  71   2.0000      -0.447262       -12.1706
  72   2.0000      -0.354148        -9.6368
  73   2.0000      -0.348655        -9.4874
  74   2.0000      -0.328010        -8.9256
  75   2.0000      -0.320506        -8.7214
  76   2.0000      -0.315746        -8.5919
  77   0.0000       0.076437         2.0800
  78   0.0000       0.107173         2.9163
  79   0.0000       0.124142         3.3781
  80   0.0000       0.132055         3.5934
  81   0.0000       0.135933         3.6989

MULLIKEN ATOMIC CHARGES
-----------------------
   0 C :   -0.263281
   1 C :    0.014672
   2 O :   -0.347983
   3 C :    0.470678
   4 O :   -0.433920
   5 C :   -0.223577
   6 C :    0.149351
   7 C :   -0.274320
   8 N :   -0.120759
   9 C :    0.210139
  10 S :   -0.439738
  11 N :   -0.202894
  12 C :    0.047938
  13 C :    0.067915
  14 C :   -0.184208
  15 C :   -0.132662
  16 C :   -0.278364
  17 C :    0.316065
  18 O :   -0.356611
  19 C :   -0.269384
  20 H :    0.092531
  21 H :    0.090253
  22 H :    0.096874
  23 H :    0.126581
  24 H :    0.099564
  25 H :    0.132614
  26 H :    0.130454
  27 H :    0.094834
  28 H :    0.197407
  29 H :    0.194344
  30 H :    0.150828
  31 H :    0.150201
  32 H :    0.159684
  33 H :    0.129536
  34 H :    0.240524
  35 H :    0.164714
Sum of atomic charges:   -0.0000000

LOEWDIN ATOMIC CHARGES
----------------------
   0 C :    0.105246
   1 C :   -0.012466
   2 O :    0.310185
   3 C :   -0.413537
   4 O :    0.095584
   5 C :   -0.094620
   6 C :   -0.058881
   7 C :    0.131484
   8 N :    0.406516
   9 C :   -0.456754
  10 S :   -0.035426
  11 N :    0.396547
  12 C :   -0.052693
  13 C :   -0.038747
  14 C :    0.014017
  15 C :    0.038566
  16 C :   -0.001729
  17 C :   -0.189508
  18 O :    0.395121
  19 C :    0.031668
  20 H :   -0.024916
  21 H :   -0.030942
  22 H :   -0.026077
  23 H :   -0.027462
  24 H :   -0.029706
  25 H :   -0.004385
  26 H :   -0.004092
  27 H :   -0.023478
  28 H :   -0.057592
  29 H :   -0.064554
  30 H :   -0.011159
  31 H :   -0.031140
  32 H :   -0.021636
  33 H :   -0.035708
  34 H :   -0.154049
  35 H :   -0.023678

  Mayer bond orders larger than 0.100000
B(  0-C ,  1-C ) :   0.9726 B(  0-C , 20-H ) :   0.9765 B(  0-C , 21-H ) :   0.9797
B(  0-C , 22-H ) :   0.9776 B(  1-C ,  2-O ) :   0.8868 B(  1-C , 23-H ) :   0.9768
B(  1-C , 24-H ) :   0.9763 B(  2-O ,  3-C ) :   1.1763 B(  3-C ,  4-O ) :   1.9755
B(  3-C ,  5-C ) :   1.0529 B(  5-C ,  6-C ) :   1.6584 B(  5-C , 12-C ) :   0.9719
B(  6-C ,  7-C ) :   0.9675 B(  6-C ,  8-N ) :   1.1643 B(  7-C , 25-H ) :   0.9602
B(  7-C , 26-H ) :   0.9605 B(  7-C , 27-H ) :   0.9903 B(  8-N ,  9-C ) :   1.1827
B(  8-N , 28-H ) :   0.9480 B(  9-C , 10-S ) :   1.6081 B(  9-C , 11-N ) :   1.3044
B( 11-N , 12-C ) :   0.9899 B( 11-N , 29-H ) :   0.9517 B( 12-C , 13-C ) :   0.9353
B( 12-C , 30-H ) :   1.0035 B( 13-C , 14-C ) :   1.3553 B( 13-C , 19-C ) :   1.3825
B( 14-C , 15-C ) :   1.3913 B( 14-C , 31-H ) :   0.9709 B( 15-C , 16-C ) :   1.3638
B( 15-C , 32-H ) :   0.9708 B( 16-C , 17-C ) :   1.3322 B( 16-C , 33-H ) :   0.9852
B( 17-C , 18-O ) :   1.1101 B( 17-C , 19-C ) :   1.3732 B( 18-O , 34-H ) :   0.9800
B( 19-C , 35-H ) :   0.9582

MP2 TOTAL ENERGY:    -1274.350149774 Eh
FINAL SINGLE POINT ENERGY     -1274.350149774033

DIPOLE MOMENT
-------------
                                X             Y             Z
Electronic contribution:      9.05359      10.56806       8.97238
Nuclear contribution   :    -10.27964     -12.15322      -9.35065
                        -----------------------------------------
Total Dipole Moment    :     -1.22605      -1.58516      -0.37828
                        -----------------------------------------
Magnitude (a.u.)       :      2.03937
Magnitude (Debye)      :      5.18366

Rotational constants in cm-1:     0.011260     0.008556     0.006123
Rotational constants in MHz :   337.554834   256.509118   183.566180

                             ****ORCA TERMINATED NORMALLY****
TOTAL RUN TIME: 0 days 1 hours 44 minutes 43 seconds 555 msec
