                         Program Version 5.0.0 -  RELEASE  -
|  1> ! ri-mp2 cc-pvtz cc-pvtz/c TightSCF NoKeepInts
|  2>
|  3> %scf
|  4>   MaxCore 4096
|  5> end
|  6> *xyz  0  1
|  7>     C       15.0651984   13.8413880   16.1816670
|  8>     C       15.3820039   15.2305733   16.7620618
|  9>     O       16.4397183   15.8098514   15.9777639
| 10>     C       17.6947567   15.7812826   16.5078352
| 11>     O       18.2656523   14.7180966   16.6786489
| 12>     C       17.9542120   16.9555696   17.4021833
| 13>     C       17.5226719   18.2126779   17.1327603
| 14>     C       16.7586802   18.6772103   15.9105778
| 15>     N       17.8475652   19.2597734   18.0003040
| 16>     C       18.7062137   19.1548652   19.0634078
| 17>     S       19.1291056   20.4691782   19.9736516
| 18>     N       19.1955658   17.9014273   19.3355070
| 19>     C       18.7527809   16.6587409   18.6742311
| 20>     C       17.9298106   15.8014959   19.6324686
| 21>     C       18.2570178   14.4487467   19.8385025
| 22>     C       17.4891761   13.6488703   20.7011776
| 23>     C       16.3823562   14.2051682   21.3644308
| 24>     C       16.0502001   15.5509060   21.1591897
| 25>     O       14.9750202   16.0884923   21.7881869
| 26>     C       16.8155126   16.3442437   20.2987839
| 27>     H       15.9390245   13.1819521   16.2613022
| 28>     H       14.7850105   13.9171722   15.1237898
| 29>     H       14.2353267   13.3758833   16.7267267
| 30>     H       14.4861551   15.8606167   16.6923584
| 31>     H       15.6635435   15.1474191   17.8213036
| 32>     H       17.1344743   18.1893748   15.0022802
| 33>     H       16.8450255   19.7588657   15.7499525
| 34>     H       15.6928056   18.4353705   16.0036351
| 35>     H       17.5006967   20.1877331   17.8157556
| 36>     H       19.8049827   17.8477883   20.1417145
| 37>     H       19.6506929   16.0930999   18.3855461
| 38>     H       19.1002773   14.0102623   19.3098536
| 39>     H       17.7501443   12.6019820   20.8464079
| 40>     H       15.7853387   13.5898996   22.0294349
| 41>     H       14.6194878   15.4122669   22.3845921
| 42>     H       16.5407957   17.3837556   20.1560070
| 43> *
| 44>
| 45>                          ****END OF INPUT****

CARTESIAN COORDINATES (ANGSTROEM)
---------------------------------
  C     15.065198   13.841388   16.181667
  C     15.382004   15.230573   16.762062
  O     16.439718   15.809851   15.977764
  C     17.694757   15.781283   16.507835
  O     18.265652   14.718097   16.678649
  C     17.954212   16.955570   17.402183
  C     17.522672   18.212678   17.132760
  C     16.758680   18.677210   15.910578
  N     17.847565   19.259773   18.000304
  C     18.706214   19.154865   19.063408
  S     19.129106   20.469178   19.973652
  N     19.195566   17.901427   19.335507
  C     18.752781   16.658741   18.674231
  C     17.929811   15.801496   19.632469
  C     18.257018   14.448747   19.838502
  C     17.489176   13.648870   20.701178
  C     16.382356   14.205168   21.364431
  C     16.050200   15.550906   21.159190
  O     14.975020   16.088492   21.788187
  C     16.815513   16.344244   20.298784
  H     15.939025   13.181952   16.261302
  H     14.785010   13.917172   15.123790
  H     14.235327   13.375883   16.726727
  H     14.486155   15.860617   16.692358
  H     15.663543   15.147419   17.821304
  H     17.134474   18.189375   15.002280
  H     16.845025   19.758866   15.749952
  H     15.692806   18.435371   16.003635
  H     17.500697   20.187733   17.815756
  H     19.804983   17.847788   20.141714
  H     19.650693   16.093100   18.385546
  H     19.100277   14.010262   19.309854
  H     17.750144   12.601982   20.846408
  H     15.785339   13.589900   22.029435
  H     14.619488   15.412267   22.384592
  H     16.540796   17.383756   20.156007

 Total Charge           Charge          ....    0
 Multiplicity           Mult            ....    1
 Number of Electrons    NEL             ....  154
 Basis Dimension        Dim             ....  828

ORBITAL ENERGIES
----------------

  NO   OCC          E(Eh)            E(eV)
   0   2.0000     -91.890027     -2500.4548
   1   2.0000     -20.597225      -560.4790
   2   2.0000     -20.580503      -560.0240
   3   2.0000     -20.557762      -559.4052
   4   2.0000     -15.629787      -425.3081
   5   2.0000     -15.609411      -424.7537
   6   2.0000     -11.395092      -310.0762
   7   2.0000     -11.385492      -309.8150
   8   2.0000     -11.334816      -308.4360
   9   2.0000     -11.313723      -307.8621
  10   2.0000     -11.309705      -307.7527
  11   2.0000     -11.299778      -307.4826
  12   2.0000     -11.261566      -306.4428
  13   2.0000     -11.260158      -306.4045
  14   2.0000     -11.259218      -306.3789
  15   2.0000     -11.253810      -306.2317
  16   2.0000     -11.243475      -305.9505
  17   2.0000     -11.239273      -305.8362
  18   2.0000     -11.236392      -305.7578
  19   2.0000     -11.220675      -305.3301
  20   2.0000      -8.895092      -242.0478
  21   2.0000      -6.576667      -178.9602
  22   2.0000      -6.574660      -178.9056
  23   2.0000      -6.574073      -178.8896
  24   2.0000      -1.452502       -39.5246
  25   2.0000      -1.417052       -38.5599
  26   2.0000      -1.357446       -36.9380
  27   2.0000      -1.340812       -36.4853
  28   2.0000      -1.238992       -33.7147
  29   2.0000      -1.157856       -31.5069
  30   2.0000      -1.122364       -30.5411
  31   2.0000      -1.045568       -28.4514
  32   2.0000      -1.030511       -28.0416
  33   2.0000      -1.015343       -27.6289
  34   2.0000      -1.000320       -27.2201
  35   2.0000      -0.985708       -26.8225
  36   2.0000      -0.924642       -25.1608
  37   2.0000      -0.880230       -23.9523
  38   2.0000      -0.850741       -23.1498
  39   2.0000      -0.840724       -22.8773
  40   2.0000      -0.833853       -22.6903
  41   2.0000      -0.829536       -22.5728
  42   2.0000      -0.752352       -20.4725
  43   2.0000      -0.733448       -19.9581
  44   2.0000      -0.729643       -19.8546
  45   2.0000      -0.695567       -18.9273
  46   2.0000      -0.687533       -18.7087
  47   2.0000      -0.680448       -18.5159
  48   2.0000      -0.673863       -18.3367
  49   2.0000      -0.664519       -18.0825
  50   2.0000      -0.648048       -17.6343
  51   2.0000      -0.645756       -17.5719
  52   2.0000      -0.637586       -17.3496
  53   2.0000      -0.606612       -16.5068
  54   2.0000      -0.604880       -16.4596
  55   2.0000      -0.601143       -16.3579
  56   2.0000      -0.589613       -16.0442
  57   2.0000      -0.586192       -15.9511
  58   2.0000      -0.577711       -15.7203
  59   2.0000      -0.570197       -15.5159
  60   2.0000      -0.563193       -15.3253
  61   2.0000      -0.551663       -15.0115
  62   2.0000      -0.535829       -14.5806
  63   2.0000      -0.523031       -14.2324
  64   2.0000      -0.514207       -13.9923
  65   2.0000      -0.510984       -13.9046
  66   2.0000      -0.503230       -13.6936
  67   2.0000      -0.498557       -13.5664
  68   2.0000      -0.481483       -13.1018
  69   2.0000      -0.466939       -12.7060
  70   2.0000      -0.453396       -12.3375
  71   2.0000      -0.451701       -12.2914
  72   2.0000      -0.355904        -9.6846
  73   2.0000      -0.349351        -9.5063
  74   2.0000      -0.329288        -8.9604
  75   2.0000      -0.321066        -8.7367
  76   2.0000      -0.317126        -8.6294
  77   0.0000       0.069290         1.8855
  78   0.0000       0.103925         2.8279
  79   0.0000       0.118980         3.2376
  80   0.0000       0.131155         3.5689
  81   0.0000       0.134616         3.6631

MULLIKEN ATOMIC CHARGES
-----------------------
   0 C :   -0.261471
   1 C :    0.037272
   2 O :   -0.379361
   3 C :    0.458955
   4 O :   -0.395601
   5 C :   -0.198666
   6 C :    0.132286
   7 C :   -0.279861
   8 N :   -0.123259
   9 C :    0.199589
  10 S :   -0.437570
  11 N :   -0.201169
  12 C :    0.057689
  13 C :    0.022777
  14 C :   -0.156092
  15 C :   -0.136586
  16 C :   -0.277238
  17 C :    0.314362
  18 O :   -0.359242
  19 C :   -0.275805
  20 H :    0.112820
  21 H :    0.093343
  22 H :    0.085493
  23 H :    0.096335
  24 H :    0.103202
  25 H :    0.125728
  26 H :    0.105832
  27 H :    0.123762
  28 H :    0.197409
  29 H :    0.194260
  30 H :    0.156406
  31 H :    0.159932
  32 H :    0.161741
  33 H :    0.131893
  34 H :    0.241099
  35 H :    0.169734
Sum of atomic charges:   -0.0000000

LOEWDIN ATOMIC CHARGES
----------------------
   0 C :    0.106728
   1 C :   -0.015457
   2 O :    0.286329
   3 C :   -0.419962
   4 O :    0.134046
   5 C :   -0.095121
   6 C :   -0.073844
   7 C :    0.126972
   8 N :    0.404451
   9 C :   -0.457931
  10 S :   -0.034867
  11 N :    0.397011
  12 C :   -0.045531
  13 C :   -0.042714
  14 C :    0.020982
  15 C :    0.042305
  16 C :   -0.001814
  17 C :   -0.195072
  18 O :    0.393989
  19 C :    0.027288
  20 H :   -0.023121
  21 H :   -0.028082
  22 H :   -0.029839
  23 H :   -0.029665
  24 H :   -0.027019
  25 H :   -0.007079
  26 H :   -0.018987
  27 H :   -0.010200
  28 H :   -0.058434
  29 H :   -0.064027
  30 H :   -0.004238
  31 H :   -0.023978
  32 H :   -0.019790
  33 H :   -0.035200
  34 H :   -0.153652
  35 H :   -0.024476

  Mayer bond orders larger than 0.100000
B(  0-C ,  1-C ) :   0.9854 B(  0-C , 20-H ) :   0.9736 B(  0-C , 21-H ) :   0.9783
B(  0-C , 22-H ) :   0.9758 B(  1-C ,  2-O ) :   0.8827 B(  1-C , 23-H ) :   0.9809
B(  1-C , 24-H ) :   0.9656 B(  2-O ,  3-C ) :   1.0834 B(  3-C ,  4-O ) :   2.0243
B(  3-C ,  5-C ) :   1.0247 B(  5-C ,  6-C ) :   1.6698 B(  5-C , 12-C ) :   0.9592
B(  6-C ,  7-C ) :   0.9515 B(  6-C ,  8-N ) :   1.1384 B(  7-C , 25-H ) :   0.9700
B(  7-C , 26-H ) :   0.9879 B(  7-C , 27-H ) :   0.9637 B(  8-N ,  9-C ) :   1.1829
B(  8-N , 28-H ) :   0.9497 B(  9-C , 10-S ) :   1.6137 B(  9-C , 11-N ) :   1.2987
B( 11-N , 12-C ) :   0.9929 B( 11-N , 29-H ) :   0.9518 B( 12-C , 13-C ) :   0.9430
B( 12-C , 30-H ) :   0.9987 B( 13-C , 14-C ) :   1.3818 B( 13-C , 19-C ) :   1.3637
B( 14-C , 15-C ) :   1.3951 B( 14-C , 31-H ) :   0.9620 B( 15-C , 16-C ) :   1.3640
B( 15-C , 32-H ) :   0.9708 B( 16-C , 17-C ) :   1.3300 B( 16-C , 33-H ) :   0.9844
B( 17-C , 18-O ) :   1.1108 B( 17-C , 19-C ) :   1.3726 B( 18-O , 34-H ) :   0.9796
B( 19-C , 35-H ) :   0.9586

MP2 TOTAL ENERGY:    -1274.322469175 Eh
FINAL SINGLE POINT ENERGY     -1274.322469175091

DIPOLE MOMENT
-------------
                                X             Y             Z
Electronic contribution:     10.72381      10.21679       7.34868
Nuclear contribution   :    -12.11850     -11.27931      -7.78502
                        -----------------------------------------
Total Dipole Moment    :     -1.39469      -1.06252      -0.43635
                        -----------------------------------------
Magnitude (a.u.)       :      1.80679
Magnitude (Debye)      :      4.59250

Rotational constants in cm-1:     0.011970     0.009129     0.006493
Rotational constants in MHz :   358.842084   273.670530   194.664144

                             ****ORCA TERMINATED NORMALLY****
TOTAL RUN TIME: 0 days 2 hours 6 minutes 55 seconds 699 msec
