                         Program Version 4.2.0 -  RELEASE  -
|  1> ! ri-mp2 cc-pvtz cc-pvtz/c TightSCF  NoKeepInts
|  2>
|  3> %scf
|  4>   MaxCore 4096
|  5> end
|  6> *xyz  0  1
|  7>     C       15.1944722   15.3234348   17.2056498
|  8>     C       16.1442986   14.3307237   16.5044374
|  9>     O       17.5464057   14.7021241   16.4752841
| 10>     C       17.9724411   15.9596804   16.1548364
| 11>     O       17.9013515   16.3018028   14.9886189
| 12>     C       17.8565123   16.9495855   17.2806270
| 13>     C       17.4057929   18.2176665   17.1023925
| 14>     C       16.7814054   18.8080386   15.8557073
| 15>     N       17.5634865   19.1613118   18.1215995
| 16>     C       18.3846681   18.9957040   19.2058038
| 17>     S       18.6891316   20.2234634   20.2708484
| 18>     N       18.9456562   17.7524811   19.3613962
| 19>     C       18.5430698   16.5521805   18.6019196
| 20>     C       17.7391154   15.6110460   19.4982285
| 21>     C       18.0041964   14.2281383   19.4865429
| 22>     C       17.2878327   13.3515607   20.3182871
| 23>     C       16.3031283   13.8608653   21.1810311
| 24>     C       16.0442979   15.2375735   21.2092713
| 25>     O       15.0929269   15.7323862   22.0400976
| 26>     C       16.7574657   16.1078874   20.3786518
| 27>     H       15.4093480   15.4046164   18.2712337
| 28>     H       14.1612643   14.9668551   17.1159641
| 29>     H       15.2322124   16.3170430   16.7484146
| 30>     H       16.0486808   13.3478642   16.9836390
| 31>     H       15.8023295   14.2168528   15.4670829
| 32>     H       17.5539166   19.0112351   15.1028779
| 33>     H       16.2459194   19.7441512   16.0524861
| 34>     H       16.0652738   18.1120018   15.4028432
| 35>     H       17.1764852   20.0847219   18.0085891
| 36>     H       19.5303108   17.6526987   20.1816213
| 37>     H       19.4687435   16.0239833   18.3327485
| 38>     H       18.7643585   13.8280344   18.8202470
| 39>     H       17.4988696   12.2837408   20.2940135
| 40>     H       15.7475490   13.1877993   21.8258636
| 41>     H       14.7489981   14.9937558   22.5646075
| 42>     H       16.5350852   17.1689915   20.4205368
| 43> *
| 44>
| 45>                          ****END OF INPUT****

CARTESIAN COORDINATES (ANGSTROEM)
---------------------------------
  C     15.194472   15.323435   17.205650
  C     16.144299   14.330724   16.504437
  O     17.546406   14.702124   16.475284
  C     17.972441   15.959680   16.154836
  O     17.901352   16.301803   14.988619
  C     17.856512   16.949585   17.280627
  C     17.405793   18.217666   17.102393
  C     16.781405   18.808039   15.855707
  N     17.563486   19.161312   18.121599
  C     18.384668   18.995704   19.205804
  S     18.689132   20.223463   20.270848
  N     18.945656   17.752481   19.361396
  C     18.543070   16.552180   18.601920
  C     17.739115   15.611046   19.498228
  C     18.004196   14.228138   19.486543
  C     17.287833   13.351561   20.318287
  C     16.303128   13.860865   21.181031
  C     16.044298   15.237573   21.209271
  O     15.092927   15.732386   22.040098
  C     16.757466   16.107887   20.378652
  H     15.409348   15.404616   18.271234
  H     14.161264   14.966855   17.115964
  H     15.232212   16.317043   16.748415
  H     16.048681   13.347864   16.983639
  H     15.802330   14.216853   15.467083
  H     17.553917   19.011235   15.102878
  H     16.245919   19.744151   16.052486
  H     16.065274   18.112002   15.402843
  H     17.176485   20.084722   18.008589
  H     19.530311   17.652699   20.181621
  H     19.468743   16.023983   18.332748
  H     18.764358   13.828034   18.820247
  H     17.498870   12.283741   20.294013
  H     15.747549   13.187799   21.825864
  H     14.748998   14.993756   22.564608
  H     16.535085   17.168991   20.420537

 Total Charge           Charge          ....    0
 Multiplicity           Mult            ....    1
 Number of Electrons    NEL             ....  154
 Basis Dimension        Dim             ....  828

ORBITAL ENERGIES
----------------

  NO   OCC          E(Eh)            E(eV)
   0   2.0000     -91.891292     -2500.4892
   1   2.0000     -20.598693      -560.5189
   2   2.0000     -20.576231      -559.9077
   3   2.0000     -20.557354      -559.3940
   4   2.0000     -15.629776      -425.3078
   5   2.0000     -15.610177      -424.7745
   6   2.0000     -11.395202      -310.0792
   7   2.0000     -11.385803      -309.8234
   8   2.0000     -11.334505      -308.4276
   9   2.0000     -11.316147      -307.9280
  10   2.0000     -11.314886      -307.8937
  11   2.0000     -11.303204      -307.5758
  12   2.0000     -11.263181      -306.4867
  13   2.0000     -11.261307      -306.4357
  14   2.0000     -11.257663      -306.3366
  15   2.0000     -11.255717      -306.2836
  16   2.0000     -11.246139      -306.0230
  17   2.0000     -11.241114      -305.8863
  18   2.0000     -11.240042      -305.8571
  19   2.0000     -11.226541      -305.4897
  20   2.0000      -8.896323      -242.0813
  21   2.0000      -6.577894      -178.9936
  22   2.0000      -6.575893      -178.9391
  23   2.0000      -6.575299      -178.9230
  24   2.0000      -1.447289       -39.3827
  25   2.0000      -1.418544       -38.6005
  26   2.0000      -1.350621       -36.7523
  27   2.0000      -1.341571       -36.5060
  28   2.0000      -1.240327       -33.7510
  29   2.0000      -1.159402       -31.5489
  30   2.0000      -1.121017       -30.5044
  31   2.0000      -1.044996       -28.4358
  32   2.0000      -1.033602       -28.1257
  33   2.0000      -1.018156       -27.7054
  34   2.0000      -1.001243       -27.2452
  35   2.0000      -0.987451       -26.8699
  36   2.0000      -0.925599       -25.1868
  37   2.0000      -0.896341       -24.3907
  38   2.0000      -0.848970       -23.1016
  39   2.0000      -0.842410       -22.9231
  40   2.0000      -0.836751       -22.7691
  41   2.0000      -0.820028       -22.3141
  42   2.0000      -0.748823       -20.3765
  43   2.0000      -0.734336       -19.9823
  44   2.0000      -0.724721       -19.7207
  45   2.0000      -0.697516       -18.9804
  46   2.0000      -0.690797       -18.7975
  47   2.0000      -0.675583       -18.3836
  48   2.0000      -0.669129       -18.2079
  49   2.0000      -0.665810       -18.1176
  50   2.0000      -0.651944       -17.7403
  51   2.0000      -0.646911       -17.6033
  52   2.0000      -0.638035       -17.3618
  53   2.0000      -0.617896       -16.8138
  54   2.0000      -0.608323       -16.5533
  55   2.0000      -0.601701       -16.3731
  56   2.0000      -0.601396       -16.3648
  57   2.0000      -0.579783       -15.7767
  58   2.0000      -0.574186       -15.6244
  59   2.0000      -0.565299       -15.3826
  60   2.0000      -0.558428       -15.1956
  61   2.0000      -0.553796       -15.0695
  62   2.0000      -0.540380       -14.7045
  63   2.0000      -0.526891       -14.3374
  64   2.0000      -0.523426       -14.2431
  65   2.0000      -0.514980       -14.0133
  66   2.0000      -0.503431       -13.6991
  67   2.0000      -0.498395       -13.5620
  68   2.0000      -0.476463       -12.9652
  69   2.0000      -0.465918       -12.6783
  70   2.0000      -0.452385       -12.3100
  71   2.0000      -0.446714       -12.1557
  72   2.0000      -0.357757        -9.7351
  73   2.0000      -0.349185        -9.5018
  74   2.0000      -0.330434        -8.9916
  75   2.0000      -0.324445        -8.8286
  76   2.0000      -0.318537        -8.6678
  77   0.0000       0.068377         1.8606
  78   0.0000       0.102966         2.8018
  79   0.0000       0.116662         3.1745
  80   0.0000       0.127918         3.4808
  81   0.0000       0.131283         3.5724

MULLIKEN ATOMIC CHARGES
-----------------------
   0 C :   -0.332883
   1 C :    0.041503
   2 O :   -0.388188
   3 C :    0.449909
   4 O :   -0.377454
   5 C :   -0.227248
   6 C :    0.168143
   7 C :   -0.281098
   8 N :   -0.126171
   9 C :    0.187557
  10 S :   -0.431711
  11 N :   -0.205634
  12 C :    0.042759
  13 C :    0.039634
  14 C :   -0.189652
  15 C :   -0.147089
  16 C :   -0.270343
  17 C :    0.301225
  18 O :   -0.356881
  19 C :   -0.241606
  20 H :    0.125653
  21 H :    0.120300
  22 H :    0.096174
  23 H :    0.114260
  24 H :    0.116564
  25 H :    0.144189
  26 H :    0.095650
  27 H :    0.122645
  28 H :    0.198187
  29 H :    0.194548
  30 H :    0.150419
  31 H :    0.154326
  32 H :    0.164643
  33 H :    0.133231
  34 H :    0.240461
  35 H :    0.173978
Sum of atomic charges:   -0.0000000

LOEWDIN ATOMIC CHARGES
----------------------
   0 C :    0.107772
   1 C :   -0.011667
   2 O :    0.273045
   3 C :   -0.421076
   4 O :    0.139346
   5 C :   -0.092699
   6 C :   -0.067327
   7 C :    0.128372
   8 N :    0.407027
   9 C :   -0.459758
  10 S :   -0.032278
  11 N :    0.396176
  12 C :   -0.051928
  13 C :   -0.040882
  14 C :    0.018820
  15 C :    0.039337
  16 C :   -0.002283
  17 C :   -0.193440
  18 O :    0.396696
  19 C :    0.029873
  20 H :   -0.031028
  21 H :   -0.021692
  22 H :   -0.033276
  23 H :   -0.021439
  24 H :   -0.028246
  25 H :   -0.003116
  26 H :   -0.022051
  27 H :   -0.012069
  28 H :   -0.057921
  29 H :   -0.064976
  30 H :   -0.007082
  31 H :   -0.028199
  32 H :   -0.020141
  33 H :   -0.034853
  34 H :   -0.153524
  35 H :   -0.023515

  Mayer bond orders larger than 0.100000
B(  0-C ,  1-C ) :   0.9631 B(  0-C , 20-H ) :   0.9666 B(  0-C , 21-H ) :   0.9781
B(  0-C , 22-H ) :   0.9730 B(  1-C ,  2-O ) :   0.8793 B(  1-C , 23-H ) :   0.9795
B(  1-C , 24-H ) :   0.9846 B(  2-O ,  3-C ) :   1.1041 B(  3-C ,  4-O ) :   2.0510
B(  3-C ,  5-C ) :   1.0074 B(  5-C ,  6-C ) :   1.6735 B(  5-C , 12-C ) :   0.9676
B(  6-C ,  7-C ) :   0.9635 B(  6-C ,  8-N ) :   1.1283 B(  7-C , 25-H ) :   0.9570
B(  7-C , 26-H ) :   0.9851 B(  7-C , 27-H ) :   0.9695 B(  8-N ,  9-C ) :   1.1837
B(  8-N , 28-H ) :   0.9494 B(  9-C , 10-S ) :   1.6202 B(  9-C , 11-N ) :   1.2893
B( 11-N , 12-C ) :   0.9854 B( 11-N , 29-H ) :   0.9513 B( 12-C , 13-C ) :   0.9343
B( 12-C , 30-H ) :   1.0101 B( 13-C , 14-C ) :   1.3748 B( 13-C , 19-C ) :   1.3542
B( 14-C , 15-C ) :   1.3954 B( 14-C , 31-H ) :   0.9679 B( 15-C , 16-C ) :   1.3595
B( 15-C , 32-H ) :   0.9695 B( 16-C , 17-C ) :   1.3320 B( 16-C , 33-H ) :   0.9840
B( 17-C , 18-O ) :   1.1126 B( 17-C , 19-C ) :   1.3730 B( 18-O , 34-H ) :   0.9798
B( 19-C , 35-H ) :   0.9586

MP2 TOTAL ENERGY:    -1274.309389327 Eh
FINAL SINGLE POINT ENERGY     -1274.309389327036

DIPOLE MOMENT
-------------
                                X             Y             Z
Electronic contribution:      9.87593       7.37315       6.17422
Nuclear contribution   :    -11.07869      -8.98567      -6.21751
                        -----------------------------------------
Total Dipole Moment    :     -1.20276      -1.61251      -0.04328
                        -----------------------------------------
Magnitude (a.u.)       :      2.01214
Magnitude (Debye)      :      5.11446

Rotational constants in cm-1:     0.011651     0.010106     0.006518
Rotational constants in MHz :   349.284703   302.973050   195.412069

                             ****ORCA TERMINATED NORMALLY****
TOTAL RUN TIME: 0 days 1 hours 52 minutes 22 seconds 524 msec
