                         Program Version 4.2.0 -  RELEASE  -
|  1> ! ri-mp2 cc-pvtz cc-pvtz/c TightSCF  NoKeepInts
|  2>
|  3> %scf
|  4>   MaxCore 4096
|  5> end
|  6> *xyz  0  1
|  7>     C       14.9119601   14.4174871   16.7995530
|  8>     C       15.6875743   14.8395057   15.5361284
|  9>     O       16.4398061   16.0270093   15.8444386
| 10>     C       17.6102997   15.9153899   16.5392556
| 11>     O       18.2239574   14.8630602   16.6152253
| 12>     C       17.8598579   17.0554996   17.4816646
| 13>     C       17.3734303   18.3129513   17.3197191
| 14>     C       16.5356865   18.8438004   16.1747990
| 15>     N       17.6996132   19.3082224   18.2465938
| 16>     C       18.5959319   19.1612737   19.2722878
| 17>     S       19.0069032   20.4244043   20.2578361
| 18>     N       19.1352201   17.9108998   19.4397538
| 19>     C       18.7178962   16.7043059   18.7011024
| 20>     C       17.9731249   15.7422214   19.6229173
| 21>     C       18.4098747   14.4127359   19.7697957
| 22>     C       17.7168465   13.5189511   20.6032881
| 23>     C       16.5755863   13.9570426   21.2962684
| 24>     C       16.1349846   15.2793246   21.1497718
| 25>     O       15.0284640   15.7031411   21.8110059
| 26>     C       16.8269595   16.1666103   20.3196621
| 27>     H       15.6018381   14.1372600   17.6065278
| 28>     H       14.2720453   13.5529339   16.5860284
| 29>     H       14.2759110   15.2363770   17.1577293
| 30>     H       16.3417890   14.0275718   15.1895203
| 31>     H       14.9700708   15.0628153   14.7362900
| 32>     H       15.5053629   18.4733107   16.2460336
| 33>     H       16.9439466   18.5207216   15.2090758
| 34>     H       16.4946521   19.9395942   16.1546138
| 35>     H       17.3137290   20.2329192   18.1415348
| 36>     H       19.7686258   17.8217157   20.2238106
| 37>     H       19.6271314   16.2030980   18.3388057
| 38>     H       19.2803203   14.0659324   19.2182326
| 39>     H       18.0615340   12.4912879   20.7030011
| 40>     H       16.0359352   13.2693195   21.9387164
| 41>     H       14.7204756   14.9674346   22.3611866
| 42>     H       16.4696555   17.1858714   20.2218267
| 43> *
| 44>
| 45>                          ****END OF INPUT****

CARTESIAN COORDINATES (ANGSTROEM)
---------------------------------
  C     14.911960   14.417487   16.799553
  C     15.687574   14.839506   15.536128
  O     16.439806   16.027009   15.844439
  C     17.610300   15.915390   16.539256
  O     18.223957   14.863060   16.615225
  C     17.859858   17.055500   17.481665
  C     17.373430   18.312951   17.319719
  C     16.535687   18.843800   16.174799
  N     17.699613   19.308222   18.246594
  C     18.595932   19.161274   19.272288
  S     19.006903   20.424404   20.257836
  N     19.135220   17.910900   19.439754
  C     18.717896   16.704306   18.701102
  C     17.973125   15.742221   19.622917
  C     18.409875   14.412736   19.769796
  C     17.716846   13.518951   20.603288
  C     16.575586   13.957043   21.296268
  C     16.134985   15.279325   21.149772
  O     15.028464   15.703141   21.811006
  C     16.826960   16.166610   20.319662
  H     15.601838   14.137260   17.606528
  H     14.272045   13.552934   16.586028
  H     14.275911   15.236377   17.157729
  H     16.341789   14.027572   15.189520
  H     14.970071   15.062815   14.736290
  H     15.505363   18.473311   16.246034
  H     16.943947   18.520722   15.209076
  H     16.494652   19.939594   16.154614
  H     17.313729   20.232919   18.141535
  H     19.768626   17.821716   20.223811
  H     19.627131   16.203098   18.338806
  H     19.280320   14.065932   19.218233
  H     18.061534   12.491288   20.703001
  H     16.035935   13.269319   21.938716
  H     14.720476   14.967435   22.361187
  H     16.469655   17.185871   20.221827

 Total Charge           Charge          ....    0
 Multiplicity           Mult            ....    1
 Number of Electrons    NEL             ....  154
 Basis Dimension        Dim             ....  828

ORBITAL ENERGIES
----------------

  NO   OCC          E(Eh)            E(eV)
   0   2.0000     -91.888095     -2500.4022
   1   2.0000     -20.599539      -560.5420
   2   2.0000     -20.593420      -560.3755
   3   2.0000     -20.547830      -559.1349
   4   2.0000     -15.627951      -425.2582
   5   2.0000     -15.607264      -424.6952
   6   2.0000     -11.395932      -310.0991
   7   2.0000     -11.383319      -309.7558
   8   2.0000     -11.334626      -308.4308
   9   2.0000     -11.309465      -307.7462
  10   2.0000     -11.306745      -307.6722
  11   2.0000     -11.298253      -307.4411
  12   2.0000     -11.259883      -306.3970
  13   2.0000     -11.258823      -306.3682
  14   2.0000     -11.255098      -306.2668
  15   2.0000     -11.249726      -306.1206
  16   2.0000     -11.239383      -305.8391
  17   2.0000     -11.235222      -305.7259
  18   2.0000     -11.232500      -305.6519
  19   2.0000     -11.225684      -305.4664
  20   2.0000      -8.893164      -241.9953
  21   2.0000      -6.574743      -178.9078
  22   2.0000      -6.572734      -178.8532
  23   2.0000      -6.572150      -178.8373
  24   2.0000      -1.453567       -39.5536
  25   2.0000      -1.413180       -38.4546
  26   2.0000      -1.357110       -36.9288
  27   2.0000      -1.339055       -36.4375
  28   2.0000      -1.237087       -33.6629
  29   2.0000      -1.154052       -31.4034
  30   2.0000      -1.120335       -30.4859
  31   2.0000      -1.042904       -28.3788
  32   2.0000      -1.033233       -28.1157
  33   2.0000      -1.011244       -27.5174
  34   2.0000      -0.998051       -27.1584
  35   2.0000      -0.983579       -26.7645
  36   2.0000      -0.922146       -25.0929
  37   2.0000      -0.892891       -24.2968
  38   2.0000      -0.847410       -23.0592
  39   2.0000      -0.836019       -22.7492
  40   2.0000      -0.829763       -22.5790
  41   2.0000      -0.814714       -22.1695
  42   2.0000      -0.754061       -20.5191
  43   2.0000      -0.736321       -20.0363
  44   2.0000      -0.726136       -19.7592
  45   2.0000      -0.692060       -18.8319
  46   2.0000      -0.685605       -18.6563
  47   2.0000      -0.678990       -18.4762
  48   2.0000      -0.672220       -18.2920
  49   2.0000      -0.658026       -17.9058
  50   2.0000      -0.651039       -17.7157
  51   2.0000      -0.644917       -17.5491
  52   2.0000      -0.632967       -17.2239
  53   2.0000      -0.608690       -16.5633
  54   2.0000      -0.601202       -16.3595
  55   2.0000      -0.600626       -16.3439
  56   2.0000      -0.596882       -16.2420
  57   2.0000      -0.579953       -15.7813
  58   2.0000      -0.575038       -15.6476
  59   2.0000      -0.562985       -15.3196
  60   2.0000      -0.556369       -15.1396
  61   2.0000      -0.550452       -14.9785
  62   2.0000      -0.533754       -14.5242
  63   2.0000      -0.531663       -14.4673
  64   2.0000      -0.518617       -14.1123
  65   2.0000      -0.509821       -13.8729
  66   2.0000      -0.497687       -13.5427
  67   2.0000      -0.494057       -13.4440
  68   2.0000      -0.482343       -13.1252
  69   2.0000      -0.463945       -12.6246
  70   2.0000      -0.460028       -12.5180
  71   2.0000      -0.451030       -12.2731
  72   2.0000      -0.353868        -9.6292
  73   2.0000      -0.345762        -9.4087
  74   2.0000      -0.327329        -8.9071
  75   2.0000      -0.316748        -8.6191
  76   2.0000      -0.314950        -8.5702
  77   0.0000       0.075806         2.0628
  78   0.0000       0.110170         2.9979
  79   0.0000       0.119881         3.2621
  80   0.0000       0.134248         3.6531
  81   0.0000       0.143225         3.8974

MULLIKEN ATOMIC CHARGES
-----------------------
   0 C :   -0.293465
   1 C :    0.027508
   2 O :   -0.356680
   3 C :    0.430111
   4 O :   -0.421488
   5 C :   -0.161281
   6 C :    0.140340
   7 C :   -0.284060
   8 N :   -0.123867
   9 C :    0.204518
  10 S :   -0.440129
  11 N :   -0.200441
  12 C :    0.049846
  13 C :    0.043740
  14 C :   -0.159831
  15 C :   -0.134846
  16 C :   -0.280549
  17 C :    0.312692
  18 O :   -0.359047
  19 C :   -0.271780
  20 H :    0.121746
  21 H :    0.096399
  22 H :    0.093396
  23 H :    0.113027
  24 H :    0.105542
  25 H :    0.127055
  26 H :    0.125289
  27 H :    0.101774
  28 H :    0.196943
  29 H :    0.194197
  30 H :    0.153647
  31 H :    0.154373
  32 H :    0.159955
  33 H :    0.129363
  34 H :    0.240322
  35 H :    0.165682
Sum of atomic charges:   -0.0000000

LOEWDIN ATOMIC CHARGES
----------------------
   0 C :    0.105902
   1 C :   -0.018306
   2 O :    0.303079
   3 C :   -0.414182
   4 O :    0.107674
   5 C :   -0.091190
   6 C :   -0.069459
   7 C :    0.125577
   8 N :    0.404421
   9 C :   -0.457762
  10 S :   -0.036544
  11 N :    0.397596
  12 C :   -0.045783
  13 C :   -0.040222
  14 C :    0.021496
  15 C :    0.040437
  16 C :   -0.002444
  17 C :   -0.192938
  18 O :    0.393500
  19 C :    0.029309
  20 H :   -0.022048
  21 H :   -0.026592
  22 H :   -0.028929
  23 H :   -0.027821
  24 H :   -0.026727
  25 H :   -0.010025
  26 H :   -0.008301
  27 H :   -0.020552
  28 H :   -0.058993
  29 H :   -0.063840
  30 H :   -0.005081
  31 H :   -0.025085
  32 H :   -0.020891
  33 H :   -0.036043
  34 H :   -0.154626
  35 H :   -0.024606

  Mayer bond orders larger than 0.100000
B(  0-C ,  1-C ) :   0.9633 B(  0-C , 20-H ) :   0.9711 B(  0-C , 21-H ) :   0.9762
B(  0-C , 22-H ) :   0.9775 B(  1-C ,  2-O ) :   0.8921 B(  1-C , 23-H ) :   0.9771
B(  1-C , 24-H ) :   0.9843 B(  2-O ,  3-C ) :   1.1377 B(  3-C ,  4-O ) :   1.9947
B(  3-C ,  5-C ) :   1.0370 B(  5-C ,  6-C ) :   1.6548 B(  5-C , 12-C ) :   0.9662
B(  6-C ,  7-C ) :   0.9543 B(  6-C ,  8-N ) :   1.1436 B(  7-C , 25-H ) :   0.9629
B(  7-C , 26-H ) :   0.9680 B(  7-C , 27-H ) :   0.9898 B(  8-N ,  9-C ) :   1.1820
B(  8-N , 28-H ) :   0.9492 B(  9-C , 10-S ) :   1.6097 B(  9-C , 11-N ) :   1.3025
B( 11-N , 12-C ) :   0.9930 B( 11-N , 29-H ) :   0.9517 B( 12-C , 13-C ) :   0.9428
B( 12-C , 30-H ) :   0.9994 B( 13-C , 14-C ) :   1.3771 B( 13-C , 19-C ) :   1.3713
B( 14-C , 15-C ) :   1.3942 B( 14-C , 31-H ) :   0.9646 B( 15-C , 16-C ) :   1.3623
B( 15-C , 32-H ) :   0.9714 B( 16-C , 17-C ) :   1.3312 B( 16-C , 33-H ) :   0.9855
B( 17-C , 18-O ) :   1.1087 B( 17-C , 19-C ) :   1.3768 B( 18-O , 34-H ) :   0.9804
B( 19-C , 35-H ) :   0.9581

MP2 TOTAL ENERGY:    -1274.344976608 Eh
FINAL SINGLE POINT ENERGY     -1274.344976608096

DIPOLE MOMENT
-------------
                                X             Y             Z
Electronic contribution:     10.34217       9.64106       7.72925
Nuclear contribution   :    -11.74648     -10.94016      -8.71557
                        -----------------------------------------
Total Dipole Moment    :     -1.40431      -1.29911      -0.98632
                        -----------------------------------------
Magnitude (a.u.)       :      2.15235
Magnitude (Debye)      :      5.47083

Rotational constants in cm-1:     0.011512     0.009210     0.006405
Rotational constants in MHz :   345.135026   276.117432   192.014192

                             ****ORCA TERMINATED NORMALLY****
TOTAL RUN TIME: 0 days 1 hours 46 minutes 27 seconds 613 msec
