                         Program Version 4.2.0 -  RELEASE  -
|  1> ! ri-mp2 cc-pvtz cc-pvtz/c TightSCF  NoKeepInts
|  2>
|  3> %scf
|  4>   MaxCore 4096
|  5> end
|  6> *xyz  0  1
|  7>     C       15.6139632   14.0815510   14.8659181
|  8>     C       15.5466826   14.1790593   16.4029066
|  9>     O       16.5507021   15.1029124   16.8610402
| 10>     C       16.3206540   16.4514070   16.8172835
| 11>     O       15.3524684   16.9340754   16.2542742
| 12>     C       17.3210769   17.2358359   17.6209706
| 13>     C       17.3118252   18.5922439   17.6714392
| 14>     C       16.3480594   19.5292793   16.9752730
| 15>     N       18.2928361   19.2735107   18.3983394
| 16>     C       19.3713052   18.6842356   19.0023089
| 17>     S       20.5447453   19.5723955   19.7573874
| 18>     N       19.4315595   17.3151920   18.9461096
| 19>     C       18.3718619   16.4398522   18.4124570
| 20>     C       17.7418233   15.6412760   19.5502184
| 21>     C       17.9061055   14.2449239   19.6183102
| 22>     C       17.3266651   13.5068700   20.6641524
| 23>     C       16.5789682   14.1702967   21.6519701
| 24>     C       16.4167505   15.5611297   21.5895298
| 25>     O       15.6963925   16.2046687   22.5424278
| 26>     C       16.9944166   16.2928716   20.5474441
| 27>     H       15.3531007   15.0386184   14.3972752
| 28>     H       14.9099756   13.3245291   14.4999372
| 29>     H       16.6221440   13.7989244   14.5390115
| 30>     H       14.5455233   14.4938931   16.7281931
| 31>     H       15.7472695   13.1885523   16.8308766
| 32>     H       15.3218466   19.3522446   17.3220832
| 33>     H       16.3602763   19.3606531   15.8909733
| 34>     H       16.5779276   20.5872373   17.1475067
| 35>     H       18.2653907   20.2793623   18.4487960
| 36>     H       20.2186930   16.9072393   19.4337674
| 37>     H       18.8506633   15.7360012   17.7172628
| 38>     H       18.4795740   13.7290501   18.8528825
| 39>     H       17.4577929   12.4270822   20.7069998
| 40>     H       16.1298273   13.6048809   22.4617935
| 41>     H       15.4049192   15.5409024   23.1852255
| 42>     H       16.8632146   17.3692423   20.5216552
| 43> *
| 44>
| 45>                          ****END OF INPUT****

CARTESIAN COORDINATES (ANGSTROEM)
---------------------------------
  C     15.613963   14.081551   14.865918
  C     15.546683   14.179059   16.402907
  O     16.550702   15.102912   16.861040
  C     16.320654   16.451407   16.817283
  O     15.352468   16.934075   16.254274
  C     17.321077   17.235836   17.620971
  C     17.311825   18.592244   17.671439
  C     16.348059   19.529279   16.975273
  N     18.292836   19.273511   18.398339
  C     19.371305   18.684236   19.002309
  S     20.544745   19.572395   19.757387
  N     19.431559   17.315192   18.946110
  C     18.371862   16.439852   18.412457
  C     17.741823   15.641276   19.550218
  C     17.906105   14.244924   19.618310
  C     17.326665   13.506870   20.664152
  C     16.578968   14.170297   21.651970
  C     16.416750   15.561130   21.589530
  O     15.696392   16.204669   22.542428
  C     16.994417   16.292872   20.547444
  H     15.353101   15.038618   14.397275
  H     14.909976   13.324529   14.499937
  H     16.622144   13.798924   14.539012
  H     14.545523   14.493893   16.728193
  H     15.747269   13.188552   16.830877
  H     15.321847   19.352245   17.322083
  H     16.360276   19.360653   15.890973
  H     16.577928   20.587237   17.147507
  H     18.265391   20.279362   18.448796
  H     20.218693   16.907239   19.433767
  H     18.850663   15.736001   17.717263
  H     18.479574   13.729050   18.852882
  H     17.457793   12.427082   20.707000
  H     16.129827   13.604881   22.461793
  H     15.404919   15.540902   23.185225
  H     16.863215   17.369242   20.521655

 Total Charge           Charge          ....    0
 Multiplicity           Mult            ....    1
 Number of Electrons    NEL             ....  154
 Basis Dimension        Dim             ....  828

ORBITAL ENERGIES
----------------

  NO   OCC          E(Eh)            E(eV)
   0   2.0000     -91.888646     -2500.4172
   1   2.0000     -20.601690      -560.6005
   2   2.0000     -20.595375      -560.4286
   3   2.0000     -20.542440      -558.9882
   4   2.0000     -15.628912      -425.2843
   5   2.0000     -15.607889      -424.7122
   6   2.0000     -11.396019      -310.1014
   7   2.0000     -11.383716      -309.7667
   8   2.0000     -11.335855      -308.4643
   9   2.0000     -11.312398      -307.8260
  10   2.0000     -11.308502      -307.7200
  11   2.0000     -11.298113      -307.4373
  12   2.0000     -11.258953      -306.3717
  13   2.0000     -11.258427      -306.3574
  14   2.0000     -11.253885      -306.2338
  15   2.0000     -11.252034      -306.1834
  16   2.0000     -11.241722      -305.9028
  17   2.0000     -11.237217      -305.7802
  18   2.0000     -11.236982      -305.7738
  19   2.0000     -11.223477      -305.4063
  20   2.0000      -8.893707      -242.0101
  21   2.0000      -6.575281      -178.9225
  22   2.0000      -6.573277      -178.8680
  23   2.0000      -6.572690      -178.8520
  24   2.0000      -1.451375       -39.4939
  25   2.0000      -1.415021       -38.5047
  26   2.0000      -1.355315       -36.8800
  27   2.0000      -1.339833       -36.4587
  28   2.0000      -1.238178       -33.6925
  29   2.0000      -1.156469       -31.4691
  30   2.0000      -1.120026       -30.4774
  31   2.0000      -1.042065       -28.3560
  32   2.0000      -1.036350       -28.2005
  33   2.0000      -1.013762       -27.5859
  34   2.0000      -0.994971       -27.0745
  35   2.0000      -0.983619       -26.7656
  36   2.0000      -0.921987       -25.0886
  37   2.0000      -0.893620       -24.3166
  38   2.0000      -0.846796       -23.0425
  39   2.0000      -0.836880       -22.7727
  40   2.0000      -0.832822       -22.6622
  41   2.0000      -0.817971       -22.2581
  42   2.0000      -0.757163       -20.6035
  43   2.0000      -0.731218       -19.8975
  44   2.0000      -0.722698       -19.6656
  45   2.0000      -0.694641       -18.9022
  46   2.0000      -0.687860       -18.7176
  47   2.0000      -0.680582       -18.5196
  48   2.0000      -0.670918       -18.2566
  49   2.0000      -0.653460       -17.7816
  50   2.0000      -0.646946       -17.6043
  51   2.0000      -0.645214       -17.5572
  52   2.0000      -0.630442       -17.1552
  53   2.0000      -0.612046       -16.6546
  54   2.0000      -0.605538       -16.4775
  55   2.0000      -0.598751       -16.2928
  56   2.0000      -0.597883       -16.2692
  57   2.0000      -0.578995       -15.7553
  58   2.0000      -0.571434       -15.5495
  59   2.0000      -0.570384       -15.5209
  60   2.0000      -0.562916       -15.3177
  61   2.0000      -0.538816       -14.6619
  62   2.0000      -0.536495       -14.5988
  63   2.0000      -0.526525       -14.3275
  64   2.0000      -0.523898       -14.2560
  65   2.0000      -0.513018       -13.9599
  66   2.0000      -0.500409       -13.6168
  67   2.0000      -0.497695       -13.5430
  68   2.0000      -0.485262       -13.2046
  69   2.0000      -0.463689       -12.6176
  70   2.0000      -0.455574       -12.3968
  71   2.0000      -0.447029       -12.1643
  72   2.0000      -0.354149        -9.6369
  73   2.0000      -0.348269        -9.4769
  74   2.0000      -0.327928        -8.9234
  75   2.0000      -0.320084        -8.7099
  76   2.0000      -0.315628        -8.5887
  77   0.0000       0.076395         2.0788
  78   0.0000       0.108080         2.9410
  79   0.0000       0.125127         3.4049
  80   0.0000       0.133076         3.6212
  81   0.0000       0.137118         3.7312

MULLIKEN ATOMIC CHARGES
-----------------------
   0 C :   -0.288202
   1 C :    0.039254
   2 O :   -0.352140
   3 C :    0.467242
   4 O :   -0.438197
   5 C :   -0.211491
   6 C :    0.148744
   7 C :   -0.275163
   8 N :   -0.119917
   9 C :    0.210779
  10 S :   -0.439960
  11 N :   -0.203089
  12 C :    0.047635
  13 C :    0.068801
  14 C :   -0.179288
  15 C :   -0.132428
  16 C :   -0.278129
  17 C :    0.315317
  18 O :   -0.356893
  19 C :   -0.269087
  20 H :    0.116981
  21 H :    0.093445
  22 H :    0.090935
  23 H :    0.097818
  24 H :    0.106767
  25 H :    0.132607
  26 H :    0.129954
  27 H :    0.095340
  28 H :    0.197199
  29 H :    0.194296
  30 H :    0.150251
  31 H :    0.147171
  32 H :    0.159423
  33 H :    0.129174
  34 H :    0.240531
  35 H :    0.164321
Sum of atomic charges:   -0.0000000

LOEWDIN ATOMIC CHARGES
----------------------
   0 C :    0.104771
   1 C :   -0.015351
   2 O :    0.307391
   3 C :   -0.412253
   4 O :    0.096639
   5 C :   -0.093730
   6 C :   -0.058913
   7 C :    0.131369
   8 N :    0.406531
   9 C :   -0.456657
  10 S :   -0.035500
  11 N :    0.396544
  12 C :   -0.052634
  13 C :   -0.038471
  14 C :    0.014232
  15 C :    0.038859
  16 C :   -0.001655
  17 C :   -0.189488
  18 O :    0.394996
  19 C :    0.031424
  20 H :   -0.025112
  21 H :   -0.027628
  22 H :   -0.030327
  23 H :   -0.027668
  24 H :   -0.025979
  25 H :   -0.004494
  26 H :   -0.004290
  27 H :   -0.023385
  28 H :   -0.057608
  29 H :   -0.064582
  30 H :   -0.011103
  31 H :   -0.030451
  32 H :   -0.021660
  33 H :   -0.035784
  34 H :   -0.154093
  35 H :   -0.023941

  Mayer bond orders larger than 0.100000
B(  0-C ,  1-C ) :   0.9686 B(  0-C , 20-H ) :   0.9744 B(  0-C , 21-H ) :   0.9769
B(  0-C , 22-H ) :   0.9769 B(  1-C ,  2-O ) :   0.8961 B(  1-C , 23-H ) :   0.9758
B(  1-C , 24-H ) :   0.9831 B(  2-O ,  3-C ) :   1.1623 B(  3-C ,  4-O ) :   1.9477
B(  3-C ,  5-C ) :   1.0684 B(  5-C ,  6-C ) :   1.6565 B(  5-C , 12-C ) :   0.9739
B(  6-C ,  7-C ) :   0.9674 B(  6-C ,  8-N ) :   1.1647 B(  7-C , 25-H ) :   0.9603
B(  7-C , 26-H ) :   0.9604 B(  7-C , 27-H ) :   0.9907 B(  8-N ,  9-C ) :   1.1822
B(  8-N , 28-H ) :   0.9479 B(  9-C , 10-S ) :   1.6076 B(  9-C , 11-N ) :   1.3049
B( 11-N , 12-C ) :   0.9876 B( 11-N , 29-H ) :   0.9517 B( 12-C , 13-C ) :   0.9371
B( 12-C , 30-H ) :   1.0027 B( 13-C , 14-C ) :   1.3557 B( 13-C , 19-C ) :   1.3823
B( 14-C , 15-C ) :   1.3927 B( 14-C , 31-H ) :   0.9720 B( 15-C , 16-C ) :   1.3644
B( 15-C , 32-H ) :   0.9709 B( 16-C , 17-C ) :   1.3317 B( 16-C , 33-H ) :   0.9853
B( 17-C , 18-O ) :   1.1097 B( 17-C , 19-C ) :   1.3737 B( 18-O , 34-H ) :   0.9800
B( 19-C , 35-H ) :   0.9583

MP2 TOTAL ENERGY:    -1274.349877538 Eh
FINAL SINGLE POINT ENERGY     -1274.349877537900

DIPOLE MOMENT
-------------
                                X             Y             Z
Electronic contribution:      9.77267       9.33665      10.12776
Nuclear contribution   :    -10.92144     -10.96587     -10.44439
                        -----------------------------------------
Total Dipole Moment    :     -1.14877      -1.62922      -0.31663
                        -----------------------------------------
Magnitude (a.u.)       :      2.01848
Magnitude (Debye)      :      5.13058

Rotational constants in cm-1:     0.010856     0.008848     0.006017
Rotational constants in MHz :   325.468535   265.244224   180.397392

                             ****ORCA TERMINATED NORMALLY****
TOTAL RUN TIME: 0 days 1 hours 37 minutes 24 seconds 724 msec
