                         Program Version 4.2.0 -  RELEASE  -
|  1> ! ri-mp2 cc-pvtz cc-pvtz/c TightSCF  NoKeepInts
|  2>
|  3> %scf
|  4>   MaxCore 4096
|  5> end
|  6> *xyz  0  1
|  7>     C       15.1714900   13.8104582   16.3539942
|  8>     C       15.3407397   15.2986592   16.7111271
|  9>     O       16.4285254   15.8416164   15.9403389
| 10>     C       17.6758578   15.7957167   16.4890065
| 11>     O       18.2517891   14.7322702   16.6389563
| 12>     C       17.9448076   16.9639758   17.3884602
| 13>     C       17.5209169   18.2259539   17.1294663
| 14>     C       16.7584145   18.7059856   15.9123471
| 15>     N       17.8534237   19.2639138   18.0050930
| 16>     C       18.7104293   19.1446780   19.0679820
| 17>     S       19.1406674   20.4486509   19.9895675
| 18>     N       19.1912327   17.8859079   19.3303213
| 19>     C       18.7425894   16.6517456   18.6571754
| 20>     C       17.9156986   15.7882386   19.6065222
| 21>     C       18.2313389   14.4296968   19.7915009
| 22>     C       17.4592912   13.6240729   20.6450044
| 23>     C       16.3598158   14.1804169   21.3202957
| 24>     C       16.0391932   15.5319787   21.1361051
| 25>     O       14.9709732   16.0698274   21.7766287
| 26>     C       16.8087626   16.3311174   20.2849027
| 27>     H       16.0502937   13.2313596   16.6645177
| 28>     H       15.0392358   13.6836447   15.2724065
| 29>     H       14.2938846   13.3910933   16.8602826
| 30>     H       14.4155822   15.8294986   16.4529122
| 31>     H       15.5146532   15.4183791   17.7894656
| 32>     H       17.1307988   18.2243281   14.9993310
| 33>     H       16.8511378   19.7885020   15.7613218
| 34>     H       15.6911951   18.4698763   16.0041306
| 35>     H       17.5130435   20.1956983   17.8278834
| 36>     H       19.7996785   17.8216196   20.1364924
| 37>     H       19.6379731   16.0850568   18.3626799
| 38>     H       19.0687008   13.9914479   19.2533363
| 39>     H       17.7112685   12.5728454   20.7737708
| 40>     H       15.7594628   13.5607501   21.9781624
| 41>     H       14.6112794   15.3879888   22.3640857
| 42>     H       16.5428555   17.3750306   20.1584257
| 43> *
| 44>
| 45>                          ****END OF INPUT****

CARTESIAN COORDINATES (ANGSTROEM)
---------------------------------
  C     15.171490   13.810458   16.353994
  C     15.340740   15.298659   16.711127
  O     16.428525   15.841616   15.940339
  C     17.675858   15.795717   16.489006
  O     18.251789   14.732270   16.638956
  C     17.944808   16.963976   17.388460
  C     17.520917   18.225954   17.129466
  C     16.758415   18.705986   15.912347
  N     17.853424   19.263914   18.005093
  C     18.710429   19.144678   19.067982
  S     19.140667   20.448651   19.989567
  N     19.191233   17.885908   19.330321
  C     18.742589   16.651746   18.657175
  C     17.915699   15.788239   19.606522
  C     18.231339   14.429697   19.791501
  C     17.459291   13.624073   20.645004
  C     16.359816   14.180417   21.320296
  C     16.039193   15.531979   21.136105
  O     14.970973   16.069827   21.776629
  C     16.808763   16.331117   20.284903
  H     16.050294   13.231360   16.664518
  H     15.039236   13.683645   15.272407
  H     14.293885   13.391093   16.860283
  H     14.415582   15.829499   16.452912
  H     15.514653   15.418379   17.789466
  H     17.130799   18.224328   14.999331
  H     16.851138   19.788502   15.761322
  H     15.691195   18.469876   16.004131
  H     17.513043   20.195698   17.827883
  H     19.799678   17.821620   20.136492
  H     19.637973   16.085057   18.362680
  H     19.068701   13.991448   19.253336
  H     17.711268   12.572845   20.773771
  H     15.759463   13.560750   21.978162
  H     14.611279   15.387989   22.364086
  H     16.542856   17.375031   20.158426

 Total Charge           Charge          ....    0
 Multiplicity           Mult            ....    1
 Number of Electrons    NEL             ....  154
 Basis Dimension        Dim             ....  828

ORBITAL ENERGIES
----------------

  NO   OCC          E(Eh)            E(eV)
   0   2.0000     -91.890108     -2500.4570
   1   2.0000     -20.597303      -560.4811
   2   2.0000     -20.581289      -560.0453
   3   2.0000     -20.557605      -559.4009
   4   2.0000     -15.629894      -425.3110
   5   2.0000     -15.609483      -424.7556
   6   2.0000     -11.395326      -310.0826
   7   2.0000     -11.385587      -309.8176
   8   2.0000     -11.335140      -308.4448
   9   2.0000     -11.313774      -307.8634
  10   2.0000     -11.309621      -307.7504
  11   2.0000     -11.300639      -307.5060
  12   2.0000     -11.261587      -306.4434
  13   2.0000     -11.260073      -306.4022
  14   2.0000     -11.259317      -306.3816
  15   2.0000     -11.253797      -306.2314
  16   2.0000     -11.243402      -305.9485
  17   2.0000     -11.239329      -305.8377
  18   2.0000     -11.236341      -305.7564
  19   2.0000     -11.219569      -305.3000
  20   2.0000      -8.895176      -242.0500
  21   2.0000      -6.576751      -178.9625
  22   2.0000      -6.574743      -178.9079
  23   2.0000      -6.574156      -178.8919
  24   2.0000      -1.451686       -39.5024
  25   2.0000      -1.417132       -38.5621
  26   2.0000      -1.358008       -36.9533
  27   2.0000      -1.340917       -36.4882
  28   2.0000      -1.239078       -33.7170
  29   2.0000      -1.157873       -31.5073
  30   2.0000      -1.122374       -30.5414
  31   2.0000      -1.045488       -28.4492
  32   2.0000      -1.029956       -28.0265
  33   2.0000      -1.015401       -27.6305
  34   2.0000      -1.000404       -27.2224
  35   2.0000      -0.985833       -26.8259
  36   2.0000      -0.924720       -25.1629
  37   2.0000      -0.881727       -23.9930
  38   2.0000      -0.850974       -23.1562
  39   2.0000      -0.840774       -22.8786
  40   2.0000      -0.833881       -22.6911
  41   2.0000      -0.829290       -22.5661
  42   2.0000      -0.750623       -20.4255
  43   2.0000      -0.732546       -19.9336
  44   2.0000      -0.729684       -19.8557
  45   2.0000      -0.695695       -18.9308
  46   2.0000      -0.687334       -18.7033
  47   2.0000      -0.680725       -18.5235
  48   2.0000      -0.673683       -18.3318
  49   2.0000      -0.665759       -18.1162
  50   2.0000      -0.648000       -17.6330
  51   2.0000      -0.646914       -17.6034
  52   2.0000      -0.637894       -17.3580
  53   2.0000      -0.606529       -16.5045
  54   2.0000      -0.605042       -16.4640
  55   2.0000      -0.601238       -16.3605
  56   2.0000      -0.590337       -16.0639
  57   2.0000      -0.582669       -15.8552
  58   2.0000      -0.577543       -15.7158
  59   2.0000      -0.572242       -15.5715
  60   2.0000      -0.562670       -15.3110
  61   2.0000      -0.551827       -15.0160
  62   2.0000      -0.535971       -14.5845
  63   2.0000      -0.523021       -14.2321
  64   2.0000      -0.515612       -14.0305
  65   2.0000      -0.512503       -13.9459
  66   2.0000      -0.502221       -13.6661
  67   2.0000      -0.497703       -13.5432
  68   2.0000      -0.481238       -13.0951
  69   2.0000      -0.467170       -12.7123
  70   2.0000      -0.453468       -12.3395
  71   2.0000      -0.450961       -12.2713
  72   2.0000      -0.356039        -9.6883
  73   2.0000      -0.349343        -9.5061
  74   2.0000      -0.329374        -8.9627
  75   2.0000      -0.321041        -8.7360
  76   2.0000      -0.317287        -8.6338
  77   0.0000       0.069573         1.8932
  78   0.0000       0.104018         2.8305
  79   0.0000       0.119259         3.2452
  80   0.0000       0.131001         3.5647
  81   0.0000       0.134834         3.6690

MULLIKEN ATOMIC CHARGES
-----------------------
   0 C :   -0.263636
   1 C :    0.030018
   2 O :   -0.378790
   3 C :    0.466601
   4 O :   -0.394952
   5 C :   -0.209329
   6 C :    0.137806
   7 C :   -0.281179
   8 N :   -0.123414
   9 C :    0.199390
  10 S :   -0.437388
  11 N :   -0.201734
  12 C :    0.058341
  13 C :    0.036495
  14 C :   -0.164437
  15 C :   -0.134610
  16 C :   -0.277521
  17 C :    0.319724
  18 O :   -0.359777
  19 C :   -0.290348
  20 H :    0.114035
  21 H :    0.095065
  22 H :    0.086283
  23 H :    0.101548
  24 H :    0.100338
  25 H :    0.126903
  26 H :    0.106368
  27 H :    0.123287
  28 H :    0.197413
  29 H :    0.194418
  30 H :    0.156603
  31 H :    0.160726
  32 H :    0.162063
  33 H :    0.131771
  34 H :    0.241092
  35 H :    0.170824
Sum of atomic charges:    0.0000000

LOEWDIN ATOMIC CHARGES
----------------------
   0 C :    0.107304
   1 C :   -0.017008
   2 O :    0.285390
   3 C :   -0.418020
   4 O :    0.135322
   5 C :   -0.095656
   6 C :   -0.073615
   7 C :    0.126871
   8 N :    0.404493
   9 C :   -0.457985
  10 S :   -0.034745
  11 N :    0.397022
  12 C :   -0.045670
  13 C :   -0.042299
  14 C :    0.021325
  15 C :    0.042657
  16 C :   -0.001689
  17 C :   -0.195102
  18 O :    0.393921
  19 C :    0.027027
  20 H :   -0.025019
  21 H :   -0.027023
  22 H :   -0.029978
  23 H :   -0.027506
  24 H :   -0.029949
  25 H :   -0.006849
  26 H :   -0.018993
  27 H :   -0.010318
  28 H :   -0.058414
  29 H :   -0.064005
  30 H :   -0.004261
  31 H :   -0.023975
  32 H :   -0.019805
  33 H :   -0.035233
  34 H :   -0.153612
  35 H :   -0.024604

  Mayer bond orders larger than 0.100000
B(  0-C ,  1-C ) :   0.9866 B(  0-C , 20-H ) :   0.9719 B(  0-C , 21-H ) :   0.9774
B(  0-C , 22-H ) :   0.9754 B(  1-C ,  2-O ) :   0.8874 B(  1-C , 23-H ) :   0.9816
B(  1-C , 24-H ) :   0.9646 B(  2-O ,  3-C ) :   1.0854 B(  3-C ,  4-O ) :   2.0297
B(  3-C ,  5-C ) :   1.0162 B(  5-C ,  6-C ) :   1.6693 B(  5-C , 12-C ) :   0.9587
B(  6-C ,  7-C ) :   0.9522 B(  6-C ,  8-N ) :   1.1397 B(  7-C , 25-H ) :   0.9695
B(  7-C , 26-H ) :   0.9877 B(  7-C , 27-H ) :   0.9641 B(  8-N ,  9-C ) :   1.1827
B(  8-N , 28-H ) :   0.9495 B(  9-C , 10-S ) :   1.6139 B(  9-C , 11-N ) :   1.2987
B( 11-N , 12-C ) :   0.9935 B( 11-N , 29-H ) :   0.9518 B( 12-C , 13-C ) :   0.9434
B( 12-C , 30-H ) :   0.9989 B( 13-C , 14-C ) :   1.3812 B( 13-C , 19-C ) :   1.3582
B( 14-C , 15-C ) :   1.3950 B( 14-C , 31-H ) :   0.9617 B( 15-C , 16-C ) :   1.3640
B( 15-C , 32-H ) :   0.9705 B( 16-C , 17-C ) :   1.3306 B( 16-C , 33-H ) :   0.9844
B( 17-C , 18-O ) :   1.1102 B( 17-C , 19-C ) :   1.3691 B( 18-O , 34-H ) :   0.9796
B( 19-C , 35-H ) :   0.9593

MP2 TOTAL ENERGY:    -1274.324344717 Eh
FINAL SINGLE POINT ENERGY     -1274.324344717138

DIPOLE MOMENT
-------------
                                X             Y             Z
Electronic contribution:     10.55928      10.16830       7.03391
Nuclear contribution   :    -11.97907     -11.21098      -7.47130
                        -----------------------------------------
Total Dipole Moment    :     -1.41979      -1.04268      -0.43740
                        -----------------------------------------
Magnitude (a.u.)       :      1.81502
Magnitude (Debye)      :      4.61341

Rotational constants in cm-1:     0.012091     0.009149     0.006528
Rotational constants in MHz :   362.484700   274.273082   195.691237

                             ****ORCA TERMINATED NORMALLY****
TOTAL RUN TIME: 0 days 1 hours 49 minutes 41 seconds 2 msec
