                         Program Version 4.2.0 -  RELEASE  -
|  1> ! ri-mp2 cc-pvtz cc-pvtz/c TightSCF  NoKeepInts
|  2>
|  3> %scf
|  4>   MaxCore 4096
|  5> end
|  6> *xyz  0  1
|  7>     C       15.2039769   15.2290386   17.4585505
|  8>     C       15.5246372   15.4114517   15.9609576
|  9>     O       16.9360707   15.2872482   15.6561407
| 10>     C       17.9952019   15.5863326   16.4784103
| 11>     O       18.9319726   14.8123843   16.5539264
| 12>     C       17.9120333   16.7931878   17.3676089
| 13>     C       17.3879095   17.9864756   16.9887899
| 14>     C       16.8502702   18.3859783   15.6306572
| 15>     N       17.4353883   19.0763818   17.8620322
| 16>     C       18.1364085   19.1074917   19.0380564
| 17>     S       18.2304546   20.4777289   19.9587159
| 18>     N       18.7601705   17.9437980   19.4097343
| 19>     C       18.6034100   16.6430028   18.7303120
| 20>     C       17.8837836   15.6374987   19.6277966
| 21>     C       18.3122255   14.2975915   19.6701017
| 22>     C       17.6534814   13.3576315   20.4798073
| 23>     C       16.5553925   13.7589625   21.2587354
| 24>     C       16.1255921   15.0919667   21.2231979
| 25>     O       15.0599791   15.4814367   21.9670452
| 26>     C       16.7836145   16.0258464   20.4165801
| 27>     H       15.7785779   14.3987869   17.8894172
| 28>     H       14.1395662   14.9992900   17.5892406
| 29>     H       15.4065927   16.1420693   18.0274489
| 30>     H       14.9897380   14.6393207   15.3926129
| 31>     H       15.1324648   16.3757008   15.6229714
| 32>     H       17.1069500   17.6627093   14.8480626
| 33>     H       17.2807844   19.3428916   15.3084495
| 34>     H       15.7609163   18.5063391   15.6527915
| 35>     H       17.0011589   19.9466026   17.5974617
| 36>     H       19.2588877   17.9885243   20.2894527
| 37>     H       19.6149740   16.2529160   18.5434077
| 38>     H       19.1551771   13.9793585   19.0601617
| 39>     H       17.9935750   12.3235179   20.4969301
| 40>     H       16.0422736   13.0353281   21.8834496
| 41>     H       14.7755074   14.7165260   22.4897491
| 42>     H       16.4278833   17.0506844   20.4052362
| 43> *
| 44>
| 45>                          ****END OF INPUT****

CARTESIAN COORDINATES (ANGSTROEM)
---------------------------------
  C     15.203977   15.229039   17.458551
  C     15.524637   15.411452   15.960958
  O     16.936071   15.287248   15.656141
  C     17.995202   15.586333   16.478410
  O     18.931973   14.812384   16.553926
  C     17.912033   16.793188   17.367609
  C     17.387909   17.986476   16.988790
  C     16.850270   18.385978   15.630657
  N     17.435388   19.076382   17.862032
  C     18.136408   19.107492   19.038056
  S     18.230455   20.477729   19.958716
  N     18.760170   17.943798   19.409734
  C     18.603410   16.643003   18.730312
  C     17.883784   15.637499   19.627797
  C     18.312226   14.297591   19.670102
  C     17.653481   13.357631   20.479807
  C     16.555392   13.758963   21.258735
  C     16.125592   15.091967   21.223198
  O     15.059979   15.481437   21.967045
  C     16.783614   16.025846   20.416580
  H     15.778578   14.398787   17.889417
  H     14.139566   14.999290   17.589241
  H     15.406593   16.142069   18.027449
  H     14.989738   14.639321   15.392613
  H     15.132465   16.375701   15.622971
  H     17.106950   17.662709   14.848063
  H     17.280784   19.342892   15.308449
  H     15.760916   18.506339   15.652791
  H     17.001159   19.946603   17.597462
  H     19.258888   17.988524   20.289453
  H     19.614974   16.252916   18.543408
  H     19.155177   13.979359   19.060162
  H     17.993575   12.323518   20.496930
  H     16.042274   13.035328   21.883450
  H     14.775507   14.716526   22.489749
  H     16.427883   17.050684   20.405236

 Total Charge           Charge          ....    0
 Multiplicity           Mult            ....    1
 Number of Electrons    NEL             ....  154
 Basis Dimension        Dim             ....  828

ORBITAL ENERGIES
----------------

  NO   OCC          E(Eh)            E(eV)
   0   2.0000     -91.890983     -2500.4808
   1   2.0000     -20.597236      -560.4793
   2   2.0000     -20.595337      -560.4276
   3   2.0000     -20.549315      -559.1753
   4   2.0000     -15.629753      -425.3072
   5   2.0000     -15.610618      -424.7865
   6   2.0000     -11.399554      -310.1976
   7   2.0000     -11.386771      -309.8498
   8   2.0000     -11.336605      -308.4847
   9   2.0000     -11.313660      -307.8603
  10   2.0000     -11.311763      -307.8087
  11   2.0000     -11.309776      -307.7546
  12   2.0000     -11.267844      -306.6136
  13   2.0000     -11.267615      -306.6074
  14   2.0000     -11.260416      -306.4115
  15   2.0000     -11.253835      -306.2324
  16   2.0000     -11.243470      -305.9504
  17   2.0000     -11.239012      -305.8291
  18   2.0000     -11.235374      -305.7301
  19   2.0000     -11.231613      -305.6277
  20   2.0000      -8.896074      -242.0745
  21   2.0000      -6.577657      -178.9872
  22   2.0000      -6.575637      -178.9322
  23   2.0000      -6.575055      -178.9164
  24   2.0000      -1.444467       -39.3060
  25   2.0000      -1.417057       -38.5601
  26   2.0000      -1.356864       -36.9221
  27   2.0000      -1.342687       -36.5364
  28   2.0000      -1.240959       -33.7682
  29   2.0000      -1.158173       -31.5155
  30   2.0000      -1.124043       -30.5868
  31   2.0000      -1.046455       -28.4755
  32   2.0000      -1.038139       -28.2492
  33   2.0000      -1.016536       -27.6614
  34   2.0000      -1.005675       -27.3658
  35   2.0000      -0.989503       -26.9257
  36   2.0000      -0.927598       -25.2412
  37   2.0000      -0.899013       -24.4634
  38   2.0000      -0.854798       -23.2602
  39   2.0000      -0.840861       -22.8810
  40   2.0000      -0.833984       -22.6939
  41   2.0000      -0.827249       -22.5106
  42   2.0000      -0.744953       -20.2712
  43   2.0000      -0.735549       -20.0153
  44   2.0000      -0.730138       -19.8681
  45   2.0000      -0.694982       -18.9114
  46   2.0000      -0.686458       -18.6795
  47   2.0000      -0.680990       -18.5307
  48   2.0000      -0.675030       -18.3685
  49   2.0000      -0.660497       -17.9730
  50   2.0000      -0.657757       -17.8985
  51   2.0000      -0.651204       -17.7201
  52   2.0000      -0.640286       -17.4231
  53   2.0000      -0.623320       -16.9614
  54   2.0000      -0.609331       -16.5807
  55   2.0000      -0.605224       -16.4690
  56   2.0000      -0.601396       -16.3648
  57   2.0000      -0.587269       -15.9804
  58   2.0000      -0.575877       -15.6704
  59   2.0000      -0.565357       -15.3842
  60   2.0000      -0.563878       -15.3439
  61   2.0000      -0.551651       -15.0112
  62   2.0000      -0.541186       -14.7264
  63   2.0000      -0.535303       -14.5663
  64   2.0000      -0.521578       -14.1929
  65   2.0000      -0.512924       -13.9574
  66   2.0000      -0.500793       -13.6273
  67   2.0000      -0.494582       -13.4582
  68   2.0000      -0.483768       -13.1640
  69   2.0000      -0.471039       -12.8176
  70   2.0000      -0.457128       -12.4391
  71   2.0000      -0.449149       -12.2220
  72   2.0000      -0.358225        -9.7478
  73   2.0000      -0.348137        -9.4733
  74   2.0000      -0.330419        -8.9912
  75   2.0000      -0.322378        -8.7724
  76   2.0000      -0.319294        -8.6884
  77   0.0000       0.076310         2.0765
  78   0.0000       0.107519         2.9257
  79   0.0000       0.115099         3.1320
  80   0.0000       0.131079         3.5668
  81   0.0000       0.133004         3.6192

MULLIKEN ATOMIC CHARGES
-----------------------
   0 C :   -0.340245
   1 C :    0.032280
   2 O :   -0.341074
   3 C :    0.445797
   4 O :   -0.386528
   5 C :   -0.245179
   6 C :    0.180010
   7 C :   -0.343944
   8 N :   -0.134128
   9 C :    0.194521
  10 S :   -0.438351
  11 N :   -0.215133
  12 C :    0.071613
  13 C :    0.027050
  14 C :   -0.206747
  15 C :   -0.134612
  16 C :   -0.278619
  17 C :    0.321292
  18 O :   -0.358438
  19 C :   -0.275084
  20 H :    0.130679
  21 H :    0.118629
  22 H :    0.111125
  23 H :    0.128681
  24 H :    0.086577
  25 H :    0.142344
  26 H :    0.135425
  27 H :    0.121539
  28 H :    0.197700
  29 H :    0.199500
  30 H :    0.164661
  31 H :    0.174513
  32 H :    0.163826
  33 H :    0.131613
  34 H :    0.240957
  35 H :    0.177750
Sum of atomic charges:   -0.0000000

LOEWDIN ATOMIC CHARGES
----------------------
   0 C :    0.104487
   1 C :   -0.016744
   2 O :    0.290432
   3 C :   -0.416362
   4 O :    0.123705
   5 C :   -0.083355
   6 C :   -0.085567
   7 C :    0.123869
   8 N :    0.403689
   9 C :   -0.460075
  10 S :   -0.035804
  11 N :    0.398037
  12 C :   -0.043813
  13 C :   -0.042648
  14 C :    0.019895
  15 C :    0.041819
  16 C :   -0.001686
  17 C :   -0.193410
  18 O :    0.394842
  19 C :    0.028868
  20 H :   -0.018225
  21 H :   -0.022934
  22 H :   -0.034876
  23 H :   -0.019718
  24 H :   -0.038816
  25 H :   -0.007700
  26 H :   -0.010461
  27 H :   -0.019218
  28 H :   -0.056839
  29 H :   -0.062982
  30 H :   -0.002389
  31 H :   -0.022461
  32 H :   -0.019138
  33 H :   -0.035143
  34 H :   -0.153661
  35 H :   -0.025621

  Mayer bond orders larger than 0.100000
B(  0-C ,  1-C ) :   0.9576 B(  0-C , 20-H ) :   0.9663 B(  0-C , 21-H ) :   0.9765
B(  0-C , 22-H ) :   0.9719 B(  1-C ,  2-O ) :   0.9020 B(  1-C , 23-H ) :   0.9820
B(  1-C , 24-H ) :   0.9739 B(  2-O ,  3-C ) :   1.1646 B(  3-C ,  4-O ) :   2.0728
B(  3-C ,  5-C ) :   0.9445 B(  5-C ,  6-C ) :   1.6740 B(  5-C , 12-C ) :   0.9573
B(  6-C ,  7-C ) :   0.9431 B(  6-C ,  8-N ) :   1.1201 B(  7-C , 25-H ) :   0.9747
B(  7-C , 26-H ) :   0.9738 B(  7-C , 27-H ) :   0.9656 B(  8-N ,  9-C ) :   1.1892
B(  8-N , 28-H ) :   0.9515 B(  9-C , 10-S ) :   1.6123 B(  9-C , 11-N ) :   1.2935
B( 11-N , 12-C ) :   0.9885 B( 11-N , 29-H ) :   0.9498 B( 12-C , 13-C ) :   0.9493
B( 12-C , 30-H ) :   0.9970 B( 13-C , 14-C ) :   1.3896 B( 13-C , 19-C ) :   1.3394
B( 14-C , 15-C ) :   1.3982 B( 14-C , 31-H ) :   0.9578 B( 15-C , 16-C ) :   1.3598
B( 15-C , 32-H ) :   0.9703 B( 16-C , 17-C ) :   1.3310 B( 16-C , 33-H ) :   0.9848
B( 17-C , 18-O ) :   1.1100 B( 17-C , 19-C ) :   1.3680 B( 18-O , 34-H ) :   0.9798
B( 19-C , 35-H ) :   0.9572

MP2 TOTAL ENERGY:    -1274.331878402 Eh
FINAL SINGLE POINT ENERGY     -1274.331878402376

DIPOLE MOMENT
-------------
                                X             Y             Z
Electronic contribution:      9.24439       6.54311       6.17253
Nuclear contribution   :    -10.82266      -7.51717      -6.74012
                        -----------------------------------------
Total Dipole Moment    :     -1.57826      -0.97406      -0.56759
                        -----------------------------------------
Magnitude (a.u.)       :      1.93955
Magnitude (Debye)      :      4.92995

Rotational constants in cm-1:     0.011560     0.009727     0.006766
Rotational constants in MHz :   346.548622   291.602317   202.842847

                             ****ORCA TERMINATED NORMALLY****
TOTAL RUN TIME: 0 days 2 hours 54 minutes 2 seconds 422 msec
