                         Program Version 4.2.0 -  RELEASE  -
|  1> ! ri-mp2 cc-pvtz cc-pvtz/c TightSCF  NoKeepInts
|  2>
|  3> %scf
|  4>   MaxCore 4096
|  5> end
|  6> *xyz  0  1
|  7>     C       14.8798324   14.2914165   16.1398247
|  8>     C       16.0768112   14.6512036   17.0355967
|  9>     O       17.1298170   15.1115987   16.1697871
| 10>     C       17.4070158   16.4446817   16.0565489
| 11>     O       17.2667455   16.9941359   14.9799450
| 12>     C       17.6733672   17.1927428   17.3355469
| 13>     C       17.3374724   18.5002222   17.4703385
| 14>     C       16.5032748   19.3300653   16.5190776
| 15>     N       17.8211813   19.2375512   18.5551994
| 16>     C       18.8427255   18.8238269   19.3699303
| 17>     S       19.5284986   19.8239011   20.4943362
| 18>     N       19.2788746   17.5342571   19.1910068
| 19>     C       18.5650094   16.5176919   18.3957360
| 20>     C       17.8313806   15.5886475   19.3565639
| 21>     C       18.2506275   14.2531958   19.5078673
| 22>     C       17.5843399   13.3909238   20.3947401
| 23>     C       16.4960970   13.8693161   21.1440731
| 24>     C       16.0864976   15.2026389   21.0092563
| 25>     O       15.0374371   15.6688409   21.7316744
| 26>     C       16.7498469   16.0582035   20.1243636
| 27>     H       14.5334939   15.1718511   15.5837081
| 28>     H       14.0451938   13.9150463   16.7435667
| 29>     H       15.1587791   13.5153709   15.4159855
| 30>     H       15.7646058   15.4171436   17.7547046
| 31>     H       16.3991289   13.7548056   17.5801217
| 32>     H       15.6395311   18.7594672   16.1552833
| 33>     H       17.0965240   19.6167417   15.6408608
| 34>     H       16.1184557   20.2464055   16.9818367
| 35>     H       17.5309774   20.1950700   18.6760500
| 36>     H       20.0230670   17.2517480   19.8160496
| 37>     H       19.3193649   15.9256949   17.8579352
| 38>     H       19.0928077   13.8789227   18.9310911
| 39>     H       17.9137997   12.3584792   20.5020443
| 40>     H       15.9793710   13.2069237   21.8312355
| 41>     H       14.7620912   14.9639830   22.3375639
| 42>     H       16.4229563   17.0892850   20.0445501
| 43> *
| 44>
| 45>                          ****END OF INPUT****

CARTESIAN COORDINATES (ANGSTROEM)
---------------------------------
  C     14.879832   14.291417   16.139825
  C     16.076811   14.651204   17.035597
  O     17.129817   15.111599   16.169787
  C     17.407016   16.444682   16.056549
  O     17.266745   16.994136   14.979945
  C     17.673367   17.192743   17.335547
  C     17.337472   18.500222   17.470339
  C     16.503275   19.330065   16.519078
  N     17.821181   19.237551   18.555199
  C     18.842726   18.823827   19.369930
  S     19.528499   19.823901   20.494336
  N     19.278875   17.534257   19.191007
  C     18.565009   16.517692   18.395736
  C     17.831381   15.588647   19.356564
  C     18.250627   14.253196   19.507867
  C     17.584340   13.390924   20.394740
  C     16.496097   13.869316   21.144073
  C     16.086498   15.202639   21.009256
  O     15.037437   15.668841   21.731674
  C     16.749847   16.058204   20.124364
  H     14.533494   15.171851   15.583708
  H     14.045194   13.915046   16.743567
  H     15.158779   13.515371   15.415985
  H     15.764606   15.417144   17.754705
  H     16.399129   13.754806   17.580122
  H     15.639531   18.759467   16.155283
  H     17.096524   19.616742   15.640861
  H     16.118456   20.246406   16.981837
  H     17.530977   20.195070   18.676050
  H     20.023067   17.251748   19.816050
  H     19.319365   15.925695   17.857935
  H     19.092808   13.878923   18.931091
  H     17.913800   12.358479   20.502044
  H     15.979371   13.206924   21.831235
  H     14.762091   14.963983   22.337564
  H     16.422956   17.089285   20.044550

 Total Charge           Charge          ....    0
 Multiplicity           Mult            ....    1
 Number of Electrons    NEL             ....  154
 Basis Dimension        Dim             ....  828

ORBITAL ENERGIES
----------------

  NO   OCC          E(Eh)            E(eV)
   0   2.0000     -91.892087     -2500.5108
   1   2.0000     -20.604375      -560.6736
   2   2.0000     -20.587851      -560.2239
   3   2.0000     -20.548084      -559.1418
   4   2.0000     -15.631415      -425.3524
   5   2.0000     -15.611662      -424.8149
   6   2.0000     -11.393290      -310.0272
   7   2.0000     -11.386837      -309.8516
   8   2.0000     -11.336152      -308.4724
   9   2.0000     -11.322606      -308.1038
  10   2.0000     -11.317424      -307.9628
  11   2.0000     -11.295240      -307.3591
  12   2.0000     -11.267387      -306.6012
  13   2.0000     -11.263800      -306.5036
  14   2.0000     -11.260611      -306.4168
  15   2.0000     -11.255274      -306.2716
  16   2.0000     -11.251895      -306.1796
  17   2.0000     -11.246423      -306.0307
  18   2.0000     -11.245722      -306.0117
  19   2.0000     -11.223142      -305.3972
  20   2.0000      -8.897096      -242.1023
  21   2.0000      -6.578657      -179.0144
  22   2.0000      -6.576666      -178.9602
  23   2.0000      -6.576067      -178.9439
  24   2.0000      -1.446235       -39.3540
  25   2.0000      -1.424080       -38.7512
  26   2.0000      -1.355265       -36.8786
  27   2.0000      -1.343339       -36.5541
  28   2.0000      -1.242317       -33.8052
  29   2.0000      -1.165134       -31.7049
  30   2.0000      -1.123143       -30.5623
  31   2.0000      -1.049358       -28.5545
  32   2.0000      -1.032203       -28.0877
  33   2.0000      -1.023860       -27.8607
  34   2.0000      -1.001404       -27.2496
  35   2.0000      -0.988077       -26.8870
  36   2.0000      -0.928157       -25.2564
  37   2.0000      -0.880664       -23.9641
  38   2.0000      -0.852386       -23.1946
  39   2.0000      -0.847237       -23.0545
  40   2.0000      -0.842032       -22.9129
  41   2.0000      -0.834302       -22.7025
  42   2.0000      -0.758145       -20.6302
  43   2.0000      -0.738021       -20.0826
  44   2.0000      -0.719941       -19.5906
  45   2.0000      -0.703947       -19.1554
  46   2.0000      -0.694217       -18.8906
  47   2.0000      -0.679489       -18.4898
  48   2.0000      -0.671137       -18.2626
  49   2.0000      -0.669521       -18.2186
  50   2.0000      -0.653099       -17.7717
  51   2.0000      -0.648362       -17.6428
  52   2.0000      -0.640183       -17.4203
  53   2.0000      -0.614753       -16.7283
  54   2.0000      -0.608379       -16.5548
  55   2.0000      -0.603497       -16.4220
  56   2.0000      -0.589874       -16.0513
  57   2.0000      -0.583987       -15.8911
  58   2.0000      -0.576931       -15.6991
  59   2.0000      -0.573582       -15.6080
  60   2.0000      -0.562619       -15.3096
  61   2.0000      -0.547975       -14.9111
  62   2.0000      -0.541700       -14.7404
  63   2.0000      -0.532341       -14.4857
  64   2.0000      -0.520684       -14.1685
  65   2.0000      -0.516349       -14.0506
  66   2.0000      -0.507898       -13.8206
  67   2.0000      -0.501648       -13.6505
  68   2.0000      -0.484099       -13.1730
  69   2.0000      -0.467698       -12.7267
  70   2.0000      -0.450212       -12.2509
  71   2.0000      -0.446613       -12.1529
  72   2.0000      -0.360258        -9.8031
  73   2.0000      -0.355541        -9.6748
  74   2.0000      -0.332961        -9.0603
  75   2.0000      -0.329142        -8.9564
  76   2.0000      -0.319372        -8.6906
  77   0.0000       0.071760         1.9527
  78   0.0000       0.097864         2.6630
  79   0.0000       0.118917         3.2359
  80   0.0000       0.126698         3.4476
  81   0.0000       0.128916         3.5080

MULLIKEN ATOMIC CHARGES
-----------------------
   0 C :   -0.256260
   1 C :    0.020691
   2 O :   -0.346494
   3 C :    0.439418
   4 O :   -0.379079
   5 C :   -0.271114
   6 C :    0.160792
   7 C :   -0.272334
   8 N :   -0.129155
   9 C :    0.207184
  10 S :   -0.433013
  11 N :   -0.191297
  12 C :    0.041250
  13 C :    0.046966
  14 C :   -0.202768
  15 C :   -0.129329
  16 C :   -0.272014
  17 C :    0.309913
  18 O :   -0.354886
  19 C :   -0.253333
  20 H :    0.095714
  21 H :    0.087441
  22 H :    0.101249
  23 H :    0.101109
  24 H :    0.111260
  25 H :    0.121902
  26 H :    0.141960
  27 H :    0.094309
  28 H :    0.198857
  29 H :    0.190947
  30 H :    0.150086
  31 H :    0.152786
  32 H :    0.166598
  33 H :    0.134791
  34 H :    0.242251
  35 H :    0.173603
Sum of atomic charges:   -0.0000000

LOEWDIN ATOMIC CHARGES
----------------------
   0 C :    0.106199
   1 C :   -0.025747
   2 O :    0.297631
   3 C :   -0.425163
   4 O :    0.125835
   5 C :   -0.098846
   6 C :   -0.067790
   7 C :    0.129927
   8 N :    0.406032
   9 C :   -0.456592
  10 S :   -0.030401
  11 N :    0.396400
  12 C :   -0.051598
  13 C :   -0.040053
  14 C :    0.013667
  15 C :    0.042522
  16 C :    0.000648
  17 C :   -0.190583
  18 O :    0.397068
  19 C :    0.032800
  20 H :   -0.026873
  21 H :   -0.028707
  22 H :   -0.025132
  23 H :   -0.036362
  24 H :   -0.026300
  25 H :   -0.007492
  26 H :   -0.002337
  27 H :   -0.022361
  28 H :   -0.057210
  29 H :   -0.065249
  30 H :   -0.005453
  31 H :   -0.029112
  32 H :   -0.019228
  33 H :   -0.033553
  34 H :   -0.151985
  35 H :   -0.024603

  Mayer bond orders larger than 0.100000
B(  0-C ,  1-C ) :   0.9768 B(  0-C , 20-H ) :   0.9766 B(  0-C , 21-H ) :   0.9772
B(  0-C , 22-H ) :   0.9809 B(  1-C ,  2-O ) :   0.8798 B(  1-C , 23-H ) :   0.9618
B(  1-C , 24-H ) :   0.9783 B(  2-O ,  3-C ) :   1.1589 B(  3-C ,  4-O ) :   2.0780
B(  3-C ,  5-C ) :   0.9849 B(  5-C ,  6-C ) :   1.6750 B(  5-C , 12-C ) :   0.9694
B(  6-C ,  7-C ) :   0.9657 B(  6-C ,  8-N ) :   1.1429 B(  7-C , 25-H ) :   0.9705
B(  7-C , 26-H ) :   0.9549 B(  7-C , 27-H ) :   0.9852 B(  8-N ,  9-C ) :   1.1804
B(  8-N , 28-H ) :   0.9494 B(  9-C , 10-S ) :   1.6196 B(  9-C , 11-N ) :   1.2941
B( 11-N , 12-C ) :   0.9809 B( 11-N , 29-H ) :   0.9543 B( 12-C , 13-C ) :   0.9533
B( 12-C , 30-H ) :   1.0045 B( 13-C , 14-C ) :   1.3541 B( 13-C , 19-C ) :   1.3556
B( 14-C , 15-C ) :   1.3827 B( 14-C , 31-H ) :   0.9757 B( 15-C , 16-C ) :   1.3712
B( 15-C , 32-H ) :   0.9687 B( 16-C , 17-C ) :   1.3234 B( 16-C , 33-H ) :   0.9830
B( 17-C , 18-O ) :   1.1160 B( 17-C , 19-C ) :   1.3798 B( 18-O , 34-H ) :   0.9786
B( 19-C , 35-H ) :   0.9558

MP2 TOTAL ENERGY:    -1274.329999187 Eh
FINAL SINGLE POINT ENERGY     -1274.329999187089

DIPOLE MOMENT
-------------
                                X             Y             Z
Electronic contribution:     10.84842       8.79103       6.53448
Nuclear contribution   :    -12.09991     -10.36643      -5.97072
                        -----------------------------------------
Total Dipole Moment    :     -1.25149      -1.57540       0.56376
                        -----------------------------------------
Magnitude (a.u.)       :      2.08948
Magnitude (Debye)      :      5.31105

Rotational constants in cm-1:     0.011399     0.009631     0.006405
Rotational constants in MHz :   341.739593   288.734311   192.015871

                             ****ORCA TERMINATED NORMALLY****
TOTAL RUN TIME: 0 days 1 hours 46 minutes 4 seconds 187 msec
