                         Program Version 5.0.0 -  RELEASE  -
|  1> ! ri-mp2 cc-pvtz cc-pvtz/c TightSCF NoKeepInts
|  2>
|  3> %scf
|  4>   MaxCore 4096
|  5> end
|  6> *xyz  0  1
|  7>     C       15.2339609   14.1612640   15.0872151
|  8>     C       16.2122141   13.8673262   16.2447127
|  9>     O       16.8696019   15.0187865   16.8379192
| 10>     C       16.5256504   16.3458526   16.7372476
| 11>     O       15.6149496   16.7740871   16.0517301
| 12>     C       17.4064890   17.2166113   17.5939901
| 13>     C       17.3172429   18.5718657   17.5930445
| 14>     C       16.3702587   19.4314610   16.7826652
| 15>     N       18.1873693   19.3333629   18.3792459
| 16>     C       19.2334920   18.8298697   19.1047861
| 17>     S       20.2778002   19.8105305   19.9317012
| 18>     N       19.3742153   17.4659830   19.1087060
| 19>     C       18.4235922   16.5122420   18.5086725
| 20>     C       17.7381026   15.7086593   19.6102807
| 21>     C       17.9947275   14.3321147   19.7543517
| 22>     C       17.3649860   13.5895587   20.7674410
| 23>     C       16.4734577   14.2287719   21.6458319
| 24>     C       16.2191849   15.6002921   21.5081528
| 25>     O       15.3603336   16.2206209   22.3558891
| 26>     C       16.8474029   16.3365835   20.4990614
| 27>     H       14.3393432   14.6849900   15.4467341
| 28>     H       14.9021126   13.2239135   14.6250208
| 29>     H       15.7137537   14.7685860   14.3094541
| 30>     H       15.6538249   13.3448906   17.0323860
| 31>     H       16.9839554   13.1735114   15.8877175
| 32>     H       15.3279369   19.1989413   17.0360646
| 33>     H       16.4964833   19.2391203   15.7096515
| 34>     H       16.5183893   20.5053816   16.9453405
| 35>     H       18.0995279   20.3369419   18.3873916
| 36>     H       20.1312773   17.1218902   19.6850607
| 37>     H       19.0089294   15.8207826   17.8865998
| 38>     H       18.6806533   13.8349148   19.0739462
| 39>     H       17.5684647   12.5251143   20.8698983
| 40>     H       15.9849050   13.6598962   22.4300085
| 41>     H       15.0495641   15.5588819   22.9916709
| 42>     H       16.6428473   17.3983998   20.4144103
| 43> *
| 44>
| 45>                          ****END OF INPUT****

CARTESIAN COORDINATES (ANGSTROEM)
---------------------------------
  C     15.233961   14.161264   15.087215
  C     16.212214   13.867326   16.244713
  O     16.869602   15.018786   16.837919
  C     16.525650   16.345853   16.737248
  O     15.614950   16.774087   16.051730
  C     17.406489   17.216611   17.593990
  C     17.317243   18.571866   17.593045
  C     16.370259   19.431461   16.782665
  N     18.187369   19.333363   18.379246
  C     19.233492   18.829870   19.104786
  S     20.277800   19.810530   19.931701
  N     19.374215   17.465983   19.108706
  C     18.423592   16.512242   18.508672
  C     17.738103   15.708659   19.610281
  C     17.994727   14.332115   19.754352
  C     17.364986   13.589559   20.767441
  C     16.473458   14.228772   21.645832
  C     16.219185   15.600292   21.508153
  O     15.360334   16.220621   22.355889
  C     16.847403   16.336583   20.499061
  H     14.339343   14.684990   15.446734
  H     14.902113   13.223914   14.625021
  H     15.713754   14.768586   14.309454
  H     15.653825   13.344891   17.032386
  H     16.983955   13.173511   15.887718
  H     15.327937   19.198941   17.036065
  H     16.496483   19.239120   15.709651
  H     16.518389   20.505382   16.945341
  H     18.099528   20.336942   18.387392
  H     20.131277   17.121890   19.685061
  H     19.008929   15.820783   17.886600
  H     18.680653   13.834915   19.073946
  H     17.568465   12.525114   20.869898
  H     15.984905   13.659896   22.430008
  H     15.049564   15.558882   22.991671
  H     16.642847   17.398400   20.414410

 Total Charge           Charge          ....    0
 Multiplicity           Mult            ....    1
 Number of Electrons    NEL             ....  154
 Basis Dimension        Dim             ....  828

ORBITAL ENERGIES
----------------

  NO   OCC          E(Eh)            E(eV)
   0   2.0000     -91.887534     -2500.3869
   1   2.0000     -20.599284      -560.5350
   2   2.0000     -20.595047      -560.4197
   3   2.0000     -20.539660      -558.9126
   4   2.0000     -15.627551      -425.2473
   5   2.0000     -15.606673      -424.6792
   6   2.0000     -11.398346      -310.1648
   7   2.0000     -11.382477      -309.7329
   8   2.0000     -11.334375      -308.4240
   9   2.0000     -11.312003      -307.8153
  10   2.0000     -11.306918      -307.6769
  11   2.0000     -11.303990      -307.5972
  12   2.0000     -11.257880      -306.3425
  13   2.0000     -11.257799      -306.3403
  14   2.0000     -11.253579      -306.2254
  15   2.0000     -11.250800      -306.1498
  16   2.0000     -11.241327      -305.8920
  17   2.0000     -11.236650      -305.7648
  18   2.0000     -11.236591      -305.7632
  19   2.0000     -11.223044      -305.3946
  20   2.0000      -8.892610      -241.9802
  21   2.0000      -6.574188      -178.8928
  22   2.0000      -6.572181      -178.8381
  23   2.0000      -6.571598      -178.8223
  24   2.0000      -1.442360       -39.2486
  25   2.0000      -1.414686       -38.4956
  26   2.0000      -1.354453       -36.8566
  27   2.0000      -1.338657       -36.4267
  28   2.0000      -1.237048       -33.6618
  29   2.0000      -1.155759       -31.4498
  30   2.0000      -1.118321       -30.4311
  31   2.0000      -1.041186       -28.3321
  32   2.0000      -1.036776       -28.2121
  33   2.0000      -1.013321       -27.5739
  34   2.0000      -0.994114       -27.0512
  35   2.0000      -0.982371       -26.7317
  36   2.0000      -0.920889       -25.0587
  37   2.0000      -0.898400       -24.4467
  38   2.0000      -0.846009       -23.0211
  39   2.0000      -0.836513       -22.7627
  40   2.0000      -0.832372       -22.6500
  41   2.0000      -0.817868       -22.2553
  42   2.0000      -0.744604       -20.2617
  43   2.0000      -0.728927       -19.8351
  44   2.0000      -0.717556       -19.5257
  45   2.0000      -0.694207       -18.8903
  46   2.0000      -0.686793       -18.6886
  47   2.0000      -0.675849       -18.3908
  48   2.0000      -0.667706       -18.1692
  49   2.0000      -0.661594       -18.0029
  50   2.0000      -0.650157       -17.6917
  51   2.0000      -0.643326       -17.5058
  52   2.0000      -0.634337       -17.2612
  53   2.0000      -0.605306       -16.4712
  54   2.0000      -0.600615       -16.3436
  55   2.0000      -0.597362       -16.2550
  56   2.0000      -0.596733       -16.2379
  57   2.0000      -0.582528       -15.8514
  58   2.0000      -0.574540       -15.6340
  59   2.0000      -0.569653       -15.5011
  60   2.0000      -0.560784       -15.2597
  61   2.0000      -0.538325       -14.6486
  62   2.0000      -0.535454       -14.5704
  63   2.0000      -0.524215       -14.2646
  64   2.0000      -0.522949       -14.2302
  65   2.0000      -0.511699       -13.9240
  66   2.0000      -0.502313       -13.6686
  67   2.0000      -0.498120       -13.5545
  68   2.0000      -0.482975       -13.1424
  69   2.0000      -0.462397       -12.5825
  70   2.0000      -0.451084       -12.2746
  71   2.0000      -0.439664       -11.9639
  72   2.0000      -0.352706        -9.5976
  73   2.0000      -0.347743        -9.4626
  74   2.0000      -0.326949        -8.8967
  75   2.0000      -0.319678        -8.6989
  76   2.0000      -0.314603        -8.5608
  77   0.0000       0.078167         2.1270
  78   0.0000       0.108800         2.9606
  79   0.0000       0.124787         3.3956
  80   0.0000       0.133797         3.6408
  81   0.0000       0.137132         3.7316

MULLIKEN ATOMIC CHARGES
-----------------------
   0 C :   -0.285907
   1 C :    0.050038
   2 O :   -0.362147
   3 C :    0.460608
   4 O :   -0.432926
   5 C :   -0.198495
   6 C :    0.145059
   7 C :   -0.273584
   8 N :   -0.119833
   9 C :    0.212077
  10 S :   -0.442145
  11 N :   -0.203517
  12 C :    0.047626
  13 C :    0.072978
  14 C :   -0.183296
  15 C :   -0.133059
  16 C :   -0.279061
  17 C :    0.315947
  18 O :   -0.356937
  19 C :   -0.269191
  20 H :    0.115713
  21 H :    0.096283
  22 H :    0.103807
  23 H :    0.090501
  24 H :    0.092225
  25 H :    0.131797
  26 H :    0.129878
  27 H :    0.094762
  28 H :    0.197071
  29 H :    0.194067
  30 H :    0.148601
  31 H :    0.147699
  32 H :    0.159366
  33 H :    0.129069
  34 H :    0.240438
  35 H :    0.164491
Sum of atomic charges:   -0.0000000

LOEWDIN ATOMIC CHARGES
----------------------
   0 C :    0.102251
   1 C :   -0.008277
   2 O :    0.295791
   3 C :   -0.411616
   4 O :    0.106583
   5 C :   -0.092924
   6 C :   -0.059497
   7 C :    0.130398
   8 N :    0.406266
   9 C :   -0.456920
  10 S :   -0.037170
  11 N :    0.396477
  12 C :   -0.053127
  13 C :   -0.037906
  14 C :    0.013952
  15 C :    0.038798
  16 C :   -0.002062
  17 C :   -0.189477
  18 O :    0.394985
  19 C :    0.031494
  20 H :   -0.024753
  21 H :   -0.028148
  22 H :   -0.025647
  23 H :   -0.027981
  24 H :   -0.027156
  25 H :   -0.004911
  26 H :   -0.004602
  27 H :   -0.023770
  28 H :   -0.057850
  29 H :   -0.064790
  30 H :   -0.011966
  31 H :   -0.030732
  32 H :   -0.021727
  33 H :   -0.035900
  34 H :   -0.154180
  35 H :   -0.023907

  Mayer bond orders larger than 0.100000
B(  0-C ,  1-C ) :   0.9837 B(  0-C , 20-H ) :   0.9724 B(  0-C , 21-H ) :   0.9739
B(  0-C , 22-H ) :   0.9749 B(  1-C ,  2-O ) :   0.8999 B(  1-C , 23-H ) :   0.9741
B(  1-C , 24-H ) :   0.9803 B(  2-O ,  3-C ) :   1.1505 B(  3-C ,  4-O ) :   1.9715
B(  3-C ,  5-C ) :   1.0640 B(  5-C ,  6-C ) :   1.6560 B(  5-C , 12-C ) :   0.9766
B(  6-C ,  7-C ) :   0.9677 B(  6-C ,  8-N ) :   1.1617 B(  7-C , 25-H ) :   0.9606
B(  7-C , 26-H ) :   0.9603 B(  7-C , 27-H ) :   0.9910 B(  8-N ,  9-C ) :   1.1834
B(  8-N , 28-H ) :   0.9481 B(  9-C , 10-S ) :   1.6052 B(  9-C , 11-N ) :   1.3060
B( 11-N , 12-C ) :   0.9857 B( 11-N , 29-H ) :   0.9517 B( 12-C , 13-C ) :   0.9373
B( 12-C , 30-H ) :   1.0031 B( 13-C , 14-C ) :   1.3533 B( 13-C , 19-C ) :   1.3833
B( 14-C , 15-C ) :   1.3937 B( 14-C , 31-H ) :   0.9726 B( 15-C , 16-C ) :   1.3636
B( 15-C , 32-H ) :   0.9709 B( 16-C , 17-C ) :   1.3317 B( 16-C , 33-H ) :   0.9854
B( 17-C , 18-O ) :   1.1096 B( 17-C , 19-C ) :   1.3729 B( 18-O , 34-H ) :   0.9801
B( 19-C , 35-H ) :   0.9584

MP2 TOTAL ENERGY:    -1274.338869068 Eh
FINAL SINGLE POINT ENERGY     -1274.338869067775

DIPOLE MOMENT
-------------
                                X             Y             Z
Electronic contribution:      9.66616       9.90226      10.05244
Nuclear contribution   :    -10.67859     -11.71016     -10.49381
                        -----------------------------------------
Total Dipole Moment    :     -1.01243      -1.80790      -0.44138
                        -----------------------------------------
Magnitude (a.u.)       :      2.11857
Magnitude (Debye)      :      5.38497

Rotational constants in cm-1:     0.010982     0.008783     0.005998
Rotational constants in MHz :   329.234176   263.318823   179.801822

                             ****ORCA TERMINATED NORMALLY****
TOTAL RUN TIME: 0 days 2 hours 2 minutes 37 seconds 187 msec
