                         Program Version 5.0.0 -  RELEASE  -
|  1> ! ri-mp2 cc-pvtz cc-pvtz/c TightSCF NoKeepInts
|  2>
|  3> %scf
|  4>   MaxCore 4096
|  5> end
|  6> *xyz  0  1
|  7>     C       14.5716021   14.3983686   16.4907103
|  8>     C       15.5782755   15.5144246   16.8119929
|  9>     O       16.8123410   15.1730768   16.1515363
| 10>     C       18.0322598   15.5997992   16.6098337
| 11>     O       18.9840579   14.8412212   16.6067947
| 12>     C       18.0372695   16.8521598   17.4283761
| 13>     C       17.5269044   18.0272838   16.9888564
| 14>     C       16.9299015   18.3198405   15.6282418
| 15>     N       17.6221869   19.1684190   17.7885404
| 16>     C       18.3105351   19.2369924   18.9718744
| 17>     S       18.4352988   20.6489855   19.8229738
| 18>     N       18.8894728   18.0738154   19.4165870
| 19>     C       18.7332889   16.7481959   18.7854305
| 20>     C       17.9802350   15.7830424   19.6964549
| 21>     C       18.4166645   14.4522143   19.8292498
| 22>     C       17.7150334   13.5453465   20.6407258
| 23>     C       16.5637222   13.9707422   21.3246697
| 24>     C       16.1215985   15.2935399   21.1908087
| 25>     O       15.0021166   15.7042549   21.8376353
| 26>     C       16.8215337   16.1943478   20.3817943
| 27>     H       14.9478064   13.4287303   16.8410812
| 28>     H       14.3992120   14.3313455   15.4092747
| 29>     H       13.6104646   14.5915034   16.9824272
| 30>     H       15.1891099   16.4794268   16.4696303
| 31>     H       15.7175728   15.5505108   17.9003874
| 32>     H       17.0221308   17.4729754   14.9374936
| 33>     H       17.4441490   19.1651936   15.1532265
| 34>     H       15.8666389   18.5769777   15.7067516
| 35>     H       17.2204649   20.0369837   17.4715086
| 36>     H       19.3750570   18.1499575   20.3015940
| 37>     H       19.7405478   16.3401740   18.6138124
| 38>     H       19.2965135   14.1144089   19.2853035
| 39>     H       18.0615231   12.5170444   20.7302545
| 40>     H       16.0172982   13.2719918   21.9495885
| 41>     H       14.6965884   14.9662325   22.3868337
| 42>     H       16.4576247   17.2124727   20.2917458
| 43> *
| 44>
| 45>                          ****END OF INPUT****

CARTESIAN COORDINATES (ANGSTROEM)
---------------------------------
  C     14.571602   14.398369   16.490710
  C     15.578276   15.514425   16.811993
  O     16.812341   15.173077   16.151536
  C     18.032260   15.599799   16.609834
  O     18.984058   14.841221   16.606795
  C     18.037270   16.852160   17.428376
  C     17.526904   18.027284   16.988856
  C     16.929901   18.319841   15.628242
  N     17.622187   19.168419   17.788540
  C     18.310535   19.236992   18.971874
  S     18.435299   20.648985   19.822974
  N     18.889473   18.073815   19.416587
  C     18.733289   16.748196   18.785431
  C     17.980235   15.783042   19.696455
  C     18.416664   14.452214   19.829250
  C     17.715033   13.545347   20.640726
  C     16.563722   13.970742   21.324670
  C     16.121599   15.293540   21.190809
  O     15.002117   15.704255   21.837635
  C     16.821534   16.194348   20.381794
  H     14.947806   13.428730   16.841081
  H     14.399212   14.331345   15.409275
  H     13.610465   14.591503   16.982427
  H     15.189110   16.479427   16.469630
  H     15.717573   15.550511   17.900387
  H     17.022131   17.472975   14.937494
  H     17.444149   19.165194   15.153227
  H     15.866639   18.576978   15.706752
  H     17.220465   20.036984   17.471509
  H     19.375057   18.149957   20.301594
  H     19.740548   16.340174   18.613812
  H     19.296513   14.114409   19.285304
  H     18.061523   12.517044   20.730255
  H     16.017298   13.271992   21.949588
  H     14.696588   14.966233   22.386834
  H     16.457625   17.212473   20.291746

 Total Charge           Charge          ....    0
 Multiplicity           Mult            ....    1
 Number of Electrons    NEL             ....  154
 Basis Dimension        Dim             ....  828

ORBITAL ENERGIES
----------------

  NO   OCC          E(Eh)            E(eV)
   0   2.0000     -91.890772     -2500.4750
   1   2.0000     -20.599856      -560.5506
   2   2.0000     -20.598230      -560.5063
   3   2.0000     -20.550862      -559.2174
   4   2.0000     -15.628545      -425.2743
   5   2.0000     -15.611631      -424.8141
   6   2.0000     -11.397101      -310.1309
   7   2.0000     -11.387278      -309.8636
   8   2.0000     -11.333053      -308.3881
   9   2.0000     -11.316801      -307.9458
  10   2.0000     -11.313793      -307.8640
  11   2.0000     -11.303051      -307.5717
  12   2.0000     -11.268338      -306.6271
  13   2.0000     -11.265110      -306.5392
  14   2.0000     -11.263313      -306.4903
  15   2.0000     -11.256743      -306.3115
  16   2.0000     -11.246076      -306.0213
  17   2.0000     -11.242199      -305.9158
  18   2.0000     -11.238965      -305.8278
  19   2.0000     -11.231798      -305.6328
  20   2.0000      -8.895876      -242.0691
  21   2.0000      -6.577460      -178.9818
  22   2.0000      -6.575439      -178.9268
  23   2.0000      -6.574860      -178.9110
  24   2.0000      -1.448610       -39.4187
  25   2.0000      -1.419682       -38.6315
  26   2.0000      -1.360139       -37.0113
  27   2.0000      -1.341461       -36.5030
  28   2.0000      -1.240666       -33.7603
  29   2.0000      -1.161308       -31.6008
  30   2.0000      -1.125525       -30.6271
  31   2.0000      -1.048829       -28.5401
  32   2.0000      -1.039161       -28.2770
  33   2.0000      -1.018921       -27.7263
  34   2.0000      -1.005390       -27.3581
  35   2.0000      -0.989516       -26.9261
  36   2.0000      -0.927958       -25.2510
  37   2.0000      -0.879346       -23.9282
  38   2.0000      -0.856365       -23.3029
  39   2.0000      -0.842884       -22.9360
  40   2.0000      -0.837298       -22.7840
  41   2.0000      -0.836365       -22.7586
  42   2.0000      -0.756606       -20.5883
  43   2.0000      -0.740016       -20.1369
  44   2.0000      -0.731848       -19.9146
  45   2.0000      -0.697616       -18.9831
  46   2.0000      -0.688495       -18.7349
  47   2.0000      -0.681916       -18.5559
  48   2.0000      -0.677321       -18.4308
  49   2.0000      -0.662874       -18.0377
  50   2.0000      -0.656470       -17.8635
  51   2.0000      -0.650662       -17.7054
  52   2.0000      -0.640823       -17.4377
  53   2.0000      -0.611655       -16.6440
  54   2.0000      -0.607851       -16.5405
  55   2.0000      -0.603750       -16.4289
  56   2.0000      -0.595332       -16.1998
  57   2.0000      -0.585587       -15.9346
  58   2.0000      -0.577991       -15.7279
  59   2.0000      -0.569042       -15.4844
  60   2.0000      -0.563353       -15.3296
  61   2.0000      -0.559156       -15.2154
  62   2.0000      -0.549561       -14.9543
  63   2.0000      -0.526406       -14.3242
  64   2.0000      -0.518184       -14.1005
  65   2.0000      -0.516037       -14.0421
  66   2.0000      -0.502693       -13.6790
  67   2.0000      -0.501332       -13.6419
  68   2.0000      -0.490257       -13.3406
  69   2.0000      -0.470442       -12.8014
  70   2.0000      -0.456535       -12.4229
  71   2.0000      -0.451324       -12.2812
  72   2.0000      -0.358142        -9.7455
  73   2.0000      -0.351806        -9.5731
  74   2.0000      -0.330333        -8.9888
  75   2.0000      -0.324590        -8.8326
  76   2.0000      -0.319407        -8.6915
  77   0.0000       0.080594         2.1931
  78   0.0000       0.104361         2.8398
  79   0.0000       0.115092         3.1318
  80   0.0000       0.129075         3.5123
  81   0.0000       0.132455         3.6043

MULLIKEN ATOMIC CHARGES
-----------------------
   0 C :   -0.259090
   1 C :    0.019003
   2 O :   -0.316665
   3 C :    0.410547
   4 O :   -0.381827
   5 C :   -0.208236
   6 C :    0.152215
   7 C :   -0.329417
   8 N :   -0.137384
   9 C :    0.200843
  10 S :   -0.439128
  11 N :   -0.212900
  12 C :    0.074769
  13 C :    0.022770
  14 C :   -0.193579
  15 C :   -0.132543
  16 C :   -0.275318
  17 C :    0.325007
  18 O :   -0.358325
  19 C :   -0.289696
  20 H :    0.107638
  21 H :    0.100253
  22 H :    0.089077
  23 H :    0.084085
  24 H :    0.112450
  25 H :    0.133803
  26 H :    0.138336
  27 H :    0.119584
  28 H :    0.196705
  29 H :    0.198116
  30 H :    0.164029
  31 H :    0.170258
  32 H :    0.164087
  33 H :    0.132573
  34 H :    0.241520
  35 H :    0.176442
Sum of atomic charges:    0.0000000

LOEWDIN ATOMIC CHARGES
----------------------
   0 C :    0.111984
   1 C :   -0.024014
   2 O :    0.301602
   3 C :   -0.415770
   4 O :    0.124521
   5 C :   -0.084730
   6 C :   -0.093567
   7 C :    0.123925
   8 N :    0.402601
   9 C :   -0.457053
  10 S :   -0.036221
  11 N :    0.397178
  12 C :   -0.044596
  13 C :   -0.044828
  14 C :    0.021738
  15 C :    0.045180
  16 C :   -0.000233
  17 C :   -0.194628
  18 O :    0.394674
  19 C :    0.026129
  20 H :   -0.021730
  21 H :   -0.026688
  22 H :   -0.025279
  23 H :   -0.038227
  24 H :   -0.030333
  25 H :   -0.007843
  26 H :   -0.010227
  27 H :   -0.018553
  28 H :   -0.056981
  29 H :   -0.063550
  30 H :   -0.002472
  31 H :   -0.021684
  32 H :   -0.018444
  33 H :   -0.034601
  34 H :   -0.152928
  35 H :   -0.024353

  Mayer bond orders larger than 0.100000
B(  0-C ,  1-C ) :   0.9865 B(  0-C , 20-H ) :   0.9782 B(  0-C , 21-H ) :   0.9796
B(  0-C , 22-H ) :   0.9768 B(  1-C ,  2-O ) :   0.9036 B(  1-C , 23-H ) :   0.9710
B(  1-C , 24-H ) :   0.9634 B(  2-O ,  3-C ) :   1.1852 B(  3-C ,  4-O ) :   2.0912
B(  3-C ,  5-C ) :   0.9337 B(  5-C ,  6-C ) :   1.6694 B(  5-C , 12-C ) :   0.9559
B(  6-C ,  7-C ) :   0.9447 B(  6-C ,  8-N ) :   1.1257 B(  7-C , 25-H ) :   0.9774
B(  7-C , 26-H ) :   0.9696 B(  7-C , 27-H ) :   0.9663 B(  8-N ,  9-C ) :   1.1921
B(  8-N , 28-H ) :   0.9520 B(  9-C , 10-S ) :   1.6126 B(  9-C , 11-N ) :   1.2905
B( 11-N , 12-C ) :   0.9956 B( 11-N , 29-H ) :   0.9496 B( 12-C , 13-C ) :   0.9418
B( 12-C , 30-H ) :   0.9975 B( 13-C , 14-C ) :   1.3883 B( 13-C , 19-C ) :   1.3456
B( 14-C , 15-C ) :   1.3966 B( 14-C , 31-H ) :   0.9594 B( 15-C , 16-C ) :   1.3639
B( 15-C , 32-H ) :   0.9699 B( 16-C , 17-C ) :   1.3299 B( 16-C , 33-H ) :   0.9842
B( 17-C , 18-O ) :   1.1097 B( 17-C , 19-C ) :   1.3637 B( 18-O , 34-H ) :   0.9793
B( 19-C , 35-H ) :   0.9592

MP2 TOTAL ENERGY:    -1274.336054840 Eh
FINAL SINGLE POINT ENERGY     -1274.336054839988

DIPOLE MOMENT
-------------
                                X             Y             Z
Electronic contribution:     10.75763       8.48664       7.32223
Nuclear contribution   :    -12.25268      -9.48318      -7.67109
                        -----------------------------------------
Total Dipole Moment    :     -1.49505      -0.99655      -0.34886
                        -----------------------------------------
Magnitude (a.u.)       :      1.83029
Magnitude (Debye)      :      4.65224

Rotational constants in cm-1:     0.011612     0.009162     0.006696
Rotational constants in MHz :   348.127024   274.684791   200.736435

                             ****ORCA TERMINATED NORMALLY****
TOTAL RUN TIME: 0 days 2 hours 7 minutes 35 seconds 896 msec
