                         Program Version 4.2.0 -  RELEASE  -
|  1> ! ri-mp2 cc-pvtz cc-pvtz/c TightSCF  NoKeepInts
|  2>
|  3> %scf
|  4>   MaxCore 4096
|  5> end
|  6> *xyz  0  1
|  7>     C       14.6631003   14.4558512   17.1726158
|  8>     C       15.5926831   15.6100013   16.7653366
|  9>     O       16.8725301   15.0248101   16.4591337
| 10>     C       18.0811859   15.6706038   16.5450567
| 11>     O       19.1022163   15.0203008   16.4210428
| 12>     C       18.0862294   16.9023625   17.3870280
| 13>     C       17.5884493   18.0812119   16.9509615
| 14>     C       16.9877532   18.3640549   15.5912698
| 15>     N       17.6541946   19.2089229   17.7717330
| 16>     C       18.2743788   19.2469388   18.9941964
| 17>     S       18.3472747   20.6374133   19.8858384
| 18>     N       18.8246629   18.0715960   19.4459823
| 19>     C       18.7263386   16.7640696   18.7660227
| 20>     C       17.9547586   15.7498593   19.6049700
| 21>     C       18.4107774   14.4225134   19.7011462
| 22>     C       17.6882393   13.4682622   20.4364046
| 23>     C       16.4954568   13.8420288   21.0782119
| 24>     C       16.0334305   15.1610562   20.9784278
| 25>     O       14.8729942   15.5214977   21.5816730
| 26>     C       16.7553166   16.1097229   20.2473924
| 27>     H       15.0654385   13.9310343   18.0488123
| 28>     H       14.5614693   13.7326377   16.3538275
| 29>     H       13.6653373   14.8332760   17.4269723
| 30>     H       15.1885273   16.1398471   15.8936609
| 31>     H       15.6502051   16.3028451   17.6136944
| 32>     H       17.1289064   17.5310870   14.8914655
| 33>     H       17.4591764   19.2426874   15.1323367
| 34>     H       15.9115076   18.5613511   15.6683259
| 35>     H       17.2686649   20.0847057   17.4544287
| 36>     H       19.2559194   18.1256673   20.3602453
| 37>     H       19.7484068   16.3834113   18.6217816
| 38>     H       19.3204932   14.1243424   19.1841012
| 39>     H       18.0493887   12.4429802   20.4969364
| 40>     H       15.9319571   13.1061662   21.6422735
| 41>     H       14.5545767   14.7533921   22.0798759
| 42>     H       16.3750548   17.1234912   20.1808183
| 43> *
| 44>
| 45>                          ****END OF INPUT****

CARTESIAN COORDINATES (ANGSTROEM)
---------------------------------
  C     14.663100   14.455851   17.172616
  C     15.592683   15.610001   16.765337
  O     16.872530   15.024810   16.459134
  C     18.081186   15.670604   16.545057
  O     19.102216   15.020301   16.421043
  C     18.086229   16.902362   17.387028
  C     17.588449   18.081212   16.950961
  C     16.987753   18.364055   15.591270
  N     17.654195   19.208923   17.771733
  C     18.274379   19.246939   18.994196
  S     18.347275   20.637413   19.885838
  N     18.824663   18.071596   19.445982
  C     18.726339   16.764070   18.766023
  C     17.954759   15.749859   19.604970
  C     18.410777   14.422513   19.701146
  C     17.688239   13.468262   20.436405
  C     16.495457   13.842029   21.078212
  C     16.033431   15.161056   20.978428
  O     14.872994   15.521498   21.581673
  C     16.755317   16.109723   20.247392
  H     15.065438   13.931034   18.048812
  H     14.561469   13.732638   16.353828
  H     13.665337   14.833276   17.426972
  H     15.188527   16.139847   15.893661
  H     15.650205   16.302845   17.613694
  H     17.128906   17.531087   14.891465
  H     17.459176   19.242687   15.132337
  H     15.911508   18.561351   15.668326
  H     17.268665   20.084706   17.454429
  H     19.255919   18.125667   20.360245
  H     19.748407   16.383411   18.621782
  H     19.320493   14.124342   19.184101
  H     18.049389   12.442980   20.496936
  H     15.931957   13.106166   21.642274
  H     14.554577   14.753392   22.079876
  H     16.375055   17.123491   20.180818

 Total Charge           Charge          ....    0
 Multiplicity           Mult            ....    1
 Number of Electrons    NEL             ....  154
 Basis Dimension        Dim             ....  828

ORBITAL ENERGIES
----------------

  NO   OCC          E(Eh)            E(eV)
   0   2.0000     -91.889755     -2500.4474
   1   2.0000     -20.602764      -560.6297
   2   2.0000     -20.600238      -560.5610
   3   2.0000     -20.550571      -559.2095
   4   2.0000     -15.626200      -425.2105
   5   2.0000     -15.611906      -424.8216
   6   2.0000     -11.397137      -310.1319
   7   2.0000     -11.386763      -309.8496
   8   2.0000     -11.326998      -308.2233
   9   2.0000     -11.316977      -307.9506
  10   2.0000     -11.315850      -307.9199
  11   2.0000     -11.303170      -307.5749
  12   2.0000     -11.270686      -306.6910
  13   2.0000     -11.264396      -306.5198
  14   2.0000     -11.263851      -306.5050
  15   2.0000     -11.256800      -306.3131
  16   2.0000     -11.246066      -306.0210
  17   2.0000     -11.242542      -305.9251
  18   2.0000     -11.239303      -305.8370
  19   2.0000     -11.230069      -305.5857
  20   2.0000      -8.894878      -242.0419
  21   2.0000      -6.576469      -178.9548
  22   2.0000      -6.574440      -178.8996
  23   2.0000      -6.573868      -178.8840
  24   2.0000      -1.449574       -39.4449
  25   2.0000      -1.420041       -38.6413
  26   2.0000      -1.359852       -37.0034
  27   2.0000      -1.339745       -36.4563
  28   2.0000      -1.239797       -33.7366
  29   2.0000      -1.161614       -31.6091
  30   2.0000      -1.125899       -30.6373
  31   2.0000      -1.049482       -28.5579
  32   2.0000      -1.039637       -28.2900
  33   2.0000      -1.019046       -27.7296
  34   2.0000      -1.005398       -27.3583
  35   2.0000      -0.989429       -26.9237
  36   2.0000      -0.928178       -25.2570
  37   2.0000      -0.881058       -23.9748
  38   2.0000      -0.855355       -23.2754
  39   2.0000      -0.841760       -22.9054
  40   2.0000      -0.837142       -22.7798
  41   2.0000      -0.836815       -22.7709
  42   2.0000      -0.757093       -20.6015
  43   2.0000      -0.739907       -20.1339
  44   2.0000      -0.731617       -19.9083
  45   2.0000      -0.698532       -19.0080
  46   2.0000      -0.689011       -18.7489
  47   2.0000      -0.682136       -18.5619
  48   2.0000      -0.677341       -18.4314
  49   2.0000      -0.660370       -17.9696
  50   2.0000      -0.658060       -17.9067
  51   2.0000      -0.649219       -17.6661
  52   2.0000      -0.640061       -17.4170
  53   2.0000      -0.612298       -16.6615
  54   2.0000      -0.608527       -16.5589
  55   2.0000      -0.604556       -16.4508
  56   2.0000      -0.598955       -16.2984
  57   2.0000      -0.584745       -15.9117
  58   2.0000      -0.578226       -15.7343
  59   2.0000      -0.569424       -15.4948
  60   2.0000      -0.561631       -15.2828
  61   2.0000      -0.556582       -15.1454
  62   2.0000      -0.550371       -14.9763
  63   2.0000      -0.528681       -14.3862
  64   2.0000      -0.518868       -14.1191
  65   2.0000      -0.515224       -14.0200
  66   2.0000      -0.504186       -13.7196
  67   2.0000      -0.502401       -13.6710
  68   2.0000      -0.488544       -13.2940
  69   2.0000      -0.470860       -12.8127
  70   2.0000      -0.452955       -12.3255
  71   2.0000      -0.450963       -12.2713
  72   2.0000      -0.356400        -9.6981
  73   2.0000      -0.352131        -9.5820
  74   2.0000      -0.329500        -8.9661
  75   2.0000      -0.324583        -8.8323
  76   2.0000      -0.318088        -8.6556
  77   0.0000       0.087466         2.3801
  78   0.0000       0.103950         2.8286
  79   0.0000       0.110314         3.0018
  80   0.0000       0.126940         3.4542
  81   0.0000       0.132745         3.6122

MULLIKEN ATOMIC CHARGES
-----------------------
   0 C :   -0.260856
   1 C :    0.002449
   2 O :   -0.304077
   3 C :    0.389564
   4 O :   -0.379743
   5 C :   -0.172183
   6 C :    0.128062
   7 C :   -0.327644
   8 N :   -0.135832
   9 C :    0.205149
  10 S :   -0.441680
  11 N :   -0.215158
  12 C :    0.068965
  13 C :    0.034924
  14 C :   -0.191105
  15 C :   -0.127157
  16 C :   -0.281426
  17 C :    0.314566
  18 O :   -0.359795
  19 C :   -0.286477
  20 H :    0.109584
  21 H :    0.105193
  22 H :    0.088681
  23 H :    0.102842
  24 H :    0.103010
  25 H :    0.124164
  26 H :    0.138686
  27 H :    0.123142
  28 H :    0.195798
  29 H :    0.198739
  30 H :    0.164918
  31 H :    0.165489
  32 H :    0.163624
  33 H :    0.133112
  34 H :    0.242005
  35 H :    0.180466
Sum of atomic charges:   -0.0000000

LOEWDIN ATOMIC CHARGES
----------------------
   0 C :    0.112349
   1 C :   -0.026003
   2 O :    0.315561
   3 C :   -0.419110
   4 O :    0.125848
   5 C :   -0.081584
   6 C :   -0.106780
   7 C :    0.124160
   8 N :    0.400559
   9 C :   -0.455437
  10 S :   -0.038458
  11 N :    0.397273
  12 C :   -0.043543
  13 C :   -0.041921
  14 C :    0.024657
  15 C :    0.046246
  16 C :   -0.000339
  17 C :   -0.193832
  18 O :    0.394776
  19 C :    0.027081
  20 H :   -0.022022
  21 H :   -0.026004
  22 H :   -0.025262
  23 H :   -0.037594
  24 H :   -0.038000
  25 H :   -0.009011
  26 H :   -0.009744
  27 H :   -0.016671
  28 H :   -0.058357
  29 H :   -0.063646
  30 H :   -0.002222
  31 H :   -0.021883
  32 H :   -0.018387
  33 H :   -0.034785
  34 H :   -0.152853
  35 H :   -0.025063

  Mayer bond orders larger than 0.100000
B(  0-C ,  1-C ) :   0.9831 B(  0-C , 20-H ) :   0.9742 B(  0-C , 21-H ) :   0.9803
B(  0-C , 22-H ) :   0.9764 B(  1-C ,  2-O ) :   0.9153 B(  1-C , 23-H ) :   0.9748
B(  1-C , 24-H ) :   0.9589 B(  2-O ,  3-C ) :   1.1725 B(  3-C ,  4-O ) :   2.0931
B(  3-C ,  5-C ) :   0.9198 B(  5-C ,  6-C ) :   1.6933 B(  5-C , 12-C ) :   0.9627
B(  6-C ,  7-C ) :   0.9415 B(  6-C ,  8-N ) :   1.1124 B(  7-C , 25-H ) :   0.9821
B(  7-C , 26-H ) :   0.9705 B(  7-C , 27-H ) :   0.9659 B(  8-N ,  9-C ) :   1.1968
B(  8-N , 28-H ) :   0.9528 B(  9-C , 10-S ) :   1.6107 B(  9-C , 11-N ) :   1.2862
B( 11-N , 12-C ) :   0.9976 B( 11-N , 29-H ) :   0.9487 B( 12-C , 13-C ) :   0.9438
B( 12-C , 30-H ) :   0.9971 B( 13-C , 14-C ) :   1.3877 B( 13-C , 19-C ) :   1.3397
B( 14-C , 15-C ) :   1.3975 B( 14-C , 31-H ) :   0.9622 B( 15-C , 16-C ) :   1.3613
B( 15-C , 32-H ) :   0.9702 B( 16-C , 17-C ) :   1.3297 B( 16-C , 33-H ) :   0.9846
B( 17-C , 18-O ) :   1.1069 B( 17-C , 19-C ) :   1.3683 B( 18-O , 34-H ) :   0.9790
B( 19-C , 35-H ) :   0.9556

MP2 TOTAL ENERGY:    -1274.330662231 Eh
FINAL SINGLE POINT ENERGY     -1274.330662231426

DIPOLE MOMENT
-------------
                                X             Y             Z
Electronic contribution:     10.51553       8.12042       6.28088
Nuclear contribution   :    -12.05675      -9.12535      -6.78292
                        -----------------------------------------
Total Dipole Moment    :     -1.54123      -1.00493      -0.50204
                        -----------------------------------------
Magnitude (a.u.)       :      1.90717
Magnitude (Debye)      :      4.84765

Rotational constants in cm-1:     0.012564     0.009004     0.006916
Rotational constants in MHz :   376.656539   269.940229   207.329577

                             ****ORCA TERMINATED NORMALLY****
TOTAL RUN TIME: 0 days 1 hours 48 minutes 15 seconds 429 msec
