                         Program Version 5.0.0 -  RELEASE  -
|  1> ! ri-mp2 cc-pvtz cc-pvtz/c TightSCF NoKeepInts
|  2>
|  3> %scf
|  4>   MaxCore 4096
|  5> end
|  6> *xyz  0  1
|  7>     C       15.9054294   13.1816177   16.6786187
|  8>     C       15.7541853   14.7104198   16.7505327
|  9>     O       16.9644567   15.2929488   16.2362937
| 10>     C       16.9932756   16.6497556   16.1094029
| 11>     O       16.2637555   17.1880384   15.2964187
| 12>     C       17.5711973   17.3600091   17.3060579
| 13>     C       17.4294730   18.6979838   17.4969127
| 14>     C       16.6314482   19.6712755   16.6555083
| 15>     N       18.1157946   19.3316377   18.5380958
| 16>     C       19.1188123   18.7537514   19.2705926
| 17>     S       20.0252398   19.6167253   20.3518270
| 18>     N       19.3436381   17.4193334   19.0456911
| 19>     C       18.4464611   16.5418775   18.2726607
| 20>     C       17.6383743   15.6901240   19.2455486
| 21>     C       17.9473929   14.3279387   19.4177291
| 22>     C       17.2109344   13.5348516   20.3136471
| 23>     C       16.1617932   14.1099931   21.0504934
| 24>     C       15.8606445   15.4695665   20.8931955
| 25>     O       14.8503574   16.0291744   21.6047890
| 26>     C       16.5937233   16.2559320   19.9991705
| 27>     H       16.7618007   12.8450794   17.2743534
| 28>     H       16.0578043   12.8586740   15.6412031
| 29>     H       15.0046373   12.6884717   17.0633214
| 30>     H       14.8978140   15.0183435   16.1349391
| 31>     H       15.5628862   15.0253845   17.7826710
| 32>     H       15.5809210   19.3593654   16.5959459
| 33>     H       17.0211504   19.7040960   15.6299647
| 34>     H       16.6490573   20.6942648   17.0492376
| 35>     H       17.9722177   20.3153614   18.7023235
| 36>     H       20.0739172   17.0135206   19.6165730
| 37>     H       19.0743335   15.8725453   17.6674283
| 38>     H       18.7581065   13.8798130   18.8491073
| 39>     H       17.4555654   12.4810278   20.4366495
| 40>     H       15.5909977   13.5016896   21.7446296
| 41>     H       14.5094867   15.3533308   22.2101528
| 42>     H       16.3499171   17.3080780   19.9023139
| 43> *
| 44>
| 45>                          ****END OF INPUT****

CARTESIAN COORDINATES (ANGSTROEM)
---------------------------------
  C     15.905429   13.181618   16.678619
  C     15.754185   14.710420   16.750533
  O     16.964457   15.292949   16.236294
  C     16.993276   16.649756   16.109403
  O     16.263755   17.188038   15.296419
  C     17.571197   17.360009   17.306058
  C     17.429473   18.697984   17.496913
  C     16.631448   19.671275   16.655508
  N     18.115795   19.331638   18.538096
  C     19.118812   18.753751   19.270593
  S     20.025240   19.616725   20.351827
  N     19.343638   17.419333   19.045691
  C     18.446461   16.541877   18.272661
  C     17.638374   15.690124   19.245549
  C     17.947393   14.327939   19.417729
  C     17.210934   13.534852   20.313647
  C     16.161793   14.109993   21.050493
  C     15.860644   15.469567   20.893195
  O     14.850357   16.029174   21.604789
  C     16.593723   16.255932   19.999170
  H     16.761801   12.845079   17.274353
  H     16.057804   12.858674   15.641203
  H     15.004637   12.688472   17.063321
  H     14.897814   15.018343   16.134939
  H     15.562886   15.025384   17.782671
  H     15.580921   19.359365   16.595946
  H     17.021150   19.704096   15.629965
  H     16.649057   20.694265   17.049238
  H     17.972218   20.315361   18.702323
  H     20.073917   17.013521   19.616573
  H     19.074334   15.872545   17.667428
  H     18.758107   13.879813   18.849107
  H     17.455565   12.481028   20.436650
  H     15.590998   13.501690   21.744630
  H     14.509487   15.353331   22.210153
  H     16.349917   17.308078   19.902314

 Total Charge           Charge          ....    0
 Multiplicity           Mult            ....    1
 Number of Electrons    NEL             ....  154
 Basis Dimension        Dim             ....  828

ORBITAL ENERGIES
----------------

  NO   OCC          E(Eh)            E(eV)
   0   2.0000     -91.891263     -2500.4884
   1   2.0000     -20.601932      -560.6071
   2   2.0000     -20.582222      -560.0707
   3   2.0000     -20.547704      -559.1315
   4   2.0000     -15.631911      -425.3659
   5   2.0000     -15.610060      -424.7713
   6   2.0000     -11.392169      -309.9967
   7   2.0000     -11.385781      -309.8229
   8   2.0000     -11.338323      -308.5315
   9   2.0000     -11.319799      -308.0274
  10   2.0000     -11.312473      -307.8281
  11   2.0000     -11.293152      -307.3023
  12   2.0000     -11.264614      -306.5257
  13   2.0000     -11.261306      -306.4357
  14   2.0000     -11.260268      -306.4075
  15   2.0000     -11.253659      -306.2276
  16   2.0000     -11.248913      -306.0985
  17   2.0000     -11.243487      -305.9508
  18   2.0000     -11.243155      -305.9418
  19   2.0000     -11.225532      -305.4623
  20   2.0000      -8.896284      -242.0802
  21   2.0000      -6.577848      -178.9923
  22   2.0000      -6.575855      -178.9381
  23   2.0000      -6.575258      -178.9219
  24   2.0000      -1.449075       -39.4313
  25   2.0000      -1.421625       -38.6844
  26   2.0000      -1.352138       -36.7935
  27   2.0000      -1.342952       -36.5436
  28   2.0000      -1.241240       -33.7758
  29   2.0000      -1.162724       -31.6393
  30   2.0000      -1.121716       -30.5234
  31   2.0000      -1.046558       -28.4783
  32   2.0000      -1.033734       -28.1293
  33   2.0000      -1.021118       -27.7860
  34   2.0000      -0.998413       -27.1682
  35   2.0000      -0.986323       -26.8392
  36   2.0000      -0.925958       -25.1966
  37   2.0000      -0.878530       -23.9060
  38   2.0000      -0.849737       -23.1225
  39   2.0000      -0.842927       -22.9372
  40   2.0000      -0.838955       -22.8291
  41   2.0000      -0.828947       -22.5568
  42   2.0000      -0.761673       -20.7262
  43   2.0000      -0.736608       -20.0441
  44   2.0000      -0.724202       -19.7066
  45   2.0000      -0.701427       -19.0868
  46   2.0000      -0.692053       -18.8317
  47   2.0000      -0.678730       -18.4692
  48   2.0000      -0.672930       -18.3114
  49   2.0000      -0.657287       -17.8857
  50   2.0000      -0.648836       -17.6557
  51   2.0000      -0.644949       -17.5499
  52   2.0000      -0.629280       -17.1236
  53   2.0000      -0.623729       -16.9725
  54   2.0000      -0.612747       -16.6737
  55   2.0000      -0.604221       -16.4417
  56   2.0000      -0.601439       -16.3660
  57   2.0000      -0.582345       -15.8464
  58   2.0000      -0.572638       -15.5823
  59   2.0000      -0.565937       -15.3999
  60   2.0000      -0.553221       -15.0539
  61   2.0000      -0.540827       -14.7167
  62   2.0000      -0.532590       -14.4925
  63   2.0000      -0.529706       -14.4140
  64   2.0000      -0.519049       -14.1240
  65   2.0000      -0.516961       -14.0672
  66   2.0000      -0.507531       -13.8106
  67   2.0000      -0.501422       -13.6444
  68   2.0000      -0.485331       -13.2065
  69   2.0000      -0.464160       -12.6304
  70   2.0000      -0.457889       -12.4598
  71   2.0000      -0.443968       -12.0810
  72   2.0000      -0.358506        -9.7554
  73   2.0000      -0.354424        -9.6444
  74   2.0000      -0.331139        -9.0107
  75   2.0000      -0.327124        -8.9015
  76   2.0000      -0.318144        -8.6571
  77   0.0000       0.067779         1.8444
  78   0.0000       0.101120         2.7516
  79   0.0000       0.121928         3.3178
  80   0.0000       0.127136         3.4595
  81   0.0000       0.132122         3.5952

MULLIKEN ATOMIC CHARGES
-----------------------
   0 C :   -0.270117
   1 C :    0.013904
   2 O :   -0.381689
   3 C :    0.516589
   4 O :   -0.406980
   5 C :   -0.284349
   6 C :    0.151462
   7 C :   -0.270165
   8 N :   -0.124184
   9 C :    0.211845
  10 S :   -0.435702
  11 N :   -0.198724
  12 C :    0.043434
  13 C :    0.037839
  14 C :   -0.188414
  15 C :   -0.132280
  16 C :   -0.268693
  17 C :    0.305386
  18 O :   -0.356376
  19 C :   -0.246575
  20 H :    0.090116
  21 H :    0.107468
  22 H :    0.089419
  23 H :    0.119957
  24 H :    0.109269
  25 H :    0.129982
  26 H :    0.134666
  27 H :    0.094644
  28 H :    0.198763
  29 H :    0.192291
  30 H :    0.150022
  31 H :    0.157125
  32 H :    0.166109
  33 H :    0.133803
  34 H :    0.241789
  35 H :    0.168369
Sum of atomic charges:    0.0000000

LOEWDIN ATOMIC CHARGES
----------------------
   0 C :    0.110171
   1 C :   -0.018282
   2 O :    0.286915
   3 C :   -0.419695
   4 O :    0.120385
   5 C :   -0.099308
   6 C :   -0.057292
   7 C :    0.130937
   8 N :    0.407280
   9 C :   -0.456622
  10 S :   -0.031922
  11 N :    0.396169
  12 C :   -0.053485
  13 C :   -0.038710
  14 C :    0.015121
  15 C :    0.044526
  16 C :   -0.000793
  17 C :   -0.190896
  18 O :    0.396668
  19 C :    0.030104
  20 H :   -0.032476
  21 H :   -0.025589
  22 H :   -0.025122
  23 H :   -0.029519
  24 H :   -0.035817
  25 H :   -0.005202
  26 H :   -0.003001
  27 H :   -0.023242
  28 H :   -0.057331
  29 H :   -0.065507
  30 H :   -0.006760
  31 H :   -0.030056
  32 H :   -0.019770
  33 H :   -0.034190
  34 H :   -0.152579
  35 H :   -0.025112

  Mayer bond orders larger than 0.100000
B(  0-C ,  1-C ) :   0.9799 B(  0-C , 20-H ) :   0.9759 B(  0-C , 21-H ) :   0.9786
B(  0-C , 22-H ) :   0.9758 B(  1-C ,  2-O ) :   0.8750 B(  1-C , 23-H ) :   0.9794
B(  1-C , 24-H ) :   0.9634 B(  2-O ,  3-C ) :   1.1088 B(  3-C ,  4-O ) :   2.0193
B(  3-C ,  5-C ) :   1.0580 B(  5-C ,  6-C ) :   1.6543 B(  5-C , 12-C ) :   0.9704
B(  6-C ,  7-C ) :   0.9711 B(  6-C ,  8-N ) :   1.1564 B(  7-C , 25-H ) :   0.9622
B(  7-C , 26-H ) :   0.9574 B(  7-C , 27-H ) :   0.9893 B(  8-N ,  9-C ) :   1.1783
B(  8-N , 28-H ) :   0.9480 B(  9-C , 10-S ) :   1.6134 B(  9-C , 11-N ) :   1.3030
B( 11-N , 12-C ) :   0.9709 B( 11-N , 29-H ) :   0.9541 B( 12-C , 13-C ) :   0.9506
B( 12-C , 30-H ) :   1.0008 B( 13-C , 14-C ) :   1.3521 B( 13-C , 19-C ) :   1.3673
B( 14-C , 15-C ) :   1.3807 B( 14-C , 31-H ) :   0.9715 B( 15-C , 16-C ) :   1.3685
B( 15-C , 32-H ) :   0.9682 B( 16-C , 17-C ) :   1.3261 B( 16-C , 33-H ) :   0.9835
B( 17-C , 18-O ) :   1.1152 B( 17-C , 19-C ) :   1.3805 B( 18-O , 34-H ) :   0.9789
B( 19-C , 35-H ) :   0.9570

MP2 TOTAL ENERGY:    -1274.330693610 Eh
FINAL SINGLE POINT ENERGY     -1274.330693609998

DIPOLE MOMENT
-------------
                                X             Y             Z
Electronic contribution:      9.02341      10.85989       5.41613
Nuclear contribution   :    -10.11651     -12.31216      -5.17841
                        -----------------------------------------
Total Dipole Moment    :     -1.09311      -1.45227       0.23772
                        -----------------------------------------
Magnitude (a.u.)       :      1.83316
Magnitude (Debye)      :      4.65953

Rotational constants in cm-1:     0.012304     0.008995     0.006470
Rotational constants in MHz :   368.855900   269.659706   193.964595

                             ****ORCA TERMINATED NORMALLY****
TOTAL RUN TIME: 0 days 2 hours 12 minutes 20 seconds 638 msec
