                         Program Version 5.0.0 -  RELEASE  -
|  1> ! ri-mp2 cc-pvtz cc-pvtz/c TightSCF NoKeepInts
|  2>
|  3> %scf
|  4>   MaxCore 4096
|  5> end
|  6> *xyz  0  1
|  7>     C       15.1529110   14.6635458   16.7393789
|  8>     C       16.6066478   14.1560091   16.6243172
|  9>     O       17.4183694   15.0733060   15.8603375
| 10>     C       17.2973808   16.4360101   15.9245362
| 11>     O       16.9398086   17.0358926   14.9280531
| 12>     C       17.6207277   17.1159124   17.2340208
| 13>     C       17.3258657   18.4278220   17.4390590
| 14>     C       16.5092914   19.3428002   16.5516309
| 15>     N       17.8641512   19.0984952   18.5433181
| 16>     C       18.9276398   18.6327524   19.2724610
| 17>     S       19.7226753   19.5750514   20.3751283
| 18>     N       19.3159540   17.3426109   19.0105149
| 19>     C       18.4736755   16.3770004   18.2828684
| 20>     C       17.6734824   15.5973582   19.3251118
| 21>     C       18.2155558   14.4179523   19.8722617
| 22>     C       17.5064218   13.6812550   20.8355672
| 23>     C       16.2473981   14.1315297   21.2662733
| 24>     C       15.7121382   15.3147508   20.7407378
| 25>     O       14.4993547   15.7570063   21.1575715
| 26>     C       16.4193359   16.0454049   19.7811734
| 27>     H       15.0882769   15.5813451   17.3348270
| 28>     H       14.5244140   13.9069255   17.2246125
| 29>     H       14.7345145   14.8652659   15.7448018
| 30>     H       17.0231495   13.9729338   17.6146407
| 31>     H       16.6018606   13.1876618   16.1073832
| 32>     H       15.5811281   18.8515024   16.2333549
| 33>     H       17.0711191   19.5982378   15.6437130
| 34>     H       16.2288051   20.2791747   17.0479470
| 35>     H       17.6038013   20.0556964   18.7201763
| 36>     H       20.0970231   17.0174398   19.5650760
| 37>     H       19.1353290   15.6770335   17.7528280
| 38>     H       19.1921223   14.0688096   19.5467654
| 39>     H       17.9346428   12.7695933   21.2494691
| 40>     H       15.6965101   13.5672560   22.0118770
| 41>     H       14.2008183   15.1664373   21.8660278
| 42>     H       15.9847000   16.9642213   19.4061793
| 43> *
| 44>
| 45>                          ****END OF INPUT****

CARTESIAN COORDINATES (ANGSTROEM)
---------------------------------
  C     15.152911   14.663546   16.739379
  C     16.606648   14.156009   16.624317
  O     17.418369   15.073306   15.860337
  C     17.297381   16.436010   15.924536
  O     16.939809   17.035893   14.928053
  C     17.620728   17.115912   17.234021
  C     17.325866   18.427822   17.439059
  C     16.509291   19.342800   16.551631
  N     17.864151   19.098495   18.543318
  C     18.927640   18.632752   19.272461
  S     19.722675   19.575051   20.375128
  N     19.315954   17.342611   19.010515
  C     18.473675   16.377000   18.282868
  C     17.673482   15.597358   19.325112
  C     18.215556   14.417952   19.872262
  C     17.506422   13.681255   20.835567
  C     16.247398   14.131530   21.266273
  C     15.712138   15.314751   20.740738
  O     14.499355   15.757006   21.157571
  C     16.419336   16.045405   19.781173
  H     15.088277   15.581345   17.334827
  H     14.524414   13.906925   17.224612
  H     14.734514   14.865266   15.744802
  H     17.023149   13.972934   17.614641
  H     16.601861   13.187662   16.107383
  H     15.581128   18.851502   16.233355
  H     17.071119   19.598238   15.643713
  H     16.228805   20.279175   17.047947
  H     17.603801   20.055696   18.720176
  H     20.097023   17.017440   19.565076
  H     19.135329   15.677034   17.752828
  H     19.192122   14.068810   19.546765
  H     17.934643   12.769593   21.249469
  H     15.696510   13.567256   22.011877
  H     14.200818   15.166437   21.866028
  H     15.984700   16.964221   19.406179

 Total Charge           Charge          ....    0
 Multiplicity           Mult            ....    1
 Number of Electrons    NEL             ....  154
 Basis Dimension        Dim             ....  828

ORBITAL ENERGIES
----------------

  NO   OCC          E(Eh)            E(eV)
   0   2.0000     -91.892191     -2500.5136
   1   2.0000     -20.604919      -560.6883
   2   2.0000     -20.584243      -560.1257
   3   2.0000     -20.542762      -558.9970
   4   2.0000     -15.632691      -425.3872
   5   2.0000     -15.610929      -424.7950
   6   2.0000     -11.392692      -310.0109
   7   2.0000     -11.386205      -309.8344
   8   2.0000     -11.338467      -308.5354
   9   2.0000     -11.322497      -308.1008
  10   2.0000     -11.316409      -307.9351
  11   2.0000     -11.298437      -307.4461
  12   2.0000     -11.269075      -306.6471
  13   2.0000     -11.264342      -306.5183
  14   2.0000     -11.260662      -306.4182
  15   2.0000     -11.253763      -306.2305
  16   2.0000     -11.250461      -306.1406
  17   2.0000     -11.246464      -306.0318
  18   2.0000     -11.245768      -306.0129
  19   2.0000     -11.228779      -305.5506
  20   2.0000      -8.897156      -242.1039
  21   2.0000      -6.578710      -179.0158
  22   2.0000      -6.576731      -178.9619
  23   2.0000      -6.576125      -178.9455
  24   2.0000      -1.441192       -39.2168
  25   2.0000      -1.424449       -38.7612
  26   2.0000      -1.350303       -36.7436
  27   2.0000      -1.344243       -36.5787
  28   2.0000      -1.242575       -33.8122
  29   2.0000      -1.165087       -31.7036
  30   2.0000      -1.121956       -30.5300
  31   2.0000      -1.048504       -28.5312
  32   2.0000      -1.031518       -28.0690
  33   2.0000      -1.024048       -27.8658
  34   2.0000      -1.001420       -27.2500
  35   2.0000      -0.987303       -26.8659
  36   2.0000      -0.927616       -25.2417
  37   2.0000      -0.895639       -24.3716
  38   2.0000      -0.850885       -23.1538
  39   2.0000      -0.848781       -23.0965
  40   2.0000      -0.841268       -22.8921
  41   2.0000      -0.826470       -22.4894
  42   2.0000      -0.750400       -20.4194
  43   2.0000      -0.737877       -20.0786
  44   2.0000      -0.714105       -19.4318
  45   2.0000      -0.703711       -19.1490
  46   2.0000      -0.694898       -18.9091
  47   2.0000      -0.675963       -18.3939
  48   2.0000      -0.671920       -18.2839
  49   2.0000      -0.662372       -18.0241
  50   2.0000      -0.654829       -17.8188
  51   2.0000      -0.651847       -17.7377
  52   2.0000      -0.638410       -17.3720
  53   2.0000      -0.624817       -17.0021
  54   2.0000      -0.615947       -16.7608
  55   2.0000      -0.606493       -16.5035
  56   2.0000      -0.602174       -16.3860
  57   2.0000      -0.585116       -15.9218
  58   2.0000      -0.573811       -15.6142
  59   2.0000      -0.567193       -15.4341
  60   2.0000      -0.545783       -14.8515
  61   2.0000      -0.541818       -14.7436
  62   2.0000      -0.541430       -14.7331
  63   2.0000      -0.534438       -14.5428
  64   2.0000      -0.533822       -14.5260
  65   2.0000      -0.517129       -14.0718
  66   2.0000      -0.509982       -13.8773
  67   2.0000      -0.496836       -13.5196
  68   2.0000      -0.479597       -13.0505
  69   2.0000      -0.466786       -12.7019
  70   2.0000      -0.452413       -12.3108
  71   2.0000      -0.441557       -12.0154
  72   2.0000      -0.362422        -9.8620
  73   2.0000      -0.357371        -9.7246
  74   2.0000      -0.333286        -9.0692
  75   2.0000      -0.327954        -8.9241
  76   2.0000      -0.318440        -8.6652
  77   0.0000       0.070600         1.9211
  78   0.0000       0.102427         2.7872
  79   0.0000       0.118452         3.2233
  80   0.0000       0.122361         3.3296
  81   0.0000       0.129248         3.5170

MULLIKEN ATOMIC CHARGES
-----------------------
   0 C :   -0.314955
   1 C :    0.019477
   2 O :   -0.361984
   3 C :    0.487034
   4 O :   -0.392348
   5 C :   -0.262141
   6 C :    0.132543
   7 C :   -0.270895
   8 N :   -0.122254
   9 C :    0.217371
  10 S :   -0.435493
  11 N :   -0.201822
  12 C :    0.039042
  13 C :    0.086299
  14 C :   -0.234097
  15 C :   -0.123186
  16 C :   -0.279051
  17 C :    0.329500
  18 O :   -0.357339
  19 C :   -0.288813
  20 H :    0.095999
  21 H :    0.107294
  22 H :    0.123635
  23 H :    0.102256
  24 H :    0.122701
  25 H :    0.125681
  26 H :    0.141966
  27 H :    0.093727
  28 H :    0.199352
  29 H :    0.189468
  30 H :    0.159486
  31 H :    0.152694
  32 H :    0.163199
  33 H :    0.133466
  34 H :    0.243326
  35 H :    0.178864
Sum of atomic charges:    0.0000000

LOEWDIN ATOMIC CHARGES
----------------------
   0 C :    0.106258
   1 C :   -0.017398
   2 O :    0.287375
   3 C :   -0.425130
   4 O :    0.120735
   5 C :   -0.098139
   6 C :   -0.057936
   7 C :    0.129750
   8 N :    0.409239
   9 C :   -0.453271
  10 S :   -0.030138
  11 N :    0.395739
  12 C :   -0.052110
  13 C :   -0.038259
  14 C :    0.006770
  15 C :    0.043725
  16 C :   -0.000416
  17 C :   -0.187897
  18 O :    0.396639
  19 C :    0.031167
  20 H :   -0.033848
  21 H :   -0.022709
  22 H :   -0.022068
  23 H :   -0.042331
  24 H :   -0.021540
  25 H :   -0.006598
  26 H :   -0.001550
  27 H :   -0.023105
  28 H :   -0.057017
  29 H :   -0.067996
  30 H :   -0.003926
  31 H :   -0.031033
  32 H :   -0.018689
  33 H :   -0.033970
  34 H :   -0.151430
  35 H :   -0.028894

  Mayer bond orders larger than 0.100000
B(  0-C ,  1-C ) :   0.9651 B(  0-C , 20-H ) :   0.9722 B(  0-C , 21-H ) :   0.9759
B(  0-C , 22-H ) :   0.9731 B(  1-C ,  2-O ) :   0.9064 B(  1-C , 23-H ) :   0.9675
B(  1-C , 24-H ) :   0.9815 B(  2-O ,  3-C ) :   1.1264 B(  3-C ,  4-O ) :   2.0485
B(  3-C ,  5-C ) :   1.0152 B(  5-C ,  6-C ) :   1.6467 B(  5-C , 12-C ) :   0.9687
B(  6-C ,  7-C ) :   0.9785 B(  6-C ,  8-N ) :   1.1487 B(  7-C , 25-H ) :   0.9665
B(  7-C , 26-H ) :   0.9531 B(  7-C , 27-H ) :   0.9859 B(  8-N ,  9-C ) :   1.1828
B(  8-N , 28-H ) :   0.9490 B(  9-C , 10-S ) :   1.6143 B(  9-C , 11-N ) :   1.2960
B( 11-N , 12-C ) :   0.9510 B( 11-N , 29-H ) :   0.9543 B( 12-C , 13-C ) :   0.9643
B( 12-C , 30-H ) :   0.9943 B( 13-C , 14-C ) :   1.3342 B( 13-C , 19-C ) :   1.3645
B( 14-C , 15-C ) :   1.4021 B( 14-C , 31-H ) :   0.9750 B( 15-C , 16-C ) :   1.3633
B( 15-C , 32-H ) :   0.9696 B( 16-C , 17-C ) :   1.3339 B( 16-C , 33-H ) :   0.9835
B( 17-C , 18-O ) :   1.1169 B( 17-C , 19-C ) :   1.3600 B( 18-O , 34-H ) :   0.9785
B( 19-C , 35-H ) :   0.9488

MP2 TOTAL ENERGY:    -1274.331015561 Eh
FINAL SINGLE POINT ENERGY     -1274.331015561141

DIPOLE MOMENT
-------------
                                X             Y             Z
Electronic contribution:      9.64714       8.06568       4.56927
Nuclear contribution   :    -10.85303      -9.69294      -3.81695
                        -----------------------------------------
Total Dipole Moment    :     -1.20589      -1.62726       0.75232
                        -----------------------------------------
Magnitude (a.u.)       :      2.16058
Magnitude (Debye)      :      5.49176

Rotational constants in cm-1:     0.011298     0.009903     0.006776
Rotational constants in MHz :   338.718069   296.887358   203.152632

                             ****ORCA TERMINATED NORMALLY****
TOTAL RUN TIME: 0 days 2 hours 5 minutes 19 seconds 75 msec
