                         Program Version 5.0.0 -  RELEASE  -
|  1> ! ri-mp2 cc-pvtz cc-pvtz/c TightSCF NoKeepInts
|  2>
|  3> %scf
|  4>   MaxCore 4096
|  5> end
|  6> *xyz  0  1
|  7>     C       14.2649088   14.9453609   15.9155642
|  8>     C       15.7356591   14.6614850   15.5665346
|  9>     O       16.4831204   15.8508638   15.8786078
| 10>     C       17.6102414   15.7618216   16.6427600
| 11>     O       18.2379101   14.7213900   16.7549022
| 12>     C       17.8391965   16.9392542   17.5471980
| 13>     C       17.2907734   18.1714511   17.3787118
| 14>     C       16.3676142   18.6404841   16.2726225
| 15>     N       17.6255040   19.2061730   18.2586933
| 16>     C       18.5975914   19.1336682   19.2211330
| 17>     S       19.0204935   20.4465486   20.1338963
| 18>     N       19.2023613   17.9138884   19.3875143
| 19>     C       18.7743927   16.6647810   18.7304737
| 20>     C       18.1171958   15.7286563   19.7415041
| 21>     C       18.5968846   14.4172284   19.9150801
| 22>     C       17.9930017   13.5499064   20.8408358
| 23>     C       16.8986990   13.9965849   21.6008364
| 24>     C       16.4152213   15.3006426   21.4283892
| 25>     O       15.3544231   15.7328356   22.1559230
| 26>     C       17.0182256   16.1615187   20.5060617
| 27>     H       14.1593071   15.1768390   16.9830132
| 28>     H       13.6413931   14.0713136   15.6913047
| 29>     H       13.8858972   15.7959561   15.3356821
| 30>     H       16.0779695   13.7979582   16.1535760
| 31>     H       15.8382993   14.4187426   14.5009870
| 32>     H       16.7684855   18.3681514   15.2882957
| 33>     H       16.2262068   19.7280429   16.2713138
| 34>     H       15.3774470   18.1788395   16.3737127
| 35>     H       17.1929922   20.1098074   18.1523223
| 36>     H       19.8935727   17.8781182   20.1256598
| 37>     H       19.6749962   16.1705346   18.3382271
| 38>     H       19.4318787   14.0635165   19.3151687
| 39>     H       18.3700958   12.5358966   20.9608034
| 40>     H       16.4281108   13.3293716   22.3151683
| 41>     H       15.1066074   15.0166182   22.7595822
| 42>     H       16.6303230   17.1677506   20.3919408
| 43> *
| 44>
| 45>                          ****END OF INPUT****

CARTESIAN COORDINATES (ANGSTROEM)
---------------------------------
  C     14.264909   14.945361   15.915564
  C     15.735659   14.661485   15.566535
  O     16.483120   15.850864   15.878608
  C     17.610241   15.761822   16.642760
  O     18.237910   14.721390   16.754902
  C     17.839196   16.939254   17.547198
  C     17.290773   18.171451   17.378712
  C     16.367614   18.640484   16.272623
  N     17.625504   19.206173   18.258693
  C     18.597591   19.133668   19.221133
  S     19.020493   20.446549   20.133896
  N     19.202361   17.913888   19.387514
  C     18.774393   16.664781   18.730474
  C     18.117196   15.728656   19.741504
  C     18.596885   14.417228   19.915080
  C     17.993002   13.549906   20.840836
  C     16.898699   13.996585   21.600836
  C     16.415221   15.300643   21.428389
  O     15.354423   15.732836   22.155923
  C     17.018226   16.161519   20.506062
  H     14.159307   15.176839   16.983013
  H     13.641393   14.071314   15.691305
  H     13.885897   15.795956   15.335682
  H     16.077969   13.797958   16.153576
  H     15.838299   14.418743   14.500987
  H     16.768486   18.368151   15.288296
  H     16.226207   19.728043   16.271314
  H     15.377447   18.178839   16.373713
  H     17.192992   20.109807   18.152322
  H     19.893573   17.878118   20.125660
  H     19.674996   16.170535   18.338227
  H     19.431879   14.063517   19.315169
  H     18.370096   12.535897   20.960803
  H     16.428111   13.329372   22.315168
  H     15.106607   15.016618   22.759582
  H     16.630323   17.167751   20.391941

 Total Charge           Charge          ....    0
 Multiplicity           Mult            ....    1
 Number of Electrons    NEL             ....  154
 Basis Dimension        Dim             ....  828

ORBITAL ENERGIES
----------------

  NO   OCC          E(Eh)            E(eV)
   0   2.0000     -91.888177     -2500.4044
   1   2.0000     -20.600987      -560.5814
   2   2.0000     -20.592397      -560.3476
   3   2.0000     -20.546408      -559.0962
   4   2.0000     -15.628504      -425.2732
   5   2.0000     -15.606900      -424.6853
   6   2.0000     -11.395721      -310.0933
   7   2.0000     -11.383118      -309.7504
   8   2.0000     -11.336162      -308.4726
   9   2.0000     -11.308219      -307.7123
  10   2.0000     -11.305884      -307.6487
  11   2.0000     -11.299177      -307.4662
  12   2.0000     -11.260609      -306.4167
  13   2.0000     -11.259057      -306.3745
  14   2.0000     -11.253999      -306.2369
  15   2.0000     -11.248278      -306.0812
  16   2.0000     -11.237924      -305.7995
  17   2.0000     -11.234085      -305.6950
  18   2.0000     -11.233394      -305.6762
  19   2.0000     -11.231000      -305.6110
  20   2.0000      -8.893242      -241.9974
  21   2.0000      -6.574819      -178.9099
  22   2.0000      -6.572812      -178.8553
  23   2.0000      -6.572227      -178.8394
  24   2.0000      -1.453873       -39.5619
  25   2.0000      -1.412139       -38.4263
  26   2.0000      -1.357174       -36.9306
  27   2.0000      -1.339456       -36.4484
  28   2.0000      -1.237126       -33.6639
  29   2.0000      -1.152688       -31.3662
  30   2.0000      -1.119753       -30.4700
  31   2.0000      -1.044322       -28.4174
  32   2.0000      -1.036993       -28.2180
  33   2.0000      -1.010085       -27.4858
  34   2.0000      -0.998048       -27.1583
  35   2.0000      -0.983616       -26.7656
  36   2.0000      -0.921424       -25.0732
  37   2.0000      -0.890011       -24.2184
  38   2.0000      -0.847214       -23.0539
  39   2.0000      -0.835386       -22.7320
  40   2.0000      -0.828451       -22.5433
  41   2.0000      -0.817074       -22.2337
  42   2.0000      -0.761457       -20.7203
  43   2.0000      -0.736146       -20.0316
  44   2.0000      -0.725276       -19.7358
  45   2.0000      -0.691525       -18.8173
  46   2.0000      -0.684833       -18.6352
  47   2.0000      -0.679355       -18.4862
  48   2.0000      -0.675451       -18.3800
  49   2.0000      -0.660317       -17.9682
  50   2.0000      -0.649493       -17.6736
  51   2.0000      -0.644076       -17.5262
  52   2.0000      -0.635014       -17.2796
  53   2.0000      -0.601915       -16.3789
  54   2.0000      -0.600553       -16.3419
  55   2.0000      -0.596045       -16.2192
  56   2.0000      -0.591003       -16.0820
  57   2.0000      -0.583727       -15.8840
  58   2.0000      -0.573953       -15.6181
  59   2.0000      -0.564469       -15.3600
  60   2.0000      -0.560598       -15.2546
  61   2.0000      -0.558344       -15.1933
  62   2.0000      -0.539542       -14.6817
  63   2.0000      -0.523499       -14.2451
  64   2.0000      -0.517916       -14.0932
  65   2.0000      -0.510500       -13.8914
  66   2.0000      -0.500284       -13.6134
  67   2.0000      -0.495920       -13.4947
  68   2.0000      -0.481032       -13.0896
  69   2.0000      -0.463417       -12.6102
  70   2.0000      -0.457617       -12.4524
  71   2.0000      -0.456775       -12.4295
  72   2.0000      -0.354272        -9.6402
  73   2.0000      -0.344558        -9.3759
  74   2.0000      -0.327326        -8.9070
  75   2.0000      -0.315942        -8.5972
  76   2.0000      -0.314279        -8.5520
  77   0.0000       0.075435         2.0527
  78   0.0000       0.111379         3.0308
  79   0.0000       0.120244         3.2720
  80   0.0000       0.135638         3.6909
  81   0.0000       0.139707         3.8016

MULLIKEN ATOMIC CHARGES
-----------------------
   0 C :   -0.278320
   1 C :    0.030962
   2 O :   -0.345414
   3 C :    0.444159
   4 O :   -0.423585
   5 C :   -0.177942
   6 C :    0.143050
   7 C :   -0.286361
   8 N :   -0.122796
   9 C :    0.201959
  10 S :   -0.439343
  11 N :   -0.197544
  12 C :    0.039403
  13 C :    0.055676
  14 C :   -0.160653
  15 C :   -0.133898
  16 C :   -0.279514
  17 C :    0.311276
  18 O :   -0.359191
  19 C :   -0.274437
  20 H :    0.101717
  21 H :    0.102567
  22 H :    0.091084
  23 H :    0.109247
  24 H :    0.099348
  25 H :    0.127401
  26 H :    0.104141
  27 H :    0.126079
  28 H :    0.196893
  29 H :    0.193752
  30 H :    0.153722
  31 H :    0.153574
  32 H :    0.159416
  33 H :    0.128312
  34 H :    0.240229
  35 H :    0.165029
Sum of atomic charges:   -0.0000000

LOEWDIN ATOMIC CHARGES
----------------------
   0 C :    0.103864
   1 C :   -0.012394
   2 O :    0.306102
   3 C :   -0.415643
   4 O :    0.106118
   5 C :   -0.092054
   6 C :   -0.066845
   7 C :    0.125012
   8 N :    0.404748
   9 C :   -0.458730
  10 S :   -0.036011
  11 N :    0.397779
  12 C :   -0.046361
  13 C :   -0.038898
  14 C :    0.022162
  15 C :    0.040926
  16 C :   -0.002437
  17 C :   -0.193041
  18 O :    0.392903
  19 C :    0.027921
  20 H :   -0.025557
  21 H :   -0.023918
  22 H :   -0.030561
  23 H :   -0.025505
  24 H :   -0.030078
  25 H :   -0.008092
  26 H :   -0.020849
  27 H :   -0.010302
  28 H :   -0.059117
  29 H :   -0.063717
  30 H :   -0.004869
  31 H :   -0.025167
  32 H :   -0.021128
  33 H :   -0.036358
  34 H :   -0.154820
  35 H :   -0.025084

  Mayer bond orders larger than 0.100000
B(  0-C ,  1-C ) :   0.9713 B(  0-C , 20-H ) :   0.9758 B(  0-C , 21-H ) :   0.9782
B(  0-C , 22-H ) :   0.9788 B(  1-C ,  2-O ) :   0.8934 B(  1-C , 23-H ) :   0.9725
B(  1-C , 24-H ) :   0.9831 B(  2-O ,  3-C ) :   1.1566 B(  3-C ,  4-O ) :   1.9929
B(  3-C ,  5-C ) :   1.0448 B(  5-C ,  6-C ) :   1.6516 B(  5-C , 12-C ) :   0.9653
B(  6-C ,  7-C ) :   0.9550 B(  6-C ,  8-N ) :   1.1467 B(  7-C , 25-H ) :   0.9663
B(  7-C , 26-H ) :   0.9907 B(  7-C , 27-H ) :   0.9644 B(  8-N ,  9-C ) :   1.1794
B(  8-N , 28-H ) :   0.9489 B(  9-C , 10-S ) :   1.6106 B(  9-C , 11-N ) :   1.3039
B( 11-N , 12-C ) :   0.9917 B( 11-N , 29-H ) :   0.9520 B( 12-C , 13-C ) :   0.9468
B( 12-C , 30-H ) :   0.9994 B( 13-C , 14-C ) :   1.3763 B( 13-C , 19-C ) :   1.3688
B( 14-C , 15-C ) :   1.3943 B( 14-C , 31-H ) :   0.9648 B( 15-C , 16-C ) :   1.3627
B( 15-C , 32-H ) :   0.9713 B( 16-C , 17-C ) :   1.3316 B( 16-C , 33-H ) :   0.9859
B( 17-C , 18-O ) :   1.1081 B( 17-C , 19-C ) :   1.3784 B( 18-O , 34-H ) :   0.9805
B( 19-C , 35-H ) :   0.9585

MP2 TOTAL ENERGY:    -1274.344183679 Eh
FINAL SINGLE POINT ENERGY     -1274.344183679473

DIPOLE MOMENT
-------------
                                X             Y             Z
Electronic contribution:     11.85191       8.63801       9.34506
Nuclear contribution   :    -13.30635      -9.96768     -10.29771
                        -----------------------------------------
Total Dipole Moment    :     -1.45443      -1.32968      -0.95265
                        -----------------------------------------
Magnitude (a.u.)       :      2.18883
Magnitude (Debye)      :      5.56356

Rotational constants in cm-1:     0.010463     0.009200     0.006191
Rotational constants in MHz :   313.662266   275.803166   185.605234

                             ****ORCA TERMINATED NORMALLY****
TOTAL RUN TIME: 0 days 2 hours 5 minutes 50 seconds 744 msec
