                         Program Version 4.2.0 -  RELEASE  -
|  1> ! ri-mp2 cc-pvtz cc-pvtz/c TightSCF  NoKeepInts
|  2>
|  3> %scf
|  4>   MaxCore 4096
|  5> end
|  6> *xyz  0  1
|  7>     C       15.0847773   15.5141375   17.5481178
|  8>     C       15.6024165   15.3039426   16.1107689
|  9>     O       16.9967642   14.9239695   16.0773632
| 10>     C       18.1164886   15.6173473   16.4801327
| 11>     O       19.1856172   15.0355905   16.4664581
| 12>     C       17.9370562   16.8015969   17.3736296
| 13>     C       17.4038957   17.9680530   16.9392818
| 14>     C       16.9245789   18.2934831   15.5414359
| 15>     N       17.3668783   19.0766794   17.7878740
| 16>     C       17.9823306   19.1432988   19.0101808
| 17>     S       17.9662521   20.5263146   19.9162543
| 18>     N       18.6179463   18.0056517   19.4418072
| 19>     C       18.5717858   16.6938765   18.7646835
| 20>     C       17.8782094   15.6395855   19.6257818
| 21>     C       18.3243620   14.3052485   19.5924580
| 22>     C       17.6949425   13.3171913   20.3673733
| 23>     C       16.6082169   13.6639512   21.1873101
| 24>     C       16.1592278   14.9905364   21.2254667
| 25>     O       15.1032237   15.3269614   22.0079048
| 26>     C       16.7871335   15.9724987   20.4524586
| 27>     H       15.4457705   14.7142505   18.2068632
| 28>     H       13.9885766   15.4831959   17.5598832
| 29>     H       15.3828290   16.4801757   17.9659464
| 30>     H       15.0269133   14.4819129   15.6654023
| 31>     H       15.4077936   16.1884444   15.4975485
| 32>     H       17.1861467   17.5114607   14.8182312
| 33>     H       17.3906331   19.2183658   15.1775089
| 34>     H       15.8374968   18.4371635   15.5182855
| 35>     H       16.9261806   19.9291798   17.4796831
| 36>     H       19.0549167   18.0794243   20.3519039
| 37>     H       19.6124335   16.3657262   18.6236627
| 38>     H       19.1593106   14.0298168   18.9512634
| 39>     H       18.0489821   12.2884691   20.3261638
| 40>     H       16.1179792   12.9031173   21.7856097
| 41>     H       14.8361729   14.5316088   22.4929695
| 42>     H       16.4127613   16.9897740   20.4963334
| 43> *
| 44>
| 45>                          ****END OF INPUT****

CARTESIAN COORDINATES (ANGSTROEM)
---------------------------------
  C     15.084777   15.514137   17.548118
  C     15.602417   15.303943   16.110769
  O     16.996764   14.923970   16.077363
  C     18.116489   15.617347   16.480133
  O     19.185617   15.035590   16.466458
  C     17.937056   16.801597   17.373630
  C     17.403896   17.968053   16.939282
  C     16.924579   18.293483   15.541436
  N     17.366878   19.076679   17.787874
  C     17.982331   19.143299   19.010181
  S     17.966252   20.526315   19.916254
  N     18.617946   18.005652   19.441807
  C     18.571786   16.693876   18.764684
  C     17.878209   15.639585   19.625782
  C     18.324362   14.305248   19.592458
  C     17.694942   13.317191   20.367373
  C     16.608217   13.663951   21.187310
  C     16.159228   14.990536   21.225467
  O     15.103224   15.326961   22.007905
  C     16.787133   15.972499   20.452459
  H     15.445770   14.714251   18.206863
  H     13.988577   15.483196   17.559883
  H     15.382829   16.480176   17.965946
  H     15.026913   14.481913   15.665402
  H     15.407794   16.188444   15.497548
  H     17.186147   17.511461   14.818231
  H     17.390633   19.218366   15.177509
  H     15.837497   18.437164   15.518285
  H     16.926181   19.929180   17.479683
  H     19.054917   18.079424   20.351904
  H     19.612433   16.365726   18.623663
  H     19.159311   14.029817   18.951263
  H     18.048982   12.288469   20.326164
  H     16.117979   12.903117   21.785610
  H     14.836173   14.531609   22.492970
  H     16.412761   16.989774   20.496333

 Total Charge           Charge          ....    0
 Multiplicity           Mult            ....    1
 Number of Electrons    NEL             ....  154
 Basis Dimension        Dim             ....  828

ORBITAL ENERGIES
----------------

  NO   OCC          E(Eh)            E(eV)
   0   2.0000     -91.890363     -2500.4639
   1   2.0000     -20.599935      -560.5527
   2   2.0000     -20.597289      -560.4807
   3   2.0000     -20.549313      -559.1752
   4   2.0000     -15.627782      -425.2536
   5   2.0000     -15.611365      -424.8068
   6   2.0000     -11.400628      -310.2269
   7   2.0000     -11.386861      -309.8522
   8   2.0000     -11.330337      -308.3141
   9   2.0000     -11.314707      -307.8888
  10   2.0000     -11.313804      -307.8642
  11   2.0000     -11.309277      -307.7411
  12   2.0000     -11.272173      -306.7314
  13   2.0000     -11.267357      -306.6004
  14   2.0000     -11.261625      -306.4444
  15   2.0000     -11.254398      -306.2477
  16   2.0000     -11.243655      -305.9554
  17   2.0000     -11.239077      -305.8308
  18   2.0000     -11.236043      -305.7483
  19   2.0000     -11.229246      -305.5633
  20   2.0000      -8.895470      -242.0580
  21   2.0000      -6.577060      -178.9709
  22   2.0000      -6.575031      -178.9157
  23   2.0000      -6.574456      -178.9001
  24   2.0000      -1.445760       -39.3411
  25   2.0000      -1.417114       -38.5616
  26   2.0000      -1.357246       -36.9326
  27   2.0000      -1.341251       -36.4973
  28   2.0000      -1.240448       -33.7543
  29   2.0000      -1.158842       -31.5337
  30   2.0000      -1.125448       -30.6250
  31   2.0000      -1.047961       -28.5165
  32   2.0000      -1.038867       -28.2690
  33   2.0000      -1.017092       -27.6765
  34   2.0000      -1.005925       -27.3726
  35   2.0000      -0.990230       -26.9455
  36   2.0000      -0.928070       -25.2541
  37   2.0000      -0.896805       -24.4033
  38   2.0000      -0.855176       -23.2705
  39   2.0000      -0.840711       -22.8769
  40   2.0000      -0.834220       -22.7003
  41   2.0000      -0.829801       -22.5800
  42   2.0000      -0.748277       -20.3617
  43   2.0000      -0.739898       -20.1337
  44   2.0000      -0.730429       -19.8760
  45   2.0000      -0.695151       -18.9160
  46   2.0000      -0.687363       -18.7041
  47   2.0000      -0.679317       -18.4851
  48   2.0000      -0.675049       -18.3690
  49   2.0000      -0.663429       -18.0528
  50   2.0000      -0.652276       -17.7493
  51   2.0000      -0.648353       -17.6426
  52   2.0000      -0.640279       -17.4229
  53   2.0000      -0.616537       -16.7768
  54   2.0000      -0.610645       -16.6165
  55   2.0000      -0.605805       -16.4848
  56   2.0000      -0.601890       -16.3783
  57   2.0000      -0.591008       -16.0821
  58   2.0000      -0.579380       -15.7657
  59   2.0000      -0.572654       -15.5827
  60   2.0000      -0.565634       -15.3917
  61   2.0000      -0.556813       -15.1516
  62   2.0000      -0.540509       -14.7080
  63   2.0000      -0.530174       -14.4268
  64   2.0000      -0.518868       -14.1191
  65   2.0000      -0.512937       -13.9577
  66   2.0000      -0.503280       -13.6950
  67   2.0000      -0.501173       -13.6376
  68   2.0000      -0.483427       -13.1547
  69   2.0000      -0.464293       -12.6341
  70   2.0000      -0.454216       -12.3598
  71   2.0000      -0.451394       -12.2831
  72   2.0000      -0.357255        -9.7214
  73   2.0000      -0.348163        -9.4740
  74   2.0000      -0.329987        -8.9794
  75   2.0000      -0.322775        -8.7832
  76   2.0000      -0.318750        -8.6736
  77   0.0000       0.084776         2.3069
  78   0.0000       0.107015         2.9120
  79   0.0000       0.112374         3.0579
  80   0.0000       0.130213         3.5433
  81   0.0000       0.131030         3.5655

MULLIKEN ATOMIC CHARGES
-----------------------
   0 C :   -0.322987
   1 C :    0.015291
   2 O :   -0.320356
   3 C :    0.413580
   4 O :   -0.383154
   5 C :   -0.198675
   6 C :    0.142067
   7 C :   -0.334720
   8 N :   -0.136810
   9 C :    0.203908
  10 S :   -0.440595
  11 N :   -0.226412
  12 C :    0.086893
  13 C :    0.022539
  14 C :   -0.209905
  15 C :   -0.135584
  16 C :   -0.278070
  17 C :    0.317659
  18 O :   -0.358620
  19 C :   -0.272706
  20 H :    0.127293
  21 H :    0.114432
  22 H :    0.106979
  23 H :    0.133592
  24 H :    0.088442
  25 H :    0.125502
  26 H :    0.140558
  27 H :    0.121925
  28 H :    0.196495
  29 H :    0.202394
  30 H :    0.168736
  31 H :    0.175089
  32 H :    0.163731
  33 H :    0.131926
  34 H :    0.241037
  35 H :    0.178524
Sum of atomic charges:   -0.0000000

LOEWDIN ATOMIC CHARGES
----------------------
   0 C :    0.103590
   1 C :   -0.019893
   2 O :    0.301941
   3 C :   -0.415242
   4 O :    0.123972
   5 C :   -0.077464
   6 C :   -0.101566
   7 C :    0.122194
   8 N :    0.401974
   9 C :   -0.457911
  10 S :   -0.037631
  11 N :    0.398567
  12 C :   -0.041990
  13 C :   -0.042028
  14 C :    0.021015
  15 C :    0.043529
  16 C :   -0.001976
  17 C :   -0.193951
  18 O :    0.395354
  19 C :    0.028749
  20 H :   -0.018324
  21 H :   -0.025113
  22 H :   -0.036920
  23 H :   -0.017482
  24 H :   -0.040560
  25 H :   -0.009012
  26 H :   -0.008566
  27 H :   -0.017844
  28 H :   -0.057829
  29 H :   -0.063306
  30 H :   -0.001358
  31 H :   -0.021812
  32 H :   -0.018614
  33 H :   -0.035037
  34 H :   -0.153616
  35 H :   -0.025839

  Mayer bond orders larger than 0.100000
B(  0-C ,  1-C ) :   0.9538 B(  0-C , 20-H ) :   0.9687 B(  0-C , 21-H ) :   0.9766
B(  0-C , 22-H ) :   0.9724 B(  1-C ,  2-O ) :   0.9099 B(  1-C , 23-H ) :   0.9828
B(  1-C , 24-H ) :   0.9745 B(  2-O ,  3-C ) :   1.1709 B(  3-C ,  4-O ) :   2.0776
B(  3-C ,  5-C ) :   0.9214 B(  5-C ,  6-C ) :   1.6971 B(  5-C , 12-C ) :   0.9523
B(  6-C ,  7-C ) :   0.9449 B(  6-C ,  8-N ) :   1.1029 B(  7-C , 25-H ) :   0.9814
B(  7-C , 26-H ) :   0.9704 B(  7-C , 27-H ) :   0.9659 B(  8-N ,  9-C ) :   1.1957
B(  8-N , 28-H ) :   0.9527 B(  9-C , 10-S ) :   1.6091 B(  9-C , 11-N ) :   1.2879
B( 11-N , 12-C ) :   0.9870 B( 11-N , 29-H ) :   0.9478 B( 12-C , 13-C ) :   0.9510
B( 12-C , 30-H ) :   0.9948 B( 13-C , 14-C ) :   1.3898 B( 13-C , 19-C ) :   1.3381
B( 14-C , 15-C ) :   1.4020 B( 14-C , 31-H ) :   0.9583 B( 15-C , 16-C ) :   1.3578
B( 15-C , 32-H ) :   0.9702 B( 16-C , 17-C ) :   1.3310 B( 16-C , 33-H ) :   0.9850
B( 17-C , 18-O ) :   1.1096 B( 17-C , 19-C ) :   1.3701 B( 18-O , 34-H ) :   0.9797
B( 19-C , 35-H ) :   0.9565

MP2 TOTAL ENERGY:    -1274.325940954 Eh
FINAL SINGLE POINT ENERGY     -1274.325940954127

DIPOLE MOMENT
-------------
                                X             Y             Z
Electronic contribution:      9.10213       6.08892       6.29657
Nuclear contribution   :    -10.63546      -7.11026      -7.03243
                        -----------------------------------------
Total Dipole Moment    :     -1.53333      -1.02133      -0.73586
                        -----------------------------------------
Magnitude (a.u.)       :      1.98387
Magnitude (Debye)      :      5.04259

Rotational constants in cm-1:     0.011887     0.009591     0.006835
Rotational constants in MHz :   356.358020   287.540034   204.903861

                             ****ORCA TERMINATED NORMALLY****
TOTAL RUN TIME: 0 days 1 hours 49 minutes 51 seconds 516 msec
