                         Program Version 4.2.0 -  RELEASE  -
|  1> ! ri-mp2 cc-pvtz cc-pvtz/c TightSCF  NoKeepInts
|  2>
|  3> %scf
|  4>   MaxCore 4096
|  5> end
|  6> *xyz  0  1
|  7>     C       14.5574153   15.9739822   16.4502333
|  8>     C       15.5347117   15.0917841   17.2478080
|  9>     O       16.7582373   14.8893141   16.5090195
| 10>     C       17.8252729   15.7513058   16.4452340
| 11>     O       18.8754046   15.3693582   15.9649533
| 12>     C       17.8224486   16.8837902   17.4127975
| 13>     C       17.3650324   18.1050535   17.0586923
| 14>     C       16.7975940   18.5038927   15.7133395
| 15>     N       17.4905522   19.1796291   17.9410633
| 16>     C       18.1443920   19.1272444   19.1445552
| 17>     S       18.2698687   20.4535680   20.1238975
| 18>     N       18.6925278   17.9185182   19.4984150
| 19>     C       18.5782680   16.6642228   18.7265800
| 20>     C       17.9872439   15.5324760   19.5632811
| 21>     C       18.4272023   14.2116321   19.3581096
| 22>     C       17.8853480   13.1509697   20.1024928
| 23>     C       16.8943747   13.4111264   21.0637968
| 24>     C       16.4517256   14.7240365   21.2720173
| 25>     O       15.4864836   14.9773019   22.1907953
| 26>     C       16.9907851   15.7786252   20.5279296
| 27>     H       14.7423949   17.0359115   16.6320215
| 28>     H       13.5265504   15.7679828   16.7637445
| 29>     H       14.6303060   15.7717209   15.3740658
| 30>     H       15.7081899   15.5142390   18.2424636
| 31>     H       15.0653368   14.1096826   17.3902885
| 32>     H       16.5917179   17.6395805   15.0705081
| 33>     H       17.5101785   19.1399866   15.1726630
| 34>     H       15.8614515   19.0650133   15.8230723
| 35>     H       17.1217957   20.0826594   17.6868458
| 36>     H       19.1603775   17.9089329   20.3961618
| 37>     H       19.6000678   16.3607138   18.4535521
| 38>     H       19.1851012   14.0045240   18.6048762
| 39>     H       18.2322610   12.1334479   19.9292534
| 40>     H       16.4725390   12.5940129   21.6399319
| 41>     H       15.2813858   14.1414058   22.6367456
| 42>     H       16.6224576   16.7843549   20.7027947
| 43> *
| 44>
| 45>                          ****END OF INPUT****

CARTESIAN COORDINATES (ANGSTROEM)
---------------------------------
  C     14.557415   15.973982   16.450233
  C     15.534712   15.091784   17.247808
  O     16.758237   14.889314   16.509020
  C     17.825273   15.751306   16.445234
  O     18.875405   15.369358   15.964953
  C     17.822449   16.883790   17.412797
  C     17.365032   18.105054   17.058692
  C     16.797594   18.503893   15.713339
  N     17.490552   19.179629   17.941063
  C     18.144392   19.127244   19.144555
  S     18.269869   20.453568   20.123898
  N     18.692528   17.918518   19.498415
  C     18.578268   16.664223   18.726580
  C     17.987244   15.532476   19.563281
  C     18.427202   14.211632   19.358110
  C     17.885348   13.150970   20.102493
  C     16.894375   13.411126   21.063797
  C     16.451726   14.724036   21.272017
  O     15.486484   14.977302   22.190795
  C     16.990785   15.778625   20.527930
  H     14.742395   17.035912   16.632022
  H     13.526550   15.767983   16.763745
  H     14.630306   15.771721   15.374066
  H     15.708190   15.514239   18.242464
  H     15.065337   14.109683   17.390289
  H     16.591718   17.639581   15.070508
  H     17.510178   19.139987   15.172663
  H     15.861451   19.065013   15.823072
  H     17.121796   20.082659   17.686846
  H     19.160377   17.908933   20.396162
  H     19.600068   16.360714   18.453552
  H     19.185101   14.004524   18.604876
  H     18.232261   12.133448   19.929253
  H     16.472539   12.594013   21.639932
  H     15.281386   14.141406   22.636746
  H     16.622458   16.784355   20.702795

 Total Charge           Charge          ....    0
 Multiplicity           Mult            ....    1
 Number of Electrons    NEL             ....  154
 Basis Dimension        Dim             ....  828

ORBITAL ENERGIES
----------------

  NO   OCC          E(Eh)            E(eV)
   0   2.0000     -91.889323     -2500.4356
   1   2.0000     -20.601903      -560.6063
   2   2.0000     -20.600371      -560.5646
   3   2.0000     -20.552616      -559.2651
   4   2.0000     -15.624261      -425.1578
   5   2.0000     -15.612422      -424.8356
   6   2.0000     -11.398775      -310.1764
   7   2.0000     -11.386406      -309.8398
   8   2.0000     -11.325101      -308.1717
   9   2.0000     -11.319445      -308.0178
  10   2.0000     -11.319032      -308.0065
  11   2.0000     -11.302306      -307.5514
  12   2.0000     -11.267466      -306.6033
  13   2.0000     -11.266761      -306.5841
  14   2.0000     -11.264854      -306.5323
  15   2.0000     -11.259914      -306.3978
  16   2.0000     -11.248470      -306.0864
  17   2.0000     -11.244369      -305.9748
  18   2.0000     -11.242046      -305.9116
  19   2.0000     -11.235588      -305.7359
  20   2.0000      -8.894453      -242.0304
  21   2.0000      -6.576047      -178.9433
  22   2.0000      -6.574014      -178.8880
  23   2.0000      -6.573445      -178.8725
  24   2.0000      -1.448030       -39.4029
  25   2.0000      -1.421716       -38.6869
  26   2.0000      -1.360046       -37.0087
  27   2.0000      -1.338991       -36.4358
  28   2.0000      -1.239898       -33.7393
  29   2.0000      -1.163464       -31.6595
  30   2.0000      -1.125884       -30.6369
  31   2.0000      -1.050317       -28.5806
  32   2.0000      -1.040204       -28.3054
  33   2.0000      -1.021593       -27.7990
  34   2.0000      -1.005233       -27.3538
  35   2.0000      -0.989967       -26.9384
  36   2.0000      -0.928646       -25.2697
  37   2.0000      -0.895638       -24.3716
  38   2.0000      -0.852828       -23.2066
  39   2.0000      -0.842315       -22.9206
  40   2.0000      -0.838624       -22.8201
  41   2.0000      -0.835751       -22.7419
  42   2.0000      -0.754556       -20.5325
  43   2.0000      -0.735161       -20.0047
  44   2.0000      -0.729843       -19.8600
  45   2.0000      -0.699330       -19.0297
  46   2.0000      -0.691297       -18.8111
  47   2.0000      -0.680001       -18.5038
  48   2.0000      -0.677616       -18.4389
  49   2.0000      -0.666806       -18.1447
  50   2.0000      -0.654785       -17.8176
  51   2.0000      -0.640233       -17.4216
  52   2.0000      -0.636246       -17.3131
  53   2.0000      -0.624251       -16.9867
  54   2.0000      -0.611475       -16.6391
  55   2.0000      -0.608495       -16.5580
  56   2.0000      -0.605071       -16.4648
  57   2.0000      -0.587540       -15.9878
  58   2.0000      -0.579143       -15.7593
  59   2.0000      -0.572879       -15.5888
  60   2.0000      -0.567665       -15.4469
  61   2.0000      -0.557855       -15.1800
  62   2.0000      -0.541729       -14.7412
  63   2.0000      -0.536901       -14.6098
  64   2.0000      -0.523861       -14.2550
  65   2.0000      -0.515743       -14.0341
  66   2.0000      -0.504017       -13.7150
  67   2.0000      -0.501213       -13.6387
  68   2.0000      -0.488432       -13.2909
  69   2.0000      -0.470149       -12.7934
  70   2.0000      -0.452185       -12.3046
  71   2.0000      -0.450839       -12.2680
  72   2.0000      -0.356884        -9.7113
  73   2.0000      -0.352645        -9.5960
  74   2.0000      -0.329240        -8.9591
  75   2.0000      -0.326945        -8.8966
  76   2.0000      -0.318750        -8.6736
  77   0.0000       0.094218         2.5638
  78   0.0000       0.103620         2.8196
  79   0.0000       0.115926         3.1545
  80   0.0000       0.127108         3.4588
  81   0.0000       0.128072         3.4850

MULLIKEN ATOMIC CHARGES
-----------------------
   0 C :   -0.324397
   1 C :    0.041024
   2 O :   -0.318444
   3 C :    0.385537
   4 O :   -0.375757
   5 C :   -0.168890
   6 C :    0.125860
   7 C :   -0.330561
   8 N :   -0.139916
   9 C :    0.214125
  10 S :   -0.444425
  11 N :   -0.233107
  12 C :    0.093431
  13 C :   -0.000930
  14 C :   -0.197334
  15 C :   -0.134973
  16 C :   -0.272812
  17 C :    0.315944
  18 O :   -0.355337
  19 C :   -0.266354
  20 H :    0.095683
  21 H :    0.114353
  22 H :    0.113943
  23 H :    0.101648
  24 H :    0.122264
  25 H :    0.118922
  26 H :    0.150721
  27 H :    0.114944
  28 H :    0.195139
  29 H :    0.204877
  30 H :    0.164885
  31 H :    0.166194
  32 H :    0.165151
  33 H :    0.133708
  34 H :    0.241702
  35 H :    0.183182
Sum of atomic charges:   -0.0000000

LOEWDIN ATOMIC CHARGES
----------------------
   0 C :    0.103188
   1 C :   -0.017737
   2 O :    0.307818
   3 C :   -0.419564
   4 O :    0.126607
   5 C :   -0.078606
   6 C :   -0.109558
   7 C :    0.123135
   8 N :    0.401031
   9 C :   -0.454688
  10 S :   -0.039876
  11 N :    0.397510
  12 C :   -0.042937
  13 C :   -0.043715
  14 C :    0.023035
  15 C :    0.046735
  16 C :    0.000023
  17 C :   -0.193498
  18 O :    0.396017
  19 C :    0.024705
  20 H :   -0.034114
  21 H :   -0.022525
  22 H :   -0.024912
  23 H :   -0.036477
  24 H :   -0.019528
  25 H :   -0.010504
  26 H :   -0.007960
  27 H :   -0.017988
  28 H :   -0.058367
  29 H :   -0.064123
  30 H :   -0.002856
  31 H :   -0.021327
  32 H :   -0.017588
  33 H :   -0.034180
  34 H :   -0.152506
  35 H :   -0.024672

  Mayer bond orders larger than 0.100000
B(  0-C ,  1-C ) :   0.9584 B(  0-C , 20-H ) :   0.9775 B(  0-C , 21-H ) :   0.9803
B(  0-C , 22-H ) :   0.9738 B(  1-C ,  2-O ) :   0.8957 B(  1-C , 23-H ) :   0.9588
B(  1-C , 24-H ) :   0.9848 B(  2-O ,  3-C ) :   1.1721 B(  3-C ,  4-O ) :   2.1025
B(  3-C ,  5-C ) :   0.8965 B(  5-C ,  6-C ) :   1.7139 B(  5-C , 12-C ) :   0.9499
B(  6-C ,  7-C ) :   0.9513 B(  6-C ,  8-N ) :   1.1059 B(  7-C , 25-H ) :   0.9807
B(  7-C , 26-H ) :   0.9639 B(  7-C , 27-H ) :   0.9708 B(  8-N ,  9-C ) :   1.2064
B(  8-N , 28-H ) :   0.9528 B(  9-C , 10-S ) :   1.6042 B(  9-C , 11-N ) :   1.2842
B( 11-N , 12-C ) :   0.9888 B( 11-N , 29-H ) :   0.9446 B( 12-C , 13-C ) :   0.9575
B( 12-C , 30-H ) :   0.9966 B( 13-C , 14-C ) :   1.3896 B( 13-C , 19-C ) :   1.3332
B( 14-C , 15-C ) :   1.4004 B( 14-C , 31-H ) :   0.9641 B( 15-C , 16-C ) :   1.3593
B( 15-C , 32-H ) :   0.9692 B( 16-C , 17-C ) :   1.3313 B( 16-C , 33-H ) :   0.9841
B( 17-C , 18-O ) :   1.1099 B( 17-C , 19-C ) :   1.3656 B( 18-O , 34-H ) :   0.9789
B( 19-C , 35-H ) :   0.9574

MP2 TOTAL ENERGY:    -1274.326893299 Eh
FINAL SINGLE POINT ENERGY     -1274.326893298667

DIPOLE MOMENT
-------------
                                X             Y             Z
Electronic contribution:     10.20469       5.10791       7.64151
Nuclear contribution   :    -11.73144      -6.39018      -7.89351
                        -----------------------------------------
Total Dipole Moment    :     -1.52676      -1.28228      -0.25200
                        -----------------------------------------
Magnitude (a.u.)       :      2.00966
Magnitude (Debye)      :      5.10814

Rotational constants in cm-1:     0.011910     0.009209     0.006665
Rotational constants in MHz :   357.049337   276.069195   199.800811

                             ****ORCA TERMINATED NORMALLY****
TOTAL RUN TIME: 0 days 1 hours 53 minutes 52 seconds 23 msec
