                         Program Version 4.2.0 -  RELEASE  -
|  1> ! ri-mp2 cc-pvtz cc-pvtz/c TightSCF  NoKeepInts
|  2>
|  3> %scf
|  4>   MaxCore 4096
|  5> end
|  6> *xyz  0  1
|  7>     C       14.4900535   14.7123313   16.0731847
|  8>     C       15.6892778   15.1220607   16.9432161
|  9>     O       16.8255580   15.2631370   16.0720917
| 10>     C       18.0343680   15.5184924   16.6497199
| 11>     O       18.8122243   14.6068562   16.8650738
| 12>     C       18.0731537   16.7941420   17.4340175
| 13>     C       17.5130013   17.9501596   17.0021534
| 14>     C       16.8103666   18.1860138   15.6816927
| 15>     N       17.6219101   19.1071524   17.7784105
| 16>     C       18.3753455   19.2133756   18.9186230
| 17>     S       18.5294279   20.6469955   19.7280257
| 18>     N       18.9918142   18.0675142   19.3576392
| 19>     C       18.7960228   16.7236041   18.7795893
| 20>     C       18.0249909   15.8240114   19.7414260
| 21>     C       18.5068884   14.5405469   20.0567886
| 22>     C       17.7862203   13.6962596   20.9178270
| 23>     C       16.5704001   14.1370196   21.4674093
| 24>     C       16.0838857   15.4125005   21.1516259
| 25>     O       14.9032393   15.8365197   21.6680182
| 26>     C       16.8030561   16.2505758   20.2938702
| 27>     H       14.6959353   13.7670198   15.5552596
| 28>     H       14.2762008   15.4801366   15.3195593
| 29>     H       13.5943188   14.5766052   16.6914395
| 30>     H       15.4662629   16.0605587   17.4668839
| 31>     H       15.8843790   14.3432340   17.6938614
| 32>     H       17.2659848   17.5939136   14.8777793
| 33>     H       16.8633161   19.2360104   15.3681932
| 34>     H       15.7518507   17.9065732   15.7441169
| 35>     H       17.1821509   19.9601522   17.4703980
| 36>     H       19.5204230   18.1695760   20.2147803
| 37>     H       19.7886131   16.2816167   18.6083252
| 38>     H       19.4361978   14.1881872   19.6146641
| 39>     H       18.1679395   12.7030908   21.1486419
| 40>     H       16.0093010   13.4861418   22.1298860
| 41>     H       14.5947952   15.1553694   22.2849475
| 42>     H       16.4081265   17.2345460   20.0648612
| 43> *
| 44>
| 45>                          ****END OF INPUT****

CARTESIAN COORDINATES (ANGSTROEM)
---------------------------------
  C     14.490054   14.712331   16.073185
  C     15.689278   15.122061   16.943216
  O     16.825558   15.263137   16.072092
  C     18.034368   15.518492   16.649720
  O     18.812224   14.606856   16.865074
  C     18.073154   16.794142   17.434017
  C     17.513001   17.950160   17.002153
  C     16.810367   18.186014   15.681693
  N     17.621910   19.107152   17.778410
  C     18.375346   19.213376   18.918623
  S     18.529428   20.646995   19.728026
  N     18.991814   18.067514   19.357639
  C     18.796023   16.723604   18.779589
  C     18.024991   15.824011   19.741426
  C     18.506888   14.540547   20.056789
  C     17.786220   13.696260   20.917827
  C     16.570400   14.137020   21.467409
  C     16.083886   15.412501   21.151626
  O     14.903239   15.836520   21.668018
  C     16.803056   16.250576   20.293870
  H     14.695935   13.767020   15.555260
  H     14.276201   15.480137   15.319559
  H     13.594319   14.576605   16.691440
  H     15.466263   16.060559   17.466884
  H     15.884379   14.343234   17.693861
  H     17.265985   17.593914   14.877779
  H     16.863316   19.236010   15.368193
  H     15.751851   17.906573   15.744117
  H     17.182151   19.960152   17.470398
  H     19.520423   18.169576   20.214780
  H     19.788613   16.281617   18.608325
  H     19.436198   14.188187   19.614664
  H     18.167939   12.703091   21.148642
  H     16.009301   13.486142   22.129886
  H     14.594795   15.155369   22.284948
  H     16.408127   17.234546   20.064861

 Total Charge           Charge          ....    0
 Multiplicity           Mult            ....    1
 Number of Electrons    NEL             ....  154
 Basis Dimension        Dim             ....  828

ORBITAL ENERGIES
----------------

  NO   OCC          E(Eh)            E(eV)
   0   2.0000     -91.890859     -2500.4774
   1   2.0000     -20.598257      -560.5071
   2   2.0000     -20.586355      -560.1832
   3   2.0000     -20.556089      -559.3596
   4   2.0000     -15.630443      -425.3260
   5   2.0000     -15.610485      -424.7829
   6   2.0000     -11.393858      -310.0426
   7   2.0000     -11.386670      -309.8470
   8   2.0000     -11.335039      -308.4421
   9   2.0000     -11.314448      -307.8818
  10   2.0000     -11.310806      -307.7827
  11   2.0000     -11.302156      -307.5473
  12   2.0000     -11.265022      -306.5368
  13   2.0000     -11.261185      -306.4324
  14   2.0000     -11.260027      -306.4009
  15   2.0000     -11.254362      -306.2467
  16   2.0000     -11.244157      -305.9691
  17   2.0000     -11.240105      -305.8588
  18   2.0000     -11.236958      -305.7732
  19   2.0000     -11.233672      -305.6837
  20   2.0000      -8.895932      -242.0706
  21   2.0000      -6.577508      -178.9831
  22   2.0000      -6.575498      -178.9284
  23   2.0000      -6.574912      -178.9124
  24   2.0000      -1.451393       -39.4944
  25   2.0000      -1.418060       -38.5874
  26   2.0000      -1.359133       -36.9839
  27   2.0000      -1.341667       -36.5086
  28   2.0000      -1.239958       -33.7410
  29   2.0000      -1.158900       -31.5353
  30   2.0000      -1.123834       -30.5811
  31   2.0000      -1.046838       -28.4859
  32   2.0000      -1.037591       -28.2343
  33   2.0000      -1.016268       -27.6541
  34   2.0000      -1.002686       -27.2845
  35   2.0000      -0.988213       -26.8906
  36   2.0000      -0.925992       -25.1975
  37   2.0000      -0.878164       -23.8961
  38   2.0000      -0.853285       -23.2191
  39   2.0000      -0.842492       -22.9254
  40   2.0000      -0.834864       -22.7178
  41   2.0000      -0.833878       -22.6910
  42   2.0000      -0.757494       -20.6125
  43   2.0000      -0.737442       -20.0668
  44   2.0000      -0.730786       -19.8857
  45   2.0000      -0.696169       -18.9437
  46   2.0000      -0.688111       -18.7245
  47   2.0000      -0.682946       -18.5839
  48   2.0000      -0.675843       -18.3906
  49   2.0000      -0.659947       -17.9581
  50   2.0000      -0.651011       -17.7149
  51   2.0000      -0.643226       -17.5031
  52   2.0000      -0.639324       -17.3969
  53   2.0000      -0.618244       -16.8233
  54   2.0000      -0.606684       -16.5087
  55   2.0000      -0.605679       -16.4814
  56   2.0000      -0.601917       -16.3790
  57   2.0000      -0.582280       -15.8446
  58   2.0000      -0.577391       -15.7116
  59   2.0000      -0.566057       -15.4032
  60   2.0000      -0.558886       -15.2080
  61   2.0000      -0.553474       -15.0608
  62   2.0000      -0.538879       -14.6636
  63   2.0000      -0.524800       -14.2805
  64   2.0000      -0.524024       -14.2594
  65   2.0000      -0.515073       -14.0158
  66   2.0000      -0.502431       -13.6719
  67   2.0000      -0.497780       -13.5453
  68   2.0000      -0.485970       -13.2239
  69   2.0000      -0.466925       -12.7057
  70   2.0000      -0.461560       -12.5597
  71   2.0000      -0.452735       -12.3195
  72   2.0000      -0.357071        -9.7164
  73   2.0000      -0.350116        -9.5271
  74   2.0000      -0.330149        -8.9838
  75   2.0000      -0.321944        -8.7605
  76   2.0000      -0.318313        -8.6617
  77   0.0000       0.071262         1.9391
  78   0.0000       0.103881         2.8267
  79   0.0000       0.116843         3.1795
  80   0.0000       0.130430         3.5492
  81   0.0000       0.134435         3.6582

MULLIKEN ATOMIC CHARGES
-----------------------
   0 C :   -0.258771
   1 C :    0.007203
   2 O :   -0.355110
   3 C :    0.458445
   4 O :   -0.381286
   5 C :   -0.234135
   6 C :    0.147460
   7 C :   -0.292610
   8 N :   -0.126506
   9 C :    0.199300
  10 S :   -0.437092
  11 N :   -0.202736
  12 C :    0.050458
  13 C :    0.042024
  14 C :   -0.169424
  15 C :   -0.133458
  16 C :   -0.279578
  17 C :    0.311620
  18 O :   -0.358820
  19 C :   -0.286156
  20 H :    0.107945
  21 H :    0.091999
  22 H :    0.092618
  23 H :    0.097091
  24 H :    0.120945
  25 H :    0.133676
  26 H :    0.115127
  27 H :    0.119133
  28 H :    0.197363
  29 H :    0.194923
  30 H :    0.158650
  31 H :    0.161871
  32 H :    0.162225
  33 H :    0.131787
  34 H :    0.241628
  35 H :    0.172190
Sum of atomic charges:   -0.0000000

LOEWDIN ATOMIC CHARGES
----------------------
   0 C :    0.111912
   1 C :   -0.024111
   2 O :    0.291388
   3 C :   -0.420453
   4 O :    0.134971
   5 C :   -0.093772
   6 C :   -0.081113
   7 C :    0.127860
   8 N :    0.403860
   9 C :   -0.457533
  10 S :   -0.034459
  11 N :    0.397106
  12 C :   -0.045820
  13 C :   -0.042459
  14 C :    0.022088
  15 C :    0.043032
  16 C :   -0.001611
  17 C :   -0.195266
  18 O :    0.393519
  19 C :    0.028343
  20 H :   -0.022361
  21 H :   -0.030071
  22 H :   -0.023808
  23 H :   -0.039441
  24 H :   -0.024108
  25 H :   -0.006071
  26 H :   -0.016578
  27 H :   -0.013202
  28 H :   -0.058302
  29 H :   -0.063743
  30 H :   -0.003545
  31 H :   -0.023217
  32 H :   -0.019413
  33 H :   -0.035061
  34 H :   -0.153269
  35 H :   -0.025295

  Mayer bond orders larger than 0.100000
B(  0-C ,  1-C ) :   0.9782 B(  0-C , 20-H ) :   0.9790 B(  0-C , 21-H ) :   0.9782
B(  0-C , 22-H ) :   0.9763 B(  1-C ,  2-O ) :   0.8921 B(  1-C , 23-H ) :   0.9663
B(  1-C , 24-H ) :   0.9743 B(  2-O ,  3-C ) :   1.1253 B(  3-C ,  4-O ) :   2.0832
B(  3-C ,  5-C ) :   0.9673 B(  5-C ,  6-C ) :   1.6646 B(  5-C , 12-C ) :   0.9658
B(  6-C ,  7-C ) :   0.9506 B(  6-C ,  8-N ) :   1.1339 B(  7-C , 25-H ) :   0.9705
B(  7-C , 26-H ) :   0.9851 B(  7-C , 27-H ) :   0.9630 B(  8-N ,  9-C ) :   1.1839
B(  8-N , 28-H ) :   0.9499 B(  9-C , 10-S ) :   1.6143 B(  9-C , 11-N ) :   1.2967
B( 11-N , 12-C ) :   0.9960 B( 11-N , 29-H ) :   0.9516 B( 12-C , 13-C ) :   0.9450
B( 12-C , 30-H ) :   0.9986 B( 13-C , 14-C ) :   1.3836 B( 13-C , 19-C ) :   1.3524
B( 14-C , 15-C ) :   1.3952 B( 14-C , 31-H ) :   0.9614 B( 15-C , 16-C ) :   1.3643
B( 15-C , 32-H ) :   0.9706 B( 16-C , 17-C ) :   1.3289 B( 16-C , 33-H ) :   0.9846
B( 17-C , 18-O ) :   1.1115 B( 17-C , 19-C ) :   1.3746 B( 18-O , 34-H ) :   0.9795
B( 19-C , 35-H ) :   0.9588

MP2 TOTAL ENERGY:    -1274.328737408 Eh
FINAL SINGLE POINT ENERGY     -1274.328737408237

DIPOLE MOMENT
-------------
                                X             Y             Z
Electronic contribution:     11.18311       8.48749       7.48128
Nuclear contribution   :    -12.54939      -9.56727      -7.83218
                        -----------------------------------------
Total Dipole Moment    :     -1.36628      -1.07978      -0.35090
                        -----------------------------------------
Magnitude (a.u.)       :      1.77645
Magnitude (Debye)      :      4.51538

Rotational constants in cm-1:     0.011357     0.009307     0.006780
Rotational constants in MHz :   340.463689   279.023162   203.270360

                             ****ORCA TERMINATED NORMALLY****
TOTAL RUN TIME: 0 days 1 hours 44 minutes 42 seconds 95 msec
