                         Program Version 4.2.0 -  RELEASE  -
|  1> ! ri-mp2 cc-pvtz cc-pvtz/c TightSCF  NoKeepInts
|  2>
|  3> %scf
|  4>   MaxCore 4096
|  5> end
|  6> *xyz  0  1
|  7>     C       14.8682498   15.1985789   17.5954466
|  8>     C       15.6499098   15.3127818   16.2766179
|  9>     O       17.0018966   14.8787659   16.5019919
| 10>     C       18.0888691   15.7088941   16.4409349
| 11>     O       19.1826372   15.1976563   16.2897376
| 12>     C       17.9726874   16.8803236   17.3578498
| 13>     C       17.4959447   18.0758944   16.9426309
| 14>     C       17.0164443   18.4344176   15.5523266
| 15>     N       17.5035319   19.1688180   17.8118451
| 16>     C       18.0954021   19.1767452   19.0479244
| 17>     S       18.1252458   20.5374930   19.9869862
| 18>     N       18.6657846   17.9997139   19.4662934
| 19>     C       18.5847144   16.7090768   18.7520977
| 20>     C       17.8604971   15.6471218   19.5782478
| 21>     C       18.2569713   14.3000484   19.4836029
| 22>     C       17.6027429   13.3038282   20.2267880
| 23>     C       16.5418325   13.6553867   21.0778187
| 24>     C       16.1434917   14.9948548   21.1781301
| 25>     O       15.1123676   15.3363933   21.9910132
| 26>     C       16.7965814   15.9851882   20.4372674
| 27>     H       15.1531231   16.0021128   18.2830090
| 28>     H       15.0642737   14.2353914   18.0841657
| 29>     H       13.7899072   15.2788447   17.4131105
| 30>     H       15.1895417   14.6385468   15.5426324
| 31>     H       15.5870806   16.3272119   15.8761262
| 32>     H       17.2402795   17.6511617   14.8179396
| 33>     H       17.5121242   19.3461960   15.1943885
| 34>     H       15.9346273   18.6160724   15.5411813
| 35>     H       17.1085864   20.0478087   17.5164447
| 36>     H       19.0853452   18.0315784   20.3868921
| 37>     H       19.6164751   16.3557122   18.6071174
| 38>     H       19.0690544   14.0219069   18.8147924
| 39>     H       17.9166787   12.2654395   20.1358258
| 40>     H       16.0319142   12.8885289   21.6513348
| 41>     H       14.8213478   14.5308455   22.4443295
| 42>     H       16.4608388   17.0126612   20.5291591
| 43> *
| 44>
| 45>                          ****END OF INPUT****

CARTESIAN COORDINATES (ANGSTROEM)
---------------------------------
  C     14.868250   15.198579   17.595447
  C     15.649910   15.312782   16.276618
  O     17.001897   14.878766   16.501992
  C     18.088869   15.708894   16.440935
  O     19.182637   15.197656   16.289738
  C     17.972687   16.880324   17.357850
  C     17.495945   18.075894   16.942631
  C     17.016444   18.434418   15.552327
  N     17.503532   19.168818   17.811845
  C     18.095402   19.176745   19.047924
  S     18.125246   20.537493   19.986986
  N     18.665785   17.999714   19.466293
  C     18.584714   16.709077   18.752098
  C     17.860497   15.647122   19.578248
  C     18.256971   14.300048   19.483603
  C     17.602743   13.303828   20.226788
  C     16.541833   13.655387   21.077819
  C     16.143492   14.994855   21.178130
  O     15.112368   15.336393   21.991013
  C     16.796581   15.985188   20.437267
  H     15.153123   16.002113   18.283009
  H     15.064274   14.235391   18.084166
  H     13.789907   15.278845   17.413110
  H     15.189542   14.638547   15.542632
  H     15.587081   16.327212   15.876126
  H     17.240279   17.651162   14.817940
  H     17.512124   19.346196   15.194389
  H     15.934627   18.616072   15.541181
  H     17.108586   20.047809   17.516445
  H     19.085345   18.031578   20.386892
  H     19.616475   16.355712   18.607117
  H     19.069054   14.021907   18.814792
  H     17.916679   12.265439   20.135826
  H     16.031914   12.888529   21.651335
  H     14.821348   14.530845   22.444329
  H     16.460839   17.012661   20.529159

 Total Charge           Charge          ....    0
 Multiplicity           Mult            ....    1
 Number of Electrons    NEL             ....  154
 Basis Dimension        Dim             ....  828

ORBITAL ENERGIES
----------------

  NO   OCC          E(Eh)            E(eV)
   0   2.0000     -91.888092     -2500.4021
   1   2.0000     -20.600545      -560.5693
   2   2.0000     -20.596538      -560.4603
   3   2.0000     -20.559282      -559.4465
   4   2.0000     -15.623456      -425.1358
   5   2.0000     -15.610535      -424.7843
   6   2.0000     -11.398359      -310.1651
   7   2.0000     -11.384922      -309.7995
   8   2.0000     -11.324405      -308.1527
   9   2.0000     -11.316288      -307.9319
  10   2.0000     -11.312818      -307.8374
  11   2.0000     -11.305398      -307.6355
  12   2.0000     -11.271720      -306.7191
  13   2.0000     -11.267236      -306.5971
  14   2.0000     -11.261288      -306.4352
  15   2.0000     -11.253344      -306.2191
  16   2.0000     -11.242500      -305.9240
  17   2.0000     -11.238366      -305.8115
  18   2.0000     -11.235541      -305.7346
  19   2.0000     -11.227039      -305.5033
  20   2.0000      -8.893229      -241.9971
  21   2.0000      -6.574828      -178.9102
  22   2.0000      -6.572790      -178.8547
  23   2.0000      -6.572225      -178.8393
  24   2.0000      -1.455539       -39.6072
  25   2.0000      -1.416347       -38.5408
  26   2.0000      -1.363803       -37.1110
  27   2.0000      -1.338136       -36.4125
  28   2.0000      -1.238392       -33.6984
  29   2.0000      -1.157677       -31.5020
  30   2.0000      -1.123996       -30.5855
  31   2.0000      -1.047147       -28.4943
  32   2.0000      -1.039289       -28.2805
  33   2.0000      -1.016053       -27.6482
  34   2.0000      -1.004148       -27.3243
  35   2.0000      -0.988085       -26.8871
  36   2.0000      -0.926585       -25.2137
  37   2.0000      -0.888890       -24.1879
  38   2.0000      -0.853125       -23.2147
  39   2.0000      -0.839313       -22.8389
  40   2.0000      -0.833258       -22.6741
  41   2.0000      -0.832605       -22.6563
  42   2.0000      -0.758204       -20.6318
  43   2.0000      -0.737764       -20.0756
  44   2.0000      -0.729612       -19.8537
  45   2.0000      -0.694923       -18.9098
  46   2.0000      -0.689218       -18.7546
  47   2.0000      -0.682816       -18.5804
  48   2.0000      -0.676219       -18.4008
  49   2.0000      -0.664199       -18.0738
  50   2.0000      -0.651872       -17.7383
  51   2.0000      -0.639189       -17.3932
  52   2.0000      -0.632575       -17.2132
  53   2.0000      -0.622446       -16.9376
  54   2.0000      -0.611502       -16.6398
  55   2.0000      -0.605173       -16.4676
  56   2.0000      -0.600685       -16.3455
  57   2.0000      -0.590004       -16.0548
  58   2.0000      -0.577158       -15.7053
  59   2.0000      -0.571721       -15.5573
  60   2.0000      -0.564092       -15.3497
  61   2.0000      -0.557662       -15.1747
  62   2.0000      -0.538589       -14.6557
  63   2.0000      -0.528747       -14.3879
  64   2.0000      -0.517277       -14.0758
  65   2.0000      -0.511941       -13.9306
  66   2.0000      -0.502674       -13.6785
  67   2.0000      -0.500388       -13.6163
  68   2.0000      -0.487281       -13.2596
  69   2.0000      -0.466251       -12.6873
  70   2.0000      -0.456889       -12.4326
  71   2.0000      -0.451312       -12.2808
  72   2.0000      -0.356165        -9.6917
  73   2.0000      -0.347171        -9.4470
  74   2.0000      -0.327952        -8.9240
  75   2.0000      -0.320726        -8.7274
  76   2.0000      -0.316798        -8.6205
  77   0.0000       0.092139         2.5072
  78   0.0000       0.100079         2.7233
  79   0.0000       0.109900         2.9905
  80   0.0000       0.127529         3.4702
  81   0.0000       0.130836         3.5602

MULLIKEN ATOMIC CHARGES
-----------------------
   0 C :   -0.292857
   1 C :    0.003916
   2 O :   -0.309080
   3 C :    0.384300
   4 O :   -0.364882
   5 C :   -0.153667
   6 C :    0.124295
   7 C :   -0.330251
   8 N :   -0.138454
   9 C :    0.210390
  10 S :   -0.445252
  11 N :   -0.231707
  12 C :    0.077498
  13 C :    0.050158
  14 C :   -0.203122
  15 C :   -0.135449
  16 C :   -0.282599
  17 C :    0.335604
  18 O :   -0.359390
  19 C :   -0.302061
  20 H :    0.104795
  21 H :    0.116124
  22 H :    0.105955
  23 H :    0.123721
  24 H :    0.082233
  25 H :    0.117404
  26 H :    0.138969
  27 H :    0.122598
  28 H :    0.194264
  29 H :    0.203692
  30 H :    0.168879
  31 H :    0.165775
  32 H :    0.163138
  33 H :    0.131480
  34 H :    0.240976
  35 H :    0.182610
Sum of atomic charges:   -0.0000000

LOEWDIN ATOMIC CHARGES
----------------------
   0 C :    0.107198
   1 C :   -0.026879
   2 O :    0.321325
   3 C :   -0.423177
   4 O :    0.139417
   5 C :   -0.075210
   6 C :   -0.114145
   7 C :    0.119224
   8 N :    0.399744
   9 C :   -0.456248
  10 S :   -0.041306
  11 N :    0.398379
  12 C :   -0.040205
  13 C :   -0.040251
  14 C :    0.024247
  15 C :    0.043695
  16 C :   -0.002132
  17 C :   -0.192787
  18 O :    0.395189
  19 C :    0.027900
  20 H :   -0.031797
  21 H :   -0.019735
  22 H :   -0.027330
  23 H :   -0.025390
  24 H :   -0.038422
  25 H :   -0.012197
  26 H :   -0.009409
  27 H :   -0.017862
  28 H :   -0.059336
  29 H :   -0.063629
  30 H :   -0.002042
  31 H :   -0.022493
  32 H :   -0.019157
  33 H :   -0.035471
  34 H :   -0.153743
  35 H :   -0.025965

  Mayer bond orders larger than 0.100000
B(  0-C ,  1-C ) :   0.9681 B(  0-C , 20-H ) :   0.9725 B(  0-C , 21-H ) :   0.9716
B(  0-C , 22-H ) :   0.9779 B(  1-C ,  2-O ) :   0.9187 B(  1-C , 23-H ) :   0.9861
B(  1-C , 24-H ) :   0.9733 B(  2-O ,  3-C ) :   1.1090 B(  3-C ,  4-O ) :   2.0940
B(  3-C ,  5-C ) :   0.9230 B(  5-C ,  6-C ) :   1.7194 B(  5-C , 12-C ) :   0.9567
B(  6-C ,  7-C ) :   0.9374 B(  6-C ,  8-N ) :   1.1029 B(  7-C , 25-H ) :   0.9839
B(  7-C , 26-H ) :   0.9705 B(  7-C , 27-H ) :   0.9681 B(  8-N ,  9-C ) :   1.2038
B(  8-N , 28-H ) :   0.9543 B(  9-C , 10-S ) :   1.6032 B(  9-C , 11-N ) :   1.2853
B( 11-N , 12-C ) :   0.9827 B( 11-N , 29-H ) :   0.9460 B( 12-C , 13-C ) :   0.9493
B( 12-C , 30-H ) :   0.9963 B( 13-C , 14-C ) :   1.3837 B( 13-C , 19-C ) :   1.3356
B( 14-C , 15-C ) :   1.4044 B( 14-C , 31-H ) :   0.9633 B( 15-C , 16-C ) :   1.3540
B( 15-C , 32-H ) :   0.9701 B( 16-C , 17-C ) :   1.3339 B( 16-C , 33-H ) :   0.9852
B( 17-C , 18-O ) :   1.1063 B( 17-C , 19-C ) :   1.3568 B( 18-O , 34-H ) :   0.9798
B( 19-C , 35-H ) :   0.9567

MP2 TOTAL ENERGY:    -1274.316535117 Eh
FINAL SINGLE POINT ENERGY     -1274.316535116865

DIPOLE MOMENT
-------------
                                X             Y             Z
Electronic contribution:      9.67849       6.58032       6.34824
Nuclear contribution   :    -11.20569      -7.72919      -7.27464
                        -----------------------------------------
Total Dipole Moment    :     -1.52720      -1.14888      -0.92640
                        -----------------------------------------
Magnitude (a.u.)       :      2.12379
Magnitude (Debye)      :      5.39823

Rotational constants in cm-1:     0.012264     0.009380     0.006800
Rotational constants in MHz :   367.679415   281.198460   203.855441

                             ****ORCA TERMINATED NORMALLY****
TOTAL RUN TIME: 0 days 1 hours 53 minutes 47 seconds 316 msec
