                         Program Version 4.2.0 -  RELEASE  -
|  1> ! ri-mp2 cc-pvtz cc-pvtz/c TightSCF  NoKeepInts
|  2>
|  3> %scf
|  4>   MaxCore 4096
|  5> end
|  6> *xyz  0  1
|  7>     C       15.7242692   14.5539584   14.1358503
|  8>     C       15.1803977   14.7216237   15.5653481
|  9>     O       15.9257652   15.7789600   16.1970598
| 10>     C       16.9372728   15.4833044   17.0658709
| 11>     O       17.2985340   14.3382397   17.2848315
| 12>     C       17.5666154   16.6700908   17.7422721
| 13>     C       17.3339373   17.9735593   17.4308496
| 14>     C       16.4131349   18.5369728   16.3673486
| 15>     N       18.0396953   18.9821928   18.0961394
| 16>     C       19.0845393   18.7730443   18.9567030
| 17>     S       19.9545618   20.0272274   19.5937059
| 18>     N       19.3705318   17.4672313   19.2622037
| 19>     C       18.5441515   16.3111720   18.8683149
| 20>     C       17.8061804   15.7452211   20.0790691
| 21>     C       17.9287033   14.3843073   20.4153755
| 22>     C       17.2511514   13.8568768   21.5274339
| 23>     C       16.4429483   14.6970117   22.3119921
| 24>     C       16.3150751   16.0522263   21.9787141
| 25>     O       15.5307097   16.8648863   22.7308954
| 26>     C       16.9903204   16.5741848   20.8709533
| 27>     H       15.6538514   15.4966893   13.5793561
| 28>     H       15.1525724   13.7905470   13.5943199
| 29>     H       16.7757716   14.2407066   14.1587885
| 30>     H       14.1229638   15.0100691   15.5088213
| 31>     H       15.2420577   13.7768059   16.1228153
| 32>     H       16.6607522   18.1252825   15.3809736
| 33>     H       16.4753603   19.6288648   16.2860339
| 34>     H       15.3680390   18.2857427   16.5874488
| 35>     H       17.8447816   19.9477873   17.8852897
| 36>     H       20.1244533   17.3395494   19.9249113
| 37>     H       19.2235407   15.5350664   18.4870684
| 38>     H       18.5395236   13.7284775   19.7996784
| 39>     H       17.3495072   12.8009276   21.7725176
| 40>     H       15.9163267   14.2933808   23.1702586
| 41>     H       15.1790233   16.3331068   23.4604428
| 42>     H       16.8799804   17.6267050   20.6343448
| 43> *
| 44>
| 45>                          ****END OF INPUT****

CARTESIAN COORDINATES (ANGSTROEM)
---------------------------------
  C     15.724269   14.553958   14.135850
  C     15.180398   14.721624   15.565348
  O     15.925765   15.778960   16.197060
  C     16.937273   15.483304   17.065871
  O     17.298534   14.338240   17.284831
  C     17.566615   16.670091   17.742272
  C     17.333937   17.973559   17.430850
  C     16.413135   18.536973   16.367349
  N     18.039695   18.982193   18.096139
  C     19.084539   18.773044   18.956703
  S     19.954562   20.027227   19.593706
  N     19.370532   17.467231   19.262204
  C     18.544152   16.311172   18.868315
  C     17.806180   15.745221   20.079069
  C     17.928703   14.384307   20.415375
  C     17.251151   13.856877   21.527434
  C     16.442948   14.697012   22.311992
  C     16.315075   16.052226   21.978714
  O     15.530710   16.864886   22.730895
  C     16.990320   16.574185   20.870953
  H     15.653851   15.496689   13.579356
  H     15.152572   13.790547   13.594320
  H     16.775772   14.240707   14.158788
  H     14.122964   15.010069   15.508821
  H     15.242058   13.776806   16.122815
  H     16.660752   18.125283   15.380974
  H     16.475360   19.628865   16.286034
  H     15.368039   18.285743   16.587449
  H     17.844782   19.947787   17.885290
  H     20.124453   17.339549   19.924911
  H     19.223541   15.535066   18.487068
  H     18.539524   13.728478   19.799678
  H     17.349507   12.800928   21.772518
  H     15.916327   14.293381   23.170259
  H     15.179023   16.333107   23.460443
  H     16.879980   17.626705   20.634345

 Total Charge           Charge          ....    0
 Multiplicity           Mult            ....    1
 Number of Electrons    NEL             ....  154
 Basis Dimension        Dim             ....  828

ORBITAL ENERGIES
----------------

  NO   OCC          E(Eh)            E(eV)
   0   2.0000     -91.888087     -2500.4020
   1   2.0000     -20.605155      -560.6948
   2   2.0000     -20.590560      -560.2976
   3   2.0000     -20.544545      -559.0455
   4   2.0000     -15.628696      -425.2784
   5   2.0000     -15.606482      -424.6740
   6   2.0000     -11.396894      -310.1253
   7   2.0000     -11.382782      -309.7413
   8   2.0000     -11.337485      -308.5086
   9   2.0000     -11.306324      -307.6607
  10   2.0000     -11.304812      -307.6196
  11   2.0000     -11.299590      -307.4775
  12   2.0000     -11.261048      -306.4287
  13   2.0000     -11.258994      -306.3728
  14   2.0000     -11.252357      -306.1922
  15   2.0000     -11.246429      -306.0309
  16   2.0000     -11.236113      -305.7502
  17   2.0000     -11.232330      -305.6472
  18   2.0000     -11.230706      -305.6031
  19   2.0000     -11.229182      -305.5616
  20   2.0000      -8.893145      -241.9948
  21   2.0000      -6.574722      -178.9073
  22   2.0000      -6.572716      -178.8527
  23   2.0000      -6.572130      -178.8367
  24   2.0000      -1.454370       -39.5754
  25   2.0000      -1.410291       -38.3760
  26   2.0000      -1.357391       -36.9365
  27   2.0000      -1.339535       -36.4506
  28   2.0000      -1.236931       -33.6586
  29   2.0000      -1.151144       -31.3242
  30   2.0000      -1.119099       -30.4522
  31   2.0000      -1.043123       -28.3848
  32   2.0000      -1.035873       -28.1875
  33   2.0000      -1.008465       -27.4417
  34   2.0000      -0.997227       -27.1359
  35   2.0000      -0.982794       -26.7432
  36   2.0000      -0.920769       -25.0554
  37   2.0000      -0.892757       -24.2932
  38   2.0000      -0.847483       -23.0612
  39   2.0000      -0.834468       -22.7070
  40   2.0000      -0.826712       -22.4960
  41   2.0000      -0.816487       -22.2177
  42   2.0000      -0.759185       -20.6585
  43   2.0000      -0.735799       -20.0221
  44   2.0000      -0.724133       -19.7047
  45   2.0000      -0.689725       -18.7684
  46   2.0000      -0.684641       -18.6300
  47   2.0000      -0.679866       -18.5001
  48   2.0000      -0.672334       -18.2951
  49   2.0000      -0.655132       -17.8271
  50   2.0000      -0.648856       -17.6563
  51   2.0000      -0.642130       -17.4732
  52   2.0000      -0.630201       -17.1486
  53   2.0000      -0.612120       -16.6566
  54   2.0000      -0.599826       -16.3221
  55   2.0000      -0.598481       -16.2855
  56   2.0000      -0.593861       -16.1598
  57   2.0000      -0.584075       -15.8935
  58   2.0000      -0.572061       -15.5666
  59   2.0000      -0.564157       -15.3515
  60   2.0000      -0.561079       -15.2677
  61   2.0000      -0.545067       -14.8320
  62   2.0000      -0.537486       -14.6257
  63   2.0000      -0.532150       -14.4805
  64   2.0000      -0.516235       -14.0475
  65   2.0000      -0.509331       -13.8596
  66   2.0000      -0.499743       -13.5987
  67   2.0000      -0.494756       -13.4630
  68   2.0000      -0.480377       -13.0717
  69   2.0000      -0.464168       -12.6307
  70   2.0000      -0.456626       -12.4254
  71   2.0000      -0.454697       -12.3729
  72   2.0000      -0.354425        -9.6444
  73   2.0000      -0.343087        -9.3359
  74   2.0000      -0.327143        -8.9020
  75   2.0000      -0.315414        -8.5829
  76   2.0000      -0.312653        -8.5077
  77   0.0000       0.075905         2.0655
  78   0.0000       0.114767         3.1230
  79   0.0000       0.121289         3.3005
  80   0.0000       0.136659         3.7187
  81   0.0000       0.140376         3.8198

MULLIKEN ATOMIC CHARGES
-----------------------
   0 C :   -0.281021
   1 C :    0.023795
   2 O :   -0.343101
   3 C :    0.460335
   4 O :   -0.438937
   5 C :   -0.186040
   6 C :    0.145318
   7 C :   -0.284229
   8 N :   -0.119629
   9 C :    0.200555
  10 S :   -0.438831
  11 N :   -0.196199
  12 C :    0.031874
  13 C :    0.059396
  14 C :   -0.160050
  15 C :   -0.133857
  16 C :   -0.278497
  17 C :    0.311729
  18 O :   -0.359297
  19 C :   -0.272585
  20 H :    0.090914
  21 H :    0.097060
  22 H :    0.105383
  23 H :    0.103919
  24 H :    0.118121
  25 H :    0.126817
  26 H :    0.101908
  27 H :    0.128695
  28 H :    0.196565
  29 H :    0.193473
  30 H :    0.153355
  31 H :    0.152823
  32 H :    0.158564
  33 H :    0.127603
  34 H :    0.239939
  35 H :    0.164134
Sum of atomic charges:   -0.0000000

LOEWDIN ATOMIC CHARGES
----------------------
   0 C :    0.103950
   1 C :   -0.014629
   2 O :    0.309095
   3 C :   -0.414457
   4 O :    0.099317
   5 C :   -0.090812
   6 C :   -0.063670
   7 C :    0.124770
   8 N :    0.405058
   9 C :   -0.459314
  10 S :   -0.035651
  11 N :    0.398131
  12 C :   -0.046874
  13 C :   -0.038727
  14 C :    0.022465
  15 C :    0.040922
  16 C :   -0.002194
  17 C :   -0.192469
  18 O :    0.392923
  19 C :    0.028368
  20 H :   -0.030016
  21 H :   -0.025579
  22 H :   -0.024628
  23 H :   -0.028063
  24 H :   -0.026498
  25 H :   -0.009155
  26 H :   -0.021352
  27 H :   -0.009160
  28 H :   -0.059276
  29 H :   -0.063519
  30 H :   -0.005357
  31 H :   -0.025410
  32 H :   -0.021362
  33 H :   -0.036493
  34 H :   -0.155000
  35 H :   -0.025338

  Mayer bond orders larger than 0.100000
B(  0-C ,  1-C ) :   0.9665 B(  0-C , 20-H ) :   0.9787 B(  0-C , 21-H ) :   0.9759
B(  0-C , 22-H ) :   0.9778 B(  1-C ,  2-O ) :   0.8872 B(  1-C , 23-H ) :   0.9844
B(  1-C , 24-H ) :   0.9736 B(  2-O ,  3-C ) :   1.1716 B(  3-C ,  4-O ) :   1.9569
B(  3-C ,  5-C ) :   1.0721 B(  5-C ,  6-C ) :   1.6403 B(  5-C , 12-C ) :   0.9677
B(  6-C ,  7-C ) :   0.9561 B(  6-C ,  8-N ) :   1.1549 B(  7-C , 25-H ) :   0.9646
B(  7-C , 26-H ) :   0.9914 B(  7-C , 27-H ) :   0.9643 B(  8-N ,  9-C ) :   1.1761
B(  8-N , 28-H ) :   0.9486 B(  9-C , 10-S ) :   1.6111 B(  9-C , 11-N ) :   1.3055
B( 11-N , 12-C ) :   0.9932 B( 11-N , 29-H ) :   0.9520 B( 12-C , 13-C ) :   0.9473
B( 12-C , 30-H ) :   1.0010 B( 13-C , 14-C ) :   1.3748 B( 13-C , 19-C ) :   1.3692
B( 14-C , 15-C ) :   1.3946 B( 14-C , 31-H ) :   0.9652 B( 15-C , 16-C ) :   1.3624
B( 15-C , 32-H ) :   0.9716 B( 16-C , 17-C ) :   1.3316 B( 16-C , 33-H ) :   0.9861
B( 17-C , 18-O ) :   1.1078 B( 17-C , 19-C ) :   1.3796 B( 18-O , 34-H ) :   0.9807
B( 19-C , 35-H ) :   0.9584

MP2 TOTAL ENERGY:    -1274.349414836 Eh
FINAL SINGLE POINT ENERGY     -1274.349414835921

DIPOLE MOMENT
-------------
                                X             Y             Z
Electronic contribution:      9.68373       8.30666      12.94613
Nuclear contribution   :    -11.38706      -9.35782     -13.88421
                        -----------------------------------------
Total Dipole Moment    :     -1.70333      -1.05116      -0.93809
                        -----------------------------------------
Magnitude (a.u.)       :      2.21049
Magnitude (Debye)      :      5.61862

Rotational constants in cm-1:     0.010627     0.008569     0.005648
Rotational constants in MHz :   318.580310   256.895957   169.320766

                             ****ORCA TERMINATED NORMALLY****
TOTAL RUN TIME: 0 days 1 hours 39 minutes 0 seconds 42 msec
