                         Program Version 4.2.0 -  RELEASE  -
|  1> ! ri-mp2 cc-pvtz cc-pvtz/c TightSCF  NoKeepInts
|  2>
|  3> %scf
|  4>   MaxCore 4096
|  5> end
|  6> *xyz  0  1
|  7>     C       15.6049722   13.1384498   16.6758149
|  8>     C       15.9069036   14.3546779   15.7838939
|  9>     O       16.6586494   15.2853271   16.5839854
| 10>     C       16.2897374   16.6004543   16.6648325
| 11>     O       15.3401547   17.0553309   16.0498126
| 12>     C       17.2552404   17.4184955   17.4777945
| 13>     C       17.1668905   18.7695695   17.5740201
| 14>     C       16.1410207   19.6706261   16.9203938
| 15>     N       18.1097131   19.4828087   18.3204019
| 16>     C       19.2119496   18.9356996   18.9208514
| 17>     S       20.3259466   19.8640981   19.7164844
| 18>     N       19.3469996   17.5740904   18.8284675
| 19>     C       18.3523144   16.6579708   18.2409669
| 20>     C       17.7676572   15.7616558   19.3289316
| 21>     C       18.0146134   14.3759637   19.3213105
| 22>     C       17.4719472   13.5472810   20.3177358
| 23>     C       16.6788362   14.1089286   21.3328208
| 24>     C       16.4350963   15.4891754   21.3463869
| 25>     O       15.6704457   16.0344952   22.3256677
| 26>     C       16.9759514   16.3111969   20.3529529
| 27>     H       16.5350380   12.6693966   17.0194466
| 28>     H       15.0245546   12.3896730   16.1233726
| 29>     H       15.0254910   13.4416734   17.5571402
| 30>     H       16.4924754   14.0503933   14.9069042
| 31>     H       14.9571398   14.7814331   15.4343690
| 32>     H       16.1715255   19.5620263   15.8287861
| 33>     H       16.2918699   20.7315271   17.1517128
| 34>     H       15.1284874   19.4015809   17.2476193
| 35>     H       18.0271368   20.4838196   18.3989988
| 36>     H       20.1485304   17.1953871   19.3162889
| 37>     H       18.8838212   16.0243013   17.5172189
| 38>     H       18.6215902   13.9384691   18.5333440
| 39>     H       17.6654541   12.4762409   20.3008138
| 40>     H       16.2574033   13.4732743   22.1045268
| 41>     H       15.4109245   15.3188593   22.9250368
| 42>     H       16.7805181   17.3776498   20.3848953
| 43> *
| 44>
| 45>                          ****END OF INPUT****

CARTESIAN COORDINATES (ANGSTROEM)
---------------------------------
  C     15.604972   13.138450   16.675815
  C     15.906904   14.354678   15.783894
  O     16.658649   15.285327   16.583985
  C     16.289737   16.600454   16.664832
  O     15.340155   17.055331   16.049813
  C     17.255240   17.418495   17.477794
  C     17.166891   18.769569   17.574020
  C     16.141021   19.670626   16.920394
  N     18.109713   19.482809   18.320402
  C     19.211950   18.935700   18.920851
  S     20.325947   19.864098   19.716484
  N     19.347000   17.574090   18.828467
  C     18.352314   16.657971   18.240967
  C     17.767657   15.761656   19.328932
  C     18.014613   14.375964   19.321310
  C     17.471947   13.547281   20.317736
  C     16.678836   14.108929   21.332821
  C     16.435096   15.489175   21.346387
  O     15.670446   16.034495   22.325668
  C     16.975951   16.311197   20.352953
  H     16.535038   12.669397   17.019447
  H     15.024555   12.389673   16.123373
  H     15.025491   13.441673   17.557140
  H     16.492475   14.050393   14.906904
  H     14.957140   14.781433   15.434369
  H     16.171526   19.562026   15.828786
  H     16.291870   20.731527   17.151713
  H     15.128487   19.401581   17.247619
  H     18.027137   20.483820   18.398999
  H     20.148530   17.195387   19.316289
  H     18.883821   16.024301   17.517219
  H     18.621590   13.938469   18.533344
  H     17.665454   12.476241   20.300814
  H     16.257403   13.473274   22.104527
  H     15.410925   15.318859   22.925037
  H     16.780518   17.377650   20.384895

 Total Charge           Charge          ....    0
 Multiplicity           Mult            ....    1
 Number of Electrons    NEL             ....  154
 Basis Dimension        Dim             ....  828

ORBITAL ENERGIES
----------------

  NO   OCC          E(Eh)            E(eV)
   0   2.0000     -91.888440     -2500.4116
   1   2.0000     -20.602634      -560.6262
   2   2.0000     -20.595676      -560.4368
   3   2.0000     -20.541230      -558.9553
   4   2.0000     -15.628552      -425.2745
   5   2.0000     -15.607835      -424.7108
   6   2.0000     -11.395560      -310.0890
   7   2.0000     -11.383565      -309.7625
   8   2.0000     -11.335581      -308.4569
   9   2.0000     -11.312731      -307.8351
  10   2.0000     -11.308233      -307.7127
  11   2.0000     -11.295664      -307.3706
  12   2.0000     -11.258791      -306.3673
  13   2.0000     -11.258599      -306.3621
  14   2.0000     -11.254027      -306.2376
  15   2.0000     -11.251574      -306.1709
  16   2.0000     -11.242367      -305.9204
  17   2.0000     -11.237761      -305.7950
  18   2.0000     -11.237274      -305.7818
  19   2.0000     -11.227821      -305.5245
  20   2.0000      -8.893507      -242.0046
  21   2.0000      -6.575083      -178.9171
  22   2.0000      -6.573077      -178.8625
  23   2.0000      -6.572492      -178.8466
  24   2.0000      -1.451151       -39.4878
  25   2.0000      -1.415351       -38.5137
  26   2.0000      -1.355037       -36.8724
  27   2.0000      -1.339554       -36.4511
  28   2.0000      -1.238024       -33.6883
  29   2.0000      -1.156874       -31.4801
  30   2.0000      -1.119959       -30.4756
  31   2.0000      -1.042944       -28.3800
  32   2.0000      -1.039146       -28.2766
  33   2.0000      -1.014252       -27.5992
  34   2.0000      -0.995091       -27.0778
  35   2.0000      -0.983948       -26.7746
  36   2.0000      -0.921904       -25.0863
  37   2.0000      -0.890010       -24.2184
  38   2.0000      -0.846306       -23.0292
  39   2.0000      -0.836698       -22.7677
  40   2.0000      -0.833181       -22.6720
  41   2.0000      -0.816543       -22.2193
  42   2.0000      -0.764448       -20.8017
  43   2.0000      -0.731474       -19.9044
  44   2.0000      -0.721720       -19.6390
  45   2.0000      -0.695221       -18.9179
  46   2.0000      -0.688396       -18.7322
  47   2.0000      -0.679778       -18.4977
  48   2.0000      -0.670647       -18.2492
  49   2.0000      -0.663944       -18.0668
  50   2.0000      -0.646267       -17.5858
  51   2.0000      -0.642979       -17.4964
  52   2.0000      -0.633738       -17.2449
  53   2.0000      -0.605936       -16.4884
  54   2.0000      -0.601495       -16.3675
  55   2.0000      -0.598129       -16.2759
  56   2.0000      -0.596378       -16.2283
  57   2.0000      -0.577742       -15.7211
  58   2.0000      -0.570205       -15.5161
  59   2.0000      -0.566568       -15.4171
  60   2.0000      -0.563256       -15.3270
  61   2.0000      -0.547842       -14.9075
  62   2.0000      -0.537138       -14.6163
  63   2.0000      -0.528300       -14.3758
  64   2.0000      -0.524311       -14.2672
  65   2.0000      -0.512860       -13.9556
  66   2.0000      -0.500807       -13.6277
  67   2.0000      -0.497031       -13.5249
  68   2.0000      -0.484628       -13.1874
  69   2.0000      -0.463173       -12.6036
  70   2.0000      -0.456324       -12.4172
  71   2.0000      -0.448717       -12.2102
  72   2.0000      -0.353858        -9.6290
  73   2.0000      -0.348780        -9.4908
  74   2.0000      -0.327791        -8.9196
  75   2.0000      -0.320201        -8.7131
  76   2.0000      -0.315580        -8.5874
  77   0.0000       0.076958         2.0941
  78   0.0000       0.107309         2.9200
  79   0.0000       0.124545         3.3890
  80   0.0000       0.132990         3.6188
  81   0.0000       0.137370         3.7380

MULLIKEN ATOMIC CHARGES
-----------------------
   0 C :   -0.277204
   1 C :    0.021647
   2 O :   -0.346404
   3 C :    0.474664
   4 O :   -0.435284
   5 C :   -0.227341
   6 C :    0.149795
   7 C :   -0.274301
   8 N :   -0.120068
   9 C :    0.210897
  10 S :   -0.440639
  11 N :   -0.204200
  12 C :    0.052157
  13 C :    0.066614
  14 C :   -0.188516
  15 C :   -0.126840
  16 C :   -0.279403
  17 C :    0.316096
  18 O :   -0.356797
  19 C :   -0.269567
  20 H :    0.086823
  21 H :    0.102484
  22 H :    0.106431
  23 H :    0.092977
  24 H :    0.120523
  25 H :    0.131331
  26 H :    0.094667
  27 H :    0.131652
  28 H :    0.197180
  29 H :    0.194728
  30 H :    0.149304
  31 H :    0.151223
  32 H :    0.159886
  33 H :    0.130122
  34 H :    0.240502
  35 H :    0.164861
Sum of atomic charges:    0.0000000

LOEWDIN ATOMIC CHARGES
----------------------
   0 C :    0.104096
   1 C :   -0.011273
   2 O :    0.310338
   3 C :   -0.412680
   4 O :    0.094892
   5 C :   -0.094293
   6 C :   -0.059250
   7 C :    0.131367
   8 N :    0.406458
   9 C :   -0.456640
  10 S :   -0.036063
  11 N :    0.396592
  12 C :   -0.052897
  13 C :   -0.039709
  14 C :    0.016292
  15 C :    0.040457
  16 C :   -0.001436
  17 C :   -0.189772
  18 O :    0.395019
  19 C :    0.031575
  20 H :   -0.031404
  21 H :   -0.026319
  22 H :   -0.023342
  23 H :   -0.031005
  24 H :   -0.028114
  25 H :   -0.004021
  26 H :   -0.023534
  27 H :   -0.004567
  28 H :   -0.057635
  29 H :   -0.064498
  30 H :   -0.012081
  31 H :   -0.031415
  32 H :   -0.021816
  33 H :   -0.035566
  34 H :   -0.154102
  35 H :   -0.023654

  Mayer bond orders larger than 0.100000
B(  0-C ,  1-C ) :   0.9723 B(  0-C , 20-H ) :   0.9782 B(  0-C , 21-H ) :   0.9773
B(  0-C , 22-H ) :   0.9752 B(  1-C ,  2-O ) :   0.8923 B(  1-C , 23-H ) :   0.9830
B(  1-C , 24-H ) :   0.9756 B(  2-O ,  3-C ) :   1.1807 B(  3-C ,  4-O ) :   1.9716
B(  3-C ,  5-C ) :   1.0539 B(  5-C ,  6-C ) :   1.6558 B(  5-C , 12-C ) :   0.9713
B(  6-C ,  7-C ) :   0.9675 B(  6-C ,  8-N ) :   1.1650 B(  7-C , 25-H ) :   0.9599
B(  7-C , 26-H ) :   0.9902 B(  7-C , 27-H ) :   0.9612 B(  8-N ,  9-C ) :   1.1834
B(  8-N , 28-H ) :   0.9479 B(  9-C , 10-S ) :   1.6069 B(  9-C , 11-N ) :   1.3052
B( 11-N , 12-C ) :   0.9895 B( 11-N , 29-H ) :   0.9514 B( 12-C , 13-C ) :   0.9362
B( 12-C , 30-H ) :   1.0032 B( 13-C , 14-C ) :   1.3591 B( 13-C , 19-C ) :   1.3803
B( 14-C , 15-C ) :   1.3886 B( 14-C , 31-H ) :   0.9700 B( 15-C , 16-C ) :   1.3653
B( 15-C , 32-H ) :   0.9702 B( 16-C , 17-C ) :   1.3307 B( 16-C , 33-H ) :   0.9850
B( 17-C , 18-O ) :   1.1095 B( 17-C , 19-C ) :   1.3736 B( 18-O , 34-H ) :   0.9800
B( 19-C , 35-H ) :   0.9583

MP2 TOTAL ENERGY:    -1274.350282660 Eh
FINAL SINGLE POINT ENERGY     -1274.350282659953

DIPOLE MOMENT
-------------
                                X             Y             Z
Electronic contribution:      9.19278      11.75340       6.72666
Nuclear contribution   :    -10.20471     -13.48594      -7.14126
                        -----------------------------------------
Total Dipole Moment    :     -1.01193      -1.73254      -0.41460
                        -----------------------------------------
Magnitude (a.u.)       :      2.04880
Magnitude (Debye)      :      5.20764

Rotational constants in cm-1:     0.011848     0.008540     0.006138
Rotational constants in MHz :   355.181399   256.020255   184.017169

                             ****ORCA TERMINATED NORMALLY****
TOTAL RUN TIME: 0 days 1 hours 45 minutes 59 seconds 100 msec
