                         Program Version 4.2.0 -  RELEASE  -
|  1> ! ri-mp2 cc-pvtz cc-pvtz/c TightSCF  NoKeepInts
|  2>
|  3> %scf
|  4>   MaxCore 4096
|  5> end
|  6> *xyz  0  1
|  7>     C       15.1340600   15.5019883   17.4877722
|  8>     C       15.5310413   15.3600232   16.0032847
|  9>     O       16.9458014   15.1261503   15.7852410
| 10>     C       18.0462308   15.5768189   16.4801102
| 11>     O       19.0457526   14.8825610   16.5125406
| 12>     C       17.9239785   16.7703246   17.3772697
| 13>     C       17.3946850   17.9521232   16.9752559
| 14>     C       16.8676460   18.3122544   15.6029203
| 15>     N       17.4131108   19.0529187   17.8351850
| 16>     C       18.0877843   19.1019642   19.0262890
| 17>     S       18.1426828   20.4802988   19.9379652
| 18>     N       18.7196643   17.9497077   19.4214027
| 19>     C       18.6041034   16.6420048   18.7458209
| 20>     C       17.8962933   15.6201213   19.6329393
| 21>     C       18.3345411   14.2829911   19.6519702
| 22>     C       17.6865971   13.3260662   20.4504347
| 23>     C       16.5889099   13.7073332   21.2400567
| 24>     C       16.1476077   15.0370279   21.2252033
| 25>     O       15.0811957   15.4065159   21.9780449
| 26>     C       16.7943306   15.9878631   20.4292669
| 27>     H       15.6355256   14.7395155   18.0967138
| 28>     H       14.0535959   15.3496799   17.5986378
| 29>     H       15.3558507   16.4935691   17.8931351
| 30>     H       14.9841215   14.5078727   15.5789514
| 31>     H       15.1972617   16.2460783   15.4531028
| 32>     H       17.1259653   17.5615774   14.8465080
| 33>     H       17.3024094   19.2581903   15.2550178
| 34>     H       15.7779375   18.4328291   15.6156026
| 35>     H       16.9741500   19.9152098   17.5529377
| 36>     H       19.1992424   18.0089473   20.3108567
| 37>     H       19.6266908   16.2752911   18.5718496
| 38>     H       19.1769271   13.9807884   19.0329734
| 39>     H       18.0345516   12.2944212   20.4505946
| 40>     H       16.0842813   12.9705045   21.8562115
| 41>     H       14.8042226   14.6313744   22.4895840
| 42>     H       16.4282498   17.0090941   20.4323499
| 43> *
| 44>
| 45>                          ****END OF INPUT****

CARTESIAN COORDINATES (ANGSTROEM)
---------------------------------
  C     15.134060   15.501988   17.487772
  C     15.531041   15.360023   16.003285
  O     16.945801   15.126150   15.785241
  C     18.046231   15.576819   16.480110
  O     19.045753   14.882561   16.512541
  C     17.923979   16.770325   17.377270
  C     17.394685   17.952123   16.975256
  C     16.867646   18.312254   15.602920
  N     17.413111   19.052919   17.835185
  C     18.087784   19.101964   19.026289
  S     18.142683   20.480299   19.937965
  N     18.719664   17.949708   19.421403
  C     18.604103   16.642005   18.745821
  C     17.896293   15.620121   19.632939
  C     18.334541   14.282991   19.651970
  C     17.686597   13.326066   20.450435
  C     16.588910   13.707333   21.240057
  C     16.147608   15.037028   21.225203
  O     15.081196   15.406516   21.978045
  C     16.794331   15.987863   20.429267
  H     15.635526   14.739515   18.096714
  H     14.053596   15.349680   17.598638
  H     15.355851   16.493569   17.893135
  H     14.984121   14.507873   15.578951
  H     15.197262   16.246078   15.453103
  H     17.125965   17.561577   14.846508
  H     17.302409   19.258190   15.255018
  H     15.777938   18.432829   15.615603
  H     16.974150   19.915210   17.552938
  H     19.199242   18.008947   20.310857
  H     19.626691   16.275291   18.571850
  H     19.176927   13.980788   19.032973
  H     18.034552   12.294421   20.450595
  H     16.084281   12.970505   21.856211
  H     14.804223   14.631374   22.489584
  H     16.428250   17.009094   20.432350

 Total Charge           Charge          ....    0
 Multiplicity           Mult            ....    1
 Number of Electrons    NEL             ....  154
 Basis Dimension        Dim             ....  828

ORBITAL ENERGIES
----------------

  NO   OCC          E(Eh)            E(eV)
   0   2.0000     -91.891013     -2500.4816
   1   2.0000     -20.597573      -560.4885
   2   2.0000     -20.597223      -560.4789
   3   2.0000     -20.547171      -559.1170
   4   2.0000     -15.629524      -425.3010
   5   2.0000     -15.611081      -424.7991
   6   2.0000     -11.400413      -310.2210
   7   2.0000     -11.387101      -309.8588
   8   2.0000     -11.334127      -308.4173
   9   2.0000     -11.314082      -307.8718
  10   2.0000     -11.312708      -307.8344
  11   2.0000     -11.311170      -307.7926
  12   2.0000     -11.269550      -306.6600
  13   2.0000     -11.267082      -306.5929
  14   2.0000     -11.261080      -306.4296
  15   2.0000     -11.254544      -306.2517
  16   2.0000     -11.243949      -305.9634
  17   2.0000     -11.239300      -305.8369
  18   2.0000     -11.236119      -305.7503
  19   2.0000     -11.232461      -305.6508
  20   2.0000      -8.896105      -242.0753
  21   2.0000      -6.577690      -178.9880
  22   2.0000      -6.575667      -178.9330
  23   2.0000      -6.575088      -178.9172
  24   2.0000      -1.442686       -39.2575
  25   2.0000      -1.417390       -38.5691
  26   2.0000      -1.355359       -36.8812
  27   2.0000      -1.342396       -36.5285
  28   2.0000      -1.240942       -33.7678
  29   2.0000      -1.158894       -31.5351
  30   2.0000      -1.124962       -30.6118
  31   2.0000      -1.047372       -28.5005
  32   2.0000      -1.039435       -28.2845
  33   2.0000      -1.017044       -27.6752
  34   2.0000      -1.006010       -27.3749
  35   2.0000      -0.990215       -26.9451
  36   2.0000      -0.928144       -25.2561
  37   2.0000      -0.899538       -24.4777
  38   2.0000      -0.855135       -23.2694
  39   2.0000      -0.841056       -22.8863
  40   2.0000      -0.834474       -22.7072
  41   2.0000      -0.827996       -22.5309
  42   2.0000      -0.745191       -20.2777
  43   2.0000      -0.736857       -20.0509
  44   2.0000      -0.730534       -19.8788
  45   2.0000      -0.695248       -18.9187
  46   2.0000      -0.686869       -18.6907
  47   2.0000      -0.679591       -18.4926
  48   2.0000      -0.674777       -18.3616
  49   2.0000      -0.660213       -17.9653
  50   2.0000      -0.657352       -17.8874
  51   2.0000      -0.651896       -17.7390
  52   2.0000      -0.640864       -17.4388
  53   2.0000      -0.619062       -16.8455
  54   2.0000      -0.609521       -16.5859
  55   2.0000      -0.605644       -16.4804
  56   2.0000      -0.602057       -16.3828
  57   2.0000      -0.589415       -16.0388
  58   2.0000      -0.576975       -15.7003
  59   2.0000      -0.568958       -15.4821
  60   2.0000      -0.565636       -15.3917
  61   2.0000      -0.554897       -15.0995
  62   2.0000      -0.542450       -14.7608
  63   2.0000      -0.531776       -14.4704
  64   2.0000      -0.521949       -14.2029
  65   2.0000      -0.513401       -13.9704
  66   2.0000      -0.501193       -13.6382
  67   2.0000      -0.497338       -13.5333
  68   2.0000      -0.483008       -13.1433
  69   2.0000      -0.468767       -12.7558
  70   2.0000      -0.455704       -12.4003
  71   2.0000      -0.448903       -12.2153
  72   2.0000      -0.357376        -9.7247
  73   2.0000      -0.348633        -9.4868
  74   2.0000      -0.330493        -8.9932
  75   2.0000      -0.322945        -8.7878
  76   2.0000      -0.319296        -8.6885
  77   0.0000       0.079453         2.1620
  78   0.0000       0.107827         2.9341
  79   0.0000       0.114279         3.1097
  80   0.0000       0.130924         3.5626
  81   0.0000       0.131625         3.5817

MULLIKEN ATOMIC CHARGES
-----------------------
   0 C :   -0.339725
   1 C :    0.033806
   2 O :   -0.332466
   3 C :    0.431751
   4 O :   -0.387349
   5 C :   -0.218166
   6 C :    0.153287
   7 C :   -0.340595
   8 N :   -0.135385
   9 C :    0.197552
  10 S :   -0.438695
  11 N :   -0.217821
  12 C :    0.074887
  13 C :    0.021808
  14 C :   -0.206803
  15 C :   -0.134797
  16 C :   -0.278356
  17 C :    0.317686
  18 O :   -0.358501
  19 C :   -0.270957
  20 H :    0.130278
  21 H :    0.119361
  22 H :    0.110682
  23 H :    0.132401
  24 H :    0.085975
  25 H :    0.136765
  26 H :    0.138181
  27 H :    0.121381
  28 H :    0.197489
  29 H :    0.200319
  30 H :    0.166421
  31 H :    0.175780
  32 H :    0.163770
  33 H :    0.131921
  34 H :    0.241062
  35 H :    0.177052
Sum of atomic charges:   -0.0000000

LOEWDIN ATOMIC CHARGES
----------------------
   0 C :    0.103648
   1 C :   -0.016205
   2 O :    0.291754
   3 C :   -0.414757
   4 O :    0.120842
   5 C :   -0.081720
   6 C :   -0.091487
   7 C :    0.124173
   8 N :    0.403237
   9 C :   -0.459100
  10 S :   -0.036111
  11 N :    0.398290
  12 C :   -0.043269
  13 C :   -0.043431
  14 C :    0.019682
  15 C :    0.042775
  16 C :   -0.001704
  17 C :   -0.193906
  18 O :    0.395092
  19 C :    0.029097
  20 H :   -0.018877
  21 H :   -0.022909
  22 H :   -0.035868
  23 H :   -0.017964
  24 H :   -0.039055
  25 H :   -0.007170
  26 H :   -0.009540
  27 H :   -0.018502
  28 H :   -0.057100
  29 H :   -0.063115
  30 H :   -0.001885
  31 H :   -0.021918
  32 H :   -0.018783
  33 H :   -0.035010
  34 H :   -0.153604
  35 H :   -0.025598

  Mayer bond orders larger than 0.100000
B(  0-C ,  1-C ) :   0.9569 B(  0-C , 20-H ) :   0.9672 B(  0-C , 21-H ) :   0.9767
B(  0-C , 22-H ) :   0.9722 B(  1-C ,  2-O ) :   0.9043 B(  1-C , 23-H ) :   0.9805
B(  1-C , 24-H ) :   0.9734 B(  2-O ,  3-C ) :   1.1816 B(  3-C ,  4-O ) :   2.0741
B(  3-C ,  5-C ) :   0.9331 B(  5-C ,  6-C ) :   1.6876 B(  5-C , 12-C ) :   0.9570
B(  6-C ,  7-C ) :   0.9442 B(  6-C ,  8-N ) :   1.1107 B(  7-C , 25-H ) :   0.9778
B(  7-C , 26-H ) :   0.9728 B(  7-C , 27-H ) :   0.9649 B(  8-N ,  9-C ) :   1.1909
B(  8-N , 28-H ) :   0.9516 B(  9-C , 10-S ) :   1.6122 B(  9-C , 11-N ) :   1.2908
B( 11-N , 12-C ) :   0.9897 B( 11-N , 29-H ) :   0.9493 B( 12-C , 13-C ) :   0.9470
B( 12-C , 30-H ) :   0.9960 B( 13-C , 14-C ) :   1.3914 B( 13-C , 19-C ) :   1.3416
B( 14-C , 15-C ) :   1.3984 B( 14-C , 31-H ) :   0.9575 B( 15-C , 16-C ) :   1.3597
B( 15-C , 32-H ) :   0.9704 B( 16-C , 17-C ) :   1.3299 B( 16-C , 33-H ) :   0.9848
B( 17-C , 18-O ) :   1.1104 B( 17-C , 19-C ) :   1.3714 B( 18-O , 34-H ) :   0.9797
B( 19-C , 35-H ) :   0.9569

MP2 TOTAL ENERGY:    -1274.329588230 Eh
FINAL SINGLE POINT ENERGY     -1274.329588230423

DIPOLE MOMENT
-------------
                                X             Y             Z
Electronic contribution:      9.31020       6.04057       6.24159
Nuclear contribution   :    -10.90754      -7.01376      -6.82841
                        -----------------------------------------
Total Dipole Moment    :     -1.59734      -0.97319      -0.58682
                        -----------------------------------------
Magnitude (a.u.)       :      1.96035
Magnitude (Debye)      :      4.98281

Rotational constants in cm-1:     0.011615     0.009683     0.006819
Rotational constants in MHz :   348.202854   290.297337   204.415331

                             ****ORCA TERMINATED NORMALLY****
TOTAL RUN TIME: 0 days 2 hours 42 minutes 4 seconds 563 msec
