                         Program Version 5.0.0 -  RELEASE  -
|  1> ! ri-mp2 cc-pvtz cc-pvtz/c TightSCF NoKeepInts
|  2>
|  3> %scf
|  4>   MaxCore 4096
|  5> end
|  6> *xyz  0  1
|  7>     C       14.4731168   14.7077766   16.1416423
|  8>     C       15.6545891   15.2417369   16.9672338
|  9>     O       16.8227485   15.1919563   16.1261872
| 10>     C       18.0391483   15.5146785   16.6589933
| 11>     O       18.8948083   14.6595082   16.7947612
| 12>     C       18.0672150   16.7927044   17.4377724
| 13>     C       17.5163648   17.9457201   16.9878892
| 14>     C       16.8396998   18.1727015   15.6521126
| 15>     N       17.6138624   19.1082278   17.7566997
| 16>     C       18.3427430   19.2198879   18.9123558
| 17>     S       18.4748578   20.6564045   19.7203656
| 18>     N       18.9532717   18.0773368   19.3686632
| 19>     C       18.7844728   16.7315745   18.7857350
| 20>     C       18.0262240   15.8117963   19.7380367
| 21>     C       18.5087351   14.5190929   20.0117350
| 22>     C       17.7988335   13.6546051   20.8615423
| 23>     C       16.5929807   14.0841341   21.4411687
| 24>     C       16.1053095   15.3685557   21.1660524
| 25>     O       14.9335866   15.7816822   21.7107280
| 26>     C       16.8136124   16.2268160   20.3192044
| 27>     H       14.6706019   13.6815919   15.8065898
| 28>     H       14.3035792   15.3336027   15.2567919
| 29>     H       13.5549560   14.7019959   16.7415950
| 30>     H       15.4365114   16.2610103   17.3078926
| 31>     H       15.8018559   14.6050595   17.8508956
| 32>     H       17.2242257   17.4895548   14.8841823
| 33>     H       17.0111587   19.1900286   15.2785224
| 34>     H       15.7564630   18.0194710   15.7248804
| 35>     H       17.1805437   19.9595914   17.4350120
| 36>     H       19.4646987   18.1844458   20.2356295
| 37>     H       19.7859143   16.3087040   18.6171021
| 38>     H       19.4302374   14.1758844   19.5463160
| 39>     H       18.1810256   12.6547016   21.0604758
| 40>     H       16.0401672   13.4175985   22.0950223
| 41>     H       14.6318504   15.0850408   22.3135663
| 42>     H       16.4170308   17.2168223   20.1206476
| 43> *
| 44>
| 45>                          ****END OF INPUT****

CARTESIAN COORDINATES (ANGSTROEM)
---------------------------------
  C     14.473117   14.707777   16.141642
  C     15.654589   15.241737   16.967234
  O     16.822748   15.191956   16.126187
  C     18.039148   15.514679   16.658993
  O     18.894808   14.659508   16.794761
  C     18.067215   16.792704   17.437772
  C     17.516365   17.945720   16.987889
  C     16.839700   18.172701   15.652113
  N     17.613862   19.108228   17.756700
  C     18.342743   19.219888   18.912356
  S     18.474858   20.656405   19.720366
  N     18.953272   18.077337   19.368663
  C     18.784473   16.731575   18.785735
  C     18.026224   15.811796   19.738037
  C     18.508735   14.519093   20.011735
  C     17.798834   13.654605   20.861542
  C     16.592981   14.084134   21.441169
  C     16.105310   15.368556   21.166052
  O     14.933587   15.781682   21.710728
  C     16.813612   16.226816   20.319204
  H     14.670602   13.681592   15.806590
  H     14.303579   15.333603   15.256792
  H     13.554956   14.701996   16.741595
  H     15.436511   16.261010   17.307893
  H     15.801856   14.605059   17.850896
  H     17.224226   17.489555   14.884182
  H     17.011159   19.190029   15.278522
  H     15.756463   18.019471   15.724880
  H     17.180544   19.959591   17.435012
  H     19.464699   18.184446   20.235630
  H     19.785914   16.308704   18.617102
  H     19.430237   14.175884   19.546316
  H     18.181026   12.654702   21.060476
  H     16.040167   13.417599   22.095022
  H     14.631850   15.085041   22.313566
  H     16.417031   17.216822   20.120648

 Total Charge           Charge          ....    0
 Multiplicity           Mult            ....    1
 Number of Electrons    NEL             ....  154
 Basis Dimension        Dim             ....  828

ORBITAL ENERGIES
----------------

  NO   OCC          E(Eh)            E(eV)
   0   2.0000     -91.890940     -2500.4796
   1   2.0000     -20.599012      -560.5276
   2   2.0000     -20.590620      -560.2993
   3   2.0000     -20.554616      -559.3195
   4   2.0000     -15.629983      -425.3135
   5   2.0000     -15.611015      -424.7973
   6   2.0000     -11.394774      -310.0676
   7   2.0000     -11.387063      -309.8577
   8   2.0000     -11.334201      -308.4193
   9   2.0000     -11.315403      -307.9078
  10   2.0000     -11.311855      -307.8112
  11   2.0000     -11.302872      -307.5668
  12   2.0000     -11.266259      -306.5705
  13   2.0000     -11.262144      -306.4585
  14   2.0000     -11.261160      -306.4317
  15   2.0000     -11.255385      -306.2746
  16   2.0000     -11.245128      -305.9955
  17   2.0000     -11.240985      -305.8828
  18   2.0000     -11.237944      -305.8000
  19   2.0000     -11.233751      -305.6859
  20   2.0000      -8.896026      -242.0732
  21   2.0000      -6.577604      -178.9857
  22   2.0000      -6.575590      -178.9309
  23   2.0000      -6.575006      -178.9150
  24   2.0000      -1.450008       -39.4567
  25   2.0000      -1.418829       -38.6083
  26   2.0000      -1.359720       -36.9999
  27   2.0000      -1.341654       -36.5083
  28   2.0000      -1.240262       -33.7492
  29   2.0000      -1.160015       -31.5656
  30   2.0000      -1.124686       -30.6043
  31   2.0000      -1.047708       -28.5096
  32   2.0000      -1.038582       -28.2613
  33   2.0000      -1.017315       -27.6826
  34   2.0000      -1.003713       -27.3124
  35   2.0000      -0.988947       -26.9106
  36   2.0000      -0.926825       -25.2202
  37   2.0000      -0.878390       -23.9022
  38   2.0000      -0.854506       -23.2523
  39   2.0000      -0.842882       -22.9360
  40   2.0000      -0.836015       -22.7491
  41   2.0000      -0.835058       -22.7231
  42   2.0000      -0.757448       -20.6112
  43   2.0000      -0.738490       -20.0953
  44   2.0000      -0.731457       -19.9039
  45   2.0000      -0.696781       -18.9604
  46   2.0000      -0.688102       -18.7242
  47   2.0000      -0.683190       -18.5906
  48   2.0000      -0.676238       -18.4014
  49   2.0000      -0.661677       -18.0051
  50   2.0000      -0.651788       -17.7361
  51   2.0000      -0.645606       -17.5678
  52   2.0000      -0.641347       -17.4519
  53   2.0000      -0.613977       -16.7072
  54   2.0000      -0.607331       -16.5263
  55   2.0000      -0.605874       -16.4867
  56   2.0000      -0.602769       -16.4022
  57   2.0000      -0.583818       -15.8865
  58   2.0000      -0.577635       -15.7182
  59   2.0000      -0.566679       -15.4201
  60   2.0000      -0.559270       -15.2185
  61   2.0000      -0.555767       -15.1232
  62   2.0000      -0.541483       -14.7345
  63   2.0000      -0.524895       -14.2831
  64   2.0000      -0.524830       -14.2814
  65   2.0000      -0.515623       -14.0308
  66   2.0000      -0.502386       -13.6706
  67   2.0000      -0.497783       -13.5454
  68   2.0000      -0.489522       -13.3206
  69   2.0000      -0.467946       -12.7335
  70   2.0000      -0.460924       -12.5424
  71   2.0000      -0.451626       -12.2894
  72   2.0000      -0.357531        -9.7289
  73   2.0000      -0.350934        -9.5494
  74   2.0000      -0.330328        -8.9887
  75   2.0000      -0.323134        -8.7929
  76   2.0000      -0.318687        -8.6719
  77   0.0000       0.074063         2.0153
  78   0.0000       0.104109         2.8329
  79   0.0000       0.115636         3.1466
  80   0.0000       0.129671         3.5285
  81   0.0000       0.133660         3.6371

MULLIKEN ATOMIC CHARGES
-----------------------
   0 C :   -0.259401
   1 C :    0.010224
   2 O :   -0.341450
   3 C :    0.436033
   4 O :   -0.378932
   5 C :   -0.216639
   6 C :    0.139686
   7 C :   -0.301275
   8 N :   -0.128996
   9 C :    0.200184
  10 S :   -0.437658
  11 N :   -0.204919
  12 C :    0.053171
  13 C :    0.030122
  14 C :   -0.174211
  15 C :   -0.133696
  16 C :   -0.278447
  17 C :    0.312435
  18 O :   -0.358735
  19 C :   -0.276746
  20 H :    0.108246
  21 H :    0.093156
  22 H :    0.092063
  23 H :    0.093477
  24 H :    0.120709
  25 H :    0.136095
  26 H :    0.120771
  27 H :    0.118881
  28 H :    0.197291
  29 H :    0.195630
  30 H :    0.160238
  31 H :    0.164336
  32 H :    0.162843
  33 H :    0.132297
  34 H :    0.241734
  35 H :    0.171483
Sum of atomic charges:   -0.0000000

LOEWDIN ATOMIC CHARGES
----------------------
   0 C :    0.112020
   1 C :   -0.024347
   2 O :    0.294229
   3 C :   -0.418841
   4 O :    0.132354
   5 C :   -0.090950
   6 C :   -0.086374
   7 C :    0.128015
   8 N :    0.403203
   9 C :   -0.457162
  10 S :   -0.034933
  11 N :    0.397104
  12 C :   -0.045578
  13 C :   -0.043735
  14 C :    0.021928
  15 C :    0.043642
  16 C :   -0.001337
  17 C :   -0.195391
  18 O :    0.393880
  19 C :    0.028261
  20 H :   -0.022143
  21 H :   -0.029166
  22 H :   -0.023983
  23 H :   -0.040186
  24 H :   -0.025040
  25 H :   -0.006344
  26 H :   -0.014676
  27 H :   -0.015109
  28 H :   -0.057957
  29 H :   -0.063675
  30 H :   -0.003239
  31 H :   -0.022633
  32 H :   -0.019027
  33 H :   -0.034817
  34 H :   -0.153106
  35 H :   -0.024883

  Mayer bond orders larger than 0.100000
B(  0-C ,  1-C ) :   0.9795 B(  0-C , 20-H ) :   0.9790 B(  0-C , 21-H ) :   0.9784
B(  0-C , 22-H ) :   0.9764 B(  1-C ,  2-O ) :   0.8953 B(  1-C , 23-H ) :   0.9671
B(  1-C , 24-H ) :   0.9734 B(  2-O ,  3-C ) :   1.1459 B(  3-C ,  4-O ) :   2.0945
B(  3-C ,  5-C ) :   0.9494 B(  5-C ,  6-C ) :   1.6704 B(  5-C , 12-C ) :   0.9647
B(  6-C ,  7-C ) :   0.9481 B(  6-C ,  8-N ) :   1.1286 B(  7-C , 25-H ) :   0.9722
B(  7-C , 26-H ) :   0.9821 B(  7-C , 27-H ) :   0.9633 B(  8-N ,  9-C ) :   1.1860
B(  8-N , 28-H ) :   0.9505 B(  9-C , 10-S ) :   1.6139 B(  9-C , 11-N ) :   1.2944
B( 11-N , 12-C ) :   0.9974 B( 11-N , 29-H ) :   0.9511 B( 12-C , 13-C ) :   0.9436
B( 12-C , 30-H ) :   0.9982 B( 13-C , 14-C ) :   1.3851 B( 13-C , 19-C ) :   1.3547
B( 14-C , 15-C ) :   1.3953 B( 14-C , 31-H ) :   0.9610 B( 15-C , 16-C ) :   1.3642
B( 15-C , 32-H ) :   0.9705 B( 16-C , 17-C ) :   1.3279 B( 16-C , 33-H ) :   0.9845
B( 17-C , 18-O ) :   1.1114 B( 17-C , 19-C ) :   1.3736 B( 18-O , 34-H ) :   0.9792
B( 19-C , 35-H ) :   0.9589

MP2 TOTAL ENERGY:    -1274.331869762 Eh
FINAL SINGLE POINT ENERGY     -1274.331869762078

DIPOLE MOMENT
-------------
                                X             Y             Z
Electronic contribution:     11.11894       8.30246       7.48224
Nuclear contribution   :    -12.53049      -9.35020      -7.79569
                        -----------------------------------------
Total Dipole Moment    :     -1.41155      -1.04774      -0.31345
                        -----------------------------------------
Magnitude (a.u.)       :      1.78564
Magnitude (Debye)      :      4.53873

Rotational constants in cm-1:     0.011387     0.009266     0.006788
Rotational constants in MHz :   341.358821   277.793497   203.497214

                             ****ORCA TERMINATED NORMALLY****
TOTAL RUN TIME: 0 days 2 hours 15 minutes 3 seconds 415 msec
