                         Program Version 5.0.0 -  RELEASE  -
|  1> ! ri-mp2 cc-pvtz cc-pvtz/c TightSCF NoKeepInts
|  2>
|  3> %scf
|  4>   MaxCore 4096
|  5> end
|  6> *xyz  0  1
|  7>     C       15.0623978   14.9189782   17.1665823
|  8>     C       15.7320475   14.8316119   15.7808470
|  9>     O       16.6882238   15.8987260   15.6382544
| 10>     C       17.8254331   15.8729831   16.3916922
| 11>     O       18.4522535   14.8373227   16.5406953
| 12>     C       17.9006625   16.9888676   17.3940477
| 13>     C       17.3337409   18.2110702   17.2225263
| 14>     C       16.5449770   18.7088329   16.0288318
| 15>     N       17.5270596   19.2072947   18.1851427
| 16>     C       18.4016000   19.1187182   19.2362712
| 17>     S       18.6819402   20.3971189   20.2473698
| 18>     N       19.0323583   17.9120085   19.4058941
| 19>     C       18.7042505   16.6805636   18.6626228
| 20>     C       17.9550224   15.6976768   19.5590103
| 21>     C       18.3927480   14.3655039   19.6759656
| 22>     C       17.6996196   13.4514365   20.4869796
| 23>     C       16.5571368   13.8716146   21.1888041
| 24>     C       16.1157639   15.1966038   21.0737047
| 25>     O       15.0068475   15.6030012   21.7415725
| 26>     C       16.8075279   16.1040366   20.2654412
| 27>     H       15.7729255   14.6558874   17.9592417
| 28>     H       14.2212038   14.2182262   17.2289133
| 29>     H       14.6818885   15.9297937   17.3579835
| 30>     H       16.2159331   13.8535092   15.6523773
| 31>     H       14.9631108   14.9338620   15.0044796
| 32>     H       15.5411617   18.2665527   16.0161464
| 33>     H       17.0438993   18.4382044   15.0898181
| 34>     H       16.4281410   19.7993800   16.0255101
| 35>     H       17.0742598   20.1007057   18.0760360
| 36>     H       19.6508725   17.8629174   20.2052897
| 37>     H       19.6517463   16.2138560   18.3564354
| 38>     H       19.2651289   14.0327284   19.1183938
| 39>     H       18.0459148   12.4222281   20.5630203
| 40>     H       16.0174310   13.1681492   21.8140075
| 41>     H       14.7046423   14.8578494   22.2822922
| 42>     H       16.4471297   17.1241802   20.1917995
| 43> *
| 44>
| 45>                          ****END OF INPUT****

CARTESIAN COORDINATES (ANGSTROEM)
---------------------------------
  C     15.062398   14.918978   17.166582
  C     15.732047   14.831612   15.780847
  O     16.688224   15.898726   15.638254
  C     17.825433   15.872983   16.391692
  O     18.452254   14.837323   16.540695
  C     17.900662   16.988868   17.394048
  C     17.333741   18.211070   17.222526
  C     16.544977   18.708833   16.028832
  N     17.527060   19.207295   18.185143
  C     18.401600   19.118718   19.236271
  S     18.681940   20.397119   20.247370
  N     19.032358   17.912008   19.405894
  C     18.704251   16.680564   18.662623
  C     17.955022   15.697677   19.559010
  C     18.392748   14.365504   19.675966
  C     17.699620   13.451436   20.486980
  C     16.557137   13.871615   21.188804
  C     16.115764   15.196604   21.073705
  O     15.006847   15.603001   21.741573
  C     16.807528   16.104037   20.265441
  H     15.772925   14.655887   17.959242
  H     14.221204   14.218226   17.228913
  H     14.681888   15.929794   17.357983
  H     16.215933   13.853509   15.652377
  H     14.963111   14.933862   15.004480
  H     15.541162   18.266553   16.016146
  H     17.043899   18.438204   15.089818
  H     16.428141   19.799380   16.025510
  H     17.074260   20.100706   18.076036
  H     19.650872   17.862917   20.205290
  H     19.651746   16.213856   18.356435
  H     19.265129   14.032728   19.118394
  H     18.045915   12.422228   20.563020
  H     16.017431   13.168149   21.814007
  H     14.704642   14.857849   22.282292
  H     16.447130   17.124180   20.191799

 Total Charge           Charge          ....    0
 Multiplicity           Mult            ....    1
 Number of Electrons    NEL             ....  154
 Basis Dimension        Dim             ....  828

ORBITAL ENERGIES
----------------

  NO   OCC          E(Eh)            E(eV)
   0   2.0000     -91.889471     -2500.4396
   1   2.0000     -20.594721      -560.4109
   2   2.0000     -20.588406      -560.2390
   3   2.0000     -20.551624      -559.2381
   4   2.0000     -15.629695      -425.3056
   5   2.0000     -15.608200      -424.7207
   6   2.0000     -11.395416      -310.0850
   7   2.0000     -11.384461      -309.7869
   8   2.0000     -11.336124      -308.4716
   9   2.0000     -11.310848      -307.7838
  10   2.0000     -11.308001      -307.7064
  11   2.0000     -11.299687      -307.4801
  12   2.0000     -11.261113      -306.4305
  13   2.0000     -11.260086      -306.4025
  14   2.0000     -11.256606      -306.3078
  15   2.0000     -11.251326      -306.1641
  16   2.0000     -11.240964      -305.8822
  17   2.0000     -11.236405      -305.7581
  18   2.0000     -11.233722      -305.6851
  19   2.0000     -11.225532      -305.4622
  20   2.0000      -8.894526      -242.0323
  21   2.0000      -6.576100      -178.9448
  22   2.0000      -6.574095      -178.8902
  23   2.0000      -6.573507      -178.8742
  24   2.0000      -1.451857       -39.5070
  25   2.0000      -1.414524       -38.4911
  26   2.0000      -1.355693       -36.8903
  27   2.0000      -1.340628       -36.4803
  28   2.0000      -1.238312       -33.6962
  29   2.0000      -1.155297       -31.4372
  30   2.0000      -1.120963       -30.5030
  31   2.0000      -1.043608       -28.3980
  32   2.0000      -1.031822       -28.0773
  33   2.0000      -1.012827       -27.5604
  34   2.0000      -0.999631       -27.2014
  35   2.0000      -0.985601       -26.8196
  36   2.0000      -0.923533       -25.1306
  37   2.0000      -0.893043       -24.3009
  38   2.0000      -0.848556       -23.0904
  39   2.0000      -0.838043       -22.8043
  40   2.0000      -0.831217       -22.6186
  41   2.0000      -0.815839       -22.2001
  42   2.0000      -0.751808       -20.4577
  43   2.0000      -0.735202       -20.0059
  44   2.0000      -0.727419       -19.7941
  45   2.0000      -0.693433       -18.8693
  46   2.0000      -0.686633       -18.6842
  47   2.0000      -0.677473       -18.4350
  48   2.0000      -0.672824       -18.3085
  49   2.0000      -0.659696       -17.9512
  50   2.0000      -0.653681       -17.7876
  51   2.0000      -0.645712       -17.5707
  52   2.0000      -0.635989       -17.3061
  53   2.0000      -0.610033       -16.5998
  54   2.0000      -0.602232       -16.3876
  55   2.0000      -0.601142       -16.3579
  56   2.0000      -0.598509       -16.2862
  57   2.0000      -0.581169       -15.8144
  58   2.0000      -0.575325       -15.6554
  59   2.0000      -0.562402       -15.3037
  60   2.0000      -0.555634       -15.1196
  61   2.0000      -0.550132       -14.9698
  62   2.0000      -0.540778       -14.7153
  63   2.0000      -0.528076       -14.3697
  64   2.0000      -0.520347       -14.1594
  65   2.0000      -0.511887       -13.9291
  66   2.0000      -0.499069       -13.5804
  67   2.0000      -0.492639       -13.4054
  68   2.0000      -0.480984       -13.0883
  69   2.0000      -0.463732       -12.6188
  70   2.0000      -0.459288       -12.4979
  71   2.0000      -0.449269       -12.2252
  72   2.0000      -0.355400        -9.6709
  73   2.0000      -0.346767        -9.4360
  74   2.0000      -0.328605        -8.9418
  75   2.0000      -0.318762        -8.6739
  76   2.0000      -0.316290        -8.6067
  77   0.0000       0.070864         1.9283
  78   0.0000       0.108124         2.9422
  79   0.0000       0.119439         3.2501
  80   0.0000       0.133170         3.6237
  81   0.0000       0.139290         3.7903

MULLIKEN ATOMIC CHARGES
-----------------------
   0 C :   -0.319775
   1 C :    0.036981
   2 O :   -0.374719
   3 C :    0.452485
   4 O :   -0.410187
   5 C :   -0.178601
   6 C :    0.138099
   7 C :   -0.282566
   8 N :   -0.122968
   9 C :    0.195722
  10 S :   -0.437006
  11 N :   -0.198113
  12 C :    0.047245
  13 C :    0.026067
  14 C :   -0.157750
  15 C :   -0.138558
  16 C :   -0.276328
  17 C :    0.309446
  18 O :   -0.360039
  19 C :   -0.260296
  20 H :    0.122843
  21 H :    0.110178
  22 H :    0.096948
  23 H :    0.113098
  24 H :    0.108099
  25 H :    0.122281
  26 H :    0.127967
  27 H :    0.103892
  28 H :    0.197330
  29 H :    0.193351
  30 H :    0.155834
  31 H :    0.159284
  32 H :    0.160658
  33 H :    0.130476
  34 H :    0.240614
  35 H :    0.168008
Sum of atomic charges:   -0.0000000

LOEWDIN ATOMIC CHARGES
----------------------
   0 C :    0.105482
   1 C :   -0.018872
   2 O :    0.291778
   3 C :   -0.415732
   4 O :    0.118239
   5 C :   -0.093145
   6 C :   -0.068730
   7 C :    0.125790
   8 N :    0.405207
   9 C :   -0.459237
  10 S :   -0.034690
  11 N :    0.397568
  12 C :   -0.045487
  13 C :   -0.041956
  14 C :    0.020464
  15 C :    0.040729
  16 C :   -0.002413
  17 C :   -0.193932
  18 O :    0.394252
  19 C :    0.030021
  20 H :   -0.023274
  21 H :   -0.024983
  22 H :   -0.030165
  23 H :   -0.026622
  24 H :   -0.024917
  25 H :   -0.011726
  26 H :   -0.007079
  27 H :   -0.020205
  28 H :   -0.058801
  29 H :   -0.063935
  30 H :   -0.003846
  31 H :   -0.024299
  32 H :   -0.020384
  33 H :   -0.035719
  34 H :   -0.154305
  35 H :   -0.025076

  Mayer bond orders larger than 0.100000
B(  0-C ,  1-C ) :   0.9602 B(  0-C , 20-H ) :   0.9668 B(  0-C , 21-H ) :   0.9781
B(  0-C , 22-H ) :   0.9749 B(  1-C ,  2-O ) :   0.8918 B(  1-C , 23-H ) :   0.9805
B(  1-C , 24-H ) :   0.9844 B(  2-O ,  3-C ) :   1.0988 B(  3-C ,  4-O ) :   2.0075
B(  3-C ,  5-C ) :   1.0394 B(  5-C ,  6-C ) :   1.6611 B(  5-C , 12-C ) :   0.9623
B(  6-C ,  7-C ) :   0.9549 B(  6-C ,  8-N ) :   1.1392 B(  7-C , 25-H ) :   0.9637
B(  7-C , 26-H ) :   0.9673 B(  7-C , 27-H ) :   0.9899 B(  8-N ,  9-C ) :   1.1799
B(  8-N , 28-H ) :   0.9492 B(  9-C , 10-S ) :   1.6143 B(  9-C , 11-N ) :   1.3009
B( 11-N , 12-C ) :   0.9890 B( 11-N , 29-H ) :   0.9523 B( 12-C , 13-C ) :   0.9442
B( 12-C , 30-H ) :   0.9990 B( 13-C , 14-C ) :   1.3838 B( 13-C , 19-C ) :   1.3663
B( 14-C , 15-C ) :   1.3942 B( 14-C , 31-H ) :   0.9621 B( 15-C , 16-C ) :   1.3624
B( 15-C , 32-H ) :   0.9715 B( 16-C , 17-C ) :   1.3310 B( 16-C , 33-H ) :   0.9852
B( 17-C , 18-O ) :   1.1101 B( 17-C , 19-C ) :   1.3762 B( 18-O , 34-H ) :   0.9802
B( 19-C , 35-H ) :   0.9579

MP2 TOTAL ENERGY:    -1274.334038849 Eh
FINAL SINGLE POINT ENERGY     -1274.334038848972

DIPOLE MOMENT
-------------
                                X             Y             Z
Electronic contribution:     10.03898       8.56082       6.47898
Nuclear contribution   :    -11.39810      -9.81552      -7.26161
                        -----------------------------------------
Total Dipole Moment    :     -1.35912      -1.25470      -0.78263
                        -----------------------------------------
Magnitude (a.u.)       :      2.00848
Magnitude (Debye)      :      5.10514

Rotational constants in cm-1:     0.011585     0.009649     0.006716
Rotational constants in MHz :   347.305539   289.282398   201.332605

                             ****ORCA TERMINATED NORMALLY****
TOTAL RUN TIME: 0 days 1 hours 46 minutes 57 seconds 117 msec
