                         Program Version 5.0.0 -  RELEASE  -
|  1> ! ri-mp2 cc-pvtz cc-pvtz/c TightSCF NoKeepInts
|  2>
|  3> %scf
|  4>   MaxCore 4096
|  5> end
|  6> *xyz  0  1
|  7>     C       14.2263424   14.9252570   15.4624499
|  8>     C       15.7362781   14.6330918   15.4677701
|  9>     O       16.3987840   15.8221922   15.9322117
| 10>     C       17.4997150   15.7102652   16.7304067
| 11>     O       18.1189519   14.6643239   16.8396429
| 12>     C       17.7725874   16.9051103   17.6004667
| 13>     C       17.2245578   18.1385237   17.4356342
| 14>     C       16.2472584   18.5959177   16.3717823
| 15>     N       17.6097216   19.1868724   18.2783477
| 16>     C       18.6295851   19.1260697   19.1907596
| 17>     S       19.1090359   20.4537843   20.0527062
| 18>     N       19.2324725   17.9047658   19.3513826
| 19>     C       18.7587921   16.6463453   18.7457064
| 20>     C       18.1407449   15.7422563   19.8093422
| 21>     C       18.6089230   14.4270360   19.9858866
| 22>     C       18.0424459   13.5894346   20.9613207
| 23>     C       16.9976793   14.0700212   21.7688359
| 24>     C       16.5257525   15.3779848   21.5940093
| 25>     O       15.5128313   15.8430346   22.3680464
| 26>     C       17.0913347   16.2091766   20.6220492
| 27>     H       13.8785341   15.1806317   16.4712753
| 28>     H       13.6664373   14.0469019   15.1188639
| 29>     H       13.9964133   15.7630689   14.7926090
| 30>     H       15.9230690   13.7855909   16.1421117
| 31>     H       16.0892530   14.3643429   14.4636263
| 32>     H       16.6179539   18.3470870   15.3695793
| 33>     H       16.0748444   19.6788008   16.3909048
| 34>     H       15.2743538   18.1061863   16.5039846
| 35>     H       17.1793139   20.0918976   18.1755639
| 36>     H       19.9604017   17.8778374   20.0537353
| 37>     H       19.6343550   16.1318861   18.3238621
| 38>     H       19.4051719   14.0470881   19.3503858
| 39>     H       18.4097962   12.5720821   21.0831156
| 40>     H       16.5560355   13.4258823   22.5217751
| 41>     H       15.2839859   15.1422037   22.9967018
| 42>     H       16.7132876   17.2190488   20.5071482
| 43> *
| 44>
| 45>                          ****END OF INPUT****

CARTESIAN COORDINATES (ANGSTROEM)
---------------------------------
  C     14.226342   14.925257   15.462450
  C     15.736278   14.633092   15.467770
  O     16.398784   15.822192   15.932212
  C     17.499715   15.710265   16.730407
  O     18.118952   14.664324   16.839643
  C     17.772587   16.905110   17.600467
  C     17.224558   18.138524   17.435634
  C     16.247258   18.595918   16.371782
  N     17.609722   19.186872   18.278348
  C     18.629585   19.126070   19.190760
  S     19.109036   20.453784   20.052706
  N     19.232472   17.904766   19.351383
  C     18.758792   16.646345   18.745706
  C     18.140745   15.742256   19.809342
  C     18.608923   14.427036   19.985887
  C     18.042446   13.589435   20.961321
  C     16.997679   14.070021   21.768836
  C     16.525752   15.377985   21.594009
  O     15.512831   15.843035   22.368046
  C     17.091335   16.209177   20.622049
  H     13.878534   15.180632   16.471275
  H     13.666437   14.046902   15.118864
  H     13.996413   15.763069   14.792609
  H     15.923069   13.785591   16.142112
  H     16.089253   14.364343   14.463626
  H     16.617954   18.347087   15.369579
  H     16.074844   19.678801   16.390905
  H     15.274354   18.106186   16.503985
  H     17.179314   20.091898   18.175564
  H     19.960402   17.877837   20.053735
  H     19.634355   16.131886   18.323862
  H     19.405172   14.047088   19.350386
  H     18.409796   12.572082   21.083116
  H     16.556036   13.425882   22.521775
  H     15.283986   15.142204   22.996702
  H     16.713288   17.219049   20.507148

 Total Charge           Charge          ....    0
 Multiplicity           Mult            ....    1
 Number of Electrons    NEL             ....  154
 Basis Dimension        Dim             ....  828

ORBITAL ENERGIES
----------------

  NO   OCC          E(Eh)            E(eV)
   0   2.0000     -91.888118     -2500.4028
   1   2.0000     -20.603433      -560.6479
   2   2.0000     -20.591570      -560.3251
   3   2.0000     -20.545275      -559.0653
   4   2.0000     -15.628605      -425.2760
   5   2.0000     -15.606659      -424.6788
   6   2.0000     -11.395485      -310.0869
   7   2.0000     -11.382938      -309.7455
   8   2.0000     -11.336817      -308.4905
   9   2.0000     -11.307316      -307.6877
  10   2.0000     -11.305350      -307.6342
  11   2.0000     -11.299401      -307.4723
  12   2.0000     -11.260763      -306.4209
  13   2.0000     -11.259027      -306.3737
  14   2.0000     -11.253201      -306.2152
  15   2.0000     -11.247389      -306.0570
  16   2.0000     -11.237065      -305.7761
  17   2.0000     -11.234656      -305.7105
  18   2.0000     -11.233238      -305.6719
  19   2.0000     -11.230108      -305.5868
  20   2.0000      -8.893180      -241.9957
  21   2.0000      -6.574757      -178.9082
  22   2.0000      -6.572750      -178.8536
  23   2.0000      -6.572164      -178.8377
  24   2.0000      -1.454681       -39.5839
  25   2.0000      -1.411306       -38.4036
  26   2.0000      -1.357116       -36.9290
  27   2.0000      -1.339480       -36.4491
  28   2.0000      -1.237010       -33.6608
  29   2.0000      -1.151927       -31.3455
  30   2.0000      -1.119457       -30.4620
  31   2.0000      -1.044748       -28.4290
  32   2.0000      -1.037011       -28.2185
  33   2.0000      -1.009311       -27.4647
  34   2.0000      -0.997753       -27.1502
  35   2.0000      -0.983354       -26.7584
  36   2.0000      -0.921012       -25.0620
  37   2.0000      -0.889725       -24.2106
  38   2.0000      -0.847093       -23.0506
  39   2.0000      -0.834819       -22.7166
  40   2.0000      -0.827602       -22.5202
  41   2.0000      -0.817088       -22.2341
  42   2.0000      -0.762274       -20.7425
  43   2.0000      -0.735989       -20.0273
  44   2.0000      -0.724659       -19.7190
  45   2.0000      -0.691054       -18.8045
  46   2.0000      -0.684785       -18.6340
  47   2.0000      -0.680048       -18.5051
  48   2.0000      -0.675417       -18.3790
  49   2.0000      -0.660176       -17.9643
  50   2.0000      -0.648960       -17.6591
  51   2.0000      -0.643720       -17.5165
  52   2.0000      -0.634877       -17.2759
  53   2.0000      -0.601192       -16.3593
  54   2.0000      -0.599998       -16.3268
  55   2.0000      -0.595287       -16.1986
  56   2.0000      -0.591020       -16.0825
  57   2.0000      -0.584188       -15.8966
  58   2.0000      -0.573198       -15.5975
  59   2.0000      -0.564136       -15.3509
  60   2.0000      -0.561579       -15.2814
  61   2.0000      -0.557331       -15.1657
  62   2.0000      -0.539153       -14.6711
  63   2.0000      -0.523390       -14.2422
  64   2.0000      -0.517234       -14.0746
  65   2.0000      -0.510369       -13.8878
  66   2.0000      -0.500839       -13.6285
  67   2.0000      -0.495498       -13.4832
  68   2.0000      -0.480681       -13.0800
  69   2.0000      -0.464655       -12.6439
  70   2.0000      -0.458687       -12.4815
  71   2.0000      -0.456043       -12.4096
  72   2.0000      -0.354348        -9.6423
  73   2.0000      -0.343841        -9.3564
  74   2.0000      -0.327222        -8.9042
  75   2.0000      -0.315627        -8.5887
  76   2.0000      -0.313550        -8.5321
  77   0.0000       0.075829         2.0634
  78   0.0000       0.113138         3.0786
  79   0.0000       0.120452         3.2777
  80   0.0000       0.136054         3.7022
  81   0.0000       0.139080         3.7845

MULLIKEN ATOMIC CHARGES
-----------------------
   0 C :   -0.276503
   1 C :    0.035626
   2 O :   -0.338439
   3 C :    0.439873
   4 O :   -0.427705
   5 C :   -0.175099
   6 C :    0.143597
   7 C :   -0.286757
   8 N :   -0.121535
   9 C :    0.201360
  10 S :   -0.439056
  11 N :   -0.196924
  12 C :    0.036076
  13 C :    0.058056
  14 C :   -0.160263
  15 C :   -0.134165
  16 C :   -0.279171
  17 C :    0.311353
  18 O :   -0.359311
  19 C :   -0.273587
  20 H :    0.099068
  21 H :    0.102804
  22 H :    0.092583
  23 H :    0.104166
  24 H :    0.096892
  25 H :    0.127689
  26 H :    0.104131
  27 H :    0.126659
  28 H :    0.196740
  29 H :    0.193579
  30 H :    0.153482
  31 H :    0.153229
  32 H :    0.159069
  33 H :    0.127958
  34 H :    0.240076
  35 H :    0.164452
Sum of atomic charges:    0.0000000

LOEWDIN ATOMIC CHARGES
----------------------
   0 C :    0.104849
   1 C :   -0.013789
   2 O :    0.307351
   3 C :   -0.415630
   4 O :    0.103444
   5 C :   -0.091707
   6 C :   -0.065382
   7 C :    0.124884
   8 N :    0.404889
   9 C :   -0.458993
  10 S :   -0.035818
  11 N :    0.397935
  12 C :   -0.046561
  13 C :   -0.038736
  14 C :    0.022375
  15 C :    0.040862
  16 C :   -0.002458
  17 C :   -0.192809
  18 O :    0.392849
  19 C :    0.028073
  20 H :   -0.026263
  21 H :   -0.023307
  22 H :   -0.029899
  23 H :   -0.025497
  24 H :   -0.030249
  25 H :   -0.008336
  26 H :   -0.021082
  27 H :   -0.010062
  28 H :   -0.059211
  29 H :   -0.063634
  30 H :   -0.004950
  31 H :   -0.025245
  32 H :   -0.021244
  33 H :   -0.036460
  34 H :   -0.154937
  35 H :   -0.025253

  Mayer bond orders larger than 0.100000
B(  0-C ,  1-C ) :   0.9718 B(  0-C , 20-H ) :   0.9763 B(  0-C , 21-H ) :   0.9787
B(  0-C , 22-H ) :   0.9783 B(  1-C ,  2-O ) :   0.8984 B(  1-C , 23-H ) :   0.9734
B(  1-C , 24-H ) :   0.9822 B(  2-O ,  3-C ) :   1.1694 B(  3-C ,  4-O ) :   1.9844
B(  3-C ,  5-C ) :   1.0545 B(  5-C ,  6-C ) :   1.6455 B(  5-C , 12-C ) :   0.9660
B(  6-C ,  7-C ) :   0.9548 B(  6-C ,  8-N ) :   1.1495 B(  7-C , 25-H ) :   0.9652
B(  7-C , 26-H ) :   0.9916 B(  7-C , 27-H ) :   0.9643 B(  8-N ,  9-C ) :   1.1778
B(  8-N , 28-H ) :   0.9488 B(  9-C , 10-S ) :   1.6109 B(  9-C , 11-N ) :   1.3047
B( 11-N , 12-C ) :   0.9921 B( 11-N , 29-H ) :   0.9521 B( 12-C , 13-C ) :   0.9474
B( 12-C , 30-H ) :   0.9999 B( 13-C , 14-C ) :   1.3758 B( 13-C , 19-C ) :   1.3690
B( 14-C , 15-C ) :   1.3946 B( 14-C , 31-H ) :   0.9649 B( 15-C , 16-C ) :   1.3624
B( 15-C , 32-H ) :   0.9714 B( 16-C , 17-C ) :   1.3316 B( 16-C , 33-H ) :   0.9860
B( 17-C , 18-O ) :   1.1079 B( 17-C , 19-C ) :   1.3793 B( 18-O , 34-H ) :   0.9806
B( 19-C , 35-H ) :   0.9586

MP2 TOTAL ENERGY:    -1274.347457305 Eh
FINAL SINGLE POINT ENERGY     -1274.347457305015

DIPOLE MOMENT
-------------
                                X             Y             Z
Electronic contribution:     11.96609       8.69311      10.33232
Nuclear contribution   :    -13.45380     -10.01774     -11.31686
                        -----------------------------------------
Total Dipole Moment    :     -1.48771      -1.32463      -0.98454
                        -----------------------------------------
Magnitude (a.u.)       :      2.22199
Magnitude (Debye)      :      5.64785

Rotational constants in cm-1:     0.010303     0.009019     0.005993
Rotational constants in MHz :   308.884274   270.392504   179.678376

                             ****ORCA TERMINATED NORMALLY****
TOTAL RUN TIME: 0 days 1 hours 56 minutes 39 seconds 873 msec
