                         Program Version 5.0.0 -  RELEASE  -
|  1> ! ri-mp2 cc-pvtz cc-pvtz/c TightSCF NoKeepInts
|  2>
|  3> %scf
|  4>   MaxCore 4096
|  5> end
|  6> *xyz  0  1
|  7>     C       14.5817104   14.3992724   16.6510157
|  8>     C       15.5729409   15.5653302   16.7917897
|  9>     O       16.8203196   15.1281735   16.2184321
| 10>     C       18.0455028   15.6173282   16.5977567
| 11>     O       19.0235326   14.8940112   16.5590302
| 12>     C       18.0433686   16.8654631   17.4210016
| 13>     C       17.5384593   18.0407409   16.9778034
| 14>     C       16.9547815   18.3303885   15.6113149
| 15>     N       17.6234977   19.1803194   17.7806070
| 16>     C       18.2894238   19.2437215   18.9771252
| 17>     S       18.3965737   20.6518944   19.8368916
| 18>     N       18.8607067   18.0788904   19.4279646
| 19>     C       18.7251261   16.7567595   18.7844650
| 20>     C       17.9737435   15.7739314   19.6779379
| 21>     C       18.4134684   14.4419366   19.7861651
| 22>     C       17.7133147   13.5180836   20.5795329
| 23>     C       16.5600146   13.9274466   21.2698452
| 24>     C       16.1145943   15.2513748   21.1603636
| 25>     O       14.9931374   15.6468147   21.8132906
| 26>     C       16.8133492   16.1693035   20.3697899
| 27>     H       14.9569177   13.5109160   17.1750455
| 28>     H       14.4346569   14.1407005   15.5949393
| 29>     H       13.6082401   14.6652747   17.0804771
| 30>     H       15.1830301   16.4498280   16.2760956
| 31>     H       15.6870712   15.7917866   17.8596318
| 32>     H       17.0283536   17.4719302   14.9324793
| 33>     H       17.4924107   19.1566240   15.1285187
| 34>     H       15.8979368   18.6150680   15.6823604
| 35>     H       17.2278294   20.0502111   17.4595871
| 36>     H       19.3294752   18.1515593   20.3222979
| 37>     H       19.7384505   16.3611475   18.6195719
| 38>     H       19.2945448   14.1165954   19.2366147
| 39>     H       18.0622325   12.4891186   20.6497676
| 40>     H       16.0145205   13.2155280   21.8805201
| 41>     H       14.6874234   14.8967573   22.3458055
| 42>     H       16.4463408   17.1877701   20.2981648
| 43> *
| 44>
| 45>                          ****END OF INPUT****

CARTESIAN COORDINATES (ANGSTROEM)
---------------------------------
  C     14.581710   14.399272   16.651016
  C     15.572941   15.565330   16.791790
  O     16.820320   15.128174   16.218432
  C     18.045503   15.617328   16.597757
  O     19.023533   14.894011   16.559030
  C     18.043369   16.865463   17.421002
  C     17.538459   18.040741   16.977803
  C     16.954781   18.330388   15.611315
  N     17.623498   19.180319   17.780607
  C     18.289424   19.243721   18.977125
  S     18.396574   20.651894   19.836892
  N     18.860707   18.078890   19.427965
  C     18.725126   16.756760   18.784465
  C     17.973744   15.773931   19.677938
  C     18.413468   14.441937   19.786165
  C     17.713315   13.518084   20.579533
  C     16.560015   13.927447   21.269845
  C     16.114594   15.251375   21.160364
  O     14.993137   15.646815   21.813291
  C     16.813349   16.169304   20.369790
  H     14.956918   13.510916   17.175045
  H     14.434657   14.140700   15.594939
  H     13.608240   14.665275   17.080477
  H     15.183030   16.449828   16.276096
  H     15.687071   15.791787   17.859632
  H     17.028354   17.471930   14.932479
  H     17.492411   19.156624   15.128519
  H     15.897937   18.615068   15.682360
  H     17.227829   20.050211   17.459587
  H     19.329475   18.151559   20.322298
  H     19.738450   16.361148   18.619572
  H     19.294545   14.116595   19.236615
  H     18.062233   12.489119   20.649768
  H     16.014520   13.215528   21.880520
  H     14.687423   14.896757   22.345805
  H     16.446341   17.187770   20.298165

 Total Charge           Charge          ....    0
 Multiplicity           Mult            ....    1
 Number of Electrons    NEL             ....  154
 Basis Dimension        Dim             ....  828

ORBITAL ENERGIES
----------------

  NO   OCC          E(Eh)            E(eV)
   0   2.0000     -91.890654     -2500.4718
   1   2.0000     -20.600296      -560.5625
   2   2.0000     -20.600035      -560.5554
   3   2.0000     -20.549754      -559.1872
   4   2.0000     -15.628060      -425.2611
   5   2.0000     -15.611859      -424.8203
   6   2.0000     -11.397500      -310.1417
   7   2.0000     -11.387310      -309.8645
   8   2.0000     -11.331740      -308.3523
   9   2.0000     -11.317005      -307.9514
  10   2.0000     -11.314515      -307.8836
  11   2.0000     -11.303036      -307.5712
  12   2.0000     -11.269341      -306.6544
  13   2.0000     -11.265260      -306.5433
  14   2.0000     -11.263743      -306.5020
  15   2.0000     -11.256888      -306.3155
  16   2.0000     -11.246162      -306.0236
  17   2.0000     -11.242443      -305.9224
  18   2.0000     -11.239106      -305.8316
  19   2.0000     -11.231540      -305.6257
  20   2.0000      -8.895762      -242.0660
  21   2.0000      -6.577348      -178.9787
  22   2.0000      -6.575324      -178.9237
  23   2.0000      -6.574746      -178.9079
  24   2.0000      -1.448231       -39.4084
  25   2.0000      -1.419850       -38.6361
  26   2.0000      -1.359826       -37.0028
  27   2.0000      -1.341172       -36.4952
  28   2.0000      -1.240615       -33.7589
  29   2.0000      -1.161530       -31.6068
  30   2.0000      -1.125828       -30.6353
  31   2.0000      -1.049172       -28.5494
  32   2.0000      -1.039531       -28.2871
  33   2.0000      -1.019168       -27.7330
  34   2.0000      -1.005619       -27.3643
  35   2.0000      -0.989715       -26.9315
  36   2.0000      -0.928189       -25.2573
  37   2.0000      -0.880012       -23.9463
  38   2.0000      -0.856471       -23.3057
  39   2.0000      -0.842663       -22.9300
  40   2.0000      -0.837380       -22.7863
  41   2.0000      -0.836645       -22.7663
  42   2.0000      -0.756463       -20.5844
  43   2.0000      -0.740385       -20.1469
  44   2.0000      -0.731839       -19.9143
  45   2.0000      -0.697911       -18.9911
  46   2.0000      -0.688600       -18.7378
  47   2.0000      -0.681672       -18.5492
  48   2.0000      -0.677483       -18.4353
  49   2.0000      -0.662101       -18.0167
  50   2.0000      -0.657806       -17.8998
  51   2.0000      -0.650746       -17.7077
  52   2.0000      -0.640503       -17.4290
  53   2.0000      -0.612002       -16.6534
  54   2.0000      -0.608035       -16.5455
  55   2.0000      -0.603841       -16.4313
  56   2.0000      -0.594915       -16.1885
  57   2.0000      -0.583754       -15.8848
  58   2.0000      -0.578127       -15.7316
  59   2.0000      -0.571187       -15.5428
  60   2.0000      -0.563930       -15.3453
  61   2.0000      -0.558887       -15.2081
  62   2.0000      -0.550822       -14.9886
  63   2.0000      -0.526949       -14.3390
  64   2.0000      -0.517960       -14.0944
  65   2.0000      -0.516147       -14.0451
  66   2.0000      -0.503113       -13.6904
  67   2.0000      -0.502273       -13.6676
  68   2.0000      -0.489602       -13.3227
  69   2.0000      -0.471079       -12.8187
  70   2.0000      -0.455024       -12.3818
  71   2.0000      -0.450983       -12.2719
  72   2.0000      -0.357768        -9.7353
  73   2.0000      -0.351983        -9.5779
  74   2.0000      -0.330255        -8.9867
  75   2.0000      -0.324714        -8.8359
  76   2.0000      -0.319295        -8.6885
  77   0.0000       0.082568         2.2468
  78   0.0000       0.104102         2.8328
  79   0.0000       0.114481         3.1152
  80   0.0000       0.128680         3.5016
  81   0.0000       0.132461         3.6044

MULLIKEN ATOMIC CHARGES
-----------------------
   0 C :   -0.258370
   1 C :    0.017332
   2 O :   -0.310054
   3 C :    0.404568
   4 O :   -0.383429
   5 C :   -0.212298
   6 C :    0.161751
   7 C :   -0.333028
   8 N :   -0.139235
   9 C :    0.202759
  10 S :   -0.439685
  11 N :   -0.215414
  12 C :    0.078454
  13 C :    0.026737
  14 C :   -0.197856
  15 C :   -0.131348
  16 C :   -0.275356
  17 C :    0.325494
  18 O :   -0.357786
  19 C :   -0.295661
  20 H :    0.107503
  21 H :    0.101485
  22 H :    0.088541
  23 H :    0.085956
  24 H :    0.109611
  25 H :    0.130784
  26 H :    0.140937
  27 H :    0.120022
  28 H :    0.196736
  29 H :    0.198820
  30 H :    0.164632
  31 H :    0.170163
  32 H :    0.164224
  33 H :    0.132441
  34 H :    0.241565
  35 H :    0.179004
Sum of atomic charges:    0.0000000

LOEWDIN ATOMIC CHARGES
----------------------
   0 C :    0.112115
   1 C :   -0.024026
   2 O :    0.305018
   3 C :   -0.415548
   4 O :    0.122798
   5 C :   -0.083618
   6 C :   -0.096613
   7 C :    0.123330
   8 N :    0.402176
   9 C :   -0.456621
  10 S :   -0.036712
  11 N :    0.397205
  12 C :   -0.044368
  13 C :   -0.044286
  14 C :    0.022411
  15 C :    0.045640
  16 C :   -0.000034
  17 C :   -0.194234
  18 O :    0.394702
  19 C :    0.025939
  20 H :   -0.021876
  21 H :   -0.026304
  22 H :   -0.025316
  23 H :   -0.038215
  24 H :   -0.032721
  25 H :   -0.007866
  26 H :   -0.009627
  27 H :   -0.018282
  28 H :   -0.057244
  29 H :   -0.063555
  30 H :   -0.002298
  31 H :   -0.021558
  32 H :   -0.018343
  33 H :   -0.034589
  34 H :   -0.152888
  35 H :   -0.024593

  Mayer bond orders larger than 0.100000
B(  0-C ,  1-C ) :   0.9862 B(  0-C , 20-H ) :   0.9785 B(  0-C , 21-H ) :   0.9795
B(  0-C , 22-H ) :   0.9770 B(  1-C ,  2-O ) :   0.9069 B(  1-C , 23-H ) :   0.9722
B(  1-C , 24-H ) :   0.9598 B(  2-O ,  3-C ) :   1.1930 B(  3-C ,  4-O ) :   2.0903
B(  3-C ,  5-C ) :   0.9272 B(  5-C ,  6-C ) :   1.6734 B(  5-C , 12-C ) :   0.9549
B(  6-C ,  7-C ) :   0.9449 B(  6-C ,  8-N ) :   1.1229 B(  7-C , 25-H ) :   0.9791
B(  7-C , 26-H ) :   0.9683 B(  7-C , 27-H ) :   0.9668 B(  8-N ,  9-C ) :   1.1936
B(  8-N , 28-H ) :   0.9521 B(  9-C , 10-S ) :   1.6120 B(  9-C , 11-N ) :   1.2890
B( 11-N , 12-C ) :   0.9959 B( 11-N , 29-H ) :   0.9491 B( 12-C , 13-C ) :   0.9427
B( 12-C , 30-H ) :   0.9973 B( 13-C , 14-C ) :   1.3890 B( 13-C , 19-C ) :   1.3421
B( 14-C , 15-C ) :   1.3968 B( 14-C , 31-H ) :   0.9597 B( 15-C , 16-C ) :   1.3634
B( 15-C , 32-H ) :   0.9698 B( 16-C , 17-C ) :   1.3302 B( 16-C , 33-H ) :   0.9843
B( 17-C , 18-O ) :   1.1101 B( 17-C , 19-C ) :   1.3628 B( 18-O , 34-H ) :   0.9793
B( 19-C , 35-H ) :   0.9582

MP2 TOTAL ENERGY:    -1274.335637745 Eh
FINAL SINGLE POINT ENERGY     -1274.335637745198

DIPOLE MOMENT
-------------
                                X             Y             Z
Electronic contribution:     10.66861       8.39551       7.13712
Nuclear contribution   :    -12.17607      -9.38089      -7.51829
                        -----------------------------------------
Total Dipole Moment    :     -1.50747      -0.98538      -0.38117
                        -----------------------------------------
Magnitude (a.u.)       :      1.84085
Magnitude (Debye)      :      4.67906

Rotational constants in cm-1:     0.011797     0.009113     0.006729
Rotational constants in MHz :   353.669432   273.188036   201.743435

                             ****ORCA TERMINATED NORMALLY****
TOTAL RUN TIME: 0 days 2 hours 3 minutes 18 seconds 517 msec
