                         Program Version 5.0.0 -  RELEASE  -
|  1> ! ri-mp2 cc-pvtz cc-pvtz/c TightSCF NoKeepInts
|  2>
|  3> %scf
|  4>   MaxCore 4096
|  5> end
|  6> *xyz  0  1
|  7>     C       14.9636676   16.0523131   17.2691346
|  8>     C       15.5090617   15.0482013   16.2339798
|  9>     O       16.9342487   15.0343554   15.9332663
| 10>     C       18.0428977   15.6268338   16.4997023
| 11>     O       19.1087705   15.0420573   16.4385772
| 12>     C       17.8948546   16.7979211   17.4111410
| 13>     C       17.4089011   17.9836067   16.9747621
| 14>     C       16.9422523   18.3188369   15.5725573
| 15>     N       17.4202314   19.0955022   17.8194034
| 16>     C       18.0107263   19.1302976   19.0553628
| 17>     S       18.0261575   20.5063601   19.9721501
| 18>     N       18.5960334   17.9677813   19.4925517
| 19>     C       18.5537047   16.6696157   18.7893088
| 20>     C       17.8997598   15.5827758   19.6423208
| 21>     C       18.3600662   14.2553852   19.5573041
| 22>     C       17.7698043   13.2385989   20.3258495
| 23>     C       16.7084717   13.5490027   21.1921986
| 24>     C       16.2465014   14.8684702   21.2834867
| 25>     O       15.2164208   15.1707511   22.1130091
| 26>     C       16.8362149   15.8791574   20.5174161
| 27>     H       15.5162372   16.0090373   18.2101348
| 28>     H       13.9239123   15.7951209   17.5059609
| 29>     H       14.9474332   17.0756300   16.8865109
| 30>     H       15.2547119   14.0458149   16.6030600
| 31>     H       14.9550436   15.1763037   15.2950923
| 32>     H       16.7560810   17.4280892   14.9625723
| 33>     H       17.7037819   18.9114494   15.0496798
| 34>     H       16.0140123   18.9030539   15.5873821
| 35>     H       17.0248270   19.9674989   17.5047043
| 36>     H       19.0159047   18.0206690   20.4121067
| 37>     H       19.5961500   16.3611195   18.6197215
| 38>     H       19.1777194   14.0080751   18.8831816
| 39>     H       18.1353606   12.2162002   20.2453148
| 40>     H       16.2487973   12.7661679   21.7864390
| 41>     H       14.9755765   14.3594059   22.5852011
| 42>     H       16.4527047   16.8905400   20.6034558
| 43> *
| 44>
| 45>                          ****END OF INPUT****

CARTESIAN COORDINATES (ANGSTROEM)
---------------------------------
  C     14.963668   16.052313   17.269135
  C     15.509062   15.048201   16.233980
  O     16.934249   15.034355   15.933266
  C     18.042898   15.626834   16.499702
  O     19.108770   15.042057   16.438577
  C     17.894855   16.797921   17.411141
  C     17.408901   17.983607   16.974762
  C     16.942252   18.318837   15.572557
  N     17.420231   19.095502   17.819403
  C     18.010726   19.130298   19.055363
  S     18.026158   20.506360   19.972150
  N     18.596033   17.967781   19.492552
  C     18.553705   16.669616   18.789309
  C     17.899760   15.582776   19.642321
  C     18.360066   14.255385   19.557304
  C     17.769804   13.238599   20.325850
  C     16.708472   13.549003   21.192199
  C     16.246501   14.868470   21.283487
  O     15.216421   15.170751   22.113009
  C     16.836215   15.879157   20.517416
  H     15.516237   16.009037   18.210135
  H     13.923912   15.795121   17.505961
  H     14.947433   17.075630   16.886511
  H     15.254712   14.045815   16.603060
  H     14.955044   15.176304   15.295092
  H     16.756081   17.428089   14.962572
  H     17.703782   18.911449   15.049680
  H     16.014012   18.903054   15.587382
  H     17.024827   19.967499   17.504704
  H     19.015905   18.020669   20.412107
  H     19.596150   16.361120   18.619721
  H     19.177719   14.008075   18.883182
  H     18.135361   12.216200   20.245315
  H     16.248797   12.766168   21.786439
  H     14.975577   14.359406   22.585201
  H     16.452705   16.890540   20.603456

 Total Charge           Charge          ....    0
 Multiplicity           Mult            ....    1
 Number of Electrons    NEL             ....  154
 Basis Dimension        Dim             ....  828

ORBITAL ENERGIES
----------------

  NO   OCC          E(Eh)            E(eV)
   0   2.0000     -91.890187     -2500.4591
   1   2.0000     -20.598995      -560.5272
   2   2.0000     -20.595756      -560.4390
   3   2.0000     -20.546674      -559.1034
   4   2.0000     -15.627384      -425.2427
   5   2.0000     -15.611296      -424.8049
   6   2.0000     -11.400460      -310.2223
   7   2.0000     -11.386748      -309.8492
   8   2.0000     -11.329764      -308.2986
   9   2.0000     -11.315973      -307.9233
  10   2.0000     -11.314181      -307.8745
  11   2.0000     -11.313380      -307.8527
  12   2.0000     -11.267474      -306.6036
  13   2.0000     -11.264162      -306.5134
  14   2.0000     -11.263461      -306.4944
  15   2.0000     -11.256067      -306.2932
  16   2.0000     -11.244949      -305.9906
  17   2.0000     -11.241300      -305.8913
  18   2.0000     -11.237451      -305.7866
  19   2.0000     -11.236869      -305.7707
  20   2.0000      -8.895293      -242.0532
  21   2.0000      -6.576880      -178.9660
  22   2.0000      -6.574856      -178.9109
  23   2.0000      -6.574279      -178.8952
  24   2.0000      -1.440307       -39.1927
  25   2.0000      -1.418792       -38.6073
  26   2.0000      -1.352751       -36.8102
  27   2.0000      -1.340361       -36.4731
  28   2.0000      -1.239936       -33.7404
  29   2.0000      -1.160004       -31.5653
  30   2.0000      -1.124734       -30.6056
  31   2.0000      -1.047790       -28.5118
  32   2.0000      -1.042550       -28.3692
  33   2.0000      -1.018506       -27.7150
  34   2.0000      -1.004967       -27.3465
  35   2.0000      -0.990297       -26.9473
  36   2.0000      -0.927809       -25.2470
  37   2.0000      -0.902607       -24.5612
  38   2.0000      -0.853265       -23.2185
  39   2.0000      -0.840785       -22.8789
  40   2.0000      -0.835481       -22.7346
  41   2.0000      -0.828204       -22.5366
  42   2.0000      -0.746051       -20.3011
  43   2.0000      -0.732935       -19.9442
  44   2.0000      -0.730155       -19.8685
  45   2.0000      -0.696129       -18.9426
  46   2.0000      -0.686130       -18.6705
  47   2.0000      -0.676935       -18.4203
  48   2.0000      -0.674835       -18.3632
  49   2.0000      -0.662267       -18.0212
  50   2.0000      -0.657263       -17.8850
  51   2.0000      -0.652643       -17.7593
  52   2.0000      -0.639635       -17.4054
  53   2.0000      -0.613385       -16.6911
  54   2.0000      -0.606299       -16.4982
  55   2.0000      -0.603428       -16.4201
  56   2.0000      -0.601519       -16.3682
  57   2.0000      -0.596012       -16.2183
  58   2.0000      -0.578657       -15.7461
  59   2.0000      -0.575767       -15.6674
  60   2.0000      -0.565907       -15.3991
  61   2.0000      -0.558090       -15.1864
  62   2.0000      -0.543913       -14.8006
  63   2.0000      -0.531557       -14.4644
  64   2.0000      -0.520805       -14.1718
  65   2.0000      -0.514107       -13.9896
  66   2.0000      -0.501886       -13.6570
  67   2.0000      -0.494991       -13.4694
  68   2.0000      -0.484433       -13.1821
  69   2.0000      -0.467184       -12.7127
  70   2.0000      -0.454641       -12.3714
  71   2.0000      -0.448232       -12.1970
  72   2.0000      -0.355517        -9.6741
  73   2.0000      -0.349457        -9.5092
  74   2.0000      -0.329798        -8.9743
  75   2.0000      -0.323800        -8.8110
  76   2.0000      -0.318940        -8.6788
  77   0.0000       0.086341         2.3495
  78   0.0000       0.106246         2.8911
  79   0.0000       0.114609         3.1187
  80   0.0000       0.126522         3.4428
  81   0.0000       0.130428         3.5491

MULLIKEN ATOMIC CHARGES
-----------------------
   0 C :   -0.346074
   1 C :    0.045753
   2 O :   -0.342456
   3 C :    0.416883
   4 O :   -0.384488
   5 C :   -0.229425
   6 C :    0.162201
   7 C :   -0.319281
   8 N :   -0.140174
   9 C :    0.207198
  10 S :   -0.441622
  11 N :   -0.232615
  12 C :    0.110975
  13 C :    0.015634
  14 C :   -0.224028
  15 C :   -0.134222
  16 C :   -0.275293
  17 C :    0.327235
  18 O :   -0.356808
  19 C :   -0.287348
  20 H :    0.132014
  21 H :    0.128836
  22 H :    0.095743
  23 H :    0.116886
  24 H :    0.105902
  25 H :    0.125028
  26 H :    0.149840
  27 H :    0.108622
  28 H :    0.196414
  29 H :    0.203917
  30 H :    0.166260
  31 H :    0.178953
  32 H :    0.164830
  33 H :    0.131936
  34 H :    0.241124
  35 H :    0.181648
Sum of atomic charges:   -0.0000000

LOEWDIN ATOMIC CHARGES
----------------------
   0 C :    0.105793
   1 C :   -0.013039
   2 O :    0.287037
   3 C :   -0.415750
   4 O :    0.121477
   5 C :   -0.082923
   6 C :   -0.096269
   7 C :    0.124337
   8 N :    0.403546
   9 C :   -0.456001
  10 S :   -0.037776
  11 N :    0.398112
  12 C :   -0.042823
  13 C :   -0.043149
  14 C :    0.020459
  15 C :    0.044478
  16 C :   -0.001180
  17 C :   -0.193370
  18 O :    0.395260
  19 C :    0.024788
  20 H :   -0.029459
  21 H :   -0.018496
  22 H :   -0.033733
  23 H :   -0.021218
  24 H :   -0.025468
  25 H :   -0.010474
  26 H :   -0.007280
  27 H :   -0.018970
  28 H :   -0.057838
  29 H :   -0.063871
  30 H :   -0.002720
  31 H :   -0.021560
  32 H :   -0.018347
  33 H :   -0.034967
  34 H :   -0.153283
  35 H :   -0.025322

  Mayer bond orders larger than 0.100000
B(  0-C ,  1-C ) :   0.9614 B(  0-C , 20-H ) :   0.9644 B(  0-C , 21-H ) :   0.9776
B(  0-C , 22-H ) :   0.9734 B(  1-C ,  2-O ) :   0.9053 B(  1-C , 23-H ) :   0.9786
B(  1-C , 24-H ) :   0.9793 B(  2-O ,  3-C ) :   1.1693 B(  3-C ,  4-O ) :   2.0775
B(  3-C ,  5-C ) :   0.9438 B(  5-C ,  6-C ) :   1.6817 B(  5-C , 12-C ) :   0.9400
B(  6-C ,  7-C ) :   0.9456 B(  6-C ,  8-N ) :   1.1145 B(  7-C , 25-H ) :   0.9784
B(  7-C , 26-H ) :   0.9641 B(  7-C , 27-H ) :   0.9716 B(  8-N ,  9-C ) :   1.1984
B(  8-N , 28-H ) :   0.9509 B(  9-C , 10-S ) :   1.6068 B(  9-C , 11-N ) :   1.2888
B( 11-N , 12-C ) :   0.9873 B( 11-N , 29-H ) :   0.9465 B( 12-C , 13-C ) :   0.9561
B( 12-C , 30-H ) :   0.9944 B( 13-C , 14-C ) :   1.3911 B( 13-C , 19-C ) :   1.3368
B( 14-C , 15-C ) :   1.4029 B( 14-C , 31-H ) :   0.9566 B( 15-C , 16-C ) :   1.3580
B( 15-C , 32-H ) :   0.9696 B( 16-C , 17-C ) :   1.3330 B( 16-C , 33-H ) :   0.9846
B( 17-C , 18-O ) :   1.1084 B( 17-C , 19-C ) :   1.3645 B( 18-O , 34-H ) :   0.9795
B( 19-C , 35-H ) :   0.9580

MP2 TOTAL ENERGY:    -1274.321648142 Eh
FINAL SINGLE POINT ENERGY     -1274.321648142434

DIPOLE MOMENT
-------------
                                X             Y             Z
Electronic contribution:      9.32074       5.46543       6.80404
Nuclear contribution   :    -10.90257      -6.62538      -7.35279
                        -----------------------------------------
Total Dipole Moment    :     -1.58183      -1.15995      -0.54875
                        -----------------------------------------
Magnitude (a.u.)       :      2.03686
Magnitude (Debye)      :      5.17729

Rotational constants in cm-1:     0.011687     0.009425     0.006709
Rotational constants in MHz :   350.356150   282.555674   201.143280

                             ****ORCA TERMINATED NORMALLY****
TOTAL RUN TIME: 0 days 2 hours 8 minutes 19 seconds 130 msec
