                         Program Version 4.2.0 -  RELEASE  -
|  1> ! ri-mp2 cc-pvtz cc-pvtz/c TightSCF  NoKeepInts
|  2>
|  3> %scf
|  4>   MaxCore 4096
|  5> end
|  6> *xyz  0  1
|  7>     C       14.9239038   14.3175786   16.0597084
|  8>     C       16.0784476   14.5782132   17.0428489
|  9>     O       17.2034746   15.0541000   16.2802785
| 10>     C       17.3589734   16.3976625   16.0982692
| 11>     O       16.9964488   16.9045933   15.0529267
| 12>     C       17.6779060   17.1833238   17.3433607
| 13>     C       17.3533733   18.4957599   17.4672156
| 14>     C       16.5078660   19.3249404   16.5249316
| 15>     N       17.8622161   19.2429745   18.5341247
| 16>     C       18.8842089   18.8282404   19.3474023
| 17>     S       19.5908019   19.8357591   20.4521258
| 18>     N       19.3014100   17.5306601   19.1854769
| 19>     C       18.5735921   16.5141786   18.4034775
| 20>     C       17.8306597   15.5997102   19.3714038
| 21>     C       18.2257288   14.2568112   19.5215554
| 22>     C       17.5478619   13.4074459   20.4120799
| 23>     C       16.4715354   13.9060362   21.1654458
| 24>     C       16.0847292   15.2461372   21.0301262
| 25>     O       15.0466728   15.7314476   21.7559162
| 26>     C       16.7594584   16.0887393   20.1414028
| 27>     H       14.6249143   15.2453158   15.5553385
| 28>     H       14.0502522   13.9171316   16.5879226
| 29>     H       15.2255642   13.5923209   15.2936263
| 30>     H       15.7552918   15.3037392   17.7985182
| 31>     H       16.3395888   13.6376324   17.5444626
| 32>     H       15.5910023   18.7885124   16.2497299
| 33>     H       17.0567638   19.5292849   15.5964297
| 34>     H       16.2068438   20.2866694   16.9565627
| 35>     H       17.5824968   20.2045762   18.6465228
| 36>     H       20.0441790   17.2463536   19.8113557
| 37>     H       19.3196538   15.9102492   17.8674713
| 38>     H       19.0575661   13.8668237   18.9402718
| 39>     H       17.8590068   12.3693056   20.5187186
| 40>     H       15.9459148   13.2537723   21.8555064
| 41>     H       14.7593172   15.0311355   22.3614160
| 42>     H       16.4493758   17.1248651   20.0600699
| 43> *
| 44>
| 45>                          ****END OF INPUT****

CARTESIAN COORDINATES (ANGSTROEM)
---------------------------------
  C     14.923904   14.317579   16.059708
  C     16.078448   14.578213   17.042849
  O     17.203475   15.054100   16.280279
  C     17.358973   16.397662   16.098269
  O     16.996449   16.904593   15.052927
  C     17.677906   17.183324   17.343361
  C     17.353373   18.495760   17.467216
  C     16.507866   19.324940   16.524932
  N     17.862216   19.242974   18.534125
  C     18.884209   18.828240   19.347402
  S     19.590802   19.835759   20.452126
  N     19.301410   17.530660   19.185477
  C     18.573592   16.514179   18.403478
  C     17.830660   15.599710   19.371404
  C     18.225729   14.256811   19.521555
  C     17.547862   13.407446   20.412080
  C     16.471535   13.906036   21.165446
  C     16.084729   15.246137   21.030126
  O     15.046673   15.731448   21.755916
  C     16.759458   16.088739   20.141403
  H     14.624914   15.245316   15.555338
  H     14.050252   13.917132   16.587923
  H     15.225564   13.592321   15.293626
  H     15.755292   15.303739   17.798518
  H     16.339589   13.637632   17.544463
  H     15.591002   18.788512   16.249730
  H     17.056764   19.529285   15.596430
  H     16.206844   20.286669   16.956563
  H     17.582497   20.204576   18.646523
  H     20.044179   17.246354   19.811356
  H     19.319654   15.910249   17.867471
  H     19.057566   13.866824   18.940272
  H     17.859007   12.369306   20.518719
  H     15.945915   13.253772   21.855506
  H     14.759317   15.031135   22.361416
  H     16.449376   17.124865   20.060070

 Total Charge           Charge          ....    0
 Multiplicity           Mult            ....    1
 Number of Electrons    NEL             ....  154
 Basis Dimension        Dim             ....  828

ORBITAL ENERGIES
----------------

  NO   OCC          E(Eh)            E(eV)
   0   2.0000     -91.892175     -2500.5132
   1   2.0000     -20.603290      -560.6440
   2   2.0000     -20.582820      -560.0870
   3   2.0000     -20.549929      -559.1920
   4   2.0000     -15.632134      -425.3720
   5   2.0000     -15.611253      -424.8038
   6   2.0000     -11.393295      -310.0273
   7   2.0000     -11.386768      -309.8497
   8   2.0000     -11.337880      -308.5194
   9   2.0000     -11.321338      -308.0693
  10   2.0000     -11.315518      -307.9109
  11   2.0000     -11.295244      -307.3592
  12   2.0000     -11.266045      -306.5647
  13   2.0000     -11.262491      -306.4680
  14   2.0000     -11.260622      -306.4171
  15   2.0000     -11.255069      -306.2660
  16   2.0000     -11.250604      -306.1445
  17   2.0000     -11.244978      -305.9914
  18   2.0000     -11.244649      -305.9825
  19   2.0000     -11.220192      -305.3169
  20   2.0000      -8.897184      -242.1047
  21   2.0000      -6.578744      -179.0167
  22   2.0000      -6.576755      -178.9626
  23   2.0000      -6.576154      -178.9463
  24   2.0000      -1.446960       -39.3738
  25   2.0000      -1.423001       -38.7218
  26   2.0000      -1.354408       -36.8553
  27   2.0000      -1.343610       -36.5615
  28   2.0000      -1.242179       -33.8014
  29   2.0000      -1.163948       -31.6726
  30   2.0000      -1.122691       -30.5500
  31   2.0000      -1.048226       -28.5237
  32   2.0000      -1.030401       -28.0386
  33   2.0000      -1.022530       -27.8244
  34   2.0000      -1.000400       -27.2223
  35   2.0000      -0.987642       -26.8751
  36   2.0000      -0.927429       -25.2366
  37   2.0000      -0.881107       -23.9762
  38   2.0000      -0.851626       -23.1739
  39   2.0000      -0.846125       -23.0242
  40   2.0000      -0.840892       -22.8818
  41   2.0000      -0.832525       -22.6542
  42   2.0000      -0.756265       -20.5790
  43   2.0000      -0.736928       -20.0528
  44   2.0000      -0.719329       -19.5739
  45   2.0000      -0.702659       -19.1203
  46   2.0000      -0.693390       -18.8681
  47   2.0000      -0.680416       -18.5151
  48   2.0000      -0.669405       -18.2154
  49   2.0000      -0.667667       -18.1681
  50   2.0000      -0.652059       -17.7434
  51   2.0000      -0.649211       -17.6659
  52   2.0000      -0.639938       -17.4136
  53   2.0000      -0.613648       -16.6982
  54   2.0000      -0.607569       -16.5328
  55   2.0000      -0.602956       -16.4073
  56   2.0000      -0.591076       -16.0840
  57   2.0000      -0.582846       -15.8600
  58   2.0000      -0.575417       -15.6579
  59   2.0000      -0.573957       -15.6182
  60   2.0000      -0.562804       -15.3147
  61   2.0000      -0.545528       -14.8446
  62   2.0000      -0.539213       -14.6727
  63   2.0000      -0.531006       -14.4494
  64   2.0000      -0.519417       -14.1341
  65   2.0000      -0.516141       -14.0449
  66   2.0000      -0.506948       -13.7948
  67   2.0000      -0.499547       -13.5934
  68   2.0000      -0.482371       -13.1260
  69   2.0000      -0.467454       -12.7201
  70   2.0000      -0.452520       -12.3137
  71   2.0000      -0.444478       -12.0949
  72   2.0000      -0.359913        -9.7937
  73   2.0000      -0.354877        -9.6567
  74   2.0000      -0.332246        -9.0409
  75   2.0000      -0.328548        -8.9402
  76   2.0000      -0.319359        -8.6902
  77   0.0000       0.069513         1.8915
  78   0.0000       0.098332         2.6757
  79   0.0000       0.119840         3.2610
  80   0.0000       0.126874         3.4524
  81   0.0000       0.130277         3.5450

MULLIKEN ATOMIC CHARGES
-----------------------
   0 C :   -0.258783
   1 C :    0.021292
   2 O :   -0.366985
   3 C :    0.471071
   4 O :   -0.386781
   5 C :   -0.276760
   6 C :    0.159215
   7 C :   -0.271203
   8 N :   -0.127435
   9 C :    0.206870
  10 S :   -0.432780
  11 N :   -0.191821
  12 C :    0.038701
  13 C :    0.054908
  14 C :   -0.196775
  15 C :   -0.130567
  16 C :   -0.272738
  17 C :    0.311592
  18 O :   -0.355332
  19 C :   -0.260865
  20 H :    0.098614
  21 H :    0.087414
  22 H :    0.099898
  23 H :    0.102809
  24 H :    0.111869
  25 H :    0.124536
  26 H :    0.139747
  27 H :    0.094201
  28 H :    0.198851
  29 H :    0.191234
  30 H :    0.149909
  31 H :    0.150791
  32 H :    0.166457
  33 H :    0.134397
  34 H :    0.242067
  35 H :    0.172380
Sum of atomic charges:   -0.0000000

LOEWDIN ATOMIC CHARGES
----------------------
   0 C :    0.106106
   1 C :   -0.024228
   2 O :    0.289436
   3 C :   -0.423660
   4 O :    0.127282
   5 C :   -0.100138
   6 C :   -0.062835
   7 C :    0.130296
   8 N :    0.406507
   9 C :   -0.457221
  10 S :   -0.030263
  11 N :    0.396374
  12 C :   -0.052225
  13 C :   -0.039493
  14 C :    0.015410
  15 C :    0.042368
  16 C :   -0.000012
  17 C :   -0.190919
  18 O :    0.396798
  19 C :    0.031758
  20 H :   -0.027180
  21 H :   -0.029667
  22 H :   -0.025137
  23 H :   -0.035494
  24 H :   -0.024491
  25 H :   -0.006770
  26 H :   -0.002511
  27 H :   -0.022721
  28 H :   -0.057258
  29 H :   -0.065132
  30 H :   -0.005823
  31 H :   -0.028802
  32 H :   -0.019488
  33 H :   -0.033854
  34 H :   -0.152234
  35 H :   -0.024783

  Mayer bond orders larger than 0.100000
B(  0-C ,  1-C ) :   0.9787 B(  0-C , 20-H ) :   0.9747 B(  0-C , 21-H ) :   0.9771
B(  0-C , 22-H ) :   0.9805 B(  1-C ,  2-O ) :   0.8747 B(  1-C , 23-H ) :   0.9628
B(  1-C , 24-H ) :   0.9793 B(  2-O ,  3-C ) :   1.1289 B(  3-C ,  4-O ) :   2.0540
B(  3-C ,  5-C ) :   1.0142 B(  5-C ,  6-C ) :   1.6649 B(  5-C , 12-C ) :   0.9697
B(  6-C ,  7-C ) :   0.9687 B(  6-C ,  8-N ) :   1.1478 B(  7-C , 25-H ) :   0.9679
B(  7-C , 26-H ) :   0.9551 B(  7-C , 27-H ) :   0.9867 B(  8-N ,  9-C ) :   1.1781
B(  8-N , 28-H ) :   0.9488 B(  9-C , 10-S ) :   1.6192 B(  9-C , 11-N ) :   1.2971
B( 11-N , 12-C ) :   0.9814 B( 11-N , 29-H ) :   0.9542 B( 12-C , 13-C ) :   0.9528
B( 12-C , 30-H ) :   1.0033 B( 13-C , 14-C ) :   1.3486 B( 13-C , 19-C ) :   1.3590
B( 14-C , 15-C ) :   1.3842 B( 14-C , 31-H ) :   0.9769 B( 15-C , 16-C ) :   1.3695
B( 15-C , 32-H ) :   0.9687 B( 16-C , 17-C ) :   1.3246 B( 16-C , 33-H ) :   0.9832
B( 17-C , 18-O ) :   1.1156 B( 17-C , 19-C ) :   1.3779 B( 18-O , 34-H ) :   0.9788
B( 19-C , 35-H ) :   0.9563

MP2 TOTAL ENERGY:    -1274.328246359 Eh
FINAL SINGLE POINT ENERGY     -1274.328246358683

DIPOLE MOMENT
-------------
                                X             Y             Z
Electronic contribution:     10.87860       8.78992       6.73758
Nuclear contribution   :    -12.03482     -10.30182      -6.27677
                        -----------------------------------------
Total Dipole Moment    :     -1.15621      -1.51189       0.46080
                        -----------------------------------------
Magnitude (a.u.)       :      1.95831
Magnitude (Debye)      :      4.97764

Rotational constants in cm-1:     0.011499     0.009587     0.006414
Rotational constants in MHz :   344.729094   287.417616   192.293297

                             ****ORCA TERMINATED NORMALLY****
TOTAL RUN TIME: 0 days 1 hours 46 minutes 19 seconds 528 msec
