                         Program Version 4.2.0 -  RELEASE  -
|  1> ! ri-mp2 cc-pvtz cc-pvtz/c TightSCF  NoKeepInts
|  2>
|  3> %scf
|  4>   MaxCore 4096
|  5> end
|  6> *xyz  0  1
|  7>     C       15.3752462   14.1828001   14.9590452
|  8>     C       15.9659989   13.9488784   16.3671560
|  9>     O       16.7955472   15.0352883   16.8451919
| 10>     C       16.5070989   16.3723058   16.7331116
| 11>     O       15.5571413   16.8120752   16.1105496
| 12>     C       17.4052183   17.2170202   17.5969491
| 13>     C       17.3338506   18.5729436   17.6162311
| 14>     C       16.3923428   19.4553054   16.8242918
| 15>     N       18.2223581   19.3112945   18.4039283
| 16>     C       19.2741321   18.7836422   19.1039251
| 17>     S       20.3436969   19.7383742   19.9288827
| 18>     N       19.3990350   17.4182218   19.0826811
| 19>     C       18.4237988   16.4859126   18.4883637
| 20>     C       17.7422070   15.6832133   19.5931791
| 21>     C       17.9811290   14.3020039   19.7224374
| 22>     C       17.3548426   13.5599120   20.7379941
| 23>     C       16.4846784   14.2042421   21.6338841
| 24>     C       16.2481073   15.5803255   21.5109887
| 25>     O       15.4098737   16.2055516   22.3755967
| 26>     C       16.8727166   16.3161048   20.4992939
| 27>     H       14.5119025   14.8584504   14.9923066
| 28>     H       15.0283912   13.2340341   14.5324774
| 29>     H       16.1284174   14.6047383   14.2821220
| 30>     H       15.1380986   13.7896521   17.0705486
| 31>     H       16.5673014   13.0309099   16.3561205
| 32>     H       15.3499731   19.2482462   17.0988011
| 33>     H       16.4920616   19.2600236   15.7490462
| 34>     H       16.5704869   20.5252530   16.9830926
| 35>     H       18.1462692   20.3155389   18.4301305
| 36>     H       20.1617777   17.0559153   19.6400850
| 37>     H       18.9868115   15.7904693   17.8502565
| 38>     H       18.6503817   13.8008481   19.0284146
| 39>     H       17.5446735   12.4918927   20.8288810
| 40>     H       15.9990190   13.6357800   22.4201575
| 41>     H       15.1004493   15.5435131   23.0117202
| 42>     H       16.6819654   17.3813193   20.4261585
| 43> *
| 44>
| 45>                          ****END OF INPUT****

CARTESIAN COORDINATES (ANGSTROEM)
---------------------------------
  C     15.375246   14.182800   14.959045
  C     15.965999   13.948878   16.367156
  O     16.795547   15.035288   16.845192
  C     16.507099   16.372306   16.733112
  O     15.557141   16.812075   16.110550
  C     17.405218   17.217020   17.596949
  C     17.333851   18.572944   17.616231
  C     16.392343   19.455305   16.824292
  N     18.222358   19.311294   18.403928
  C     19.274132   18.783642   19.103925
  S     20.343697   19.738374   19.928883
  N     19.399035   17.418222   19.082681
  C     18.423799   16.485913   18.488364
  C     17.742207   15.683213   19.593179
  C     17.981129   14.302004   19.722437
  C     17.354843   13.559912   20.737994
  C     16.484678   14.204242   21.633884
  C     16.248107   15.580326   21.510989
  O     15.409874   16.205552   22.375597
  C     16.872717   16.316105   20.499294
  H     14.511902   14.858450   14.992307
  H     15.028391   13.234034   14.532477
  H     16.128417   14.604738   14.282122
  H     15.138099   13.789652   17.070549
  H     16.567301   13.030910   16.356120
  H     15.349973   19.248246   17.098801
  H     16.492062   19.260024   15.749046
  H     16.570487   20.525253   16.983093
  H     18.146269   20.315539   18.430131
  H     20.161778   17.055915   19.640085
  H     18.986812   15.790469   17.850257
  H     18.650382   13.800848   19.028415
  H     17.544673   12.491893   20.828881
  H     15.999019   13.635780   22.420157
  H     15.100449   15.543513   23.011720
  H     16.681965   17.381319   20.426158

 Total Charge           Charge          ....    0
 Multiplicity           Mult            ....    1
 Number of Electrons    NEL             ....  154
 Basis Dimension        Dim             ....  828

ORBITAL ENERGIES
----------------

  NO   OCC          E(Eh)            E(eV)
   0   2.0000     -91.887866     -2500.3959
   1   2.0000     -20.599511      -560.5412
   2   2.0000     -20.595146      -560.4224
   3   2.0000     -20.541003      -558.9491
   4   2.0000     -15.627963      -425.2585
   5   2.0000     -15.607027      -424.6888
   6   2.0000     -11.397320      -310.1368
   7   2.0000     -11.382844      -309.7429
   8   2.0000     -11.334707      -308.4331
   9   2.0000     -11.312120      -307.8184
  10   2.0000     -11.307514      -307.6931
  11   2.0000     -11.302467      -307.5558
  12   2.0000     -11.258195      -306.3511
  13   2.0000     -11.258034      -306.3467
  14   2.0000     -11.253666      -306.2278
  15   2.0000     -11.251227      -306.1615
  16   2.0000     -11.241370      -305.8932
  17   2.0000     -11.236715      -305.7666
  18   2.0000     -11.236608      -305.7637
  19   2.0000     -11.222106      -305.3690
  20   2.0000      -8.892936      -241.9891
  21   2.0000      -6.574513      -178.9016
  22   2.0000      -6.572507      -178.8470
  23   2.0000      -6.571922      -178.8311
  24   2.0000      -1.445309       -39.3289
  25   2.0000      -1.414783       -38.4982
  26   2.0000      -1.354922       -36.8693
  27   2.0000      -1.339010       -36.4363
  28   2.0000      -1.237382       -33.6709
  29   2.0000      -1.155898       -31.4536
  30   2.0000      -1.118801       -30.4441
  31   2.0000      -1.041316       -28.3356
  32   2.0000      -1.035997       -28.1909
  33   2.0000      -1.013418       -27.5765
  34   2.0000      -0.994252       -27.0550
  35   2.0000      -0.982650       -26.7393
  36   2.0000      -0.921222       -25.0677
  37   2.0000      -0.896934       -24.4068
  38   2.0000      -0.846267       -23.0281
  39   2.0000      -0.836668       -22.7669
  40   2.0000      -0.832458       -22.6523
  41   2.0000      -0.818119       -22.2621
  42   2.0000      -0.747882       -20.3509
  43   2.0000      -0.729542       -19.8519
  44   2.0000      -0.719523       -19.5792
  45   2.0000      -0.694357       -18.8944
  46   2.0000      -0.687370       -18.7043
  47   2.0000      -0.678947       -18.4751
  48   2.0000      -0.668245       -18.1839
  49   2.0000      -0.655261       -17.8306
  50   2.0000      -0.651042       -17.7158
  51   2.0000      -0.644039       -17.5252
  52   2.0000      -0.633586       -17.2408
  53   2.0000      -0.605908       -16.4876
  54   2.0000      -0.604059       -16.4373
  55   2.0000      -0.597921       -16.2703
  56   2.0000      -0.597366       -16.2552
  57   2.0000      -0.580897       -15.8070
  58   2.0000      -0.573537       -15.6067
  59   2.0000      -0.569982       -15.5100
  60   2.0000      -0.561382       -15.2760
  61   2.0000      -0.538253       -14.6466
  62   2.0000      -0.535901       -14.5826
  63   2.0000      -0.523740       -14.2517
  64   2.0000      -0.521354       -14.1868
  65   2.0000      -0.511982       -13.9317
  66   2.0000      -0.502844       -13.6831
  67   2.0000      -0.498559       -13.5665
  68   2.0000      -0.483007       -13.1433
  69   2.0000      -0.463097       -12.6015
  70   2.0000      -0.454466       -12.3666
  71   2.0000      -0.440004       -11.9731
  72   2.0000      -0.353137        -9.6094
  73   2.0000      -0.347829        -9.4649
  74   2.0000      -0.327236        -8.9045
  75   2.0000      -0.319753        -8.7009
  76   2.0000      -0.314895        -8.5687
  77   0.0000       0.077381         2.1057
  78   0.0000       0.108904         2.9634
  79   0.0000       0.124912         3.3990
  80   0.0000       0.133538         3.6337
  81   0.0000       0.137504         3.7417

MULLIKEN ATOMIC CHARGES
-----------------------
   0 C :   -0.292093
   1 C :    0.050519
   2 O :   -0.360595
   3 C :    0.468274
   4 O :   -0.434580
   5 C :   -0.207967
   6 C :    0.146050
   7 C :   -0.274173
   8 N :   -0.119927
   9 C :    0.211967
  10 S :   -0.441475
  11 N :   -0.203375
  12 C :    0.048892
  13 C :    0.075234
  14 C :   -0.187574
  15 C :   -0.130918
  16 C :   -0.279122
  17 C :    0.315913
  18 O :   -0.356879
  19 C :   -0.270004
  20 H :    0.124054
  21 H :    0.094498
  22 H :    0.095669
  23 H :    0.089661
  24 H :    0.099754
  25 H :    0.132475
  26 H :    0.129210
  27 H :    0.095028
  28 H :    0.197082
  29 H :    0.194054
  30 H :    0.148782
  31 H :    0.148425
  32 H :    0.159180
  33 H :    0.129159
  34 H :    0.240463
  35 H :    0.164339
Sum of atomic charges:   -0.0000000

LOEWDIN ATOMIC CHARGES
----------------------
   0 C :    0.102977
   1 C :   -0.009393
   2 O :    0.297699
   3 C :   -0.412360
   4 O :    0.105409
   5 C :   -0.093099
   6 C :   -0.059523
   7 C :    0.130641
   8 N :    0.406338
   9 C :   -0.456776
  10 S :   -0.036633
  11 N :    0.396424
  12 C :   -0.052866
  13 C :   -0.037741
  14 C :    0.013686
  15 C :    0.038861
  16 C :   -0.002191
  17 C :   -0.189454
  18 O :    0.395010
  19 C :    0.031426
  20 H :   -0.025592
  21 H :   -0.029242
  22 H :   -0.026826
  23 H :   -0.028183
  24 H :   -0.025120
  25 H :   -0.004753
  26 H :   -0.004593
  27 H :   -0.023613
  28 H :   -0.057784
  29 H :   -0.064785
  30 H :   -0.011400
  31 H :   -0.030790
  32 H :   -0.021709
  33 H :   -0.035908
  34 H :   -0.154170
  35 H :   -0.023965

  Mayer bond orders larger than 0.100000
B(  0-C ,  1-C ) :   0.9744 B(  0-C , 20-H ) :   0.9718 B(  0-C , 21-H ) :   0.9773
B(  0-C , 22-H ) :   0.9759 B(  1-C ,  2-O ) :   0.8983 B(  1-C , 23-H ) :   0.9756
B(  1-C , 24-H ) :   0.9832 B(  2-O ,  3-C ) :   1.1559 B(  3-C ,  4-O ) :   1.9637
B(  3-C ,  5-C ) :   1.0627 B(  5-C ,  6-C ) :   1.6573 B(  5-C , 12-C ) :   0.9747
B(  6-C ,  7-C ) :   0.9677 B(  6-C ,  8-N ) :   1.1634 B(  7-C , 25-H ) :   0.9602
B(  7-C , 26-H ) :   0.9607 B(  7-C , 27-H ) :   0.9910 B(  8-N ,  9-C ) :   1.1829
B(  8-N , 28-H ) :   0.9481 B(  9-C , 10-S ) :   1.6059 B(  9-C , 11-N ) :   1.3056
B( 11-N , 12-C ) :   0.9861 B( 11-N , 29-H ) :   0.9518 B( 12-C , 13-C ) :   0.9374
B( 12-C , 30-H ) :   1.0026 B( 13-C , 14-C ) :   1.3531 B( 13-C , 19-C ) :   1.3834
B( 14-C , 15-C ) :   1.3924 B( 14-C , 31-H ) :   0.9721 B( 15-C , 16-C ) :   1.3640
B( 15-C , 32-H ) :   0.9710 B( 16-C , 17-C ) :   1.3318 B( 16-C , 33-H ) :   0.9853
B( 17-C , 18-O ) :   1.1098 B( 17-C , 19-C ) :   1.3731 B( 18-O , 34-H ) :   0.9801
B( 19-C , 35-H ) :   0.9584

MP2 TOTAL ENERGY:    -1274.341810570 Eh
FINAL SINGLE POINT ENERGY     -1274.341810569803

DIPOLE MOMENT
-------------
                                X             Y             Z
Electronic contribution:      9.74961       9.62708      10.14295
Nuclear contribution   :    -10.80475     -11.37804     -10.55371
                        -----------------------------------------
Total Dipole Moment    :     -1.05514      -1.75096      -0.41076
                        -----------------------------------------
Magnitude (a.u.)       :      2.08517
Magnitude (Debye)      :      5.30007

Rotational constants in cm-1:     0.010993     0.008821     0.006008
Rotational constants in MHz :   329.571413   264.455030   180.126480

                             ****ORCA TERMINATED NORMALLY****
TOTAL RUN TIME: 0 days 1 hours 38 minutes 51 seconds 884 msec
