                         Program Version 5.0.0 -  RELEASE  -
|  1> ! ri-mp2 cc-pvtz cc-pvtz/c TightSCF NoKeepInts
|  2>
|  3> %scf
|  4>   MaxCore 4096
|  5> end
|  6> *xyz  0  1
|  7>     C       14.9546644   14.3669373   16.0493669
|  8>     C       16.2396152   14.1817276   16.8827962
|  9>     O       17.3150022   15.0410544   16.4329624
| 10>     C       17.1298876   16.3849524   16.2581085
| 11>     O       16.4593454   16.8204077   15.3391234
| 12>     C       17.6642014   17.2218249   17.3905708
| 13>     C       17.4289006   18.5567582   17.4789556
| 14>     C       16.5748815   19.4040805   16.5599692
| 15>     N       18.0414372   19.3110366   18.4846512
| 16>     C       19.0302876   18.8495040   19.3119926
| 17>     S       19.8221602   19.8426545   20.3713236
| 18>     N       19.3402294   17.5176677   19.2066348
| 19>     C       18.5645938   16.5327626   18.4314674
| 20>     C       17.7896139   15.6431851   19.3968929
| 21>     C       18.2150582   14.3234607   19.6403513
| 22>     C       17.5049560   13.4955550   20.5260093
| 23>     C       16.3642513   13.9928252   21.1790180
| 24>     C       15.9448613   15.3101391   20.9485111
| 25>     O       14.8453995   15.7940851   21.5787397
| 26>     C       16.6517707   16.1310775   20.0645467
| 27>     H       14.4871662   15.3390718   16.2492879
| 28>     H       14.2235298   13.5882446   16.2973449
| 29>     H       15.1745932   14.2997257   14.9762625
| 30>     H       15.9998897   14.3837900   17.9330424
| 31>     H       16.5681182   13.1368987   16.8134029
| 32>     H       15.5567927   18.9993642   16.4959304
| 33>     H       16.9894381   19.4073365   15.5436378
| 34>     H       16.4941270   20.4467386   16.8887938
| 35>     H       17.8345786   20.2938860   18.5647890
| 36>     H       20.0557545   17.2003918   19.8478829
| 37>     H       19.2816673   15.9049706   17.8835844
| 38>     H       19.0967884   13.9360200   19.1363378
| 39>     H       17.8408979   12.4756884   20.7068946
| 40>     H       15.8138156   13.3577842   21.8656898
| 41>     H       14.5334854   15.1101469   22.1905541
| 42>     H       16.3152401   17.1502457   19.9085730
| 43> *
| 44>
| 45>                          ****END OF INPUT****

CARTESIAN COORDINATES (ANGSTROEM)
---------------------------------
  C     14.954664   14.366937   16.049367
  C     16.239615   14.181728   16.882796
  O     17.315002   15.041054   16.432962
  C     17.129888   16.384952   16.258108
  O     16.459345   16.820408   15.339123
  C     17.664201   17.221825   17.390571
  C     17.428901   18.556758   17.478956
  C     16.574882   19.404080   16.559969
  N     18.041437   19.311037   18.484651
  C     19.030288   18.849504   19.311993
  S     19.822160   19.842654   20.371324
  N     19.340229   17.517668   19.206635
  C     18.564594   16.532763   18.431467
  C     17.789614   15.643185   19.396893
  C     18.215058   14.323461   19.640351
  C     17.504956   13.495555   20.526009
  C     16.364251   13.992825   21.179018
  C     15.944861   15.310139   20.948511
  O     14.845399   15.794085   21.578740
  C     16.651771   16.131077   20.064547
  H     14.487166   15.339072   16.249288
  H     14.223530   13.588245   16.297345
  H     15.174593   14.299726   14.976263
  H     15.999890   14.383790   17.933042
  H     16.568118   13.136899   16.813403
  H     15.556793   18.999364   16.495930
  H     16.989438   19.407336   15.543638
  H     16.494127   20.446739   16.888794
  H     17.834579   20.293886   18.564789
  H     20.055754   17.200392   19.847883
  H     19.281667   15.904971   17.883584
  H     19.096788   13.936020   19.136338
  H     17.840898   12.475688   20.706895
  H     15.813816   13.357784   21.865690
  H     14.533485   15.110147   22.190554
  H     16.315240   17.150246   19.908573

 Total Charge           Charge          ....    0
 Multiplicity           Mult            ....    1
 Number of Electrons    NEL             ....  154
 Basis Dimension        Dim             ....  828

ORBITAL ENERGIES
----------------

  NO   OCC          E(Eh)            E(eV)
   0   2.0000     -91.890497     -2500.4675
   1   2.0000     -20.602048      -560.6102
   2   2.0000     -20.583184      -560.0969
   3   2.0000     -20.546085      -559.0874
   4   2.0000     -15.630971      -425.3403
   5   2.0000     -15.609577      -424.7582
   6   2.0000     -11.393854      -310.0425
   7   2.0000     -11.385206      -309.8072
   8   2.0000     -11.337480      -308.5085
   9   2.0000     -11.320018      -308.0334
  10   2.0000     -11.311328      -307.7969
  11   2.0000     -11.297103      -307.4098
  12   2.0000     -11.264175      -306.5138
  13   2.0000     -11.261127      -306.4308
  14   2.0000     -11.258920      -306.3708
  15   2.0000     -11.253446      -306.2218
  16   2.0000     -11.248859      -306.0970
  17   2.0000     -11.243464      -305.9502
  18   2.0000     -11.243011      -305.9379
  19   2.0000     -11.219220      -305.2905
  20   2.0000      -8.895536      -242.0598
  21   2.0000      -6.577104      -178.9721
  22   2.0000      -6.575106      -178.9177
  23   2.0000      -6.574513      -178.9016
  24   2.0000      -1.442900       -39.2633
  25   2.0000      -1.421725       -38.6871
  26   2.0000      -1.351910       -36.7873
  27   2.0000      -1.342091       -36.5202
  28   2.0000      -1.240546       -33.7570
  29   2.0000      -1.162515       -31.6337
  30   2.0000      -1.121363       -30.5138
  31   2.0000      -1.046287       -28.4709
  32   2.0000      -1.030458       -28.0402
  33   2.0000      -1.020781       -27.7769
  34   2.0000      -0.997726       -27.1495
  35   2.0000      -0.985673       -26.8215
  36   2.0000      -0.925383       -25.1809
  37   2.0000      -0.888695       -24.1826
  38   2.0000      -0.849502       -23.1161
  39   2.0000      -0.843207       -22.9448
  40   2.0000      -0.838924       -22.8283
  41   2.0000      -0.824845       -22.4452
  42   2.0000      -0.749005       -20.3815
  43   2.0000      -0.735092       -20.0029
  44   2.0000      -0.716893       -19.5077
  45   2.0000      -0.700703       -19.0671
  46   2.0000      -0.690939       -18.8014
  47   2.0000      -0.677797       -18.4438
  48   2.0000      -0.667213       -18.1558
  49   2.0000      -0.664254       -18.0753
  50   2.0000      -0.651511       -17.7285
  51   2.0000      -0.647568       -17.6212
  52   2.0000      -0.638689       -17.3796
  53   2.0000      -0.612481       -16.6665
  54   2.0000      -0.609335       -16.5808
  55   2.0000      -0.602092       -16.3838
  56   2.0000      -0.601532       -16.3685
  57   2.0000      -0.581800       -15.8316
  58   2.0000      -0.572533       -15.5794
  59   2.0000      -0.568719       -15.4756
  60   2.0000      -0.557914       -15.1816
  61   2.0000      -0.540621       -14.7110
  62   2.0000      -0.535230       -14.5643
  63   2.0000      -0.529205       -14.4004
  64   2.0000      -0.522762       -14.2251
  65   2.0000      -0.516077       -14.0432
  66   2.0000      -0.504813       -13.7366
  67   2.0000      -0.495652       -13.4874
  68   2.0000      -0.481871       -13.1124
  69   2.0000      -0.463337       -12.6081
  70   2.0000      -0.453269       -12.3341
  71   2.0000      -0.441804       -12.0221
  72   2.0000      -0.357216        -9.7203
  73   2.0000      -0.354566        -9.6482
  74   2.0000      -0.330801        -9.0015
  75   2.0000      -0.326932        -8.8963
  76   2.0000      -0.317645        -8.6436
  77   0.0000       0.070244         1.9114
  78   0.0000       0.100913         2.7460
  79   0.0000       0.122266         3.3270
  80   0.0000       0.128454         3.4954
  81   0.0000       0.132932         3.6173

MULLIKEN ATOMIC CHARGES
-----------------------
   0 C :   -0.277674
   1 C :    0.032017
   2 O :   -0.388754
   3 C :    0.491818
   4 O :   -0.405962
   5 C :   -0.268141
   6 C :    0.159393
   7 C :   -0.269376
   8 N :   -0.124872
   9 C :    0.213497
  10 S :   -0.437686
  11 N :   -0.202744
  12 C :    0.058005
  13 C :    0.023955
  14 C :   -0.169468
  15 C :   -0.131956
  16 C :   -0.275466
  17 C :    0.306471
  18 O :   -0.356359
  19 C :   -0.246928
  20 H :    0.096575
  21 H :    0.095657
  22 H :    0.111445
  23 H :    0.101915
  24 H :    0.105139
  25 H :    0.128163
  26 H :    0.135664
  27 H :    0.094850
  28 H :    0.198368
  29 H :    0.193405
  30 H :    0.151142
  31 H :    0.151855
  32 H :    0.163066
  33 H :    0.133464
  34 H :    0.241901
  35 H :    0.167620
Sum of atomic charges:    0.0000000

LOEWDIN ATOMIC CHARGES
----------------------
   0 C :    0.104366
   1 C :   -0.016704
   2 O :    0.281515
   3 C :   -0.415937
   4 O :    0.120661
   5 C :   -0.098732
   6 C :   -0.057889
   7 C :    0.131045
   8 N :    0.407029
   9 C :   -0.456347
  10 S :   -0.033405
  11 N :    0.396466
  12 C :   -0.053041
  13 C :   -0.039003
  14 C :    0.014544
  15 C :    0.041907
  16 C :   -0.001493
  17 C :   -0.190778
  18 O :    0.396668
  19 C :    0.029148
  20 H :   -0.029741
  21 H :   -0.028509
  22 H :   -0.022787
  23 H :   -0.033202
  24 H :   -0.023351
  25 H :   -0.005823
  26 H :   -0.002849
  27 H :   -0.023280
  28 H :   -0.057372
  29 H :   -0.065197
  30 H :   -0.007660
  31 H :   -0.029109
  32 H :   -0.019766
  33 H :   -0.034341
  34 H :   -0.152561
  35 H :   -0.024471

  Mayer bond orders larger than 0.100000
B(  0-C ,  1-C ) :   0.9818 B(  0-C , 20-H ) :   0.9735 B(  0-C , 21-H ) :   0.9748
B(  0-C , 22-H ) :   0.9757 B(  1-C ,  2-O ) :   0.8910 B(  1-C , 23-H ) :   0.9666
B(  1-C , 24-H ) :   0.9809 B(  2-O ,  3-C ) :   1.0907 B(  3-C ,  4-O ) :   2.0181
B(  3-C ,  5-C ) :   1.0640 B(  5-C ,  6-C ) :   1.6506 B(  5-C , 12-C ) :   0.9694
B(  6-C ,  7-C ) :   0.9687 B(  6-C ,  8-N ) :   1.1579 B(  7-C , 25-H ) :   0.9631
B(  7-C , 26-H ) :   0.9570 B(  7-C , 27-H ) :   0.9896 B(  8-N ,  9-C ) :   1.1805
B(  8-N , 28-H ) :   0.9478 B(  9-C , 10-S ) :   1.6097 B(  9-C , 11-N ) :   1.3051
B( 11-N , 12-C ) :   0.9711 B( 11-N , 29-H ) :   0.9533 B( 12-C , 13-C ) :   0.9439
B( 12-C , 30-H ) :   1.0013 B( 13-C , 14-C ) :   1.3539 B( 13-C , 19-C ) :   1.3762
B( 14-C , 15-C ) :   1.3907 B( 14-C , 31-H ) :   0.9727 B( 15-C , 16-C ) :   1.3644
B( 15-C , 32-H ) :   0.9701 B( 16-C , 17-C ) :   1.3285 B( 16-C , 33-H ) :   0.9840
B( 17-C , 18-O ) :   1.1147 B( 17-C , 19-C ) :   1.3746 B( 18-O , 34-H ) :   0.9788
B( 19-C , 35-H ) :   0.9575

MP2 TOTAL ENERGY:    -1274.332829726 Eh
FINAL SINGLE POINT ENERGY     -1274.332829725917

DIPOLE MOMENT
-------------
                                X             Y             Z
Electronic contribution:     10.52314       9.12345       6.96970
Nuclear contribution   :    -11.58310     -10.72511      -6.75245
                        -----------------------------------------
Total Dipole Moment    :     -1.05996      -1.60166       0.21725
                        -----------------------------------------
Magnitude (a.u.)       :      1.93288
Magnitude (Debye)      :      4.91299

Rotational constants in cm-1:     0.011934     0.009140     0.006412
Rotational constants in MHz :   357.757377   274.007895   192.229367

                             ****ORCA TERMINATED NORMALLY****
TOTAL RUN TIME: 0 days 2 hours 0 minutes 31 seconds 700 msec
