                         Program Version 4.2.0 -  RELEASE  -
|  1> ! ri-mp2 cc-pvtz cc-pvtz/c TightSCF  NoKeepInts
|  2>
|  3> %scf
|  4>   MaxCore 4096
|  5> end
|  6> *xyz  0  1
|  7>     C       14.6314187   14.3529853   16.6530275
|  8>     C       15.5536310   15.5793186   16.7409563
|  9>     O       16.7987142   15.2149108   16.1130630
| 10>     C       18.0183027   15.6153819   16.5960139
| 11>     O       18.9595785   14.8437299   16.5916225
| 12>     C       18.0393536   16.8648100   17.4194392
| 13>     C       17.5337936   18.0469397   16.9932368
| 14>     C       16.9293123   18.3551958   15.6397665
| 15>     N       17.6375406   19.1795280   17.8040403
| 16>     C       18.3253319   19.2315679   18.9885172
| 17>     S       18.4574987   20.6337883   19.8545360
| 18>     N       18.8962667   18.0602030   19.4217939
| 19>     C       18.7346699   16.7427574   18.7752674
| 20>     C       17.9748172   15.7714826   19.6741880
| 21>     C       18.4127514   14.4410562   19.8060638
| 22>     C       17.7036309   13.5288856   20.6050200
| 23>     C       16.5431552   13.9484812   21.2769703
| 24>     C       16.0996443   15.2708975   21.1438493
| 25>     O       14.9715056   15.6761548   21.7790227
| 26>     C       16.8073963   16.1770947   20.3478175
| 27>     H       15.0822790   13.4956851   17.1691829
| 28>     H       14.4569984   14.0732003   15.6065570
| 29>     H       13.6619920   14.5638295   17.1205628
| 30>     H       15.0900749   16.4336336   16.2343207
| 31>     H       15.6956667   15.8241100   17.8014716
| 32>     H       17.0476886   17.5278498   14.9295214
| 33>     H       17.4188577   19.2259261   15.1849242
| 34>     H       15.8592479   18.5798429   15.7239040
| 35>     H       17.2404506   20.0536006   17.4964827
| 36>     H       19.3806010   18.1238088   20.3084680
| 37>     H       19.7400140   16.3317673   18.5996749
| 38>     H       19.2991979   14.1075482   19.2703370
| 39>     H       18.0511935   12.5008885   20.6936514
| 40>     H       15.9907591   13.2455675   21.8918580
| 41>     H       14.6608347   14.9345778   22.3204806
| 42>     H       16.4428306   17.1949950   20.2583908
| 43> *
| 44>
| 45>                          ****END OF INPUT****

CARTESIAN COORDINATES (ANGSTROEM)
---------------------------------
  C     14.631419   14.352985   16.653028
  C     15.553631   15.579319   16.740956
  O     16.798714   15.214911   16.113063
  C     18.018303   15.615382   16.596014
  O     18.959578   14.843730   16.591622
  C     18.039354   16.864810   17.419439
  C     17.533794   18.046940   16.993237
  C     16.929312   18.355196   15.639767
  N     17.637541   19.179528   17.804040
  C     18.325332   19.231568   18.988517
  S     18.457499   20.633788   19.854536
  N     18.896267   18.060203   19.421794
  C     18.734670   16.742757   18.775267
  C     17.974817   15.771483   19.674188
  C     18.412751   14.441056   19.806064
  C     17.703631   13.528886   20.605020
  C     16.543155   13.948481   21.276970
  C     16.099644   15.270897   21.143849
  O     14.971506   15.676155   21.779023
  C     16.807396   16.177095   20.347817
  H     15.082279   13.495685   17.169183
  H     14.456998   14.073200   15.606557
  H     13.661992   14.563829   17.120563
  H     15.090075   16.433634   16.234321
  H     15.695667   15.824110   17.801472
  H     17.047689   17.527850   14.929521
  H     17.418858   19.225926   15.184924
  H     15.859248   18.579843   15.723904
  H     17.240451   20.053601   17.496483
  H     19.380601   18.123809   20.308468
  H     19.740014   16.331767   18.599675
  H     19.299198   14.107548   19.270337
  H     18.051193   12.500889   20.693651
  H     15.990759   13.245567   21.891858
  H     14.660835   14.934578   22.320481
  H     16.442831   17.194995   20.258391

 Total Charge           Charge          ....    0
 Multiplicity           Mult            ....    1
 Number of Electrons    NEL             ....  154
 Basis Dimension        Dim             ....  828

ORBITAL ENERGIES
----------------

  NO   OCC          E(Eh)            E(eV)
   0   2.0000     -91.890846     -2500.4770
   1   2.0000     -20.599915      -560.5522
   2   2.0000     -20.598928      -560.5253
   3   2.0000     -20.549954      -559.1927
   4   2.0000     -15.628734      -425.2795
   5   2.0000     -15.611671      -424.8152
   6   2.0000     -11.397175      -310.1329
   7   2.0000     -11.387334      -309.8651
   8   2.0000     -11.333239      -308.3931
   9   2.0000     -11.316825      -307.9465
  10   2.0000     -11.313632      -307.8596
  11   2.0000     -11.303416      -307.5816
  12   2.0000     -11.268223      -306.6239
  13   2.0000     -11.265107      -306.5391
  14   2.0000     -11.263289      -306.4897
  15   2.0000     -11.256639      -306.3087
  16   2.0000     -11.246012      -306.0195
  17   2.0000     -11.242352      -305.9200
  18   2.0000     -11.238904      -305.8261
  19   2.0000     -11.230770      -305.6048
  20   2.0000      -8.895948      -242.0711
  21   2.0000      -6.577532      -178.9838
  22   2.0000      -6.575511      -178.9287
  23   2.0000      -6.574931      -178.9130
  24   2.0000      -1.448305       -39.4104
  25   2.0000      -1.419729       -38.6328
  26   2.0000      -1.359863       -37.0038
  27   2.0000      -1.341579       -36.5062
  28   2.0000      -1.240737       -33.7622
  29   2.0000      -1.161305       -31.6007
  30   2.0000      -1.125529       -30.6272
  31   2.0000      -1.048794       -28.5391
  32   2.0000      -1.038898       -28.2699
  33   2.0000      -1.018894       -27.7255
  34   2.0000      -1.005432       -27.3592
  35   2.0000      -0.989550       -26.9270
  36   2.0000      -0.927963       -25.2512
  37   2.0000      -0.880113       -23.9491
  38   2.0000      -0.856430       -23.3047
  39   2.0000      -0.842827       -22.9345
  40   2.0000      -0.837162       -22.7803
  41   2.0000      -0.836381       -22.7591
  42   2.0000      -0.755969       -20.5710
  43   2.0000      -0.740239       -20.1429
  44   2.0000      -0.731657       -19.9094
  45   2.0000      -0.697839       -18.9892
  46   2.0000      -0.688509       -18.7353
  47   2.0000      -0.681360       -18.5407
  48   2.0000      -0.677500       -18.4357
  49   2.0000      -0.661916       -18.0116
  50   2.0000      -0.657589       -17.8939
  51   2.0000      -0.650400       -17.6983
  52   2.0000      -0.640947       -17.4411
  53   2.0000      -0.611595       -16.6423
  54   2.0000      -0.607974       -16.5438
  55   2.0000      -0.603739       -16.4286
  56   2.0000      -0.594746       -16.1839
  57   2.0000      -0.583896       -15.8886
  58   2.0000      -0.578188       -15.7333
  59   2.0000      -0.570617       -15.5273
  60   2.0000      -0.563774       -15.3411
  61   2.0000      -0.559839       -15.2340
  62   2.0000      -0.549038       -14.9401
  63   2.0000      -0.526646       -14.3308
  64   2.0000      -0.517300       -14.0765
  65   2.0000      -0.516149       -14.0451
  66   2.0000      -0.502730       -13.6800
  67   2.0000      -0.500746       -13.6260
  68   2.0000      -0.489915       -13.3313
  69   2.0000      -0.471592       -12.8327
  70   2.0000      -0.455661       -12.3992
  71   2.0000      -0.451149       -12.2764
  72   2.0000      -0.357857        -9.7378
  73   2.0000      -0.351961        -9.5774
  74   2.0000      -0.330395        -8.9905
  75   2.0000      -0.324439        -8.8284
  76   2.0000      -0.319404        -8.6914
  77   0.0000       0.080086         2.1792
  78   0.0000       0.103907         2.8274
  79   0.0000       0.115619         3.1462
  80   0.0000       0.128775         3.5041
  81   0.0000       0.133578         3.6348

MULLIKEN ATOMIC CHARGES
-----------------------
   0 C :   -0.255398
   1 C :    0.014398
   2 O :   -0.317163
   3 C :    0.413856
   4 O :   -0.383832
   5 C :   -0.223846
   6 C :    0.167609
   7 C :   -0.334210
   8 N :   -0.137271
   9 C :    0.201265
  10 S :   -0.439036
  11 N :   -0.212338
  12 C :    0.075682
  13 C :    0.028700
  14 C :   -0.194090
  15 C :   -0.131485
  16 C :   -0.275877
  17 C :    0.325200
  18 O :   -0.357944
  19 C :   -0.297727
  20 H :    0.107197
  21 H :    0.101191
  22 H :    0.088304
  23 H :    0.088469
  24 H :    0.109748
  25 H :    0.135540
  26 H :    0.137727
  27 H :    0.121002
  28 H :    0.197190
  29 H :    0.197935
  30 H :    0.163564
  31 H :    0.169298
  32 H :    0.164113
  33 H :    0.132336
  34 H :    0.241581
  35 H :    0.178312
Sum of atomic charges:   -0.0000000

LOEWDIN ATOMIC CHARGES
----------------------
   0 C :    0.111466
   1 C :   -0.022794
   2 O :    0.303143
   3 C :   -0.416149
   4 O :    0.123175
   5 C :   -0.085842
   6 C :   -0.092315
   7 C :    0.124330
   8 N :    0.402647
   9 C :   -0.457128
  10 S :   -0.036119
  11 N :    0.397156
  12 C :   -0.044916
  13 C :   -0.044516
  14 C :    0.022357
  15 C :    0.045252
  16 C :   -0.000095
  17 C :   -0.194348
  18 O :    0.394518
  19 C :    0.025943
  20 H :   -0.021678
  21 H :   -0.026240
  22 H :   -0.025756
  23 H :   -0.037480
  24 H :   -0.032853
  25 H :   -0.007532
  26 H :   -0.010480
  27 H :   -0.018383
  28 H :   -0.057012
  29 H :   -0.063505
  30 H :   -0.002515
  31 H :   -0.021685
  32 H :   -0.018496
  33 H :   -0.034631
  34 H :   -0.152913
  35 H :   -0.024602

  Mayer bond orders larger than 0.100000
B(  0-C ,  1-C ) :   0.9870 B(  0-C , 20-H ) :   0.9780 B(  0-C , 21-H ) :   0.9796
B(  0-C , 22-H ) :   0.9768 B(  1-C ,  2-O ) :   0.9015 B(  1-C , 23-H ) :   0.9738
B(  1-C , 24-H ) :   0.9600 B(  2-O ,  3-C ) :   1.1881 B(  3-C ,  4-O ) :   2.0877
B(  3-C ,  5-C ) :   0.9343 B(  5-C ,  6-C ) :   1.6705 B(  5-C , 12-C ) :   0.9557
B(  6-C ,  7-C ) :   0.9437 B(  6-C ,  8-N ) :   1.1267 B(  7-C , 25-H ) :   0.9771
B(  7-C , 26-H ) :   0.9706 B(  7-C , 27-H ) :   0.9663 B(  8-N ,  9-C ) :   1.1914
B(  8-N , 28-H ) :   0.9518 B(  9-C , 10-S ) :   1.6129 B(  9-C , 11-N ) :   1.2907
B( 11-N , 12-C ) :   0.9966 B( 11-N , 29-H ) :   0.9497 B( 12-C , 13-C ) :   0.9418
B( 12-C , 30-H ) :   0.9976 B( 13-C , 14-C ) :   1.3889 B( 13-C , 19-C ) :   1.3429
B( 14-C , 15-C ) :   1.3963 B( 14-C , 31-H ) :   0.9597 B( 15-C , 16-C ) :   1.3635
B( 15-C , 32-H ) :   0.9698 B( 16-C , 17-C ) :   1.3303 B( 16-C , 33-H ) :   0.9843
B( 17-C , 18-O ) :   1.1105 B( 17-C , 19-C ) :   1.3633 B( 18-O , 34-H ) :   0.9793
B( 19-C , 35-H ) :   0.9581

MP2 TOTAL ENERGY:    -1274.336424383 Eh
FINAL SINGLE POINT ENERGY     -1274.336424383051

DIPOLE MOMENT
-------------
                                X             Y             Z
Electronic contribution:     10.67934       8.48610       7.05637
Nuclear contribution   :    -12.18108      -9.45352      -7.41615
                        -----------------------------------------
Total Dipole Moment    :     -1.50174      -0.96743      -0.35978
                        -----------------------------------------
Magnitude (a.u.)       :      1.82225
Magnitude (Debye)      :      4.63178

Rotational constants in cm-1:     0.011779     0.009141     0.006725
Rotational constants in MHz :   353.130989   274.052492   201.606849

                             ****ORCA TERMINATED NORMALLY****
TOTAL RUN TIME: 0 days 1 hours 45 minutes 51 seconds 603 msec
