                         Program Version 4.2.0 -  RELEASE  -
|  1> ! ri-mp2 cc-pvtz cc-pvtz/c TightSCF  NoKeepInts
|  2>
|  3> %scf
|  4>   MaxCore 4096
|  5> end
|  6> *xyz  0  1
|  7>     C       14.3167089   14.7923877   16.4490127
|  8>     C       15.4649544   15.6029886   17.0710547
|  9>     O       16.6697486   15.2283915   16.3771520
| 10>     C       17.8554982   15.9176998   16.4357055
| 11>     O       18.8793123   15.3618729   16.0844317
| 12>     C       17.9115045   17.0254868   17.4339434
| 13>     C       17.3474480   18.2327884   17.2038454
| 14>     C       16.6061201   18.6669162   15.9572316
| 15>     N       17.4960452   19.2589517   18.1389594
| 16>     C       18.2757816   19.1798287   19.2640114
| 17>     S       18.4439417   20.4617018   20.2946533
| 18>     N       18.9079548   17.9820473   19.4953579
| 19>     C       18.7377477   16.7555609   18.6899326
| 20>     C       18.1205322   15.6241796   19.5065526
| 21>     C       18.5721574   14.3036743   19.3288007
| 22>     C       17.9949478   13.2454935   20.0499674
| 23>     C       16.9539020   13.5079279   20.9563451
| 24>     C       16.4961828   14.8204680   21.1321132
| 25>     O       15.4806437   15.0756238   21.9945560
| 26>     C       17.0715418   15.8724029   20.4120757
| 27>     H       13.3660932   15.0269805   16.9431716
| 28>     H       14.5034457   13.7164407   16.5574964
| 29>     H       14.2158862   15.0189127   15.3802652
| 30>     H       15.2357111   16.6661367   16.9528020
| 31>     H       15.5519326   15.3753145   18.1412584
| 32>     H       15.5843107   18.9878724   16.1948115
| 33>     H       16.5375113   17.8680528   15.2085903
| 34>     H       17.1206395   19.5087085   15.4760581
| 35>     H       17.0576816   20.1523779   17.9778574
| 36>     H       19.4629413   17.9487055   20.3413669
| 37>     H       19.7372189   16.4307052   18.3641581
| 38>     H       19.3649500   14.0947388   18.6131448
| 39>     H       18.3510854   12.2278057   19.8984522
| 40>     H       16.5033972   12.6924404   21.5125628
| 41>     H       15.2564296   14.2414786   22.4345267
| 42>     H       16.6950920   16.8789370   20.5617754
| 43> *
| 44>
| 45>                          ****END OF INPUT****

CARTESIAN COORDINATES (ANGSTROEM)
---------------------------------
  C     14.316709   14.792388   16.449013
  C     15.464954   15.602989   17.071055
  O     16.669749   15.228392   16.377152
  C     17.855498   15.917700   16.435706
  O     18.879312   15.361873   16.084432
  C     17.911504   17.025487   17.433943
  C     17.347448   18.232788   17.203845
  C     16.606120   18.666916   15.957232
  N     17.496045   19.258952   18.138959
  C     18.275782   19.179829   19.264011
  S     18.443942   20.461702   20.294653
  N     18.907955   17.982047   19.495358
  C     18.737748   16.755561   18.689933
  C     18.120532   15.624180   19.506553
  C     18.572157   14.303674   19.328801
  C     17.994948   13.245493   20.049967
  C     16.953902   13.507928   20.956345
  C     16.496183   14.820468   21.132113
  O     15.480644   15.075624   21.994556
  C     17.071542   15.872403   20.412076
  H     13.366093   15.026980   16.943172
  H     14.503446   13.716441   16.557496
  H     14.215886   15.018913   15.380265
  H     15.235711   16.666137   16.952802
  H     15.551933   15.375314   18.141258
  H     15.584311   18.987872   16.194812
  H     16.537511   17.868053   15.208590
  H     17.120639   19.508709   15.476058
  H     17.057682   20.152378   17.977857
  H     19.462941   17.948705   20.341367
  H     19.737219   16.430705   18.364158
  H     19.364950   14.094739   18.613145
  H     18.351085   12.227806   19.898452
  H     16.503397   12.692440   21.512563
  H     15.256430   14.241479   22.434527
  H     16.695092   16.878937   20.561775

 Total Charge           Charge          ....    0
 Multiplicity           Mult            ....    1
 Number of Electrons    NEL             ....  154
 Basis Dimension        Dim             ....  828

ORBITAL ENERGIES
----------------

  NO   OCC          E(Eh)            E(eV)
   0   2.0000     -91.889780     -2500.4480
   1   2.0000     -20.601422      -560.5932
   2   2.0000     -20.600130      -560.5580
   3   2.0000     -20.551431      -559.2329
   4   2.0000     -15.626092      -425.2076
   5   2.0000     -15.611864      -424.8204
   6   2.0000     -11.397887      -310.1523
   7   2.0000     -11.386741      -309.8490
   8   2.0000     -11.327723      -308.2430
   9   2.0000     -11.317086      -307.9536
  10   2.0000     -11.316132      -307.9276
  11   2.0000     -11.302015      -307.5435
  12   2.0000     -11.270880      -306.6962
  13   2.0000     -11.264988      -306.5359
  14   2.0000     -11.264225      -306.5152
  15   2.0000     -11.257302      -306.3268
  16   2.0000     -11.246421      -306.0307
  17   2.0000     -11.242311      -305.9188
  18   2.0000     -11.239569      -305.8442
  19   2.0000     -11.233024      -305.6661
  20   2.0000      -8.894903      -242.0426
  21   2.0000      -6.576494      -178.9555
  22   2.0000      -6.574465      -178.9003
  23   2.0000      -6.573892      -178.8847
  24   2.0000      -1.449459       -39.4418
  25   2.0000      -1.419969       -38.6393
  26   2.0000      -1.360281       -37.0151
  27   2.0000      -1.339794       -36.4577
  28   2.0000      -1.239883       -33.7389
  29   2.0000      -1.161744       -31.6127
  30   2.0000      -1.125986       -30.6396
  31   2.0000      -1.049615       -28.5615
  32   2.0000      -1.040542       -28.3146
  33   2.0000      -1.019456       -27.7408
  34   2.0000      -1.005573       -27.3630
  35   2.0000      -0.989496       -26.9255
  36   2.0000      -0.928298       -25.2603
  37   2.0000      -0.881067       -23.9750
  38   2.0000      -0.855663       -23.2838
  39   2.0000      -0.842100       -22.9147
  40   2.0000      -0.837631       -22.7931
  41   2.0000      -0.836827       -22.7712
  42   2.0000      -0.757418       -20.6104
  43   2.0000      -0.739520       -20.1234
  44   2.0000      -0.732348       -19.9282
  45   2.0000      -0.697638       -18.9837
  46   2.0000      -0.688511       -18.7353
  47   2.0000      -0.681016       -18.5314
  48   2.0000      -0.677774       -18.4432
  49   2.0000      -0.665703       -18.1147
  50   2.0000      -0.654360       -17.8060
  51   2.0000      -0.651329       -17.7236
  52   2.0000      -0.639686       -17.4067
  53   2.0000      -0.612582       -16.6692
  54   2.0000      -0.608166       -16.5490
  55   2.0000      -0.604029       -16.4365
  56   2.0000      -0.595403       -16.2018
  57   2.0000      -0.585540       -15.9333
  58   2.0000      -0.578161       -15.7326
  59   2.0000      -0.571356       -15.5474
  60   2.0000      -0.564240       -15.3537
  61   2.0000      -0.559341       -15.2205
  62   2.0000      -0.550712       -14.9856
  63   2.0000      -0.527020       -14.3410
  64   2.0000      -0.522081       -14.2065
  65   2.0000      -0.515285       -14.0216
  66   2.0000      -0.506013       -13.7693
  67   2.0000      -0.502715       -13.6796
  68   2.0000      -0.488196       -13.2845
  69   2.0000      -0.469461       -12.7747
  70   2.0000      -0.453686       -12.3454
  71   2.0000      -0.450599       -12.2614
  72   2.0000      -0.357264        -9.7216
  73   2.0000      -0.351885        -9.5753
  74   2.0000      -0.329526        -8.9668
  75   2.0000      -0.325011        -8.8440
  76   2.0000      -0.318370        -8.6633
  77   0.0000       0.088287         2.4024
  78   0.0000       0.104569         2.8455
  79   0.0000       0.111253         3.0273
  80   0.0000       0.127916         3.4808
  81   0.0000       0.129885         3.5343

MULLIKEN ATOMIC CHARGES
-----------------------
   0 C :   -0.258609
   1 C :    0.018875
   2 O :   -0.304531
   3 C :    0.385826
   4 O :   -0.379917
   5 C :   -0.165157
   6 C :    0.124492
   7 C :   -0.323066
   8 N :   -0.136937
   9 C :    0.205534
  10 S :   -0.441765
  11 N :   -0.219721
  12 C :    0.071208
  13 C :    0.020162
  14 C :   -0.194636
  15 C :   -0.133466
  16 C :   -0.273832
  17 C :    0.322569
  18 O :   -0.358761
  19 C :   -0.282970
  20 H :    0.089025
  21 H :    0.106864
  22 H :    0.097277
  23 H :    0.083699
  24 H :    0.119027
  25 H :    0.118275
  26 H :    0.121005
  27 H :    0.143912
  28 H :    0.195169
  29 H :    0.200035
  30 H :    0.165886
  31 H :    0.168347
  32 H :    0.164092
  33 H :    0.132873
  34 H :    0.241557
  35 H :    0.177659
Sum of atomic charges:   -0.0000000

LOEWDIN ATOMIC CHARGES
----------------------
   0 C :    0.110815
   1 C :   -0.023742
   2 O :    0.310536
   3 C :   -0.417199
   4 O :    0.125688
   5 C :   -0.079672
   6 C :   -0.107714
   7 C :    0.122481
   8 N :    0.400942
   9 C :   -0.455474
  10 S :   -0.038418
  11 N :    0.397429
  12 C :   -0.043340
  13 C :   -0.043472
  14 C :    0.022890
  15 C :    0.046052
  16 C :   -0.000428
  17 C :   -0.194806
  18 O :    0.395025
  19 C :    0.026311
  20 H :   -0.025343
  21 H :   -0.023321
  22 H :   -0.026928
  23 H :   -0.038504
  24 H :   -0.029274
  25 H :   -0.017416
  26 H :   -0.009163
  27 H :   -0.008611
  28 H :   -0.058057
  29 H :   -0.063748
  30 H :   -0.002052
  31 H :   -0.021602
  32 H :   -0.018152
  33 H :   -0.034520
  34 H :   -0.152855
  35 H :   -0.024358

  Mayer bond orders larger than 0.100000
B(  0-C ,  1-C ) :   0.9847 B(  0-C , 20-H ) :   0.9770 B(  0-C , 21-H ) :   0.9792
B(  0-C , 22-H ) :   0.9783 B(  1-C ,  2-O ) :   0.9112 B(  1-C , 23-H ) :   0.9692
B(  1-C , 24-H ) :   0.9636 B(  2-O ,  3-C ) :   1.1797 B(  3-C ,  4-O ) :   2.0954
B(  3-C ,  5-C ) :   0.9170 B(  5-C ,  6-C ) :   1.6972 B(  5-C , 12-C ) :   0.9619
B(  6-C ,  7-C ) :   0.9428 B(  6-C ,  8-N ) :   1.1130 B(  7-C , 25-H ) :   0.9682
B(  7-C , 26-H ) :   0.9823 B(  7-C , 27-H ) :   0.9665 B(  8-N ,  9-C ) :   1.1982
B(  8-N , 28-H ) :   0.9528 B(  9-C , 10-S ) :   1.6095 B(  9-C , 11-N ) :   1.2864
B( 11-N , 12-C ) :   0.9933 B( 11-N , 29-H ) :   0.9480 B( 12-C , 13-C ) :   0.9434
B( 12-C , 30-H ) :   0.9974 B( 13-C , 14-C ) :   1.3871 B( 13-C , 19-C ) :   1.3450
B( 14-C , 15-C ) :   1.3978 B( 14-C , 31-H ) :   0.9615 B( 15-C , 16-C ) :   1.3629
B( 15-C , 32-H ) :   0.9698 B( 16-C , 17-C ) :   1.3295 B( 16-C , 33-H ) :   0.9843
B( 17-C , 18-O ) :   1.1084 B( 17-C , 19-C ) :   1.3638 B( 18-O , 34-H ) :   0.9791
B( 19-C , 35-H ) :   0.9588

MP2 TOTAL ENERGY:    -1274.330592650 Eh
FINAL SINGLE POINT ENERGY     -1274.330592649927

DIPOLE MOMENT
-------------
                                X             Y             Z
Electronic contribution:     11.49679       7.28065       7.60564
Nuclear contribution   :    -13.07509      -8.32737      -7.99464
                        -----------------------------------------
Total Dipole Moment    :     -1.57830      -1.04673      -0.38900
                        -----------------------------------------
Magnitude (a.u.)       :      1.93339
Magnitude (Debye)      :      4.91428

Rotational constants in cm-1:     0.011707     0.009111     0.006702
Rotational constants in MHz :   350.967477   273.139726   200.915432

                             ****ORCA TERMINATED NORMALLY****
TOTAL RUN TIME: 0 days 1 hours 56 minutes 59 seconds 58 msec
