                         Program Version 4.2.0 -  RELEASE  -
|  1> ! ri-mp2 cc-pvtz cc-pvtz/c TightSCF  NoKeepInts
|  2>
|  3> %scf
|  4>   MaxCore 4096
|  5> end
|  6> *xyz  0  1
|  7>     C       14.3651107   14.6736722   16.5573161
|  8>     C       15.4636026   15.6287108   17.0507734
|  9>     O       16.6988857   15.1956567   16.4534546
| 10>     C       17.8496533   15.9419964   16.4209215
| 11>     O       18.8788463   15.4138284   16.0439582
| 12>     C       17.9103280   17.0455265   17.4229927
| 13>     C       17.3588408   18.2580729   17.1919765
| 14>     C       16.6283452   18.7009080   15.9423550
| 15>     N       17.5082212   19.2798872   18.1317188
| 16>     C       18.2768979   19.1901546   19.2635614
| 17>     S       18.4458913   20.4668361   20.3005185
| 18>     N       18.8969724   17.9863475   19.4963625
| 19>     C       18.7248105   16.7641759   18.6847215
| 20>     C       18.1010028   15.6306890   19.4937862
| 21>     C       18.5400100   14.3080568   19.3005115
| 22>     C       17.9581297   13.2478278   20.0148518
| 23>     C       16.9252870   13.5103299   20.9305009
| 24>     C       16.4805260   14.8250701   21.1223162
| 25>     O       15.4731212   15.0805094   21.9942078
| 26>     C       17.0607991   15.8791679   20.4094196
| 27>     H       13.3922385   14.9516851   16.9804791
| 28>     H       14.5889445   13.6427460   16.8596466
| 29>     H       14.2875628   14.7031293   15.4632854
| 30>     H       15.2003696   16.6441907   16.7388001
| 31>     H       15.5292237   15.5967608   18.1456978
| 32>     H       15.5950147   18.9913221   16.1691514
| 33>     H       16.5945495   17.9177417   15.1750030
| 34>     H       17.1292665   19.5658362   15.4885626
| 35>     H       17.0780891   20.1772659   17.9704883
| 36>     H       19.4440217   17.9453737   20.3471826
| 37>     H       19.7248540   16.4366708   18.3634393
| 38>     H       19.3259868   14.0992609   18.5773778
| 39>     H       18.3040590   12.2286306   19.8506258
| 40>     H       16.4709969   12.6933302   21.4813347
| 41>     H       15.2425219   14.2433411   22.4249715
| 42>     H       16.6940191   16.8872908   20.5717294
| 43> *
| 44>
| 45>                          ****END OF INPUT****

CARTESIAN COORDINATES (ANGSTROEM)
---------------------------------
  C     14.365111   14.673672   16.557316
  C     15.463603   15.628711   17.050773
  O     16.698886   15.195657   16.453455
  C     17.849653   15.941996   16.420921
  O     18.878846   15.413828   16.043958
  C     17.910328   17.045527   17.422993
  C     17.358841   18.258073   17.191976
  C     16.628345   18.700908   15.942355
  N     17.508221   19.279887   18.131719
  C     18.276898   19.190155   19.263561
  S     18.445891   20.466836   20.300518
  N     18.896972   17.986348   19.496362
  C     18.724810   16.764176   18.684721
  C     18.101003   15.630689   19.493786
  C     18.540010   14.308057   19.300511
  C     17.958130   13.247828   20.014852
  C     16.925287   13.510330   20.930501
  C     16.480526   14.825070   21.122316
  O     15.473121   15.080509   21.994208
  C     17.060799   15.879168   20.409420
  H     13.392238   14.951685   16.980479
  H     14.588945   13.642746   16.859647
  H     14.287563   14.703129   15.463285
  H     15.200370   16.644191   16.738800
  H     15.529224   15.596761   18.145698
  H     15.595015   18.991322   16.169151
  H     16.594549   17.917742   15.175003
  H     17.129266   19.565836   15.488563
  H     17.078089   20.177266   17.970488
  H     19.444022   17.945374   20.347183
  H     19.724854   16.436671   18.363439
  H     19.325987   14.099261   18.577378
  H     18.304059   12.228631   19.850626
  H     16.470997   12.693330   21.481335
  H     15.242522   14.243341   22.424971
  H     16.694019   16.887291   20.571729

 Total Charge           Charge          ....    0
 Multiplicity           Mult            ....    1
 Number of Electrons    NEL             ....  154
 Basis Dimension        Dim             ....  828

ORBITAL ENERGIES
----------------

  NO   OCC          E(Eh)            E(eV)
   0   2.0000     -91.889305     -2500.4351
   1   2.0000     -20.601966      -560.6080
   2   2.0000     -20.599820      -560.5496
   3   2.0000     -20.552556      -559.2635
   4   2.0000     -15.625162      -425.1823
   5   2.0000     -15.611699      -424.8159
   6   2.0000     -11.397665      -310.1462
   7   2.0000     -11.386315      -309.8374
   8   2.0000     -11.326305      -308.2044
   9   2.0000     -11.316733      -307.9439
  10   2.0000     -11.316581      -307.9398
  11   2.0000     -11.302057      -307.5446
  12   2.0000     -11.271056      -306.7010
  13   2.0000     -11.265136      -306.5399
  14   2.0000     -11.264069      -306.5109
  15   2.0000     -11.256877      -306.3152
  16   2.0000     -11.245989      -306.0189
  17   2.0000     -11.242031      -305.9112
  18   2.0000     -11.239188      -305.8338
  19   2.0000     -11.232824      -305.6607
  20   2.0000      -8.894434      -242.0299
  21   2.0000      -6.576027      -178.9428
  22   2.0000      -6.573996      -178.8875
  23   2.0000      -6.573425      -178.8720
  24   2.0000      -1.450861       -39.4799
  25   2.0000      -1.419654       -38.6307
  26   2.0000      -1.361020       -37.0352
  27   2.0000      -1.339189       -36.4412
  28   2.0000      -1.239494       -33.7283
  29   2.0000      -1.161315       -31.6010
  30   2.0000      -1.125614       -30.6295
  31   2.0000      -1.049340       -28.5540
  32   2.0000      -1.040577       -28.3155
  33   2.0000      -1.019150       -27.7325
  34   2.0000      -1.005318       -27.3561
  35   2.0000      -0.989092       -26.9146
  36   2.0000      -0.928071       -25.2541
  37   2.0000      -0.881083       -23.9755
  38   2.0000      -0.855500       -23.2793
  39   2.0000      -0.841688       -22.9035
  40   2.0000      -0.837393       -22.7866
  41   2.0000      -0.836593       -22.7649
  42   2.0000      -0.757491       -20.6124
  43   2.0000      -0.739096       -20.1118
  44   2.0000      -0.732022       -19.9193
  45   2.0000      -0.697474       -18.9792
  46   2.0000      -0.688377       -18.7317
  47   2.0000      -0.681093       -18.5335
  48   2.0000      -0.677963       -18.4483
  49   2.0000      -0.665278       -18.1031
  50   2.0000      -0.655364       -17.8334
  51   2.0000      -0.651396       -17.7254
  52   2.0000      -0.639510       -17.4019
  53   2.0000      -0.612547       -16.6682
  54   2.0000      -0.608035       -16.5455
  55   2.0000      -0.603643       -16.4260
  56   2.0000      -0.595154       -16.1950
  57   2.0000      -0.584030       -15.8923
  58   2.0000      -0.577217       -15.7069
  59   2.0000      -0.572458       -15.5774
  60   2.0000      -0.564588       -15.3632
  61   2.0000      -0.559462       -15.2237
  62   2.0000      -0.551453       -15.0058
  63   2.0000      -0.526703       -14.3323
  64   2.0000      -0.520379       -14.1602
  65   2.0000      -0.514871       -14.0104
  66   2.0000      -0.507585       -13.8121
  67   2.0000      -0.502416       -13.6714
  68   2.0000      -0.487448       -13.2641
  69   2.0000      -0.468987       -12.7618
  70   2.0000      -0.453612       -12.3434
  71   2.0000      -0.451383       -12.2828
  72   2.0000      -0.356883        -9.7113
  73   2.0000      -0.351473        -9.5641
  74   2.0000      -0.329099        -8.9552
  75   2.0000      -0.324431        -8.8282
  76   2.0000      -0.317971        -8.6524
  77   0.0000       0.090370         2.4591
  78   0.0000       0.104026         2.8307
  79   0.0000       0.110223         2.9993
  80   0.0000       0.128243         3.4897
  81   0.0000       0.130038         3.5385

MULLIKEN ATOMIC CHARGES
-----------------------
   0 C :   -0.260198
   1 C :    0.021756
   2 O :   -0.301661
   3 C :    0.382856
   4 O :   -0.377497
   5 C :   -0.159282
   6 C :    0.127748
   7 C :   -0.326169
   8 N :   -0.139782
   9 C :    0.207042
  10 S :   -0.442726
  11 N :   -0.221351
  12 C :    0.070612
  13 C :    0.024735
  14 C :   -0.193194
  15 C :   -0.133081
  16 C :   -0.274278
  17 C :    0.324413
  18 O :   -0.358377
  19 C :   -0.288422
  20 H :    0.088466
  21 H :    0.106768
  22 H :    0.099149
  23 H :    0.080698
  24 H :    0.114309
  25 H :    0.119621
  26 H :    0.118987
  27 H :    0.142905
  28 H :    0.194915
  29 H :    0.200656
  30 H :    0.166422
  31 H :    0.166385
  32 H :    0.163806
  33 H :    0.132609
  34 H :    0.241479
  35 H :    0.179679
Sum of atomic charges:   -0.0000000

LOEWDIN ATOMIC CHARGES
----------------------
   0 C :    0.111187
   1 C :   -0.025453
   2 O :    0.314077
   3 C :   -0.418481
   4 O :    0.127647
   5 C :   -0.078343
   6 C :   -0.109357
   7 C :    0.121677
   8 N :    0.400503
   9 C :   -0.455347
  10 S :   -0.039242
  11 N :    0.397502
  12 C :   -0.042700
  13 C :   -0.042736
  14 C :    0.023815
  15 C :    0.046172
  16 C :   -0.000404
  17 C :   -0.194558
  18 O :    0.394944
  19 C :    0.026055
  20 H :   -0.025539
  21 H :   -0.023361
  22 H :   -0.026163
  23 H :   -0.038211
  24 H :   -0.031059
  25 H :   -0.017509
  26 H :   -0.009999
  27 H :   -0.008833
  28 H :   -0.058396
  29 H :   -0.063744
  30 H :   -0.002014
  31 H :   -0.021740
  32 H :   -0.018267
  33 H :   -0.034624
  34 H :   -0.152931
  35 H :   -0.024568

  Mayer bond orders larger than 0.100000
B(  0-C ,  1-C ) :   0.9851 B(  0-C , 20-H ) :   0.9769 B(  0-C , 21-H ) :   0.9796
B(  0-C , 22-H ) :   0.9783 B(  1-C ,  2-O ) :   0.9147 B(  1-C , 23-H ) :   0.9722
B(  1-C , 24-H ) :   0.9599 B(  2-O ,  3-C ) :   1.1677 B(  3-C ,  4-O ) :   2.0951
B(  3-C ,  5-C ) :   0.9187 B(  5-C ,  6-C ) :   1.6982 B(  5-C , 12-C ) :   0.9622
B(  6-C ,  7-C ) :   0.9430 B(  6-C ,  8-N ) :   1.1129 B(  7-C , 25-H ) :   0.9680
B(  7-C , 26-H ) :   0.9831 B(  7-C , 27-H ) :   0.9668 B(  8-N ,  9-C ) :   1.2003
B(  8-N , 28-H ) :   0.9534 B(  9-C , 10-S ) :   1.6081 B(  9-C , 11-N ) :   1.2853
B( 11-N , 12-C ) :   0.9922 B( 11-N , 29-H ) :   0.9475 B( 12-C , 13-C ) :   0.9444
B( 12-C , 30-H ) :   0.9975 B( 13-C , 14-C ) :   1.3865 B( 13-C , 19-C ) :   1.3422
B( 14-C , 15-C ) :   1.3983 B( 14-C , 31-H ) :   0.9625 B( 15-C , 16-C ) :   1.3621
B( 15-C , 32-H ) :   0.9698 B( 16-C , 17-C ) :   1.3307 B( 16-C , 33-H ) :   0.9844
B( 17-C , 18-O ) :   1.1082 B( 17-C , 19-C ) :   1.3619 B( 18-O , 34-H ) :   0.9793
B( 19-C , 35-H ) :   0.9584

MP2 TOTAL ENERGY:    -1274.328277841 Eh
FINAL SINGLE POINT ENERGY     -1274.328277840842

DIPOLE MOMENT
-------------
                                X             Y             Z
Electronic contribution:     11.39314       7.44611       7.48042
Nuclear contribution   :    -12.99497      -8.50686      -7.93258
                        -----------------------------------------
Total Dipole Moment    :     -1.60183      -1.06076      -0.45217
                        -----------------------------------------
Magnitude (a.u.)       :      1.97370
Magnitude (Debye)      :      5.01676

Rotational constants in cm-1:     0.011878     0.009076     0.006693
Rotational constants in MHz :   356.094194   272.090499   200.642898

                             ****ORCA TERMINATED NORMALLY****
TOTAL RUN TIME: 0 days 2 hours 20 minutes 7 seconds 560 msec
