                         Program Version 4.2.0 -  RELEASE  -
|  1> ! ri-mp2 cc-pvtz cc-pvtz/c TightSCF  NoKeepInts
|  2>
|  3> %scf
|  4>   MaxCore 4096
|  5> end
|  6> *xyz  0  1
|  7>     C       16.1584640   13.1631710   15.7074792
|  8>     C       15.4954902   14.4806265   16.1428546
|  9>     O       16.5300488   15.3216895   16.6795856
| 10>     C       16.3716852   16.6794937   16.6727573
| 11>     O       15.4724809   17.2295565   16.0595468
| 12>     C       17.3658700   17.3832388   17.5548329
| 13>     C       17.4260453   18.7358378   17.6497514
| 14>     C       16.5538108   19.7446306   16.9335455
| 15>     N       18.3984936   19.3397655   18.4525294
| 16>     C       19.4050984   18.6736884   19.0992569
| 17>     S       20.5767139   19.4725079   19.9507866
| 18>     N       19.3945205   17.3055959   19.0025955
| 19>     C       18.3252816   16.5064118   18.3764396
| 20>     C       17.5878220   15.7035394   19.4445415
| 21>     C       17.6629742   14.2979841   19.4595164
| 22>     C       16.9824633   13.5558076   20.4394019
| 23>     C       16.2229280   14.2242201   21.4147431
| 24>     C       16.1492101   15.6239183   21.4053074
| 25>     O       15.4172036   16.2721141   22.3460875
| 26>     C       16.8270181   16.3597582   20.4284517
| 27>     H       16.6272771   12.6652838   16.5652407
| 28>     H       16.9291193   13.3499646   14.9492546
| 29>     H       15.4135019   12.4814899   15.2793582
| 30>     H       15.0287253   14.9429651   15.2621436
| 31>     H       14.7185785   14.2996393   16.8972553
| 32>     H       15.5010673   19.6098917   17.2133473
| 33>     H       16.6226459   19.6121645   15.8463332
| 34>     H       16.8255729   20.7827653   17.1576399
| 35>     H       18.4225814   20.3436812   18.5339113
| 36>     H       20.1274364   16.8402052   19.5222893
| 37>     H       18.8084147   15.8021887   17.6845811
| 38>     H       18.2445709   13.7787478   18.7025629
| 39>     H       17.0445836   12.4690421   20.4408260
| 40>     H       15.6958078   13.6556447   22.1737497
| 41>     H       15.0509512   15.6023586   22.9427647
| 42>     H       16.7625432   17.4424119   20.4427314
| 43> *
| 44>
| 45>                          ****END OF INPUT****

CARTESIAN COORDINATES (ANGSTROEM)
---------------------------------
  C     16.158464   13.163171   15.707479
  C     15.495490   14.480626   16.142855
  O     16.530049   15.321689   16.679586
  C     16.371685   16.679494   16.672757
  O     15.472481   17.229556   16.059547
  C     17.365870   17.383239   17.554833
  C     17.426045   18.735838   17.649751
  C     16.553811   19.744631   16.933546
  N     18.398494   19.339765   18.452529
  C     19.405098   18.673688   19.099257
  S     20.576714   19.472508   19.950787
  N     19.394520   17.305596   19.002596
  C     18.325282   16.506412   18.376440
  C     17.587822   15.703539   19.444541
  C     17.662974   14.297984   19.459516
  C     16.982463   13.555808   20.439402
  C     16.222928   14.224220   21.414743
  C     16.149210   15.623918   21.405307
  O     15.417204   16.272114   22.346087
  C     16.827018   16.359758   20.428452
  H     16.627277   12.665284   16.565241
  H     16.929119   13.349965   14.949255
  H     15.413502   12.481490   15.279358
  H     15.028725   14.942965   15.262144
  H     14.718578   14.299639   16.897255
  H     15.501067   19.609892   17.213347
  H     16.622646   19.612164   15.846333
  H     16.825573   20.782765   17.157640
  H     18.422581   20.343681   18.533911
  H     20.127436   16.840205   19.522289
  H     18.808415   15.802189   17.684581
  H     18.244571   13.778748   18.702563
  H     17.044584   12.469042   20.440826
  H     15.695808   13.655645   22.173750
  H     15.050951   15.602359   22.942765
  H     16.762543   17.442412   20.442731

 Total Charge           Charge          ....    0
 Multiplicity           Mult            ....    1
 Number of Electrons    NEL             ....  154
 Basis Dimension        Dim             ....  828

ORBITAL ENERGIES
----------------

  NO   OCC          E(Eh)            E(eV)
   0   2.0000     -91.888747     -2500.4199
   1   2.0000     -20.602222      -560.6150
   2   2.0000     -20.595783      -560.4397
   3   2.0000     -20.541452      -558.9613
   4   2.0000     -15.628886      -425.2836
   5   2.0000     -15.608093      -424.7178
   6   2.0000     -11.394587      -310.0625
   7   2.0000     -11.383841      -309.7701
   8   2.0000     -11.335734      -308.4610
   9   2.0000     -11.312912      -307.8400
  10   2.0000     -11.308777      -307.7275
  11   2.0000     -11.295658      -307.3705
  12   2.0000     -11.258918      -306.3707
  13   2.0000     -11.258702      -306.3648
  14   2.0000     -11.254439      -306.2489
  15   2.0000     -11.251750      -306.1757
  16   2.0000     -11.242315      -305.9189
  17   2.0000     -11.237816      -305.7965
  18   2.0000     -11.237554      -305.7894
  19   2.0000     -11.231515      -305.6251
  20   2.0000      -8.893808      -242.0128
  21   2.0000      -6.575382      -178.9252
  22   2.0000      -6.573378      -178.8707
  23   2.0000      -6.572791      -178.8547
  24   2.0000      -1.452063       -39.5127
  25   2.0000      -1.415440       -38.5161
  26   2.0000      -1.354925       -36.8694
  27   2.0000      -1.339844       -36.4590
  28   2.0000      -1.238284       -33.6954
  29   2.0000      -1.156966       -31.4826
  30   2.0000      -1.120166       -30.4813
  31   2.0000      -1.043427       -28.3931
  32   2.0000      -1.040014       -28.3002
  33   2.0000      -1.014397       -27.6032
  34   2.0000      -0.995605       -27.0918
  35   2.0000      -0.984215       -26.7818
  36   2.0000      -0.922174       -25.0936
  37   2.0000      -0.889069       -24.1928
  38   2.0000      -0.846486       -23.0341
  39   2.0000      -0.836922       -22.7738
  40   2.0000      -0.833308       -22.6755
  41   2.0000      -0.817576       -22.2474
  42   2.0000      -0.765358       -20.8264
  43   2.0000      -0.731837       -19.9143
  44   2.0000      -0.721247       -19.6261
  45   2.0000      -0.694949       -18.9105
  46   2.0000      -0.685853       -18.6630
  47   2.0000      -0.679249       -18.4833
  48   2.0000      -0.677994       -18.4492
  49   2.0000      -0.662141       -18.0178
  50   2.0000      -0.645975       -17.5779
  51   2.0000      -0.644757       -17.5447
  52   2.0000      -0.635468       -17.2920
  53   2.0000      -0.606083       -16.4923
  54   2.0000      -0.600521       -16.3410
  55   2.0000      -0.598482       -16.2855
  56   2.0000      -0.595092       -16.1933
  57   2.0000      -0.577357       -15.7107
  58   2.0000      -0.570459       -15.5230
  59   2.0000      -0.568732       -15.4760
  60   2.0000      -0.561905       -15.2902
  61   2.0000      -0.549093       -14.9416
  62   2.0000      -0.540003       -14.6942
  63   2.0000      -0.524643       -14.2763
  64   2.0000      -0.523734       -14.2515
  65   2.0000      -0.513135       -13.9631
  66   2.0000      -0.502756       -13.6807
  67   2.0000      -0.498348       -13.5607
  68   2.0000      -0.484968       -13.1967
  69   2.0000      -0.465385       -12.6638
  70   2.0000      -0.458786       -12.4842
  71   2.0000      -0.447030       -12.1643
  72   2.0000      -0.354156        -9.6371
  73   2.0000      -0.348760        -9.4902
  74   2.0000      -0.328048        -8.9266
  75   2.0000      -0.320534        -8.7222
  76   2.0000      -0.315797        -8.5933
  77   0.0000       0.076384         2.0785
  78   0.0000       0.106739         2.9045
  79   0.0000       0.124756         3.3948
  80   0.0000       0.132130         3.5954
  81   0.0000       0.136158         3.7051

MULLIKEN ATOMIC CHARGES
-----------------------
   0 C :   -0.267058
   1 C :    0.025880
   2 O :   -0.344824
   3 C :    0.462687
   4 O :   -0.433079
   5 C :   -0.220198
   6 C :    0.150182
   7 C :   -0.274205
   8 N :   -0.120975
   9 C :    0.210382
  10 S :   -0.439736
  11 N :   -0.202981
  12 C :    0.048445
  13 C :    0.067017
  14 C :   -0.183799
  15 C :   -0.131785
  16 C :   -0.278098
  17 C :    0.315866
  18 O :   -0.356606
  19 C :   -0.269953
  20 H :    0.091107
  21 H :    0.096563
  22 H :    0.095203
  23 H :    0.118859
  24 H :    0.095707
  25 H :    0.132544
  26 H :    0.130514
  27 H :    0.094885
  28 H :    0.197381
  29 H :    0.194385
  30 H :    0.150748
  31 H :    0.150469
  32 H :    0.159600
  33 H :    0.129547
  34 H :    0.240550
  35 H :    0.164773
Sum of atomic charges:   -0.0000000

LOEWDIN ATOMIC CHARGES
----------------------
   0 C :    0.106014
   1 C :   -0.014276
   2 O :    0.310031
   3 C :   -0.413619
   4 O :    0.095762
   5 C :   -0.094696
   6 C :   -0.058970
   7 C :    0.131538
   8 N :    0.406514
   9 C :   -0.456679
  10 S :   -0.035409
  11 N :    0.396527
  12 C :   -0.052634
  13 C :   -0.038730
  14 C :    0.014132
  15 C :    0.038504
  16 C :   -0.001606
  17 C :   -0.189515
  18 O :    0.395122
  19 C :    0.031673
  20 H :   -0.030768
  21 H :   -0.026396
  22 H :   -0.024397
  23 H :   -0.027137
  24 H :   -0.029351
  25 H :   -0.004373
  26 H :   -0.004072
  27 H :   -0.023460
  28 H :   -0.057587
  29 H :   -0.064557
  30 H :   -0.011124
  31 H :   -0.031351
  32 H :   -0.021700
  33 H :   -0.035688
  34 H :   -0.154041
  35 H :   -0.023682

  Mayer bond orders larger than 0.100000
B(  0-C ,  1-C ) :   0.9719 B(  0-C , 20-H ) :   0.9792 B(  0-C , 21-H ) :   0.9770
B(  0-C , 22-H ) :   0.9776 B(  1-C ,  2-O ) :   0.8930 B(  1-C , 23-H ) :   0.9785
B(  1-C , 24-H ) :   0.9753 B(  2-O ,  3-C ) :   1.1777 B(  3-C ,  4-O ) :   1.9740
B(  3-C ,  5-C ) :   1.0554 B(  5-C ,  6-C ) :   1.6588 B(  5-C , 12-C ) :   0.9719
B(  6-C ,  7-C ) :   0.9675 B(  6-C ,  8-N ) :   1.1642 B(  7-C , 25-H ) :   0.9601
B(  7-C , 26-H ) :   0.9605 B(  7-C , 27-H ) :   0.9903 B(  8-N ,  9-C ) :   1.1828
B(  8-N , 28-H ) :   0.9479 B(  9-C , 10-S ) :   1.6080 B(  9-C , 11-N ) :   1.3044
B( 11-N , 12-C ) :   0.9893 B( 11-N , 29-H ) :   0.9517 B( 12-C , 13-C ) :   0.9356
B( 12-C , 30-H ) :   1.0036 B( 13-C , 14-C ) :   1.3583 B( 13-C , 19-C ) :   1.3820
B( 14-C , 15-C ) :   1.3903 B( 14-C , 31-H ) :   0.9706 B( 15-C , 16-C ) :   1.3645
B( 15-C , 32-H ) :   0.9706 B( 16-C , 17-C ) :   1.3323 B( 16-C , 33-H ) :   0.9852
B( 17-C , 18-O ) :   1.1100 B( 17-C , 19-C ) :   1.3732 B( 18-O , 34-H ) :   0.9800
B( 19-C , 35-H ) :   0.9582

MP2 TOTAL ENERGY:    -1274.350886061 Eh
FINAL SINGLE POINT ENERGY     -1274.350886061393

DIPOLE MOMENT
-------------
                                X             Y             Z
Electronic contribution:      8.65644      10.97452       8.74362
Nuclear contribution   :     -9.85197     -12.57051      -9.15276
                        -----------------------------------------
Total Dipole Moment    :     -1.19552      -1.59599      -0.40913
                        -----------------------------------------
Magnitude (a.u.)       :      2.03564
Magnitude (Debye)      :      5.17419

Rotational constants in cm-1:     0.011408     0.008520     0.006142
Rotational constants in MHz :   342.017685   255.410533   184.133674

                             ****ORCA TERMINATED NORMALLY****
TOTAL RUN TIME: 0 days 1 hours 45 minutes 23 seconds 123 msec
