                         Program Version 5.0.0 -  RELEASE  -
|  1> ! ri-mp2 cc-pvtz cc-pvtz/c TightSCF NoKeepInts
|  2>
|  3> %scf
|  4>   MaxCore 4096
|  5> end
|  6> *xyz  0  1
|  7>     C       15.1119007   14.4374285   17.3139431
|  8>     C       15.4257589   15.6648763   16.4395512
|  9>     O       16.7048623   15.4456757   15.8078271
| 10>     C       17.8931879   15.6694360   16.4544702
| 11>     O       18.7496445   14.8046106   16.4782579
| 12>     C       17.9629335   16.8688921   17.3505702
| 13>     C       17.5044975   18.0941889   16.9938710
| 14>     C       16.8909221   18.4969263   15.6683834
| 15>     N       17.6667091   19.1779098   17.8604870
| 16>     C       18.3907131   19.1461887   19.0233797
| 17>     S       18.6040816   20.4983579   19.9507909
| 18>     N       18.9287973   17.9346139   19.3796229
| 19>     C       18.6839531   16.6564133   18.6831573
| 20>     C       17.9032190   15.6942138   19.5717204
| 21>     C       18.3351031   14.3644080   19.7276456
| 22>     C       17.6114338   13.4661417   20.5295798
| 23>     C       16.4433974   13.8996273   21.1796745
| 24>     C       16.0067285   15.2218888   21.0223973
| 25>     O       14.8715834   15.6399341   21.6364842
| 26>     C       16.7290152   16.1142220   20.2238146
| 27>     H       15.8813908   14.2891427   18.0797428
| 28>     H       15.0663402   13.5294665   16.6996542
| 29>     H       14.1464028   14.5591934   17.8195642
| 30>     H       14.6508577   15.7555819   15.6674490
| 31>     H       15.4009819   16.5720954   17.0532239
| 32>     H       17.1734065   17.8096668   14.8611723
| 33>     H       17.2319747   19.4925746   15.3572774
| 34>     H       15.7963999   18.5220625   15.7261018
| 35>     H       17.2923491   20.0796918   17.6100894
| 36>     H       19.4396674   17.9353149   20.2534973
| 37>     H       19.6622685   16.2032541   18.4646440
| 38>     H       19.2276266   14.0210733   19.2088476
| 39>     H       17.9535960   12.4382079   20.6375623
| 40>     H       15.8798223   13.2074508   21.7965693
| 41>     H       14.5526319   14.9080579   22.1861913
| 42>     H       16.3728418   17.1332119   20.1167849
| 43> *
| 44>
| 45>                          ****END OF INPUT****

CARTESIAN COORDINATES (ANGSTROEM)
---------------------------------
  C     15.111901   14.437428   17.313943
  C     15.425759   15.664876   16.439551
  O     16.704862   15.445676   15.807827
  C     17.893188   15.669436   16.454470
  O     18.749644   14.804611   16.478258
  C     17.962933   16.868892   17.350570
  C     17.504497   18.094189   16.993871
  C     16.890922   18.496926   15.668383
  N     17.666709   19.177910   17.860487
  C     18.390713   19.146189   19.023380
  S     18.604082   20.498358   19.950791
  N     18.928797   17.934614   19.379623
  C     18.683953   16.656413   18.683157
  C     17.903219   15.694214   19.571720
  C     18.335103   14.364408   19.727646
  C     17.611434   13.466142   20.529580
  C     16.443397   13.899627   21.179674
  C     16.006729   15.221889   21.022397
  O     14.871583   15.639934   21.636484
  C     16.729015   16.114222   20.223815
  H     15.881391   14.289143   18.079743
  H     15.066340   13.529466   16.699654
  H     14.146403   14.559193   17.819564
  H     14.650858   15.755582   15.667449
  H     15.400982   16.572095   17.053224
  H     17.173406   17.809667   14.861172
  H     17.231975   19.492575   15.357277
  H     15.796400   18.522063   15.726102
  H     17.292349   20.079692   17.610089
  H     19.439667   17.935315   20.253497
  H     19.662268   16.203254   18.464644
  H     19.227627   14.021073   19.208848
  H     17.953596   12.438208   20.637562
  H     15.879822   13.207451   21.796569
  H     14.552632   14.908058   22.186191
  H     16.372842   17.133212   20.116785

 Total Charge           Charge          ....    0
 Multiplicity           Mult            ....    1
 Number of Electrons    NEL             ....  154
 Basis Dimension        Dim             ....  828

ORBITAL ENERGIES
----------------

  NO   OCC          E(Eh)            E(eV)
   0   2.0000     -91.891166     -2500.4858
   1   2.0000     -20.599518      -560.5414
   2   2.0000     -20.595303      -560.4267
   3   2.0000     -20.550873      -559.2177
   4   2.0000     -15.630191      -425.3191
   5   2.0000     -15.611304      -424.8052
   6   2.0000     -11.397178      -310.1330
   7   2.0000     -11.387262      -309.8632
   8   2.0000     -11.335728      -308.4608
   9   2.0000     -11.316166      -307.9285
  10   2.0000     -11.312228      -307.8214
  11   2.0000     -11.305276      -307.6322
  12   2.0000     -11.266899      -306.5879
  13   2.0000     -11.264897      -306.5334
  14   2.0000     -11.262077      -306.4567
  15   2.0000     -11.256339      -306.3005
  16   2.0000     -11.245747      -306.0123
  17   2.0000     -11.241715      -305.9026
  18   2.0000     -11.238717      -305.8210
  19   2.0000     -11.224393      -305.4313
  20   2.0000      -8.896254      -242.0794
  21   2.0000      -6.577834      -178.9920
  22   2.0000      -6.575818      -178.9371
  23   2.0000      -6.575235      -178.9212
  24   2.0000      -1.447330       -39.3839
  25   2.0000      -1.419267       -38.6202
  26   2.0000      -1.358899       -36.9775
  27   2.0000      -1.342441       -36.5297
  28   2.0000      -1.241025       -33.7700
  29   2.0000      -1.160788       -31.5867
  30   2.0000      -1.125222       -30.6188
  31   2.0000      -1.048191       -28.5227
  32   2.0000      -1.034520       -28.1507
  33   2.0000      -1.018169       -27.7058
  34   2.0000      -1.005122       -27.3508
  35   2.0000      -0.989536       -26.9266
  36   2.0000      -0.927739       -25.2451
  37   2.0000      -0.887599       -24.1528
  38   2.0000      -0.855057       -23.2673
  39   2.0000      -0.842290       -22.9199
  40   2.0000      -0.836456       -22.7611
  41   2.0000      -0.833174       -22.6718
  42   2.0000      -0.748878       -20.3780
  43   2.0000      -0.739383       -20.1196
  44   2.0000      -0.730855       -19.8876
  45   2.0000      -0.697590       -18.9824
  46   2.0000      -0.688083       -18.7237
  47   2.0000      -0.680463       -18.5163
  48   2.0000      -0.677382       -18.4325
  49   2.0000      -0.660483       -17.9727
  50   2.0000      -0.656773       -17.8717
  51   2.0000      -0.648692       -17.6518
  52   2.0000      -0.640123       -17.4186
  53   2.0000      -0.615619       -16.7519
  54   2.0000      -0.608876       -16.5684
  55   2.0000      -0.606384       -16.5005
  56   2.0000      -0.601508       -16.3679
  57   2.0000      -0.583974       -15.8907
  58   2.0000      -0.577613       -15.7176
  59   2.0000      -0.568494       -15.4695
  60   2.0000      -0.560046       -15.2396
  61   2.0000      -0.552775       -15.0418
  62   2.0000      -0.545397       -14.8410
  63   2.0000      -0.529999       -14.4220
  64   2.0000      -0.520843       -14.1729
  65   2.0000      -0.513545       -13.9743
  66   2.0000      -0.502268       -13.6674
  67   2.0000      -0.497695       -13.5430
  68   2.0000      -0.486075       -13.2268
  69   2.0000      -0.470195       -12.7947
  70   2.0000      -0.457800       -12.4574
  71   2.0000      -0.447650       -12.1812
  72   2.0000      -0.358458        -9.7541
  73   2.0000      -0.352095        -9.5810
  74   2.0000      -0.330617        -8.9966
  75   2.0000      -0.324073        -8.8185
  76   2.0000      -0.319420        -8.6919
  77   0.0000       0.075587         2.0568
  78   0.0000       0.103438         2.8147
  79   0.0000       0.115872         3.1530
  80   0.0000       0.128377         3.4933
  81   0.0000       0.135843         3.6965

MULLIKEN ATOMIC CHARGES
-----------------------
   0 C :   -0.275733
   1 C :    0.013659
   2 O :   -0.340164
   3 C :    0.424179
   4 O :   -0.383696
   5 C :   -0.217305
   6 C :    0.147686
   7 C :   -0.315315
   8 N :   -0.131162
   9 C :    0.200145
  10 S :   -0.438143
  11 N :   -0.204775
  12 C :    0.062741
  13 C :    0.007661
  14 C :   -0.175059
  15 C :   -0.131347
  16 C :   -0.274771
  17 C :    0.310466
  18 O :   -0.360172
  19 C :   -0.256940
  20 H :    0.106407
  21 H :    0.111228
  22 H :    0.093511
  23 H :    0.119324
  24 H :    0.091729
  25 H :    0.139649
  26 H :    0.126009
  27 H :    0.120933
  28 H :    0.197663
  29 H :    0.196228
  30 H :    0.161456
  31 H :    0.164892
  32 H :    0.162751
  33 H :    0.132104
  34 H :    0.241666
  35 H :    0.172495
Sum of atomic charges:   -0.0000000

LOEWDIN ATOMIC CHARGES
----------------------
   0 C :    0.109356
   1 C :   -0.023307
   2 O :    0.297685
   3 C :   -0.416926
   4 O :    0.125072
   5 C :   -0.088882
   6 C :   -0.087946
   7 C :    0.127368
   8 N :    0.403115
   9 C :   -0.458119
  10 S :   -0.035149
  11 N :    0.397575
  12 C :   -0.045528
  13 C :   -0.045512
  14 C :    0.021130
  15 C :    0.044051
  16 C :   -0.000247
  17 C :   -0.192745
  18 O :    0.394871
  19 C :    0.027583
  20 H :   -0.025040
  21 H :   -0.023980
  22 H :   -0.026480
  23 H :   -0.024252
  24 H :   -0.040645
  25 H :   -0.006515
  26 H :   -0.013010
  27 H :   -0.016251
  28 H :   -0.057374
  29 H :   -0.063246
  30 H :   -0.003091
  31 H :   -0.022304
  32 H :   -0.018828
  33 H :   -0.034691
  34 H :   -0.153007
  35 H :   -0.024729

  Mayer bond orders larger than 0.100000
B(  0-C ,  1-C ) :   0.9794 B(  0-C , 20-H ) :   0.9684 B(  0-C , 21-H ) :   0.9802
B(  0-C , 22-H ) :   0.9754 B(  1-C ,  2-O ) :   0.8946 B(  1-C , 23-H ) :   0.9807
B(  1-C , 24-H ) :   0.9646 B(  2-O ,  3-C ) :   1.1561 B(  3-C ,  4-O ) :   2.0841
B(  3-C ,  5-C ) :   0.9446 B(  5-C ,  6-C ) :   1.6762 B(  5-C , 12-C ) :   0.9591
B(  6-C ,  7-C ) :   0.9443 B(  6-C ,  8-N ) :   1.1279 B(  7-C , 25-H ) :   0.9730
B(  7-C , 26-H ) :   0.9799 B(  7-C , 27-H ) :   0.9639 B(  8-N ,  9-C ) :   1.1867
B(  8-N , 28-H ) :   0.9506 B(  9-C , 10-S ) :   1.6136 B(  9-C , 11-N ) :   1.2947
B( 11-N , 12-C ) :   0.9982 B( 11-N , 29-H ) :   0.9507 B( 12-C , 13-C ) :   0.9417
B( 12-C , 30-H ) :   0.9971 B( 13-C , 14-C ) :   1.3887 B( 13-C , 19-C ) :   1.3598
B( 14-C , 15-C ) :   1.3921 B( 14-C , 31-H ) :   0.9615 B( 15-C , 16-C ) :   1.3626
B( 15-C , 32-H ) :   0.9711 B( 16-C , 17-C ) :   1.3309 B( 16-C , 33-H ) :   0.9847
B( 17-C , 18-O ) :   1.1084 B( 17-C , 19-C ) :   1.3708 B( 18-O , 34-H ) :   0.9792
B( 19-C , 35-H ) :   0.9572

MP2 TOTAL ENERGY:    -1274.337075133 Eh
FINAL SINGLE POINT ENERGY     -1274.337075133096

DIPOLE MOMENT
-------------
                                X             Y             Z
Electronic contribution:      9.83625       8.09339       5.65764
Nuclear contribution   :    -11.34832      -8.96736      -6.01608
                        -----------------------------------------
Total Dipole Moment    :     -1.51207      -0.87397      -0.35844
                        -----------------------------------------
Magnitude (a.u.)       :      1.78288
Magnitude (Debye)      :      4.53171

Rotational constants in cm-1:     0.012150     0.009364     0.006825
Rotational constants in MHz :   364.237969   280.710831   204.611546

                             ****ORCA TERMINATED NORMALLY****
TOTAL RUN TIME: 0 days 1 hours 42 minutes 8 seconds 105 msec
