                         Program Version 5.0.0 -  RELEASE  -
|  1> ! ri-mp2 cc-pvtz cc-pvtz/c TightSCF NoKeepInts
|  2>
|  3> %scf
|  4>   MaxCore 4096
|  5> end
|  6> *xyz  0  1
|  7>     C       15.0593724   14.1321154   16.8334323
|  8>     C       16.4367253   13.9879156   16.1482605
|  9>     O       17.3268953   15.0496025   16.5489471
| 10>     C       16.9673898   16.3650175   16.4386484
| 11>     O       16.1552310   16.7522952   15.6157308
| 12>     C       17.6841271   17.2472673   17.4224936
| 13>     C       17.5708716   18.5994681   17.4057300
| 14>     C       16.7588964   19.4386743   16.4425771
| 15>     N       18.2749448   19.3737490   18.3326497
| 16>     C       19.1677664   18.8834012   19.2477055
| 17>     S       20.0166222   19.8776665   20.2610305
| 18>     N       19.3240650   17.5212872   19.2822546
| 19>     C       18.5374421   16.5531181   18.4964862
| 20>     C       17.6849662   15.6992298   19.4310405
| 21>     C       17.9633917   14.3297106   19.5989100
| 22>     C       17.1721380   13.5380951   20.4482498
| 23>     C       16.0952269   14.1208174   21.1378826
| 24>     C       15.8185094   15.4854338   20.9772196
| 25>     O       14.7793882   16.0508869   21.6414743
| 26>     C       16.6074763   16.2705751   20.1310225
| 27>     H       15.1768895   14.2514376   17.9179866
| 28>     H       14.4522248   13.2367411   16.6546112
| 29>     H       14.5002192   14.9924430   16.4464344
| 30>     H       16.8814742   13.0226531   16.4217570
| 31>     H       16.3031242   14.0041199   15.0582664
| 32>     H       17.0593553   19.2369105   15.4065156
| 33>     H       16.8683344   20.5158717   16.6141358
| 34>     H       15.6918026   19.1958328   16.5263432
| 35>     H       18.1730429   20.3760251   18.3224696
| 36>     H       19.9598279   17.1875154   19.9951581
| 37>     H       19.2517132   15.8966085   17.9799337
| 38>     H       18.7914004   13.8755055   19.0613097
| 39>     H       17.3941041   12.4792995   20.5697331
| 40>     H       15.4812994   13.5137609   21.7950839
| 41>     H       14.3807692   15.3651302   22.1979732
| 42>     H       16.3799728   17.3258186   20.0245432
| 43> *
| 44>
| 45>                          ****END OF INPUT****

CARTESIAN COORDINATES (ANGSTROEM)
---------------------------------
  C     15.059372   14.132115   16.833432
  C     16.436725   13.987916   16.148260
  O     17.326895   15.049603   16.548947
  C     16.967390   16.365018   16.438648
  O     16.155231   16.752295   15.615731
  C     17.684127   17.247267   17.422494
  C     17.570872   18.599468   17.405730
  C     16.758896   19.438674   16.442577
  N     18.274945   19.373749   18.332650
  C     19.167766   18.883401   19.247705
  S     20.016622   19.877667   20.261031
  N     19.324065   17.521287   19.282255
  C     18.537442   16.553118   18.496486
  C     17.684966   15.699230   19.431041
  C     17.963392   14.329711   19.598910
  C     17.172138   13.538095   20.448250
  C     16.095227   14.120817   21.137883
  C     15.818509   15.485434   20.977220
  O     14.779388   16.050887   21.641474
  C     16.607476   16.270575   20.131023
  H     15.176889   14.251438   17.917987
  H     14.452225   13.236741   16.654611
  H     14.500219   14.992443   16.446434
  H     16.881474   13.022653   16.421757
  H     16.303124   14.004120   15.058266
  H     17.059355   19.236911   15.406516
  H     16.868334   20.515872   16.614136
  H     15.691803   19.195833   16.526343
  H     18.173043   20.376025   18.322470
  H     19.959828   17.187515   19.995158
  H     19.251713   15.896608   17.979934
  H     18.791400   13.875505   19.061310
  H     17.394104   12.479299   20.569733
  H     15.481299   13.513761   21.795084
  H     14.380769   15.365130   22.197973
  H     16.379973   17.325819   20.024543

 Total Charge           Charge          ....    0
 Multiplicity           Mult            ....    1
 Number of Electrons    NEL             ....  154
 Basis Dimension        Dim             ....  828

ORBITAL ENERGIES
----------------

  NO   OCC          E(Eh)            E(eV)
   0   2.0000     -91.888989     -2500.4265
   1   2.0000     -20.597946      -560.4986
   2   2.0000     -20.596876      -560.4695
   3   2.0000     -20.541503      -558.9627
   4   2.0000     -15.629118      -425.2899
   5   2.0000     -15.608485      -424.7285
   6   2.0000     -11.394818      -310.0688
   7   2.0000     -11.384204      -309.7799
   8   2.0000     -11.335994      -308.4681
   9   2.0000     -11.315412      -307.9080
  10   2.0000     -11.309072      -307.7355
  11   2.0000     -11.298505      -307.4479
  12   2.0000     -11.260974      -306.4267
  13   2.0000     -11.258659      -306.3637
  14   2.0000     -11.256796      -306.3130
  15   2.0000     -11.252132      -306.1861
  16   2.0000     -11.244715      -305.9842
  17   2.0000     -11.239912      -305.8536
  18   2.0000     -11.239544      -305.8435
  19   2.0000     -11.221202      -305.3444
  20   2.0000      -8.894052      -242.0195
  21   2.0000      -6.575627      -178.9319
  22   2.0000      -6.573622      -178.8773
  23   2.0000      -6.573035      -178.8614
  24   2.0000      -1.448131       -39.4057
  25   2.0000      -1.417652       -38.5763
  26   2.0000      -1.353208       -36.8226
  27   2.0000      -1.340084       -36.4655
  28   2.0000      -1.238681       -33.7062
  29   2.0000      -1.159078       -31.5401
  30   2.0000      -1.120782       -30.4980
  31   2.0000      -1.043575       -28.3971
  32   2.0000      -1.033750       -28.1298
  33   2.0000      -1.016590       -27.6628
  34   2.0000      -0.995690       -27.0941
  35   2.0000      -0.984496       -26.7895
  36   2.0000      -0.923048       -25.1174
  37   2.0000      -0.896222       -24.3874
  38   2.0000      -0.847335       -23.0572
  39   2.0000      -0.838842       -22.8260
  40   2.0000      -0.835429       -22.7332
  41   2.0000      -0.816148       -22.2085
  42   2.0000      -0.749969       -20.4077
  43   2.0000      -0.733256       -19.9529
  44   2.0000      -0.723079       -19.6760
  45   2.0000      -0.696943       -18.9648
  46   2.0000      -0.688950       -18.7473
  47   2.0000      -0.676964       -18.4211
  48   2.0000      -0.671062       -18.2605
  49   2.0000      -0.660800       -17.9813
  50   2.0000      -0.649634       -17.6774
  51   2.0000      -0.641005       -17.4426
  52   2.0000      -0.633495       -17.2383
  53   2.0000      -0.615571       -16.7505
  54   2.0000      -0.608133       -16.5481
  55   2.0000      -0.601147       -16.3580
  56   2.0000      -0.599441       -16.3116
  57   2.0000      -0.578513       -15.7421
  58   2.0000      -0.570949       -15.5363
  59   2.0000      -0.567426       -15.4405
  60   2.0000      -0.557310       -15.1652
  61   2.0000      -0.543312       -14.7843
  62   2.0000      -0.534191       -14.5361
  63   2.0000      -0.526091       -14.3157
  64   2.0000      -0.524720       -14.2784
  65   2.0000      -0.513470       -13.9722
  66   2.0000      -0.502066       -13.6619
  67   2.0000      -0.500420       -13.6171
  68   2.0000      -0.482148       -13.1199
  69   2.0000      -0.464857       -12.6494
  70   2.0000      -0.454006       -12.3541
  71   2.0000      -0.444747       -12.1022
  72   2.0000      -0.354315        -9.6414
  73   2.0000      -0.350843        -9.5469
  74   2.0000      -0.328527        -8.9397
  75   2.0000      -0.323008        -8.7895
  76   2.0000      -0.316422        -8.6103
  77   0.0000       0.075568         2.0563
  78   0.0000       0.105078         2.8593
  79   0.0000       0.124690         3.3930
  80   0.0000       0.131803         3.5866
  81   0.0000       0.137385         3.7384

MULLIKEN ATOMIC CHARGES
-----------------------
   0 C :   -0.321391
   1 C :    0.027532
   2 O :   -0.366746
   3 C :    0.471728
   4 O :   -0.434321
   5 C :   -0.232519
   6 C :    0.154800
   7 C :   -0.272468
   8 N :   -0.121065
   9 C :    0.212031
  10 S :   -0.440174
  11 N :   -0.206531
  12 C :    0.068236
  13 C :    0.043157
  14 C :   -0.183478
  15 C :   -0.133780
  16 C :   -0.277178
  17 C :    0.310270
  18 O :   -0.357623
  19 C :   -0.254798
  20 H :    0.110649
  21 H :    0.099272
  22 H :    0.122824
  23 H :    0.112271
  24 H :    0.115740
  25 H :    0.131515
  26 H :    0.095369
  27 H :    0.131678
  28 H :    0.197186
  29 H :    0.195130
  30 H :    0.150757
  31 H :    0.152884
  32 H :    0.160781
  33 H :    0.131120
  34 H :    0.240883
  35 H :    0.166258
Sum of atomic charges:    0.0000000

LOEWDIN ATOMIC CHARGES
----------------------
   0 C :    0.104912
   1 C :   -0.015686
   2 O :    0.301376
   3 C :   -0.414236
   4 O :    0.098911
   5 C :   -0.094675
   6 C :   -0.059063
   7 C :    0.131716
   8 N :    0.406609
   9 C :   -0.456080
  10 S :   -0.035614
  11 N :    0.396454
  12 C :   -0.051725
  13 C :   -0.039654
  14 C :    0.014527
  15 C :    0.038839
  16 C :   -0.002250
  17 C :   -0.190549
  18 O :    0.396012
  19 C :    0.031253
  20 H :   -0.026148
  21 H :   -0.027192
  22 H :   -0.026421
  23 H :   -0.025121
  24 H :   -0.028138
  25 H :   -0.003732
  26 H :   -0.023383
  27 H :   -0.004745
  28 H :   -0.057550
  29 H :   -0.064574
  30 H :   -0.010952
  31 H :   -0.029669
  32 H :   -0.021125
  33 H :   -0.035302
  34 H :   -0.153607
  35 H :   -0.023414

  Mayer bond orders larger than 0.100000
B(  0-C ,  1-C ) :   0.9567 B(  0-C , 20-H ) :   0.9696 B(  0-C , 21-H ) :   0.9781
B(  0-C , 22-H ) :   0.9739 B(  1-C ,  2-O ) :   0.8921 B(  1-C , 23-H ) :   0.9838
B(  1-C , 24-H ) :   0.9848 B(  2-O ,  3-C ) :   1.1555 B(  3-C ,  4-O ) :   1.9736
B(  3-C ,  5-C ) :   1.0575 B(  5-C ,  6-C ) :   1.6538 B(  5-C , 12-C ) :   0.9703
B(  6-C ,  7-C ) :   0.9658 B(  6-C ,  8-N ) :   1.1651 B(  7-C , 25-H ) :   0.9606
B(  7-C , 26-H ) :   0.9903 B(  7-C , 27-H ) :   0.9603 B(  8-N ,  9-C ) :   1.1836
B(  8-N , 28-H ) :   0.9478 B(  9-C , 10-S ) :   1.6067 B(  9-C , 11-N ) :   1.3058
B( 11-N , 12-C ) :   0.9874 B( 11-N , 29-H ) :   0.9514 B( 12-C , 13-C ) :   0.9350
B( 12-C , 30-H ) :   1.0018 B( 13-C , 14-C ) :   1.3570 B( 13-C , 19-C ) :   1.3857
B( 14-C , 15-C ) :   1.3898 B( 14-C , 31-H ) :   0.9712 B( 15-C , 16-C ) :   1.3607
B( 15-C , 32-H ) :   0.9712 B( 16-C , 17-C ) :   1.3317 B( 16-C , 33-H ) :   0.9850
B( 17-C , 18-O ) :   1.1112 B( 17-C , 19-C ) :   1.3701 B( 18-O , 34-H ) :   0.9796
B( 19-C , 35-H ) :   0.9577

MP2 TOTAL ENERGY:    -1274.348756396 Eh
FINAL SINGLE POINT ENERGY     -1274.348756395760

DIPOLE MOMENT
-------------
                                X             Y             Z
Electronic contribution:     10.03101       9.90461       6.86510
Nuclear contribution   :    -11.02072     -11.64045      -7.18067
                        -----------------------------------------
Total Dipole Moment    :     -0.98971      -1.73583      -0.31557
                        -----------------------------------------
Magnitude (a.u.)       :      2.02293
Magnitude (Debye)      :      5.14187

Rotational constants in cm-1:     0.012496     0.008722     0.006360
Rotational constants in MHz :   374.611374   261.489625   190.678039

                             ****ORCA TERMINATED NORMALLY****
TOTAL RUN TIME: 0 days 2 hours 4 minutes 34 seconds 452 msec
