                         Program Version 4.2.0 -  RELEASE  -
|  1> ! ri-mp2 cc-pvtz cc-pvtz/c TightSCF  NoKeepInts
|  2>
|  3> %scf
|  4>   MaxCore 4096
|  5> end
|  6> *xyz  0  1
|  7>     C       15.8570302   12.9923922   16.4679802
|  8>     C       15.7022117   14.3994860   15.8667759
|  9>     O       16.5215449   15.2856035   16.6467688
| 10>     C       16.2131791   16.6161132   16.7069676
| 11>     O       15.2737892   17.0951559   16.0941727
| 12>     C       17.2251689   17.4086020   17.4876369
| 13>     C       17.1896978   18.7632604   17.5640338
| 14>     C       16.1828443   19.6918809   16.9195756
| 15>     N       18.1763167   19.4515865   18.2764328
| 16>     C       19.2736080   18.8725361   18.8557375
| 17>     S       20.4421953   19.7702455   19.6070222
| 18>     N       19.3559689   17.5056055   18.7806021
| 19>     C       18.3109738   16.6188205   18.2368890
| 20>     C       17.7209334   15.7662910   19.3566508
| 21>     C       17.9020453   14.3704238   19.3622704
| 22>     C       17.3560892   13.5824854   20.3894602
| 23>     C       16.6258203   14.1953004   21.4219698
| 24>     C       16.4472870   15.5855630   21.4219353
| 25>     O       15.7432541   16.1801972   22.4178355
| 26>     C       16.9913258   16.3669970   20.3979344
| 27>     H       16.9003705   12.6590821   16.4091575
| 28>     H       15.2337568   12.2712659   15.9254307
| 29>     H       15.5505099   12.9879951   17.5217942
| 30>     H       16.0093874   14.4155245   14.8129261
| 31>     H       14.6443342   14.6903808   15.9288459
| 32>     H       16.1886384   19.5704143   15.8289052
| 33>     H       16.3743226   20.7493808   17.1359466
| 34>     H       15.1681674   19.4615327   17.2689151
| 35>     H       18.1329298   20.4560387   18.3414456
| 36>     H       20.1562355   17.1044015   19.2522613
| 37>     H       18.7978676   15.9513602   17.5120918
| 38>     H       18.4600734   13.8935364   18.5610659
| 39>     H       17.4985838   12.5033537   20.3827307
| 40>     H       16.2021173   13.5912458   22.2174496
| 41>     H       15.4710789   15.4860809   23.0365898
| 42>     H       16.8473427   17.4418610   20.4197929
| 43> *
| 44>
| 45>                          ****END OF INPUT****

CARTESIAN COORDINATES (ANGSTROEM)
---------------------------------
  C     15.857030   12.992392   16.467980
  C     15.702212   14.399486   15.866776
  O     16.521545   15.285604   16.646769
  C     16.213179   16.616113   16.706968
  O     15.273789   17.095156   16.094173
  C     17.225169   17.408602   17.487637
  C     17.189698   18.763260   17.564034
  C     16.182844   19.691881   16.919576
  N     18.176317   19.451587   18.276433
  C     19.273608   18.872536   18.855738
  S     20.442195   19.770246   19.607022
  N     19.355969   17.505605   18.780602
  C     18.310974   16.618821   18.236889
  C     17.720933   15.766291   19.356651
  C     17.902045   14.370424   19.362270
  C     17.356089   13.582485   20.389460
  C     16.625820   14.195300   21.421970
  C     16.447287   15.585563   21.421935
  O     15.743254   16.180197   22.417835
  C     16.991326   16.366997   20.397934
  H     16.900371   12.659082   16.409157
  H     15.233757   12.271266   15.925431
  H     15.550510   12.987995   17.521794
  H     16.009387   14.415524   14.812926
  H     14.644334   14.690381   15.928846
  H     16.188638   19.570414   15.828905
  H     16.374323   20.749381   17.135947
  H     15.168167   19.461533   17.268915
  H     18.132930   20.456039   18.341446
  H     20.156236   17.104402   19.252261
  H     18.797868   15.951360   17.512092
  H     18.460073   13.893536   18.561066
  H     17.498584   12.503354   20.382731
  H     16.202117   13.591246   22.217450
  H     15.471079   15.486081   23.036590
  H     16.847343   17.441861   20.419793

 Total Charge           Charge          ....    0
 Multiplicity           Mult            ....    1
 Number of Electrons    NEL             ....  154
 Basis Dimension        Dim             ....  828

ORBITAL ENERGIES
----------------

  NO   OCC          E(Eh)            E(eV)
   0   2.0000     -91.888522     -2500.4138
   1   2.0000     -20.603138      -560.6399
   2   2.0000     -20.595544      -560.4332
   3   2.0000     -20.541499      -558.9626
   4   2.0000     -15.628619      -425.2763
   5   2.0000     -15.607914      -424.7129
   6   2.0000     -11.394628      -310.0636
   7   2.0000     -11.383641      -309.7646
   8   2.0000     -11.335584      -308.4569
   9   2.0000     -11.312599      -307.8315
  10   2.0000     -11.308367      -307.7163
  11   2.0000     -11.296372      -307.3899
  12   2.0000     -11.258768      -306.3666
  13   2.0000     -11.258520      -306.3599
  14   2.0000     -11.253969      -306.2361
  15   2.0000     -11.251610      -306.1719
  16   2.0000     -11.242362      -305.9202
  17   2.0000     -11.237761      -305.7950
  18   2.0000     -11.237229      -305.7805
  19   2.0000     -11.230417      -305.5952
  20   2.0000      -8.893588      -242.0068
  21   2.0000      -6.575164      -178.9193
  22   2.0000      -6.573158      -178.8647
  23   2.0000      -6.572572      -178.8488
  24   2.0000      -1.452655       -39.5287
  25   2.0000      -1.415224       -38.5102
  26   2.0000      -1.354995       -36.8713
  27   2.0000      -1.339612       -36.4527
  28   2.0000      -1.238078       -33.6898
  29   2.0000      -1.156834       -31.4791
  30   2.0000      -1.120062       -30.4784
  31   2.0000      -1.043415       -28.3928
  32   2.0000      -1.039841       -28.2955
  33   2.0000      -1.014195       -27.5977
  34   2.0000      -0.995314       -27.0839
  35   2.0000      -0.984111       -26.7790
  36   2.0000      -0.921952       -25.0876
  37   2.0000      -0.889227       -24.1971
  38   2.0000      -0.846270       -23.0282
  39   2.0000      -0.836602       -22.7651
  40   2.0000      -0.833097       -22.6697
  41   2.0000      -0.817034       -22.2326
  42   2.0000      -0.765637       -20.8340
  43   2.0000      -0.731272       -19.8989
  44   2.0000      -0.720774       -19.6133
  45   2.0000      -0.695232       -18.9182
  46   2.0000      -0.688046       -18.7227
  47   2.0000      -0.679342       -18.4858
  48   2.0000      -0.674477       -18.3535
  49   2.0000      -0.666051       -18.1242
  50   2.0000      -0.645867       -17.5749
  51   2.0000      -0.644439       -17.5361
  52   2.0000      -0.635196       -17.2846
  53   2.0000      -0.605761       -16.4836
  54   2.0000      -0.599931       -16.3250
  55   2.0000      -0.598079       -16.2746
  56   2.0000      -0.589889       -16.0517
  57   2.0000      -0.578293       -15.7361
  58   2.0000      -0.570280       -15.5181
  59   2.0000      -0.569689       -15.5020
  60   2.0000      -0.562605       -15.3092
  61   2.0000      -0.551359       -15.0032
  62   2.0000      -0.538668       -14.6579
  63   2.0000      -0.524237       -14.2652
  64   2.0000      -0.523696       -14.2505
  65   2.0000      -0.512937       -13.9577
  66   2.0000      -0.502349       -13.6696
  67   2.0000      -0.498019       -13.5518
  68   2.0000      -0.485082       -13.1997
  69   2.0000      -0.463516       -12.6129
  70   2.0000      -0.459677       -12.5084
  71   2.0000      -0.448153       -12.1949
  72   2.0000      -0.353916        -9.6305
  73   2.0000      -0.348761        -9.4903
  74   2.0000      -0.327851        -8.9213
  75   2.0000      -0.320139        -8.7114
  76   2.0000      -0.315594        -8.5878
  77   0.0000       0.076860         2.0915
  78   0.0000       0.106991         2.9114
  79   0.0000       0.124742         3.3944
  80   0.0000       0.133005         3.6193
  81   0.0000       0.137174         3.7327

MULLIKEN ATOMIC CHARGES
-----------------------
   0 C :   -0.287295
   1 C :    0.041701
   2 O :   -0.341063
   3 C :    0.463933
   4 O :   -0.434083
   5 C :   -0.220027
   6 C :    0.150492
   7 C :   -0.274291
   8 N :   -0.120243
   9 C :    0.210483
  10 S :   -0.440345
  11 N :   -0.203208
  12 C :    0.047358
  13 C :    0.065101
  14 C :   -0.182829
  15 C :   -0.132661
  16 C :   -0.279717
  17 C :    0.316267
  18 O :   -0.356863
  19 C :   -0.267958
  20 H :    0.091117
  21 H :    0.105958
  22 H :    0.106897
  23 H :    0.090721
  24 H :    0.102958
  25 H :    0.131377
  26 H :    0.094747
  27 H :    0.131607
  28 H :    0.197205
  29 H :    0.194514
  30 H :    0.149208
  31 H :    0.152077
  32 H :    0.161552
  33 H :    0.129979
  34 H :    0.240449
  35 H :    0.164881
Sum of atomic charges:   -0.0000000

LOEWDIN ATOMIC CHARGES
----------------------
   0 C :    0.105166
   1 C :   -0.014904
   2 O :    0.310314
   3 C :   -0.412649
   4 O :    0.095070
   5 C :   -0.094483
   6 C :   -0.059255
   7 C :    0.131479
   8 N :    0.406441
   9 C :   -0.456720
  10 S :   -0.035888
  11 N :    0.396607
  12 C :   -0.052987
  13 C :   -0.039795
  14 C :    0.016694
  15 C :    0.039350
  16 C :   -0.001462
  17 C :   -0.189713
  18 O :    0.394972
  19 C :    0.031829
  20 H :   -0.030940
  21 H :   -0.024637
  22 H :   -0.024520
  23 H :   -0.030761
  24 H :   -0.027018
  25 H :   -0.003977
  26 H :   -0.023501
  27 H :   -0.004528
  28 H :   -0.057626
  29 H :   -0.064490
  30 H :   -0.012087
  31 H :   -0.030908
  32 H :   -0.021748
  33 H :   -0.035588
  34 H :   -0.154112
  35 H :   -0.023624

  Mayer bond orders larger than 0.100000
B(  0-C ,  1-C ) :   0.9726 B(  0-C , 20-H ) :   0.9785 B(  0-C , 21-H ) :   0.9791
B(  0-C , 22-H ) :   0.9728 B(  1-C ,  2-O ) :   0.9033 B(  1-C , 23-H ) :   0.9809
B(  1-C , 24-H ) :   0.9761 B(  2-O ,  3-C ) :   1.1816 B(  3-C ,  4-O ) :   1.9671
B(  3-C ,  5-C ) :   1.0608 B(  5-C ,  6-C ) :   1.6568 B(  5-C , 12-C ) :   0.9723
B(  6-C ,  7-C ) :   0.9675 B(  6-C ,  8-N ) :   1.1643 B(  7-C , 25-H ) :   0.9596
B(  7-C , 26-H ) :   0.9902 B(  7-C , 27-H ) :   0.9613 B(  8-N ,  9-C ) :   1.1832
B(  8-N , 28-H ) :   0.9479 B(  9-C , 10-S ) :   1.6074 B(  9-C , 11-N ) :   1.3047
B( 11-N , 12-C ) :   0.9897 B( 11-N , 29-H ) :   0.9514 B( 12-C , 13-C ) :   0.9366
B( 12-C , 30-H ) :   1.0033 B( 13-C , 14-C ) :   1.3567 B( 13-C , 19-C ) :   1.3810
B( 14-C , 15-C ) :   1.3903 B( 14-C , 31-H ) :   0.9702 B( 15-C , 16-C ) :   1.3629
B( 15-C , 32-H ) :   0.9701 B( 16-C , 17-C ) :   1.3308 B( 16-C , 33-H ) :   0.9851
B( 17-C , 18-O ) :   1.1095 B( 17-C , 19-C ) :   1.3738 B( 18-O , 34-H ) :   0.9801
B( 19-C , 35-H ) :   0.9582

MP2 TOTAL ENERGY:    -1274.351566201 Eh
FINAL SINGLE POINT ENERGY     -1274.351566201208

DIPOLE MOMENT
-------------
                                X             Y             Z
Electronic contribution:      8.90930      11.83393       6.99190
Nuclear contribution   :     -9.98891     -13.53583      -7.34771
                        -----------------------------------------
Total Dipole Moment    :     -1.07961      -1.70190      -0.35582
                        -----------------------------------------
Magnitude (a.u.)       :      2.04662
Magnitude (Debye)      :      5.20209

Rotational constants in cm-1:     0.011621     0.008527     0.006126
Rotational constants in MHz :   348.376195   255.624305   183.648563

                             ****ORCA TERMINATED NORMALLY****
TOTAL RUN TIME: 0 days 1 hours 40 minutes 54 seconds 437 msec
