                         Program Version 4.2.0 -  RELEASE  -
|  1> ! ri-mp2 cc-pvtz cc-pvtz/c TightSCF  NoKeepInts
|  2>
|  3> %scf
|  4>   MaxCore 4096
|  5> end
|  6> *xyz  0  1
|  7>     C       15.9724217   13.3011317   15.5459157
|  8>     C       15.4086795   14.4797983   16.3568491
|  9>     O       16.5139761   15.3420306   16.6792711
| 10>     C       16.3481540   16.6991469   16.6907742
| 11>     O       15.4066456   17.2486987   16.1446601
| 12>     C       17.3582321   17.3964411   17.5600842
| 13>     C       17.4055340   18.7474934   17.6811081
| 14>     C       16.5043728   19.7601958   17.0074516
| 15>     N       18.3917034   19.3466610   18.4705946
| 16>     C       19.4226894   18.6798482   19.0768698
| 17>     S       20.6067352   19.4752539   19.9142742
| 18>     N       19.4257810   17.3140334   18.9517971
| 19>     C       18.3499393   16.5147714   18.3372331
| 20>     C       17.6509879   15.6805944   19.4074233
| 21>     C       17.7475044   14.2762920   19.3936075
| 22>     C       17.1008076   13.5052926   20.3741257
| 23>     C       16.3539380   14.1433437   21.3791226
| 24>     C       16.2592435   15.5416817   21.3985003
| 25>     O       15.5394227   16.1606069   22.3679274
| 26>     C       16.9031580   16.3062088   20.4207537
| 27>     H       15.1705859   12.6047549   15.2720038
| 28>     H       16.7203937   12.7519032   16.1309301
| 29>     H       16.4463332   13.6589647   14.6233010
| 30>     H       14.6573500   14.9949817   15.7430800
| 31>     H       14.9234888   14.1252343   17.2756788
| 32>     H       15.4627864   19.6175396   17.3228351
| 33>     H       16.5350466   19.6400851   15.9170610
| 34>     H       16.7799180   20.7970240   17.2329750
| 35>     H       18.4059646   20.3488977   18.5724669
| 36>     H       20.1778321   16.8471979   19.4420251
| 37>     H       18.8226277   15.8313120   17.6178520
| 38>     H       18.3193131   13.7804459   18.6137810
| 39>     H       17.1796690   12.4197695   20.3534736
| 40>     H       15.8532291   13.5524827   22.1390255
| 41>     H       15.1999058   15.4745916   22.9619575
| 42>     H       16.8226297   17.3872907   20.4572101
| 43> *
| 44>
| 45>                          ****END OF INPUT****

CARTESIAN COORDINATES (ANGSTROEM)
---------------------------------
  C     15.972422   13.301132   15.545916
  C     15.408679   14.479798   16.356849
  O     16.513976   15.342031   16.679271
  C     16.348154   16.699147   16.690774
  O     15.406646   17.248699   16.144660
  C     17.358232   17.396441   17.560084
  C     17.405534   18.747493   17.681108
  C     16.504373   19.760196   17.007452
  N     18.391703   19.346661   18.470595
  C     19.422689   18.679848   19.076870
  S     20.606735   19.475254   19.914274
  N     19.425781   17.314033   18.951797
  C     18.349939   16.514771   18.337233
  C     17.650988   15.680594   19.407423
  C     17.747504   14.276292   19.393608
  C     17.100808   13.505293   20.374126
  C     16.353938   14.143344   21.379123
  C     16.259244   15.541682   21.398500
  O     15.539423   16.160607   22.367927
  C     16.903158   16.306209   20.420754
  H     15.170586   12.604755   15.272004
  H     16.720394   12.751903   16.130930
  H     16.446333   13.658965   14.623301
  H     14.657350   14.994982   15.743080
  H     14.923489   14.125234   17.275679
  H     15.462786   19.617540   17.322835
  H     16.535047   19.640085   15.917061
  H     16.779918   20.797024   17.232975
  H     18.405965   20.348898   18.572467
  H     20.177832   16.847198   19.442025
  H     18.822628   15.831312   17.617852
  H     18.319313   13.780446   18.613781
  H     17.179669   12.419769   20.353474
  H     15.853229   13.552483   22.139025
  H     15.199906   15.474592   22.961958
  H     16.822630   17.387291   20.457210

 Total Charge           Charge          ....    0
 Multiplicity           Mult            ....    1
 Number of Electrons    NEL             ....  154
 Basis Dimension        Dim             ....  828

ORBITAL ENERGIES
----------------

  NO   OCC          E(Eh)            E(eV)
   0   2.0000     -91.888880     -2500.4236
   1   2.0000     -20.600444      -560.5666
   2   2.0000     -20.596287      -560.4535
   3   2.0000     -20.541749      -558.9694
   4   2.0000     -15.629027      -425.2874
   5   2.0000     -15.608232      -424.7216
   6   2.0000     -11.394935      -310.0719
   7   2.0000     -11.383976      -309.7737
   8   2.0000     -11.335803      -308.4629
   9   2.0000     -11.313511      -307.8563
  10   2.0000     -11.308997      -307.7335
  11   2.0000     -11.294860      -307.3488
  12   2.0000     -11.259473      -306.3858
  13   2.0000     -11.258693      -306.3646
  14   2.0000     -11.255053      -306.2656
  15   2.0000     -11.251884      -306.1793
  16   2.0000     -11.242851      -305.9335
  17   2.0000     -11.238278      -305.8091
  18   2.0000     -11.238062      -305.8032
  19   2.0000     -11.230091      -305.5863
  20   2.0000      -8.893940      -242.0164
  21   2.0000      -6.575514      -178.9288
  22   2.0000      -6.573510      -178.8743
  23   2.0000      -6.572923      -178.8583
  24   2.0000      -1.450983       -39.4833
  25   2.0000      -1.415943       -38.5298
  26   2.0000      -1.354830       -36.8668
  27   2.0000      -1.339980       -36.4627
  28   2.0000      -1.238438       -33.6996
  29   2.0000      -1.157411       -31.4948
  30   2.0000      -1.120263       -30.4839
  31   2.0000      -1.043218       -28.3874
  32   2.0000      -1.039653       -28.2904
  33   2.0000      -1.014914       -27.6172
  34   2.0000      -0.995653       -27.0931
  35   2.0000      -0.984258       -26.7830
  36   2.0000      -0.922411       -25.1001
  37   2.0000      -0.888620       -24.1806
  38   2.0000      -0.846708       -23.0401
  39   2.0000      -0.837406       -22.7870
  40   2.0000      -0.833833       -22.6898
  41   2.0000      -0.818251       -22.2658
  42   2.0000      -0.764570       -20.8050
  43   2.0000      -0.732405       -19.9297
  44   2.0000      -0.722197       -19.6520
  45   2.0000      -0.695333       -18.9210
  46   2.0000      -0.686933       -18.6924
  47   2.0000      -0.679589       -18.4926
  48   2.0000      -0.674829       -18.3630
  49   2.0000      -0.658575       -17.9207
  50   2.0000      -0.646308       -17.5869
  51   2.0000      -0.644085       -17.5265
  52   2.0000      -0.634565       -17.2674
  53   2.0000      -0.606831       -16.5127
  54   2.0000      -0.605481       -16.4760
  55   2.0000      -0.599322       -16.3084
  56   2.0000      -0.598019       -16.2729
  57   2.0000      -0.577777       -15.7221
  58   2.0000      -0.570674       -15.5288
  59   2.0000      -0.566735       -15.4217
  60   2.0000      -0.562349       -15.3023
  61   2.0000      -0.542657       -14.7665
  62   2.0000      -0.540020       -14.6947
  63   2.0000      -0.527396       -14.3512
  64   2.0000      -0.524934       -14.2842
  65   2.0000      -0.513404       -13.9704
  66   2.0000      -0.501620       -13.6498
  67   2.0000      -0.496858       -13.5202
  68   2.0000      -0.485872       -13.2213
  69   2.0000      -0.465300       -12.6615
  70   2.0000      -0.457584       -12.4515
  71   2.0000      -0.446959       -12.1624
  72   2.0000      -0.354245        -9.6395
  73   2.0000      -0.349201        -9.5022
  74   2.0000      -0.328207        -8.9310
  75   2.0000      -0.321185        -8.7399
  76   2.0000      -0.315986        -8.5984
  77   0.0000       0.075819         2.0632
  78   0.0000       0.106430         2.8961
  79   0.0000       0.124277         3.3817
  80   0.0000       0.131763         3.5855
  81   0.0000       0.135843         3.6965

MULLIKEN ATOMIC CHARGES
-----------------------
   0 C :   -0.262125
   1 C :    0.011596
   2 O :   -0.354305
   3 C :    0.470706
   4 O :   -0.431480
   5 C :   -0.227623
   6 C :    0.150781
   7 C :   -0.273404
   8 N :   -0.121318
   9 C :    0.210349
  10 S :   -0.439572
  11 N :   -0.203544
  12 C :    0.052859
  13 C :    0.066490
  14 C :   -0.188202
  15 C :   -0.132218
  16 C :   -0.279127
  17 C :    0.316210
  18 O :   -0.356360
  19 C :   -0.269108
  20 H :    0.091017
  21 H :    0.089752
  22 H :    0.097778
  23 H :    0.129339
  24 H :    0.103716
  25 H :    0.132764
  26 H :    0.130293
  27 H :    0.094941
  28 H :    0.197528
  29 H :    0.194491
  30 H :    0.150517
  31 H :    0.151148
  32 H :    0.160463
  33 H :    0.130069
  34 H :    0.240598
  35 H :    0.164980
Sum of atomic charges:   -0.0000000

LOEWDIN ATOMIC CHARGES
----------------------
   0 C :    0.105534
   1 C :   -0.012917
   2 O :    0.309067
   3 C :   -0.413960
   4 O :    0.097034
   5 C :   -0.095024
   6 C :   -0.058882
   7 C :    0.131532
   8 N :    0.406545
   9 C :   -0.456658
  10 S :   -0.035281
  11 N :    0.396479
  12 C :   -0.052519
  13 C :   -0.038612
  14 C :    0.014125
  15 C :    0.038303
  16 C :   -0.002090
  17 C :   -0.189497
  18 O :    0.395271
  19 C :    0.031621
  20 H :   -0.025259
  21 H :   -0.031059
  22 H :   -0.025696
  23 H :   -0.027654
  24 H :   -0.029958
  25 H :   -0.004396
  26 H :   -0.004065
  27 H :   -0.023431
  28 H :   -0.057566
  29 H :   -0.064564
  30 H :   -0.010854
  31 H :   -0.030889
  32 H :   -0.021517
  33 H :   -0.035639
  34 H :   -0.153955
  35 H :   -0.023567

  Mayer bond orders larger than 0.100000
B(  0-C ,  1-C ) :   0.9738 B(  0-C , 20-H ) :   0.9763 B(  0-C , 21-H ) :   0.9797
B(  0-C , 22-H ) :   0.9779 B(  1-C ,  2-O ) :   0.8809 B(  1-C , 23-H ) :   0.9762
B(  1-C , 24-H ) :   0.9743 B(  2-O ,  3-C ) :   1.1676 B(  3-C ,  4-O ) :   1.9822
B(  3-C ,  5-C ) :   1.0534 B(  5-C ,  6-C ) :   1.6570 B(  5-C , 12-C ) :   0.9723
B(  6-C ,  7-C ) :   0.9672 B(  6-C ,  8-N ) :   1.1635 B(  7-C , 25-H ) :   0.9599
B(  7-C , 26-H ) :   0.9608 B(  7-C , 27-H ) :   0.9904 B(  8-N ,  9-C ) :   1.1829
B(  8-N , 28-H ) :   0.9479 B(  9-C , 10-S ) :   1.6081 B(  9-C , 11-N ) :   1.3045
B( 11-N , 12-C ) :   0.9892 B( 11-N , 29-H ) :   0.9517 B( 12-C , 13-C ) :   0.9346
B( 12-C , 30-H ) :   1.0031 B( 13-C , 14-C ) :   1.3546 B( 13-C , 19-C ) :   1.3832
B( 14-C , 15-C ) :   1.3904 B( 14-C , 31-H ) :   0.9714 B( 15-C , 16-C ) :   1.3631
B( 15-C , 32-H ) :   0.9705 B( 16-C , 17-C ) :   1.3320 B( 16-C , 33-H ) :   0.9851
B( 17-C , 18-O ) :   1.1105 B( 17-C , 19-C ) :   1.3725 B( 18-O , 34-H ) :   0.9799
B( 19-C , 35-H ) :   0.9581

MP2 TOTAL ENERGY:    -1274.348749860 Eh
FINAL SINGLE POINT ENERGY     -1274.348749860168

DIPOLE MOMENT
-------------
                                X             Y             Z
Electronic contribution:      9.20551      10.74210       8.70006
Nuclear contribution   :    -10.41473     -12.32952      -9.03841
                        -----------------------------------------
Total Dipole Moment    :     -1.20922      -1.58742      -0.33835
                        -----------------------------------------
Magnitude (a.u.)       :      2.02401
Magnitude (Debye)      :      5.14461

Rotational constants in cm-1:     0.011507     0.008513     0.006139
Rotational constants in MHz :   344.964035   255.226913   184.045964

                             ****ORCA TERMINATED NORMALLY****
TOTAL RUN TIME: 0 days 1 hours 45 minutes 19 seconds 755 msec
