                         Program Version 4.2.0 -  RELEASE  -
|  1> ! ri-mp2 cc-pvtz cc-pvtz/c TightSCF  NoKeepInts
|  2>
|  3> %scf
|  4>   MaxCore 4096
|  5> end
|  6> *xyz  0  1
|  7>     C       14.2777801   15.0400826   16.1846155
|  8>     C       15.7099780   14.6590106   15.7734627
|  9>     O       16.5133023   15.8474845   15.8815241
| 10>     C       17.6855711   15.7994943   16.5776403
| 11>     O       18.3292590   14.7684144   16.6846167
| 12>     C       17.8830041   16.9632588   17.5048708
| 13>     C       17.3255971   18.1904459   17.3353304
| 14>     C       16.4355789   18.6595876   16.2027124
| 15>     N       17.6192227   19.2171286   18.2386878
| 16>     C       18.5570839   19.1405534   19.2343822
| 17>     S       18.9302868   20.4436032   20.1822115
| 18>     N       19.1713181   17.9256240   19.4037246
| 19>     C       18.7878947   16.6821427   18.7092338
| 20>     C       18.1160984   15.7143947   19.6798933
| 21>     C       18.6189341   14.4112585   19.8500142
| 22>     C       17.9994974   13.5143097   20.7364295
| 23>     C       16.8659796   13.9226113   21.4596901
| 24>     C       16.3594183   15.2182591   21.2901271
| 25>     O       15.2605359   15.6131929   21.9813733
| 26>     C       16.9781220   16.1087548   20.4072096
| 27>     H       14.2575570   15.4047817   17.2194495
| 28>     H       13.6140061   14.1696786   16.1153010
| 29>     H       13.8826665   15.8267790   15.5300916
| 30>     H       16.0703164   13.8628499   16.4399261
| 31>     H       15.7274930   14.2827698   14.7424368
| 32>     H       16.8461784   18.3561914   15.2315541
| 33>     H       16.3247767   19.7504023   16.1764888
| 34>     H       15.4320909   18.2256795   16.2946081
| 35>     H       17.1792720   20.1169994   18.1305470
| 36>     H       19.8360969   17.8869565   20.1656335
| 37>     H       19.7086624   16.2120174   18.3345608
| 38>     H       19.4845420   14.0870937   19.2774367
| 39>     H       18.3951022   12.5071036   20.8542525
| 40>     H       16.3832866   13.2323365   22.1433987
| 41>     H       15.0087111   14.8829048   22.5662801
| 42>     H       16.5717796   17.1078442   20.2942847
| 43> *
| 44>
| 45>                          ****END OF INPUT****

CARTESIAN COORDINATES (ANGSTROEM)
---------------------------------
  C     14.277780   15.040083   16.184615
  C     15.709978   14.659011   15.773463
  O     16.513302   15.847484   15.881524
  C     17.685571   15.799494   16.577640
  O     18.329259   14.768414   16.684617
  C     17.883004   16.963259   17.504871
  C     17.325597   18.190446   17.335330
  C     16.435579   18.659588   16.202712
  N     17.619223   19.217129   18.238688
  C     18.557084   19.140553   19.234382
  S     18.930287   20.443603   20.182211
  N     19.171318   17.925624   19.403725
  C     18.787895   16.682143   18.709234
  C     18.116098   15.714395   19.679893
  C     18.618934   14.411258   19.850014
  C     17.999497   13.514310   20.736429
  C     16.865980   13.922611   21.459690
  C     16.359418   15.218259   21.290127
  O     15.260536   15.613193   21.981373
  C     16.978122   16.108755   20.407210
  H     14.257557   15.404782   17.219449
  H     13.614006   14.169679   16.115301
  H     13.882666   15.826779   15.530092
  H     16.070316   13.862850   16.439926
  H     15.727493   14.282770   14.742437
  H     16.846178   18.356191   15.231554
  H     16.324777   19.750402   16.176489
  H     15.432091   18.225679   16.294608
  H     17.179272   20.116999   18.130547
  H     19.836097   17.886956   20.165633
  H     19.708662   16.212017   18.334561
  H     19.484542   14.087094   19.277437
  H     18.395102   12.507104   20.854253
  H     16.383287   13.232336   22.143399
  H     15.008711   14.882905   22.566280
  H     16.571780   17.107844   20.294285

 Total Charge           Charge          ....    0
 Multiplicity           Mult            ....    1
 Number of Electrons    NEL             ....  154
 Basis Dimension        Dim             ....  828

ORBITAL ENERGIES
----------------

  NO   OCC          E(Eh)            E(eV)
   0   2.0000     -91.888260     -2500.4067
   1   2.0000     -20.597786      -560.4943
   2   2.0000     -20.593415      -560.3753
   3   2.0000     -20.548197      -559.1449
   4   2.0000     -15.628335      -425.2686
   5   2.0000     -15.607231      -424.6943
   6   2.0000     -11.395363      -310.0836
   7   2.0000     -11.383354      -309.7568
   8   2.0000     -11.335165      -308.4455
   9   2.0000     -11.309320      -307.7422
  10   2.0000     -11.306619      -307.6688
  11   2.0000     -11.299102      -307.4642
  12   2.0000     -11.260364      -306.4101
  13   2.0000     -11.259155      -306.3772
  14   2.0000     -11.255000      -306.2641
  15   2.0000     -11.249400      -306.1117
  16   2.0000     -11.239007      -305.8289
  17   2.0000     -11.235114      -305.7230
  18   2.0000     -11.232838      -305.6611
  19   2.0000     -11.232138      -305.6420
  20   2.0000      -8.893326      -241.9997
  21   2.0000      -6.574904      -178.9122
  22   2.0000      -6.572896      -178.8576
  23   2.0000      -6.572312      -178.8417
  24   2.0000      -1.453752       -39.5586
  25   2.0000      -1.413163       -38.4541
  26   2.0000      -1.357109       -36.9288
  27   2.0000      -1.339380       -36.4464
  28   2.0000      -1.237253       -33.6674
  29   2.0000      -1.153668       -31.3929
  30   2.0000      -1.120171       -30.4814
  31   2.0000      -1.044247       -28.4154
  32   2.0000      -1.036968       -28.2173
  33   2.0000      -1.011063       -27.5124
  34   2.0000      -0.998384       -27.1674
  35   2.0000      -0.983978       -26.7754
  36   2.0000      -0.921909       -25.0864
  37   2.0000      -0.889132       -24.1945
  38   2.0000      -0.847263       -23.0552
  39   2.0000      -0.836082       -22.7509
  40   2.0000      -0.829509       -22.5721
  41   2.0000      -0.817960       -22.2578
  42   2.0000      -0.760669       -20.6988
  43   2.0000      -0.736190       -20.0328
  44   2.0000      -0.726051       -19.7568
  45   2.0000      -0.692189       -18.8354
  46   2.0000      -0.684763       -18.6333
  47   2.0000      -0.679476       -18.4895
  48   2.0000      -0.676286       -18.4027
  49   2.0000      -0.660499       -17.9731
  50   2.0000      -0.650312       -17.6959
  51   2.0000      -0.644357       -17.5339
  52   2.0000      -0.635455       -17.2916
  53   2.0000      -0.602563       -16.3966
  54   2.0000      -0.601233       -16.3604
  55   2.0000      -0.596939       -16.2435
  56   2.0000      -0.592090       -16.1116
  57   2.0000      -0.581140       -15.8136
  58   2.0000      -0.574642       -15.6368
  59   2.0000      -0.566330       -15.4106
  60   2.0000      -0.559901       -15.2357
  61   2.0000      -0.558062       -15.1857
  62   2.0000      -0.540725       -14.7139
  63   2.0000      -0.520731       -14.1698
  64   2.0000      -0.518857       -14.1188
  65   2.0000      -0.511028       -13.9058
  66   2.0000      -0.500943       -13.6314
  67   2.0000      -0.496542       -13.5116
  68   2.0000      -0.481557       -13.1038
  69   2.0000      -0.462857       -12.5950
  70   2.0000      -0.457728       -12.4554
  71   2.0000      -0.457051       -12.4370
  72   2.0000      -0.354083        -9.6351
  73   2.0000      -0.345480        -9.4010
  74   2.0000      -0.327458        -8.9106
  75   2.0000      -0.316577        -8.6145
  76   2.0000      -0.314890        -8.5686
  77   0.0000       0.074864         2.0371
  78   0.0000       0.109264         2.9732
  79   0.0000       0.119845         3.2612
  80   0.0000       0.134792         3.6679
  81   0.0000       0.140153         3.8138

MULLIKEN ATOMIC CHARGES
-----------------------
   0 C :   -0.281982
   1 C :    0.039223
   2 O :   -0.351535
   3 C :    0.441640
   4 O :   -0.417076
   5 C :   -0.178075
   6 C :    0.141742
   7 C :   -0.286491
   8 N :   -0.123822
   9 C :    0.202801
  10 S :   -0.439760
  11 N :   -0.198612
  12 C :    0.043865
  13 C :    0.054055
  14 C :   -0.161446
  15 C :   -0.133422
  16 C :   -0.280072
  17 C :    0.311931
  18 O :   -0.359200
  19 C :   -0.276781
  20 H :    0.102614
  21 H :    0.103494
  22 H :    0.091448
  23 H :    0.105556
  24 H :    0.099039
  25 H :    0.126664
  26 H :    0.104687
  27 H :    0.125732
  28 H :    0.197008
  29 H :    0.193942
  30 H :    0.153871
  31 H :    0.153973
  32 H :    0.159879
  33 H :    0.128813
  34 H :    0.240458
  35 H :    0.165836
Sum of atomic charges:   -0.0000000

LOEWDIN ATOMIC CHARGES
----------------------
   0 C :    0.103905
   1 C :   -0.012764
   2 O :    0.303677
   3 C :   -0.415965
   4 O :    0.110428
   5 C :   -0.092500
   6 C :   -0.069101
   7 C :    0.125274
   8 N :    0.404529
   9 C :   -0.458291
  10 S :   -0.036289
  11 N :    0.397563
  12 C :   -0.046083
  13 C :   -0.039205
  14 C :    0.021945
  15 C :    0.041032
  16 C :   -0.002373
  17 C :   -0.193259
  18 O :    0.392983
  19 C :    0.027893
  20 H :   -0.025776
  21 H :   -0.023864
  22 H :   -0.030539
  23 H :   -0.025092
  24 H :   -0.029784
  25 H :   -0.008038
  26 H :   -0.020487
  27 H :   -0.010385
  28 H :   -0.059005
  29 H :   -0.063829
  30 H :   -0.004806
  31 H :   -0.025064
  32 H :   -0.020941
  33 H :   -0.036205
  34 H :   -0.154643
  35 H :   -0.024941

  Mayer bond orders larger than 0.100000
B(  0-C ,  1-C ) :   0.9703 B(  0-C , 20-H ) :   0.9755 B(  0-C , 21-H ) :   0.9782
B(  0-C , 22-H ) :   0.9784 B(  1-C ,  2-O ) :   0.8949 B(  1-C , 23-H ) :   0.9717
B(  1-C , 24-H ) :   0.9838 B(  2-O ,  3-C ) :   1.1395 B(  3-C ,  4-O ) :   2.0032
B(  3-C ,  5-C ) :   1.0391 B(  5-C ,  6-C ) :   1.6570 B(  5-C , 12-C ) :   0.9653
B(  6-C ,  7-C ) :   0.9547 B(  6-C ,  8-N ) :   1.1441 B(  7-C , 25-H ) :   0.9675
B(  7-C , 26-H ) :   0.9898 B(  7-C , 27-H ) :   0.9643 B(  8-N ,  9-C ) :   1.1813
B(  8-N , 28-H ) :   0.9491 B(  9-C , 10-S ) :   1.6102 B(  9-C , 11-N ) :   1.3029
B( 11-N , 12-C ) :   0.9916 B( 11-N , 29-H ) :   0.9519 B( 12-C , 13-C ) :   0.9459
B( 12-C , 30-H ) :   0.9988 B( 13-C , 14-C ) :   1.3762 B( 13-C , 19-C ) :   1.3685
B( 14-C , 15-C ) :   1.3941 B( 14-C , 31-H ) :   0.9647 B( 15-C , 16-C ) :   1.3630
B( 15-C , 32-H ) :   0.9712 B( 16-C , 17-C ) :   1.3317 B( 16-C , 33-H ) :   0.9857
B( 17-C , 18-O ) :   1.1084 B( 17-C , 19-C ) :   1.3769 B( 18-O , 34-H ) :   0.9803
B( 19-C , 35-H ) :   0.9584

MP2 TOTAL ENERGY:    -1274.340198180 Eh
FINAL SINGLE POINT ENERGY     -1274.340198179676

DIPOLE MOMENT
-------------
                                X             Y             Z
Electronic contribution:     11.76637       8.45940       8.58342
Nuclear contribution   :    -13.18384      -9.79447      -9.46097
                        -----------------------------------------
Total Dipole Moment    :     -1.41747      -1.33507      -0.87756
                        -----------------------------------------
Magnitude (a.u.)       :      2.13583
Magnitude (Debye)      :      5.42884

Rotational constants in cm-1:     0.010727     0.009248     0.006366
Rotational constants in MHz :   321.588808   277.261972   190.851347

                             ****ORCA TERMINATED NORMALLY****
TOTAL RUN TIME: 0 days 1 hours 38 minutes 12 seconds 38 msec
