                         Program Version 4.2.0 -  RELEASE  -
|  1> ! ri-mp2 cc-pvtz cc-pvtz/c TightSCF  NoKeepInts
|  2>
|  3> %scf
|  4>   MaxCore 4096
|  5> end
|  6> *xyz  0  1
|  7>     C       15.4775373   13.8470986   16.5591185
|  8>     C       15.3068678   15.1766013   15.7906441
|  9>     O       16.4725009   16.0410528   15.7795976
| 10>     C       17.5775791   15.8746887   16.5681663
| 11>     O       18.1765773   14.8165580   16.6614785
| 12>     C       17.8611117   17.0345887   17.4778892
| 13>     C       17.4320670   18.3076940   17.2761122
| 14>     C       16.6317864   18.8476884   16.1086224
| 15>     N       17.7901387   19.3123973   18.1809953
| 16>     C       18.6659319   19.1553184   19.2225699
| 17>     S       19.1167100   20.4258649   20.1806916
| 18>     N       19.1480331   17.8881255   19.4308143
| 19>     C       18.6891186   16.6813504   18.7177606
| 20>     C       17.8952098   15.7733087   19.6535295
| 21>     C       18.2565236   14.4227538   19.8126947
| 22>     C       17.5184915   13.5783562   20.6588474
| 23>     C       16.4080161   14.0877523   21.3530249
| 24>     C       16.0423546   15.4313095   21.1945743
| 25>     O       14.9654748   15.9241860   21.8568206
| 26>     C       16.7782941   16.2690625   20.3507839
| 27>     H       16.2436725   13.2167130   16.0902500
| 28>     H       14.5367950   13.2838042   16.5552788
| 29>     H       15.7568938   14.0236646   17.6061016
| 30>     H       15.0162747   14.9571349   14.7551711
| 31>     H       14.4749794   15.7264986   16.2492577
| 32>     H       15.5886568   18.5135330   16.1656504
| 33>     H       17.0478263   18.4978049   15.1554093
| 34>     H       16.6274763   19.9438381   16.0710026
| 35>     H       17.4482504   20.2503084   18.0451649
| 36>     H       19.7686064   17.7930316   20.2244311
| 37>     H       19.5817227   16.1346698   18.3803482
| 38>     H       19.1030327   14.0213333   19.2605875
| 39>     H       17.8051820   12.5338961   20.7677415
| 40>     H       15.8341198   13.4384831   22.0057792
| 41>     H       14.6243515   15.2155454   22.4228842
| 42>     H       16.4788354   17.3059851   20.2442059
| 43> *
| 44>
| 45>                          ****END OF INPUT****

CARTESIAN COORDINATES (ANGSTROEM)
---------------------------------
  C     15.477537   13.847099   16.559119
  C     15.306868   15.176601   15.790644
  O     16.472501   16.041053   15.779598
  C     17.577579   15.874689   16.568166
  O     18.176577   14.816558   16.661479
  C     17.861112   17.034589   17.477889
  C     17.432067   18.307694   17.276112
  C     16.631786   18.847688   16.108622
  N     17.790139   19.312397   18.180995
  C     18.665932   19.155318   19.222570
  S     19.116710   20.425865   20.180692
  N     19.148033   17.888126   19.430814
  C     18.689119   16.681350   18.717761
  C     17.895210   15.773309   19.653529
  C     18.256524   14.422754   19.812695
  C     17.518491   13.578356   20.658847
  C     16.408016   14.087752   21.353025
  C     16.042355   15.431309   21.194574
  O     14.965475   15.924186   21.856821
  C     16.778294   16.269063   20.350784
  H     16.243672   13.216713   16.090250
  H     14.536795   13.283804   16.555279
  H     15.756894   14.023665   17.606102
  H     15.016275   14.957135   14.755171
  H     14.474979   15.726499   16.249258
  H     15.588657   18.513533   16.165650
  H     17.047826   18.497805   15.155409
  H     16.627476   19.943838   16.071003
  H     17.448250   20.250308   18.045165
  H     19.768606   17.793032   20.224431
  H     19.581723   16.134670   18.380348
  H     19.103033   14.021333   19.260587
  H     17.805182   12.533896   20.767741
  H     15.834120   13.438483   22.005779
  H     14.624351   15.215545   22.422884
  H     16.478835   17.305985   20.244206

 Total Charge           Charge          ....    0
 Multiplicity           Mult            ....    1
 Number of Electrons    NEL             ....  154
 Basis Dimension        Dim             ....  828

ORBITAL ENERGIES
----------------

  NO   OCC          E(Eh)            E(eV)
   0   2.0000     -91.888368     -2500.4096
   1   2.0000     -20.594516      -560.4053
   2   2.0000     -20.590144      -560.2863
   3   2.0000     -20.548626      -559.1565
   4   2.0000     -15.628305      -425.2678
   5   2.0000     -15.607359      -424.6978
   6   2.0000     -11.396621      -310.1178
   7   2.0000     -11.383449      -309.7594
   8   2.0000     -11.335303      -308.4493
   9   2.0000     -11.310654      -307.7785
  10   2.0000     -11.306843      -307.6748
  11   2.0000     -11.306326      -307.6608
  12   2.0000     -11.259318      -306.3816
  13   2.0000     -11.258997      -306.3729
  14   2.0000     -11.256074      -306.2933
  15   2.0000     -11.250645      -306.1456
  16   2.0000     -11.240416      -305.8673
  17   2.0000     -11.236406      -305.7582
  18   2.0000     -11.233165      -305.6700
  19   2.0000     -11.225073      -305.4498
  20   2.0000      -8.893438      -242.0028
  21   2.0000      -6.575017      -178.9153
  22   2.0000      -6.573008      -178.8606
  23   2.0000      -6.572424      -178.8447
  24   2.0000      -1.444896       -39.3176
  25   2.0000      -1.414287       -38.4847
  26   2.0000      -1.355494       -36.8849
  27   2.0000      -1.339371       -36.4461
  28   2.0000      -1.237336       -33.6696
  29   2.0000      -1.154788       -31.4234
  30   2.0000      -1.119846       -30.4726
  31   2.0000      -1.042957       -28.3803
  32   2.0000      -1.033262       -28.1165
  33   2.0000      -1.012265       -27.5451
  34   2.0000      -0.998501       -27.1706
  35   2.0000      -0.983736       -26.7688
  36   2.0000      -0.922731       -25.1088
  37   2.0000      -0.895498       -24.3677
  38   2.0000      -0.848700       -23.0943
  39   2.0000      -0.837476       -22.7889
  40   2.0000      -0.830760       -22.6061
  41   2.0000      -0.819933       -22.3115
  42   2.0000      -0.743013       -20.2184
  43   2.0000      -0.727297       -19.7908
  44   2.0000      -0.725175       -19.7330
  45   2.0000      -0.692244       -18.8369
  46   2.0000      -0.684680       -18.6311
  47   2.0000      -0.676671       -18.4132
  48   2.0000      -0.675100       -18.3704
  49   2.0000      -0.665237       -18.1020
  50   2.0000      -0.648824       -17.6554
  51   2.0000      -0.644956       -17.5501
  52   2.0000      -0.635187       -17.2843
  53   2.0000      -0.616659       -16.7802
  54   2.0000      -0.603016       -16.4089
  55   2.0000      -0.601343       -16.3634
  56   2.0000      -0.598070       -16.2743
  57   2.0000      -0.575963       -15.6728
  58   2.0000      -0.574543       -15.6341
  59   2.0000      -0.565743       -15.3946
  60   2.0000      -0.554444       -15.0872
  61   2.0000      -0.545667       -14.8484
  62   2.0000      -0.537149       -14.6166
  63   2.0000      -0.526264       -14.3204
  64   2.0000      -0.518264       -14.1027
  65   2.0000      -0.511095       -13.9076
  66   2.0000      -0.499673       -13.5968
  67   2.0000      -0.495269       -13.4769
  68   2.0000      -0.480318       -13.0701
  69   2.0000      -0.463836       -12.6216
  70   2.0000      -0.454601       -12.3703
  71   2.0000      -0.448598       -12.2070
  72   2.0000      -0.353898        -9.6300
  73   2.0000      -0.346700        -9.4342
  74   2.0000      -0.327631        -8.9153
  75   2.0000      -0.317745        -8.6463
  76   2.0000      -0.315318        -8.5802
  77   0.0000       0.073968         2.0128
  78   0.0000       0.108415         2.9501
  79   0.0000       0.121111         3.2956
  80   0.0000       0.133549         3.6341
  81   0.0000       0.139154         3.7866

MULLIKEN ATOMIC CHARGES
-----------------------
   0 C :   -0.302699
   1 C :    0.056938
   2 O :   -0.374666
   3 C :    0.439596
   4 O :   -0.405053
   5 C :   -0.179274
   6 C :    0.143805
   7 C :   -0.282929
   8 N :   -0.123402
   9 C :    0.202418
  10 S :   -0.439817
  11 N :   -0.201761
  12 C :    0.053278
  13 C :    0.039818
  14 C :   -0.167094
  15 C :   -0.134313
  16 C :   -0.279177
  17 C :    0.309404
  18 O :   -0.358624
  19 C :   -0.269089
  20 H :    0.118598
  21 H :    0.099987
  22 H :    0.114814
  23 H :    0.099295
  24 H :    0.083271
  25 H :    0.122769
  26 H :    0.129604
  27 H :    0.103404
  28 H :    0.196980
  29 H :    0.194486
  30 H :    0.154713
  31 H :    0.156704
  32 H :    0.160552
  33 H :    0.129991
  34 H :    0.240493
  35 H :    0.166981
Sum of atomic charges:   -0.0000000

LOEWDIN ATOMIC CHARGES
----------------------
   0 C :    0.105642
   1 C :   -0.010363
   2 O :    0.286648
   3 C :   -0.415758
   4 O :    0.121823
   5 C :   -0.093548
   6 C :   -0.068444
   7 C :    0.125297
   8 N :    0.404537
   9 C :   -0.458409
  10 S :   -0.036404
  11 N :    0.397597
  12 C :   -0.046336
  13 C :   -0.040895
  14 C :    0.021644
  15 C :    0.040528
  16 C :   -0.002641
  17 C :   -0.193555
  18 O :    0.393365
  19 C :    0.027492
  20 H :   -0.023366
  21 H :   -0.026278
  22 H :   -0.023757
  23 H :   -0.025896
  24 H :   -0.032482
  25 H :   -0.010668
  26 H :   -0.006967
  27 H :   -0.020632
  28 H :   -0.059031
  29 H :   -0.063841
  30 H :   -0.005147
  31 H :   -0.024664
  32 H :   -0.020696
  33 H :   -0.035918
  34 H :   -0.154422
  35 H :   -0.024452

  Mayer bond orders larger than 0.100000
B(  0-C ,  1-C ) :   0.9779 B(  0-C , 20-H ) :   0.9718 B(  0-C , 21-H ) :   0.9728
B(  0-C , 22-H ) :   0.9686 B(  1-C ,  2-O ) :   0.9032 B(  1-C , 23-H ) :   0.9797
B(  1-C , 24-H ) :   0.9758 B(  2-O ,  3-C ) :   1.1052 B(  3-C ,  4-O ) :   2.0221
B(  3-C ,  5-C ) :   1.0260 B(  5-C ,  6-C ) :   1.6593 B(  5-C , 12-C ) :   0.9625
B(  6-C ,  7-C ) :   0.9526 B(  6-C ,  8-N ) :   1.1446 B(  7-C , 25-H ) :   0.9657
B(  7-C , 26-H ) :   0.9663 B(  7-C , 27-H ) :   0.9903 B(  8-N ,  9-C ) :   1.1819
B(  8-N , 28-H ) :   0.9489 B(  9-C , 10-S ) :   1.6100 B(  9-C , 11-N ) :   1.3029
B( 11-N , 12-C ) :   0.9907 B( 11-N , 29-H ) :   0.9516 B( 12-C , 13-C ) :   0.9431
B( 12-C , 30-H ) :   0.9996 B( 13-C , 14-C ) :   1.3791 B( 13-C , 19-C ) :   1.3687
B( 14-C , 15-C ) :   1.3944 B( 14-C , 31-H ) :   0.9638 B( 15-C , 16-C ) :   1.3616
B( 15-C , 32-H ) :   0.9712 B( 16-C , 17-C ) :   1.3314 B( 16-C , 33-H ) :   0.9853
B( 17-C , 18-O ) :   1.1095 B( 17-C , 19-C ) :   1.3763 B( 18-O , 34-H ) :   0.9801
B( 19-C , 35-H ) :   0.9577

MP2 TOTAL ENERGY:    -1274.332258533 Eh
FINAL SINGLE POINT ENERGY     -1274.332258533050

DIPOLE MOMENT
-------------
                                X             Y             Z
Electronic contribution:      9.89805      10.24160       7.88010
Nuclear contribution   :    -11.47663     -11.47504      -8.68237
                        -----------------------------------------
Total Dipole Moment    :     -1.57858      -1.23345      -0.80227
                        -----------------------------------------
Magnitude (a.u.)       :      2.15799
Magnitude (Debye)      :      5.48518

Rotational constants in cm-1:     0.011587     0.009172     0.006339
Rotational constants in MHz :   347.383459   274.957072   190.049320

                             ****ORCA TERMINATED NORMALLY****
TOTAL RUN TIME: 0 days 2 hours 6 minutes 25 seconds 230 msec
