                         Program Version 5.0.0 -  RELEASE  -
|  1> ! ri-mp2 cc-pvtz cc-pvtz/c TightSCF NoKeepInts
|  2>
|  3> %scf
|  4>   MaxCore 4096
|  5> end
|  6> *xyz  0  1
|  7>     C       14.4122658   14.9603620   16.5399115
|  8>     C       15.7106430   14.6922853   15.7597195
|  9>     O       16.5217713   15.8764098   15.8657673
| 10>     C       17.7058676   15.8252478   16.5425829
| 11>     O       18.3500952   14.7941019   16.6450792
| 12>     C       17.9055119   16.9834029   17.4753270
| 13>     C       17.3668102   18.2174811   17.2984654
| 14>     C       16.5075578   18.6990998   16.1476288
| 15>     N       17.6522717   19.2372480   18.2120235
| 16>     C       18.5606747   19.1430157   19.2332473
| 17>     S       18.9233239   20.4359762   20.1988498
| 18>     N       19.1546966   17.9194493   19.4129856
| 19>     C       18.7807282   16.6853396   18.6969208
| 20>     C       18.0779936   15.7129367   19.6404234
| 21>     C       18.5756088   14.4093694   19.8217854
| 22>     C       17.9250585   13.5073554   20.6803474
| 23>     C       16.7651998   13.9108489   21.3634715
| 24>     C       16.2638362   15.2069212   21.1821762
| 25>     O       15.1392004   15.5969296   21.8336063
| 26>     C       16.9138273   16.1026563   20.3275685
| 27>     H       14.6306078   15.1415418   17.6002902
| 28>     H       13.7383361   14.0977247   16.4722426
| 29>     H       13.8904735   15.8372324   16.1372481
| 30>     H       16.2117341   13.8027496   16.1654894
| 31>     H       15.4733030   14.5004173   14.7054414
| 32>     H       16.9243520   18.3749257   15.1858847
| 33>     H       16.4276387   19.7922686   16.1094433
| 34>     H       15.4913968   18.2932766   16.2280434
| 35>     H       17.2266881   20.1431497   18.0968934
| 36>     H       19.7969249   17.8683363   20.1932693
| 37>     H       19.7068883   16.2126743   18.3391432
| 38>     H       19.4614435   14.0887511   19.2789847
| 39>     H       18.3169411   12.4997859   20.8071714
| 40>     H       16.2582594   13.2164374   22.0250894
| 41>     H       14.8681771   14.8643546   22.4069980
| 42>     H       16.5108934   17.1019371   20.2044802
| 43> *
| 44>
| 45>                          ****END OF INPUT****

CARTESIAN COORDINATES (ANGSTROEM)
---------------------------------
  C     14.412266   14.960362   16.539911
  C     15.710643   14.692285   15.759719
  O     16.521771   15.876410   15.865767
  C     17.705868   15.825248   16.542583
  O     18.350095   14.794102   16.645079
  C     17.905512   16.983403   17.475327
  C     17.366810   18.217481   17.298465
  C     16.507558   18.699100   16.147629
  N     17.652272   19.237248   18.212024
  C     18.560675   19.143016   19.233247
  S     18.923324   20.435976   20.198850
  N     19.154697   17.919449   19.412986
  C     18.780728   16.685340   18.696921
  C     18.077994   15.712937   19.640423
  C     18.575609   14.409369   19.821785
  C     17.925058   13.507355   20.680347
  C     16.765200   13.910849   21.363471
  C     16.263836   15.206921   21.182176
  O     15.139200   15.596930   21.833606
  C     16.913827   16.102656   20.327568
  H     14.630608   15.141542   17.600290
  H     13.738336   14.097725   16.472243
  H     13.890473   15.837232   16.137248
  H     16.211734   13.802750   16.165489
  H     15.473303   14.500417   14.705441
  H     16.924352   18.374926   15.185885
  H     16.427639   19.792269   16.109443
  H     15.491397   18.293277   16.228043
  H     17.226688   20.143150   18.096893
  H     19.796925   17.868336   20.193269
  H     19.706888   16.212674   18.339143
  H     19.461443   14.088751   19.278985
  H     18.316941   12.499786   20.807171
  H     16.258259   13.216437   22.025089
  H     14.868177   14.864355   22.406998
  H     16.510893   17.101937   20.204480

 Total Charge           Charge          ....    0
 Multiplicity           Mult            ....    1
 Number of Electrons    NEL             ....  154
 Basis Dimension        Dim             ....  828

ORBITAL ENERGIES
----------------

  NO   OCC          E(Eh)            E(eV)
   0   2.0000     -91.888149     -2500.4037
   1   2.0000     -20.597484      -560.4860
   2   2.0000     -20.593940      -560.3896
   3   2.0000     -20.548627      -559.1566
   4   2.0000     -15.628048      -425.2608
   5   2.0000     -15.607299      -424.6962
   6   2.0000     -11.395775      -310.0948
   7   2.0000     -11.383348      -309.7566
   8   2.0000     -11.334500      -308.4274
   9   2.0000     -11.309868      -307.7572
  10   2.0000     -11.306861      -307.6753
  11   2.0000     -11.298287      -307.4420
  12   2.0000     -11.260029      -306.4010
  13   2.0000     -11.259112      -306.3760
  14   2.0000     -11.255440      -306.2761
  15   2.0000     -11.249965      -306.1271
  16   2.0000     -11.239555      -305.8438
  17   2.0000     -11.235570      -305.7354
  18   2.0000     -11.232746      -305.6585
  19   2.0000     -11.230569      -305.5993
  20   2.0000      -8.893219      -241.9968
  21   2.0000      -6.574797      -178.9093
  22   2.0000      -6.572789      -178.8547
  23   2.0000      -6.572205      -178.8388
  24   2.0000      -1.453237       -39.5446
  25   2.0000      -1.413696       -38.4686
  26   2.0000      -1.357346       -36.9353
  27   2.0000      -1.339176       -36.4408
  28   2.0000      -1.237193       -33.6657
  29   2.0000      -1.154189       -31.4071
  30   2.0000      -1.120311       -30.4852
  31   2.0000      -1.043949       -28.4073
  32   2.0000      -1.036185       -28.1960
  33   2.0000      -1.011542       -27.5255
  34   2.0000      -0.998467       -27.1697
  35   2.0000      -0.983965       -26.7750
  36   2.0000      -0.922136       -25.0926
  37   2.0000      -0.889951       -24.2168
  38   2.0000      -0.847258       -23.0551
  39   2.0000      -0.836282       -22.7564
  40   2.0000      -0.830043       -22.5866
  41   2.0000      -0.816771       -22.2255
  42   2.0000      -0.759591       -20.6695
  43   2.0000      -0.736389       -20.0382
  44   2.0000      -0.726379       -19.7658
  45   2.0000      -0.692556       -18.8454
  46   2.0000      -0.685123       -18.6431
  47   2.0000      -0.678337       -18.4585
  48   2.0000      -0.675514       -18.3817
  49   2.0000      -0.660929       -17.9848
  50   2.0000      -0.650256       -17.6944
  51   2.0000      -0.644689       -17.5429
  52   2.0000      -0.635145       -17.2832
  53   2.0000      -0.603304       -16.4167
  54   2.0000      -0.601529       -16.3684
  55   2.0000      -0.597436       -16.2571
  56   2.0000      -0.591136       -16.0856
  57   2.0000      -0.583328       -15.8732
  58   2.0000      -0.575066       -15.6483
  59   2.0000      -0.564515       -15.3612
  60   2.0000      -0.560362       -15.2482
  61   2.0000      -0.557001       -15.1568
  62   2.0000      -0.539852       -14.6901
  63   2.0000      -0.522810       -14.2264
  64   2.0000      -0.519276       -14.1302
  65   2.0000      -0.510822       -13.9002
  66   2.0000      -0.499661       -13.5965
  67   2.0000      -0.496640       -13.5143
  68   2.0000      -0.482014       -13.1163
  69   2.0000      -0.463328       -12.6078
  70   2.0000      -0.457977       -12.4622
  71   2.0000      -0.454380       -12.3643
  72   2.0000      -0.353856        -9.6289
  73   2.0000      -0.345948        -9.4137
  74   2.0000      -0.327393        -8.9088
  75   2.0000      -0.317049        -8.6273
  76   2.0000      -0.314964        -8.5706
  77   0.0000       0.075084         2.0431
  78   0.0000       0.109023         2.9667
  79   0.0000       0.119751         3.2586
  80   0.0000       0.133921         3.6442
  81   0.0000       0.141481         3.8499

MULLIKEN ATOMIC CHARGES
-----------------------
   0 C :   -0.278597
   1 C :    0.027402
   2 O :   -0.354382
   3 C :    0.446724
   4 O :   -0.418199
   5 C :   -0.179996
   6 C :    0.140726
   7 C :   -0.284930
   8 N :   -0.124301
   9 C :    0.204283
  10 S :   -0.440249
  11 N :   -0.199103
  12 C :    0.046853
  13 C :    0.053972
  14 C :   -0.160297
  15 C :   -0.132849
  16 C :   -0.280493
  17 C :    0.314864
  18 O :   -0.360270
  19 C :   -0.283022
  20 H :    0.107898
  21 H :    0.099728
  22 H :    0.088547
  23 H :    0.114121
  24 H :    0.100570
  25 H :    0.125728
  26 H :    0.103674
  27 H :    0.126201
  28 H :    0.196955
  29 H :    0.194076
  30 H :    0.153935
  31 H :    0.153757
  32 H :    0.159891
  33 H :    0.129281
  34 H :    0.240581
  35 H :    0.166920
Sum of atomic charges:    0.0000000

LOEWDIN ATOMIC CHARGES
----------------------
   0 C :    0.103590
   1 C :   -0.012919
   2 O :    0.303893
   3 C :   -0.414868
   4 O :    0.110853
   5 C :   -0.092348
   6 C :   -0.070266
   7 C :    0.125351
   8 N :    0.404386
   9 C :   -0.457905
  10 S :   -0.036601
  11 N :    0.397494
  12 C :   -0.045973
  13 C :   -0.039488
  14 C :    0.022033
  15 C :    0.041361
  16 C :   -0.002334
  17 C :   -0.193567
  18 O :    0.393138
  19 C :    0.028322
  20 H :   -0.024659
  21 H :   -0.025003
  22 H :   -0.030924
  23 H :   -0.025900
  24 H :   -0.029326
  25 H :   -0.008098
  26 H :   -0.020389
  27 H :   -0.010650
  28 H :   -0.058989
  29 H :   -0.063893
  30 H :   -0.004908
  31 H :   -0.025084
  32 H :   -0.020865
  33 H :   -0.036103
  34 H :   -0.154492
  35 H :   -0.024870

  Mayer bond orders larger than 0.100000
B(  0-C ,  1-C ) :   0.9696 B(  0-C , 20-H ) :   0.9738 B(  0-C , 21-H ) :   0.9775
B(  0-C , 22-H ) :   0.9796 B(  1-C ,  2-O ) :   0.8891 B(  1-C , 23-H ) :   0.9718
B(  1-C , 24-H ) :   0.9842 B(  2-O ,  3-C ) :   1.1395 B(  3-C ,  4-O ) :   2.0013
B(  3-C ,  5-C ) :   1.0331 B(  5-C ,  6-C ) :   1.6606 B(  5-C , 12-C ) :   0.9647
B(  6-C ,  7-C ) :   0.9545 B(  6-C ,  8-N ) :   1.1436 B(  7-C , 25-H ) :   0.9683
B(  7-C , 26-H ) :   0.9893 B(  7-C , 27-H ) :   0.9637 B(  8-N ,  9-C ) :   1.1822
B(  8-N , 28-H ) :   0.9493 B(  9-C , 10-S ) :   1.6096 B(  9-C , 11-N ) :   1.3025
B( 11-N , 12-C ) :   0.9926 B( 11-N , 29-H ) :   0.9518 B( 12-C , 13-C ) :   0.9459
B( 12-C , 30-H ) :   0.9988 B( 13-C , 14-C ) :   1.3760 B( 13-C , 19-C ) :   1.3663
B( 14-C , 15-C ) :   1.3938 B( 14-C , 31-H ) :   0.9647 B( 15-C , 16-C ) :   1.3633
B( 15-C , 32-H ) :   0.9712 B( 16-C , 17-C ) :   1.3321 B( 16-C , 33-H ) :   0.9854
B( 17-C , 18-O ) :   1.1071 B( 17-C , 19-C ) :   1.3754 B( 18-O , 34-H ) :   0.9802
B( 19-C , 35-H ) :   0.9584

MP2 TOTAL ENERGY:    -1274.339871422 Eh
FINAL SINGLE POINT ENERGY     -1274.339871421927

DIPOLE MOMENT
-------------
                                X             Y             Z
Electronic contribution:     11.44745       8.57272       7.89556
Nuclear contribution   :    -12.84238      -9.91059      -8.77667
                        -----------------------------------------
Total Dipole Moment    :     -1.39493      -1.33787      -0.88110
                        -----------------------------------------
Magnitude (a.u.)       :      2.12417
Magnitude (Debye)      :      5.39921

Rotational constants in cm-1:     0.011086     0.009234     0.006475
Rotational constants in MHz :   332.351216   276.830535   194.114284

                             ****ORCA TERMINATED NORMALLY****
TOTAL RUN TIME: 0 days 1 hours 50 minutes 48 seconds 503 msec
