                         Program Version 4.2.0 -  RELEASE  -
|  1> ! ri-mp2 cc-pvtz cc-pvtz/c TightSCF  NoKeepInts
|  2>
|  3> %scf
|  4>   MaxCore 4096
|  5> end
|  6> *xyz  0  1
|  7>     C       14.9701804   16.2296359   17.3533299
|  8>     C       15.5477887   14.8870363   16.8593853
|  9>     O       16.9102755   14.8566220   16.3486156
| 10>     C       18.0057561   15.6780943   16.4972490
| 11>     O       19.1042178   15.2604547   16.1822702
| 12>     C       17.9074226   16.8687586   17.3795894
| 13>     C       17.4995829   18.0649186   16.9024733
| 14>     C       17.0645355   18.3643847   15.4841370
| 15>     N       17.5172512   19.1872773   17.7327352
| 16>     C       17.9686922   19.1908151   19.0275195
| 17>     S       17.9366919   20.5596427   19.9546051
| 18>     N       18.4455850   18.0005137   19.5217286
| 19>     C       18.4938238   16.7207386   18.7853063
| 20>     C       17.8552254   15.5723275   19.5670063
| 21>     C       18.3526129   14.2646201   19.4118153
| 22>     C       17.7744837   13.1879870   20.1040944
| 23>     C       16.6888986   13.4179169   20.9653715
| 24>     C       16.1915302   14.7174124   21.1280935
| 25>     O       15.1381668   14.9426248   21.9526583
| 26>     C       16.7687194   15.7877098   20.4372065
| 27>     H       15.4932654   16.6216688   18.2285058
| 28>     H       13.9269825   16.0816253   17.6584497
| 29>     H       14.9627402   16.9775905   16.5549254
| 30>     H       15.4999229   14.1883556   17.7054821
| 31>     H       14.8826365   14.4816359   16.0860359
| 32>     H       16.7734747   17.4580505   14.9390492
| 33>     H       17.8845841   18.8310895   14.9235503
| 34>     H       16.2062816   19.0471540   15.4615973
| 35>     H       17.1956481   20.0758606   17.3821964
| 36>     H       18.7605291   18.0327673   20.4832796
| 37>     H       19.5561399   16.4653500   18.6557008
| 38>     H       19.1867028   14.0794532   18.7374958
| 39>     H       18.1676249   12.1817012   19.9681674
| 40>     H       16.2385401   12.5886652   21.5010709
| 41>     H       14.9135072   14.0998476   22.3755031
| 42>     H       16.3569794   16.7816936   20.5778000
| 43> *
| 44>
| 45>                          ****END OF INPUT****

CARTESIAN COORDINATES (ANGSTROEM)
---------------------------------
  C     14.970180   16.229636   17.353330
  C     15.547789   14.887036   16.859385
  O     16.910276   14.856622   16.348616
  C     18.005756   15.678094   16.497249
  O     19.104218   15.260455   16.182270
  C     17.907423   16.868759   17.379589
  C     17.499583   18.064919   16.902473
  C     17.064536   18.364385   15.484137
  N     17.517251   19.187277   17.732735
  C     17.968692   19.190815   19.027520
  S     17.936692   20.559643   19.954605
  N     18.445585   18.000514   19.521729
  C     18.493824   16.720739   18.785306
  C     17.855225   15.572328   19.567006
  C     18.352613   14.264620   19.411815
  C     17.774484   13.187987   20.104094
  C     16.688899   13.417917   20.965371
  C     16.191530   14.717412   21.128093
  O     15.138167   14.942625   21.952658
  C     16.768719   15.787710   20.437206
  H     15.493265   16.621669   18.228506
  H     13.926982   16.081625   17.658450
  H     14.962740   16.977590   16.554925
  H     15.499923   14.188356   17.705482
  H     14.882637   14.481636   16.086036
  H     16.773475   17.458050   14.939049
  H     17.884584   18.831090   14.923550
  H     16.206282   19.047154   15.461597
  H     17.195648   20.075861   17.382196
  H     18.760529   18.032767   20.483280
  H     19.556140   16.465350   18.655701
  H     19.186703   14.079453   18.737496
  H     18.167625   12.181701   19.968167
  H     16.238540   12.588665   21.501071
  H     14.913507   14.099848   22.375503
  H     16.356979   16.781694   20.577800

 Total Charge           Charge          ....    0
 Multiplicity           Mult            ....    1
 Number of Electrons    NEL             ....  154
 Basis Dimension        Dim             ....  828

ORBITAL ENERGIES
----------------

  NO   OCC          E(Eh)            E(eV)
   0   2.0000     -91.889364     -2500.4367
   1   2.0000     -20.602008      -560.6091
   2   2.0000     -20.596993      -560.4727
   3   2.0000     -20.549673      -559.1850
   4   2.0000     -15.624578      -425.1664
   5   2.0000     -15.612441      -424.8361
   6   2.0000     -11.400015      -310.2102
   7   2.0000     -11.386626      -309.8459
   8   2.0000     -11.322384      -308.0977
   9   2.0000     -11.319280      -308.0133
  10   2.0000     -11.317952      -307.9771
  11   2.0000     -11.310297      -307.7688
  12   2.0000     -11.268272      -306.6253
  13   2.0000     -11.266089      -306.5659
  14   2.0000     -11.260782      -306.4214
  15   2.0000     -11.259332      -306.3820
  16   2.0000     -11.248312      -306.0821
  17   2.0000     -11.244958      -305.9909
  18   2.0000     -11.241477      -305.8961
  19   2.0000     -11.236548      -305.7620
  20   2.0000      -8.894491      -242.0314
  21   2.0000      -6.576084      -178.9443
  22   2.0000      -6.574053      -178.8891
  23   2.0000      -6.573483      -178.8736
  24   2.0000      -1.441584       -39.2275
  25   2.0000      -1.421828       -38.6899
  26   2.0000      -1.354377       -36.8545
  27   2.0000      -1.338279       -36.4164
  28   2.0000      -1.239318       -33.7236
  29   2.0000      -1.163247       -31.6536
  30   2.0000      -1.125288       -30.6206
  31   2.0000      -1.049902       -28.5693
  32   2.0000      -1.040850       -28.3230
  33   2.0000      -1.021606       -27.7993
  34   2.0000      -1.005023       -27.3481
  35   2.0000      -0.990415       -26.9506
  36   2.0000      -0.928353       -25.2618
  37   2.0000      -0.902367       -24.5546
  38   2.0000      -0.852350       -23.1936
  39   2.0000      -0.842106       -22.9149
  40   2.0000      -0.837996       -22.8030
  41   2.0000      -0.830652       -22.6032
  42   2.0000      -0.747234       -20.3333
  43   2.0000      -0.735014       -20.0007
  44   2.0000      -0.727910       -19.8074
  45   2.0000      -0.699600       -19.0371
  46   2.0000      -0.687336       -18.7034
  47   2.0000      -0.676498       -18.4084
  48   2.0000      -0.676059       -18.3965
  49   2.0000      -0.661926       -18.0119
  50   2.0000      -0.657251       -17.8847
  51   2.0000      -0.653641       -17.7865
  52   2.0000      -0.638975       -17.3874
  53   2.0000      -0.614225       -16.7139
  54   2.0000      -0.608187       -16.5496
  55   2.0000      -0.606188       -16.4952
  56   2.0000      -0.603883       -16.4325
  57   2.0000      -0.590782       -16.0760
  58   2.0000      -0.583057       -15.8658
  59   2.0000      -0.577985       -15.7278
  60   2.0000      -0.567533       -15.4434
  61   2.0000      -0.557183       -15.1617
  62   2.0000      -0.542847       -14.7716
  63   2.0000      -0.532509       -14.4903
  64   2.0000      -0.518864       -14.1190
  65   2.0000      -0.514060       -13.9883
  66   2.0000      -0.503967       -13.7136
  67   2.0000      -0.501360       -13.6427
  68   2.0000      -0.488228       -13.2854
  69   2.0000      -0.467304       -12.7160
  70   2.0000      -0.452183       -12.3045
  71   2.0000      -0.447953       -12.1894
  72   2.0000      -0.355910        -9.6848
  73   2.0000      -0.350143        -9.5279
  74   2.0000      -0.329201        -8.9580
  75   2.0000      -0.326699        -8.8899
  76   2.0000      -0.317741        -8.6462
  77   0.0000       0.094257         2.5649
  78   0.0000       0.104579         2.8457
  79   0.0000       0.117118         3.1870
  80   0.0000       0.125211         3.4072
  81   0.0000       0.127955         3.4818

MULLIKEN ATOMIC CHARGES
-----------------------
   0 C :   -0.348214
   1 C :    0.050680
   2 O :   -0.335017
   3 C :    0.387321
   4 O :   -0.379585
   5 C :   -0.181418
   6 C :    0.138016
   7 C :   -0.321105
   8 N :   -0.140280
   9 C :    0.215269
  10 S :   -0.444612
  11 N :   -0.237467
  12 C :    0.121395
  13 C :    0.003039
  14 C :   -0.214735
  15 C :   -0.130814
  16 C :   -0.280139
  17 C :    0.325450
  18 O :   -0.355859
  19 C :   -0.284165
  20 H :    0.119831
  21 H :    0.130048
  22 H :    0.099781
  23 H :    0.104688
  24 H :    0.119919
  25 H :    0.114407
  26 H :    0.151244
  27 H :    0.109722
  28 H :    0.195371
  29 H :    0.205368
  30 H :    0.165016
  31 H :    0.170028
  32 H :    0.165838
  33 H :    0.133291
  34 H :    0.242041
  35 H :    0.185650
Sum of atomic charges:   -0.0000000

LOEWDIN ATOMIC CHARGES
----------------------
   0 C :    0.104076
   1 C :   -0.010390
   2 O :    0.293678
   3 C :   -0.420059
   4 O :    0.125298
   5 C :   -0.081336
   6 C :   -0.105668
   7 C :    0.123526
   8 N :    0.402139
   9 C :   -0.453723
  10 S :   -0.039962
  11 N :    0.397510
  12 C :   -0.043367
  13 C :   -0.041465
  14 C :    0.023507
  15 C :    0.045200
  16 C :   -0.001245
  17 C :   -0.193955
  18 O :    0.395739
  19 C :    0.024930
  20 H :   -0.033477
  21 H :   -0.018477
  22 H :   -0.032099
  23 H :   -0.023951
  24 H :   -0.021854
  25 H :   -0.011084
  26 H :   -0.007043
  27 H :   -0.018008
  28 H :   -0.058719
  29 H :   -0.064814
  30 H :   -0.003629
  31 H :   -0.020937
  32 H :   -0.017597
  33 H :   -0.034303
  34 H :   -0.152609
  35 H :   -0.025831

  Mayer bond orders larger than 0.100000
B(  0-C ,  1-C ) :   0.9617 B(  0-C , 20-H ) :   0.9667 B(  0-C , 21-H ) :   0.9763
B(  0-C , 22-H ) :   0.9770 B(  1-C ,  2-O ) :   0.9082 B(  1-C , 23-H ) :   0.9713
B(  1-C , 24-H ) :   0.9805 B(  2-O ,  3-C ) :   1.1751 B(  3-C ,  4-O ) :   2.0966
B(  3-C ,  5-C ) :   0.9240 B(  5-C ,  6-C ) :   1.7029 B(  5-C , 12-C ) :   0.9452
B(  6-C ,  7-C ) :   0.9472 B(  6-C ,  8-N ) :   1.1127 B(  7-C , 25-H ) :   0.9807
B(  7-C , 26-H ) :   0.9645 B(  7-C , 27-H ) :   0.9742 B(  8-N ,  9-C ) :   1.2060
B(  8-N , 28-H ) :   0.9525 B(  9-C , 10-S ) :   1.6031 B(  9-C , 11-N ) :   1.2848
B( 11-N , 12-C ) :   0.9897 B( 11-N , 29-H ) :   0.9439 B( 12-C , 13-C ) :   0.9503
B( 12-C , 30-H ) :   0.9955 B( 13-C , 14-C ) :   1.3887 B( 13-C , 19-C ) :   1.3350
B( 14-C , 15-C ) :   1.4050 B( 14-C , 31-H ) :   0.9623 B( 15-C , 16-C ) :   1.3548
B( 15-C , 32-H ) :   0.9691 B( 16-C , 17-C ) :   1.3334 B( 16-C , 33-H ) :   0.9845
B( 17-C , 18-O ) :   1.1100 B( 17-C , 19-C ) :   1.3639 B( 18-O , 34-H ) :   0.9787
B( 19-C , 35-H ) :   0.9524

MP2 TOTAL ENERGY:    -1274.320145928 Eh
FINAL SINGLE POINT ENERGY     -1274.320145927851

DIPOLE MOMENT
-------------
                                X             Y             Z
Electronic contribution:      8.82699       5.23879       6.20008
Nuclear contribution   :    -10.31998      -6.57055      -6.57887
                        -----------------------------------------
Total Dipole Moment    :     -1.49299      -1.33176      -0.37879
                        -----------------------------------------
Magnitude (a.u.)       :      2.03619
Magnitude (Debye)      :      5.17559

Rotational constants in cm-1:     0.012719     0.009130     0.006765
Rotational constants in MHz :   381.308161   273.720648   202.816060

                             ****ORCA TERMINATED NORMALLY****
TOTAL RUN TIME: 0 days 1 hours 47 minutes 22 seconds 138 msec
