                         Program Version 4.2.0 -  RELEASE  -
|  1> ! ri-mp2 cc-pvtz cc-pvtz/c TightSCF  NoKeepInts
|  2>
|  3> %scf
|  4>   MaxCore 4096
|  5> end
|  6> *xyz  0  1
|  7>     C       15.3743335   13.9358822   17.1174744
|  8>     C       16.4942236   14.0618627   16.0669040
|  9>     O       17.4142967   15.0875857   16.4855176
| 10>     C       17.0838999   16.4014627   16.2985736
| 11>     O       16.2811842   16.7505249   15.4494545
| 12>     C       17.6300808   17.3006599   17.3736873
| 13>     C       17.3865258   18.6361231   17.3978128
| 14>     C       16.5520117   19.4352056   16.4196384
| 15>     N       17.9665287   19.4368226   18.3863467
| 16>     C       18.8943566   19.0070991   19.2969760
| 17>     S       19.6214043   20.0434210   20.3616568
| 18>     N       19.1980694   17.6699475   19.2754120
| 19>     C       18.5003535   16.6550710   18.4653921
| 20>     C       17.7011467   15.7375209   19.3859314
| 21>     C       18.1668385   14.4403425   19.6721390
| 22>     C       17.4450437   13.5945936   20.5313590
| 23>     C       16.2476172   14.0493931   21.1096215
| 24>     C       15.7834413   15.3421589   20.8303595
| 25>     O       14.6284799   15.7846084   21.3880785
| 26>     C       16.5053999   16.1826831   19.9775516
| 27>     H       15.7890541   13.6772075   18.0983872
| 28>     H       14.6658942   13.1501559   16.8292606
| 29>     H       14.8177042   14.8766272   17.2131334
| 30>     H       17.0261871   13.1043046   16.0004623
| 31>     H       16.0737213   14.2842715   15.0765054
| 32>     H       15.5132541   19.0807486   16.4208514
| 33>     H       16.9361228   19.3181080   15.3983044
| 34>     H       16.5358715   20.5079166   16.6451143
| 35>     H       17.7585491   20.4222319   18.4135040
| 36>     H       19.8591144   17.3769188   19.9831126
| 37>     H       19.2690912   16.0525071   17.9613866
| 38>     H       19.0910799   14.0854057   19.2242029
| 39>     H       17.8134865   12.5929706   20.7461846
| 40>     H       15.6862723   13.4000059   21.7733318
| 41>     H       14.3015550   15.0860370   21.9746165
| 42>     H       16.1348064   17.1836144   19.7857554
| 43> *
| 44>
| 45>                          ****END OF INPUT****

CARTESIAN COORDINATES (ANGSTROEM)
---------------------------------
  C     15.374334   13.935882   17.117474
  C     16.494224   14.061863   16.066904
  O     17.414297   15.087586   16.485518
  C     17.083900   16.401463   16.298574
  O     16.281184   16.750525   15.449454
  C     17.630081   17.300660   17.373687
  C     17.386526   18.636123   17.397813
  C     16.552012   19.435206   16.419638
  N     17.966529   19.436823   18.386347
  C     18.894357   19.007099   19.296976
  S     19.621404   20.043421   20.361657
  N     19.198069   17.669947   19.275412
  C     18.500353   16.655071   18.465392
  C     17.701147   15.737521   19.385931
  C     18.166838   14.440342   19.672139
  C     17.445044   13.594594   20.531359
  C     16.247617   14.049393   21.109621
  C     15.783441   15.342159   20.830360
  O     14.628480   15.784608   21.388078
  C     16.505400   16.182683   19.977552
  H     15.789054   13.677207   18.098387
  H     14.665894   13.150156   16.829261
  H     14.817704   14.876627   17.213133
  H     17.026187   13.104305   16.000462
  H     16.073721   14.284271   15.076505
  H     15.513254   19.080749   16.420851
  H     16.936123   19.318108   15.398304
  H     16.535871   20.507917   16.645114
  H     17.758549   20.422232   18.413504
  H     19.859114   17.376919   19.983113
  H     19.269091   16.052507   17.961387
  H     19.091080   14.085406   19.224203
  H     17.813486   12.592971   20.746185
  H     15.686272   13.400006   21.773332
  H     14.301555   15.086037   21.974616
  H     16.134806   17.183614   19.785755

 Total Charge           Charge          ....    0
 Multiplicity           Mult            ....    1
 Number of Electrons    NEL             ....  154
 Basis Dimension        Dim             ....  828

ORBITAL ENERGIES
----------------

  NO   OCC          E(Eh)            E(eV)
   0   2.0000     -91.889216     -2500.4327
   1   2.0000     -20.598356      -560.5098
   2   2.0000     -20.597204      -560.4784
   3   2.0000     -20.542042      -558.9774
   4   2.0000     -15.629648      -425.3043
   5   2.0000     -15.608563      -424.7306
   6   2.0000     -11.394663      -310.0645
   7   2.0000     -11.384267      -309.7817
   8   2.0000     -11.336696      -308.4872
   9   2.0000     -11.315669      -307.9150
  10   2.0000     -11.309665      -307.7516
  11   2.0000     -11.294421      -307.3368
  12   2.0000     -11.261229      -306.4336
  13   2.0000     -11.259428      -306.3846
  14   2.0000     -11.257124      -306.3219
  15   2.0000     -11.252481      -306.1956
  16   2.0000     -11.244654      -305.9826
  17   2.0000     -11.239509      -305.8426
  18   2.0000     -11.239454      -305.8411
  19   2.0000     -11.220508      -305.3255
  20   2.0000      -8.894269      -242.0254
  21   2.0000      -6.575842      -178.9378
  22   2.0000      -6.573839      -178.8833
  23   2.0000      -6.573251      -178.8673
  24   2.0000      -1.449888       -39.4535
  25   2.0000      -1.418005       -38.5859
  26   2.0000      -1.353304       -36.8253
  27   2.0000      -1.340654       -36.4811
  28   2.0000      -1.239151       -33.7190
  29   2.0000      -1.159036       -31.5390
  30   2.0000      -1.120882       -30.5007
  31   2.0000      -1.043611       -28.3981
  32   2.0000      -1.033564       -28.1247
  33   2.0000      -1.016757       -27.6674
  34   2.0000      -0.996129       -27.1060
  35   2.0000      -0.984628       -26.7931
  36   2.0000      -0.923405       -25.1271
  37   2.0000      -0.892846       -24.2956
  38   2.0000      -0.847567       -23.0635
  39   2.0000      -0.839237       -22.8368
  40   2.0000      -0.835194       -22.7268
  41   2.0000      -0.814485       -22.1633
  42   2.0000      -0.755713       -20.5640
  43   2.0000      -0.733554       -19.9610
  44   2.0000      -0.723147       -19.6778
  45   2.0000      -0.697465       -18.9790
  46   2.0000      -0.689246       -18.7553
  47   2.0000      -0.678155       -18.4535
  48   2.0000      -0.669935       -18.2298
  49   2.0000      -0.663942       -18.0668
  50   2.0000      -0.648647       -17.6506
  51   2.0000      -0.642454       -17.4821
  52   2.0000      -0.633968       -17.2511
  53   2.0000      -0.609101       -16.5745
  54   2.0000      -0.606206       -16.4957
  55   2.0000      -0.600873       -16.3506
  56   2.0000      -0.599659       -16.3176
  57   2.0000      -0.579022       -15.7560
  58   2.0000      -0.571019       -15.5382
  59   2.0000      -0.566823       -15.4240
  60   2.0000      -0.557168       -15.1613
  61   2.0000      -0.544163       -14.8074
  62   2.0000      -0.534019       -14.5314
  63   2.0000      -0.530346       -14.4315
  64   2.0000      -0.526691       -14.3320
  65   2.0000      -0.513586       -13.9754
  66   2.0000      -0.502666       -13.6782
  67   2.0000      -0.499452       -13.5908
  68   2.0000      -0.478560       -13.0223
  69   2.0000      -0.464508       -12.6399
  70   2.0000      -0.453392       -12.3374
  71   2.0000      -0.445804       -12.1310
  72   2.0000      -0.355114        -9.6631
  73   2.0000      -0.351262        -9.5583
  74   2.0000      -0.328794        -8.9469
  75   2.0000      -0.323383        -8.7997
  76   2.0000      -0.316689        -8.6176
  77   0.0000       0.074931         2.0390
  78   0.0000       0.105026         2.8579
  79   0.0000       0.123666         3.3651
  80   0.0000       0.131713         3.5841
  81   0.0000       0.136711         3.7201

MULLIKEN ATOMIC CHARGES
-----------------------
   0 C :   -0.309755
   1 C :    0.024059
   2 O :   -0.364599
   3 C :    0.457135
   4 O :   -0.430354
   5 C :   -0.232568
   6 C :    0.155683
   7 C :   -0.270279
   8 N :   -0.122985
   9 C :    0.214794
  10 S :   -0.440248
  11 N :   -0.207137
  12 C :    0.062154
  13 C :    0.064197
  14 C :   -0.190015
  15 C :   -0.133898
  16 C :   -0.280313
  17 C :    0.312235
  18 O :   -0.357783
  19 C :   -0.252302
  20 H :    0.106435
  21 H :    0.107290
  22 H :    0.107415
  23 H :    0.109902
  24 H :    0.120097
  25 H :    0.131382
  26 H :    0.131870
  27 H :    0.095224
  28 H :    0.197676
  29 H :    0.194894
  30 H :    0.150022
  31 H :    0.149213
  32 H :    0.161288
  33 H :    0.131268
  34 H :    0.241260
  35 H :    0.166742
Sum of atomic charges:   -0.0000000

LOEWDIN ATOMIC CHARGES
----------------------
   0 C :    0.105014
   1 C :   -0.016834
   2 O :    0.302108
   3 C :   -0.415484
   4 O :    0.098403
   5 C :   -0.095220
   6 C :   -0.058497
   7 C :    0.131463
   8 N :    0.406985
   9 C :   -0.455530
  10 S :   -0.035218
  11 N :    0.396460
  12 C :   -0.052112
  13 C :   -0.036886
  14 C :    0.011766
  15 C :    0.039695
  16 C :   -0.002614
  17 C :   -0.189137
  18 O :    0.396222
  19 C :    0.032561
  20 H :   -0.026422
  21 H :   -0.027117
  22 H :   -0.026737
  23 H :   -0.025802
  24 H :   -0.028449
  25 H :   -0.004904
  26 H :   -0.003637
  27 H :   -0.023350
  28 H :   -0.057477
  29 H :   -0.064970
  30 H :   -0.009721
  31 H :   -0.030096
  32 H :   -0.020882
  33 H :   -0.035420
  34 H :   -0.153424
  35 H :   -0.024738

  Mayer bond orders larger than 0.100000
B(  0-C ,  1-C ) :   0.9607 B(  0-C , 20-H ) :   0.9716 B(  0-C , 21-H ) :   0.9781
B(  0-C , 22-H ) :   0.9752 B(  1-C ,  2-O ) :   0.8874 B(  1-C , 23-H ) :   0.9847
B(  1-C , 24-H ) :   0.9797 B(  2-O ,  3-C ) :   1.1526 B(  3-C ,  4-O ) :   1.9771
B(  3-C ,  5-C ) :   1.0600 B(  5-C ,  6-C ) :   1.6529 B(  5-C , 12-C ) :   0.9735
B(  6-C ,  7-C ) :   0.9670 B(  6-C ,  8-N ) :   1.1635 B(  7-C , 25-H ) :   0.9605
B(  7-C , 26-H ) :   0.9598 B(  7-C , 27-H ) :   0.9903 B(  8-N ,  9-C ) :   1.1827
B(  8-N , 28-H ) :   0.9477 B(  9-C , 10-S ) :   1.6051 B(  9-C , 11-N ) :   1.3075
B( 11-N , 12-C ) :   0.9755 B( 11-N , 29-H ) :   0.9521 B( 12-C , 13-C ) :   0.9389
B( 12-C , 30-H ) :   1.0024 B( 13-C , 14-C ) :   1.3528 B( 13-C , 19-C ) :   1.3792
B( 14-C , 15-C ) :   1.3907 B( 14-C , 31-H ) :   0.9730 B( 15-C , 16-C ) :   1.3593
B( 15-C , 32-H ) :   0.9717 B( 16-C , 17-C ) :   1.3316 B( 16-C , 33-H ) :   0.9852
B( 17-C , 18-O ) :   1.1115 B( 17-C , 19-C ) :   1.3709 B( 18-O , 34-H ) :   0.9795
B( 19-C , 35-H ) :   0.9575

MP2 TOTAL ENERGY:    -1274.349411980 Eh
FINAL SINGLE POINT ENERGY     -1274.349411979768

DIPOLE MOMENT
-------------
                                X             Y             Z
Electronic contribution:      8.94778      10.47564       6.10058
Nuclear contribution   :     -9.77991     -12.20906      -6.36989
                        -----------------------------------------
Total Dipole Moment    :     -0.83214      -1.73342      -0.26931
                        -----------------------------------------
Magnitude (a.u.)       :      1.94158
Magnitude (Debye)      :      4.93510

Rotational constants in cm-1:     0.012481     0.008871     0.006439
Rotational constants in MHz :   374.185384   265.959721   193.023234

                             ****ORCA TERMINATED NORMALLY****
TOTAL RUN TIME: 0 days 1 hours 47 minutes 51 seconds 35 msec
