                         Program Version 4.2.0 -  RELEASE  -
|  1> ! ri-mp2 cc-pvtz cc-pvtz/c TightSCF  NoKeepInts
|  2>
|  3> %scf
|  4>   MaxCore 4096
|  5> end
|  6> *xyz  0  1
|  7>     C       15.2468201   14.3529968   17.1205967
|  8>     C       16.4801776   13.9966530   16.2634257
|  9>     O       17.5484094   14.9472075   16.4609801
| 10>     C       17.3374998   16.2678903   16.1809075
| 11>     O       16.6451069   16.6065716   15.2362170
| 12>     C       17.7218085   17.1780399   17.3161449
| 13>     C       17.4262278   18.5034689   17.3192128
| 14>     C       16.6398686   19.2732188   16.2795987
| 15>     N       17.9113422   19.3258168   18.3411662
| 16>     C       18.8391241   18.9438487   19.2736588
| 17>     S       19.4916045   20.0158739   20.3510216
| 18>     N       19.2076050   17.6225214   19.2606976
| 19>     C       18.5406722   16.5725245   18.4689184
| 20>     C       17.7000050   15.7006773   19.3964099
| 21>     C       18.0493156   14.3550863   19.6182857
| 22>     C       17.2906735   13.5531242   20.4876588
| 23>     C       16.1760435   14.1017427   21.1447540
| 24>     C       15.8288315   15.4428542   20.9312199
| 25>     O       14.7529426   15.9752490   21.5633525
| 26>     C       16.5847495   16.2380587   20.0643343
| 27>     H       15.4943325   14.3397558   18.1866849
| 28>     H       14.4481777   13.6202057   16.9547280
| 29>     H       14.8485448   15.3425962   16.8651545
| 30>     H       16.8319389   12.9932333   16.5350113
| 31>     H       16.1932084   13.9769742   15.2032148
| 32>     H       17.1325875   19.2134402   15.3007560
| 33>     H       16.5240807   20.3346773   16.5279247
| 34>     H       15.6339874   18.8492516   16.1657562
| 35>     H       17.6578328   20.3007904   18.3574944
| 36>     H       19.8709765   17.3627777   19.9792302
| 37>     H       19.3273707   15.9460481   18.0254568
| 38>     H       18.9103097   13.9280690   19.1109268
| 39>     H       17.5683421   12.5132811   20.6513863
| 40>     H       15.5877804   13.4867905   21.8179395
| 41>     H       14.3939727   15.2947398   22.1524149
| 42>     H       16.3047292   17.2759445   19.9213598
| 43> *
| 44>
| 45>                          ****END OF INPUT****

CARTESIAN COORDINATES (ANGSTROEM)
---------------------------------
  C     15.246820   14.352997   17.120597
  C     16.480178   13.996653   16.263426
  O     17.548409   14.947207   16.460980
  C     17.337500   16.267890   16.180907
  O     16.645107   16.606572   15.236217
  C     17.721808   17.178040   17.316145
  C     17.426228   18.503469   17.319213
  C     16.639869   19.273219   16.279599
  N     17.911342   19.325817   18.341166
  C     18.839124   18.943849   19.273659
  S     19.491605   20.015874   20.351022
  N     19.207605   17.622521   19.260698
  C     18.540672   16.572525   18.468918
  C     17.700005   15.700677   19.396410
  C     18.049316   14.355086   19.618286
  C     17.290674   13.553124   20.487659
  C     16.176043   14.101743   21.144754
  C     15.828831   15.442854   20.931220
  O     14.752943   15.975249   21.563353
  C     16.584750   16.238059   20.064334
  H     15.494332   14.339756   18.186685
  H     14.448178   13.620206   16.954728
  H     14.848545   15.342596   16.865154
  H     16.831939   12.993233   16.535011
  H     16.193208   13.976974   15.203215
  H     17.132587   19.213440   15.300756
  H     16.524081   20.334677   16.527925
  H     15.633987   18.849252   16.165756
  H     17.657833   20.300790   18.357494
  H     19.870976   17.362778   19.979230
  H     19.327371   15.946048   18.025457
  H     18.910310   13.928069   19.110927
  H     17.568342   12.513281   20.651386
  H     15.587780   13.486790   21.817940
  H     14.393973   15.294740   22.152415
  H     16.304729   17.275945   19.921360

 Total Charge           Charge          ....    0
 Multiplicity           Mult            ....    1
 Number of Electrons    NEL             ....  154
 Basis Dimension        Dim             ....  828

ORBITAL ENERGIES
----------------

  NO   OCC          E(Eh)            E(eV)
   0   2.0000     -91.890113     -2500.4571
   1   2.0000     -20.598613      -560.5168
   2   2.0000     -20.590962      -560.3086
   3   2.0000     -20.543911      -559.0282
   4   2.0000     -15.630578      -425.3296
   5   2.0000     -15.608892      -424.7396
   6   2.0000     -11.394397      -310.0573
   7   2.0000     -11.384803      -309.7962
   8   2.0000     -11.337182      -308.5004
   9   2.0000     -11.316098      -307.9267
  10   2.0000     -11.310357      -307.7704
  11   2.0000     -11.297042      -307.4081
  12   2.0000     -11.261336      -306.4365
  13   2.0000     -11.259947      -306.3987
  14   2.0000     -11.257665      -306.3366
  15   2.0000     -11.252958      -306.2086
  16   2.0000     -11.245511      -306.0059
  17   2.0000     -11.240202      -305.8615
  18   2.0000     -11.240031      -305.8568
  19   2.0000     -11.220936      -305.3372
  20   2.0000      -8.895145      -242.0492
  21   2.0000      -6.576712      -178.9614
  22   2.0000      -6.574716      -178.9071
  23   2.0000      -6.574122      -178.8910
  24   2.0000      -1.448443       -39.4141
  25   2.0000      -1.418328       -38.5947
  26   2.0000      -1.351843       -36.7855
  27   2.0000      -1.341473       -36.5033
  28   2.0000      -1.239652       -33.7326
  29   2.0000      -1.159386       -31.5485
  30   2.0000      -1.120993       -30.5038
  31   2.0000      -1.043962       -28.4076
  32   2.0000      -1.032038       -28.0832
  33   2.0000      -1.017310       -27.6824
  34   2.0000      -0.997040       -27.1308
  35   2.0000      -0.985452       -26.8155
  36   2.0000      -0.923928       -25.1414
  37   2.0000      -0.894883       -24.3510
  38   2.0000      -0.847898       -23.0725
  39   2.0000      -0.840451       -22.8698
  40   2.0000      -0.835981       -22.7482
  41   2.0000      -0.815371       -22.1874
  42   2.0000      -0.751014       -20.4361
  43   2.0000      -0.733883       -19.9700
  44   2.0000      -0.722868       -19.6702
  45   2.0000      -0.697924       -18.9915
  46   2.0000      -0.690495       -18.7893
  47   2.0000      -0.676435       -18.4067
  48   2.0000      -0.669212       -18.2102
  49   2.0000      -0.664623       -18.0853
  50   2.0000      -0.649295       -17.6682
  51   2.0000      -0.643100       -17.4996
  52   2.0000      -0.635590       -17.2953
  53   2.0000      -0.613586       -16.6965
  54   2.0000      -0.609025       -16.5724
  55   2.0000      -0.601534       -16.3686
  56   2.0000      -0.599926       -16.3248
  57   2.0000      -0.579460       -15.7679
  58   2.0000      -0.571273       -15.5451
  59   2.0000      -0.565867       -15.3980
  60   2.0000      -0.552384       -15.0311
  61   2.0000      -0.543856       -14.7991
  62   2.0000      -0.533801       -14.5255
  63   2.0000      -0.531359       -14.4590
  64   2.0000      -0.526819       -14.3355
  65   2.0000      -0.514764       -14.0074
  66   2.0000      -0.503108       -13.6903
  67   2.0000      -0.501281       -13.6405
  68   2.0000      -0.476525       -12.9669
  69   2.0000      -0.465297       -12.6614
  70   2.0000      -0.452950       -12.3254
  71   2.0000      -0.444433       -12.0936
  72   2.0000      -0.356434        -9.6991
  73   2.0000      -0.351399        -9.5621
  74   2.0000      -0.329451        -8.9648
  75   2.0000      -0.324303        -8.8247
  76   2.0000      -0.317036        -8.6270
  77   0.0000       0.071101         1.9347
  78   0.0000       0.105425         2.8688
  79   0.0000       0.122913         3.3446
  80   0.0000       0.130359         3.5473
  81   0.0000       0.136331         3.7098

MULLIKEN ATOMIC CHARGES
-----------------------
   0 C :   -0.320495
   1 C :    0.029713
   2 O :   -0.380871
   3 C :    0.463467
   4 O :   -0.424638
   5 C :   -0.213570
   6 C :    0.149789
   7 C :   -0.270458
   8 N :   -0.123724
   9 C :    0.207354
  10 S :   -0.436352
  11 N :   -0.198699
  12 C :    0.041610
  13 C :    0.046235
  14 C :   -0.179573
  15 C :   -0.133690
  16 C :   -0.273785
  17 C :    0.300368
  18 O :   -0.358888
  19 C :   -0.243066
  20 H :    0.110055
  21 H :    0.109051
  22 H :    0.110423
  23 H :    0.113892
  24 H :    0.120058
  25 H :    0.133464
  26 H :    0.095002
  27 H :    0.130314
  28 H :    0.198500
  29 H :    0.192537
  30 H :    0.151750
  31 H :    0.154383
  32 H :    0.160986
  33 H :    0.131579
  34 H :    0.241030
  35 H :    0.166250
Sum of atomic charges:   -0.0000000

LOEWDIN ATOMIC CHARGES
----------------------
   0 C :    0.107192
   1 C :   -0.015471
   2 O :    0.291541
   3 C :   -0.417449
   4 O :    0.105150
   5 C :   -0.096031
   6 C :   -0.057657
   7 C :    0.131304
   8 N :    0.406840
   9 C :   -0.457469
  10 S :   -0.033034
  11 N :    0.396767
  12 C :   -0.052385
  13 C :   -0.039104
  14 C :    0.014248
  15 C :    0.039131
  16 C :   -0.002489
  17 C :   -0.191127
  18 O :    0.396480
  19 C :    0.032270
  20 H :   -0.027882
  21 H :   -0.025414
  22 H :   -0.027440
  23 H :   -0.024313
  24 H :   -0.028384
  25 H :   -0.003294
  26 H :   -0.023309
  27 H :   -0.005491
  28 H :   -0.057551
  29 H :   -0.064902
  30 H :   -0.007874
  31 H :   -0.029180
  32 H :   -0.020793
  33 H :   -0.035162
  34 H :   -0.153417
  35 H :   -0.024300

  Mayer bond orders larger than 0.100000
B(  0-C ,  1-C ) :   0.9566 B(  0-C , 20-H ) :   0.9701 B(  0-C , 21-H ) :   0.9783
B(  0-C , 22-H ) :   0.9738 B(  1-C ,  2-O ) :   0.8857 B(  1-C , 23-H ) :   0.9830
B(  1-C , 24-H ) :   0.9840 B(  2-O ,  3-C ) :   1.1223 B(  3-C ,  4-O ) :   1.9855
B(  3-C ,  5-C ) :   1.0674 B(  5-C ,  6-C ) :   1.6529 B(  5-C , 12-C ) :   0.9712
B(  6-C ,  7-C ) :   0.9690 B(  6-C ,  8-N ) :   1.1559 B(  7-C , 25-H ) :   0.9584
B(  7-C , 26-H ) :   0.9898 B(  7-C , 27-H ) :   0.9624 B(  8-N ,  9-C ) :   1.1793
B(  8-N , 28-H ) :   0.9480 B(  9-C , 10-S ) :   1.6137 B(  9-C , 11-N ) :   1.3027
B( 11-N , 12-C ) :   0.9827 B( 11-N , 29-H ) :   0.9534 B( 12-C , 13-C ) :   0.9363
B( 12-C , 30-H ) :   1.0033 B( 13-C , 14-C ) :   1.3595 B( 13-C , 19-C ) :   1.3816
B( 14-C , 15-C ) :   1.3871 B( 14-C , 31-H ) :   0.9701 B( 15-C , 16-C ) :   1.3614
B( 15-C , 32-H ) :   0.9716 B( 16-C , 17-C ) :   1.3312 B( 16-C , 33-H ) :   0.9850
B( 17-C , 18-O ) :   1.1130 B( 17-C , 19-C ) :   1.3766 B( 18-O , 34-H ) :   0.9795
B( 19-C , 35-H ) :   0.9565

MP2 TOTAL ENERGY:    -1274.341942452 Eh
FINAL SINGLE POINT ENERGY     -1274.341942451595

DIPOLE MOMENT
-------------
                                X             Y             Z
Electronic contribution:      9.61400       9.58747       5.90545
Nuclear contribution   :    -10.57398     -11.27493      -6.02304
                        -----------------------------------------
Total Dipole Moment    :     -0.95998      -1.68746      -0.11759
                        -----------------------------------------
Magnitude (a.u.)       :      1.94497
Magnitude (Debye)      :      4.94372

Rotational constants in cm-1:     0.012157     0.009322     0.006533
Rotational constants in MHz :   364.470924   279.456695   195.865813

                             ****ORCA TERMINATED NORMALLY****
TOTAL RUN TIME: 0 days 1 hours 45 minutes 57 seconds 922 msec
