                         Program Version 4.2.0 -  RELEASE  -
|  1> ! ri-mp2 cc-pvtz cc-pvtz/c TightSCF  NoKeepInts
|  2>
|  3> %scf
|  4>   MaxCore 4096
|  5> end
|  6> *xyz  0  1
|  7>     C       14.9709730   14.3968382   16.0069980
|  8>     C       16.1982529   14.2889624   16.9344052
|  9>     O       17.3203148   15.0212963   16.3911593
| 10>     C       17.2289980   16.3701717   16.1935225
| 11>     O       16.6461527   16.8193773   15.2231372
| 12>     C       17.6687620   17.1950179   17.3746331
| 13>     C       17.3861622   18.5196071   17.4776976
| 14>     C       16.5309108   19.3536780   16.5480157
| 15>     N       17.9505747   19.2769280   18.5091737
| 16>     C       18.9598290   18.8430391   19.3274796
| 17>     S       19.7124398   19.8500600   20.4020865
| 18>     N       19.3243407   17.5268190   19.1979761
| 19>     C       18.5696236   16.5225384   18.4265996
| 20>     C       17.8061187   15.6295510   19.3978340
| 21>     C       18.2053590   14.2941919   19.5964809
| 22>     C       17.5045004   13.4635648   20.4868905
| 23>     C       16.3999953   13.9735746   21.1903013
| 24>     C       16.0071320   15.3060047   21.0046191
| 25>     O       14.9420003   15.8019862   21.6825663
| 26>     C       16.7043859   16.1296097   20.1154696
| 27>     H       14.5510253   15.4102191   16.0190246
| 28>     H       14.1846394   13.7047003   16.3311823
| 29>     H       15.2431225   14.1467836   14.9737066
| 30>     H       15.9213903   14.6647709   17.9254633
| 31>     H       16.4784943   13.2331697   17.0406162
| 32>     H       15.5466299   18.8895744   16.4062650
| 33>     H       17.0008084   19.4309453   15.5590124
| 34>     H       16.3630597   20.3719237   16.9178681
| 35>     H       17.7055538   20.2497684   18.6033140
| 36>     H       20.0561325   17.2286255   19.8300670
| 37>     H       19.2992448   15.9012285   17.8879357
| 38>     H       19.0588191   13.8963240   19.0533150
| 39>     H       17.8198092   12.4315085   20.6324799
| 40>     H       15.8568956   13.3362669   21.8807306
| 41>     H       14.6360696   15.1134133   22.2922488
| 42>     H       16.3884797   17.1599614   19.9937248
| 43> *
| 44>
| 45>                          ****END OF INPUT****

CARTESIAN COORDINATES (ANGSTROEM)
---------------------------------
  C     14.970973   14.396838   16.006998
  C     16.198253   14.288962   16.934405
  O     17.320315   15.021296   16.391159
  C     17.228998   16.370172   16.193523
  O     16.646153   16.819377   15.223137
  C     17.668762   17.195018   17.374633
  C     17.386162   18.519607   17.477698
  C     16.530911   19.353678   16.548016
  N     17.950575   19.276928   18.509174
  C     18.959829   18.843039   19.327480
  S     19.712440   19.850060   20.402086
  N     19.324341   17.526819   19.197976
  C     18.569624   16.522538   18.426600
  C     17.806119   15.629551   19.397834
  C     18.205359   14.294192   19.596481
  C     17.504500   13.463565   20.486891
  C     16.399995   13.973575   21.190301
  C     16.007132   15.306005   21.004619
  O     14.942000   15.801986   21.682566
  C     16.704386   16.129610   20.115470
  H     14.551025   15.410219   16.019025
  H     14.184639   13.704700   16.331182
  H     15.243122   14.146784   14.973707
  H     15.921390   14.664771   17.925463
  H     16.478494   13.233170   17.040616
  H     15.546630   18.889574   16.406265
  H     17.000808   19.430945   15.559012
  H     16.363060   20.371924   16.917868
  H     17.705554   20.249768   18.603314
  H     20.056132   17.228625   19.830067
  H     19.299245   15.901229   17.887936
  H     19.058819   13.896324   19.053315
  H     17.819809   12.431508   20.632480
  H     15.856896   13.336267   21.880731
  H     14.636070   15.113413   22.292249
  H     16.388480   17.159961   19.993725

 Total Charge           Charge          ....    0
 Multiplicity           Mult            ....    1
 Number of Electrons    NEL             ....  154
 Basis Dimension        Dim             ....  828

ORBITAL ENERGIES
----------------

  NO   OCC          E(Eh)            E(eV)
   0   2.0000     -91.891220     -2500.4872
   1   2.0000     -20.602190      -560.6141
   2   2.0000     -20.581804      -560.0594
   3   2.0000     -20.547945      -559.1380
   4   2.0000     -15.631662      -425.3591
   5   2.0000     -15.610087      -424.7721
   6   2.0000     -11.393556      -310.0344
   7   2.0000     -11.385784      -309.8229
   8   2.0000     -11.337978      -308.5221
   9   2.0000     -11.320185      -308.0379
  10   2.0000     -11.312477      -307.8282
  11   2.0000     -11.296738      -307.3999
  12   2.0000     -11.264429      -306.5207
  13   2.0000     -11.261312      -306.4359
  14   2.0000     -11.259513      -306.3869
  15   2.0000     -11.254089      -306.2393
  16   2.0000     -11.249169      -306.1054
  17   2.0000     -11.243617      -305.9544
  18   2.0000     -11.243276      -305.9451
  19   2.0000     -11.218988      -305.2842
  20   2.0000      -8.896242      -242.0791
  21   2.0000      -6.577806      -178.9912
  22   2.0000      -6.575813      -178.9370
  23   2.0000      -6.575216      -178.9207
  24   2.0000      -1.444396       -39.3040
  25   2.0000      -1.421882       -38.6914
  26   2.0000      -1.352566       -36.8052
  27   2.0000      -1.342784       -36.5390
  28   2.0000      -1.241124       -33.7727
  29   2.0000      -1.162715       -31.6391
  30   2.0000      -1.121743       -30.5242
  31   2.0000      -1.046742       -28.4833
  32   2.0000      -1.029990       -28.0274
  33   2.0000      -1.021052       -27.7842
  34   2.0000      -0.998472       -27.1698
  35   2.0000      -0.986335       -26.8395
  36   2.0000      -0.925969       -25.1969
  37   2.0000      -0.886620       -24.1262
  38   2.0000      -0.850016       -23.1301
  39   2.0000      -0.844097       -22.9691
  40   2.0000      -0.839384       -22.8408
  41   2.0000      -0.827069       -22.5057
  42   2.0000      -0.751028       -20.4365
  43   2.0000      -0.735517       -20.0144
  44   2.0000      -0.717175       -19.5153
  45   2.0000      -0.701053       -19.0766
  46   2.0000      -0.691734       -18.8230
  47   2.0000      -0.679248       -18.4833
  48   2.0000      -0.667553       -18.1650
  49   2.0000      -0.665018       -18.0961
  50   2.0000      -0.651484       -17.7278
  51   2.0000      -0.648546       -17.6478
  52   2.0000      -0.639025       -17.3888
  53   2.0000      -0.612512       -16.6673
  54   2.0000      -0.608647       -16.5621
  55   2.0000      -0.601914       -16.3789
  56   2.0000      -0.600772       -16.3478
  57   2.0000      -0.582064       -15.8388
  58   2.0000      -0.573205       -15.5977
  59   2.0000      -0.569097       -15.4859
  60   2.0000      -0.558734       -15.2039
  61   2.0000      -0.542055       -14.7501
  62   2.0000      -0.536028       -14.5860
  63   2.0000      -0.529389       -14.4054
  64   2.0000      -0.522119       -14.2076
  65   2.0000      -0.517046       -14.0695
  66   2.0000      -0.505434       -13.7536
  67   2.0000      -0.496735       -13.5168
  68   2.0000      -0.479617       -13.0510
  69   2.0000      -0.464131       -12.6296
  70   2.0000      -0.454943       -12.3796
  71   2.0000      -0.442512       -12.0414
  72   2.0000      -0.358237        -9.7481
  73   2.0000      -0.354558        -9.6480
  74   2.0000      -0.331239        -9.0135
  75   2.0000      -0.327384        -8.9086
  76   2.0000      -0.318150        -8.6573
  77   0.0000       0.068986         1.8772
  78   0.0000       0.100355         2.7308
  79   0.0000       0.121766         3.3134
  80   0.0000       0.127854         3.4791
  81   0.0000       0.132486         3.6051

MULLIKEN ATOMIC CHARGES
-----------------------
   0 C :   -0.272776
   1 C :    0.028266
   2 O :   -0.385637
   3 C :    0.492101
   4 O :   -0.400236
   5 C :   -0.266847
   6 C :    0.154523
   7 C :   -0.270337
   8 N :   -0.125446
   9 C :    0.210334
  10 S :   -0.435212
  11 N :   -0.197567
  12 C :    0.046118
  13 C :    0.026784
  14 C :   -0.161960
  15 C :   -0.133274
  16 C :   -0.274291
  17 C :    0.306645
  18 O :   -0.356104
  19 C :   -0.253374
  20 H :    0.096059
  21 H :    0.094317
  22 H :    0.108173
  23 H :    0.104588
  24 H :    0.106299
  25 H :    0.127214
  26 H :    0.136900
  27 H :    0.094647
  28 H :    0.198640
  29 H :    0.192438
  30 H :    0.151125
  31 H :    0.150181
  32 H :    0.163837
  33 H :    0.133804
  34 H :    0.241836
  35 H :    0.168231
Sum of atomic charges:    0.0000000

LOEWDIN ATOMIC CHARGES
----------------------
   0 C :    0.105225
   1 C :   -0.019124
   2 O :    0.280949
   3 C :   -0.418097
   4 O :    0.123925
   5 C :   -0.099281
   6 C :   -0.058339
   7 C :    0.130856
   8 N :    0.406896
   9 C :   -0.457000
  10 S :   -0.031871
  11 N :    0.396502
  12 C :   -0.052833
  13 C :   -0.039957
  14 C :    0.015661
  15 C :    0.042334
  16 C :   -0.000954
  17 C :   -0.191041
  18 O :    0.396701
  19 C :    0.029358
  20 H :   -0.030124
  21 H :   -0.028934
  22 H :   -0.022868
  23 H :   -0.034079
  24 H :   -0.022864
  25 H :   -0.006126
  26 H :   -0.002685
  27 H :   -0.023115
  28 H :   -0.057356
  29 H :   -0.065153
  30 H :   -0.006699
  31 H :   -0.028897
  32 H :   -0.019706
  33 H :   -0.034226
  34 H :   -0.152521
  35 H :   -0.024559

  Mayer bond orders larger than 0.100000
B(  0-C ,  1-C ) :   0.9819 B(  0-C , 20-H ) :   0.9731 B(  0-C , 21-H ) :   0.9756
B(  0-C , 22-H ) :   0.9770 B(  1-C ,  2-O ) :   0.8853 B(  1-C , 23-H ) :   0.9654
B(  1-C , 24-H ) :   0.9807 B(  2-O ,  3-C ) :   1.0954 B(  3-C ,  4-O ) :   2.0280
B(  3-C ,  5-C ) :   1.0505 B(  5-C ,  6-C ) :   1.6555 B(  5-C , 12-C ) :   0.9681
B(  6-C ,  7-C ) :   0.9701 B(  6-C ,  8-N ) :   1.1545 B(  7-C , 25-H ) :   0.9647
B(  7-C , 26-H ) :   0.9561 B(  7-C , 27-H ) :   0.9887 B(  8-N ,  9-C ) :   1.1783
B(  8-N , 28-H ) :   0.9481 B(  9-C , 10-S ) :   1.6145 B(  9-C , 11-N ) :   1.3021
B( 11-N , 12-C ) :   0.9753 B( 11-N , 29-H ) :   0.9539 B( 12-C , 13-C ) :   0.9479
B( 12-C , 30-H ) :   1.0015 B( 13-C , 14-C ) :   1.3571 B( 13-C , 19-C ) :   1.3718
B( 14-C , 15-C ) :   1.3862 B( 14-C , 31-H ) :   0.9741 B( 15-C , 16-C ) :   1.3671
B( 15-C , 32-H ) :   0.9697 B( 16-C , 17-C ) :   1.3275 B( 16-C , 33-H ) :   0.9836
B( 17-C , 18-O ) :   1.1151 B( 17-C , 19-C ) :   1.3761 B( 18-O , 34-H ) :   0.9789
B( 19-C , 35-H ) :   0.9572

MP2 TOTAL ENERGY:    -1274.330974706 Eh
FINAL SINGLE POINT ENERGY     -1274.330974706064

DIPOLE MOMENT
-------------
                                X             Y             Z
Electronic contribution:     10.65258       8.95468       7.00019
Nuclear contribution   :    -11.74557     -10.51919      -6.70873
                        -----------------------------------------
Total Dipole Moment    :     -1.09298      -1.56451       0.29146
                        -----------------------------------------
Magnitude (a.u.)       :      1.93061
Magnitude (Debye)      :      4.90722

Rotational constants in cm-1:     0.011709     0.009360     0.006423
Rotational constants in MHz :   351.029335   280.617503   192.571171

                             ****ORCA TERMINATED NORMALLY****
TOTAL RUN TIME: 0 days 1 hours 52 minutes 36 seconds 835 msec
