                         Program Version 4.2.0 -  RELEASE  -
|  1> ! ri-mp2 cc-pvtz cc-pvtz/c TightSCF  NoKeepInts
|  2>
|  3> %scf
|  4>   MaxCore 4096
|  5> end
|  6> *xyz  0  1
|  7>     C       14.9784071   14.2856500   15.9884476
|  8>     C       16.1194521   14.4610471   17.0078377
|  9>     O       17.2529719   15.0501321   16.3397447
| 10>     C       17.2690415   16.4007558   16.1448392
| 11>     O       16.7424853   16.8776885   15.1562847
| 12>     C       17.6613799   17.2005404   17.3600260
| 13>     C       17.3600636   18.5188860   17.4863280
| 14>     C       16.5033551   19.3598460   16.5644180
| 15>     N       17.9081714   19.2631500   18.5359839
| 16>     C       18.9332232   18.8325499   19.3366511
| 17>     S       19.6766177   19.8321144   20.4244192
| 18>     N       19.3212565   17.5260848   19.1770627
| 19>     C       18.5677391   16.5217959   18.4042636
| 20>     C       17.8191345   15.6181524   19.3779882
| 21>     C       18.2085416   14.2750850   19.5407356
| 22>     C       17.5229580   13.4351353   20.4342591
| 23>     C       16.4442248   13.9434384   21.1776507
| 24>     C       16.0622949   15.2835703   21.0289001
| 25>     O       15.0219620   15.7781162   21.7452174
| 26>     C       16.7444436   16.1165931   20.1368165
| 27>     H       14.6163648   15.2577116   15.6309021
| 28>     H       14.1336974   13.7555318   16.4444767
| 29>     H       15.3205012   13.7062758   15.1217666
| 30>     H       15.7710038   15.0827276   17.8409708
| 31>     H       16.3996332   13.4762254   17.4031700
| 32>     H       15.5404289   18.8690524   16.3742896
| 33>     H       16.9990379   19.4925809   15.5940238
| 34>     H       16.2888390   20.3557357   16.9693816
| 35>     H       17.6472983   20.2298268   18.6496262
| 36>     H       20.0657282   17.2296382   19.7951296
| 37>     H       19.2972881   15.9075171   17.8574423
| 38>     H       19.0420716   13.8780184   18.9667950
| 39>     H       17.8301418   12.3969576   20.5511555
| 40>     H       15.9128223   13.2987135   21.8703282
| 41>     H       14.7268685   15.0824529   22.3522697
| 42>     H       16.4375517   17.1527026   20.0443984
| 43> *
| 44>
| 45>                          ****END OF INPUT****

CARTESIAN COORDINATES (ANGSTROEM)
---------------------------------
  C     14.978407   14.285650   15.988448
  C     16.119452   14.461047   17.007838
  O     17.252972   15.050132   16.339745
  C     17.269042   16.400756   16.144839
  O     16.742485   16.877689   15.156285
  C     17.661380   17.200540   17.360026
  C     17.360064   18.518886   17.486328
  C     16.503355   19.359846   16.564418
  N     17.908171   19.263150   18.535984
  C     18.933223   18.832550   19.336651
  S     19.676618   19.832114   20.424419
  N     19.321256   17.526085   19.177063
  C     18.567739   16.521796   18.404264
  C     17.819135   15.618152   19.377988
  C     18.208542   14.275085   19.540736
  C     17.522958   13.435135   20.434259
  C     16.444225   13.943438   21.177651
  C     16.062295   15.283570   21.028900
  O     15.021962   15.778116   21.745217
  C     16.744444   16.116593   20.136816
  H     14.616365   15.257712   15.630902
  H     14.133697   13.755532   16.444477
  H     15.320501   13.706276   15.121767
  H     15.771004   15.082728   17.840971
  H     16.399633   13.476225   17.403170
  H     15.540429   18.869052   16.374290
  H     16.999038   19.492581   15.594024
  H     16.288839   20.355736   16.969382
  H     17.647298   20.229827   18.649626
  H     20.065728   17.229638   19.795130
  H     19.297288   15.907517   17.857442
  H     19.042072   13.878018   18.966795
  H     17.830142   12.396958   20.551156
  H     15.912822   13.298713   21.870328
  H     14.726868   15.082453   22.352270
  H     16.437552   17.152703   20.044398

 Total Charge           Charge          ....    0
 Multiplicity           Mult            ....    1
 Number of Electrons    NEL             ....  154
 Basis Dimension        Dim             ....  828

ORBITAL ENERGIES
----------------

  NO   OCC          E(Eh)            E(eV)
   0   2.0000     -91.891873     -2500.5050
   1   2.0000     -20.602555      -560.6240
   2   2.0000     -20.581208      -560.0431
   3   2.0000     -20.549675      -559.1851
   4   2.0000     -15.632239      -425.3748
   5   2.0000     -15.610709      -424.7890
   6   2.0000     -11.393491      -310.0326
   7   2.0000     -11.386395      -309.8396
   8   2.0000     -11.338487      -308.5359
   9   2.0000     -11.320508      -308.0467
  10   2.0000     -11.313874      -307.8662
  11   2.0000     -11.295739      -307.3727
  12   2.0000     -11.265100      -306.5390
  13   2.0000     -11.261715      -306.4468
  14   2.0000     -11.260304      -306.4084
  15   2.0000     -11.254682      -306.2555
  16   2.0000     -11.249684      -306.1195
  17   2.0000     -11.243981      -305.9643
  18   2.0000     -11.243878      -305.9615
  19   2.0000     -11.218197      -305.2627
  20   2.0000      -8.896885      -242.0966
  21   2.0000      -6.578447      -179.0086
  22   2.0000      -6.576457      -178.9545
  23   2.0000      -6.575857      -178.9382
  24   2.0000      -1.446669       -39.3659
  25   2.0000      -1.422260       -38.7017
  26   2.0000      -1.353752       -36.8375
  27   2.0000      -1.343441       -36.5569
  28   2.0000      -1.241778       -33.7905
  29   2.0000      -1.163147       -31.6509
  30   2.0000      -1.122224       -30.5373
  31   2.0000      -1.047362       -28.5002
  32   2.0000      -1.029652       -28.0183
  33   2.0000      -1.021618       -27.7996
  34   2.0000      -0.999272       -27.1916
  35   2.0000      -0.987012       -26.8580
  36   2.0000      -0.926688       -25.2165
  37   2.0000      -0.882577       -24.0161
  38   2.0000      -0.850858       -23.1530
  39   2.0000      -0.845077       -22.9957
  40   2.0000      -0.840024       -22.8582
  41   2.0000      -0.830279       -22.5931
  42   2.0000      -0.754537       -20.5320
  43   2.0000      -0.736135       -20.0313
  44   2.0000      -0.718701       -19.5569
  45   2.0000      -0.701730       -19.0950
  46   2.0000      -0.692728       -18.8501
  47   2.0000      -0.680464       -18.5164
  48   2.0000      -0.668775       -18.1983
  49   2.0000      -0.665342       -18.1049
  50   2.0000      -0.651175       -17.7194
  51   2.0000      -0.649325       -17.6690
  52   2.0000      -0.639649       -17.4057
  53   2.0000      -0.612954       -16.6793
  54   2.0000      -0.607143       -16.5212
  55   2.0000      -0.602422       -16.3927
  56   2.0000      -0.593642       -16.1538
  57   2.0000      -0.582413       -15.8483
  58   2.0000      -0.573930       -15.6174
  59   2.0000      -0.572715       -15.5844
  60   2.0000      -0.562445       -15.3049
  61   2.0000      -0.543523       -14.7900
  62   2.0000      -0.537251       -14.6193
  63   2.0000      -0.529987       -14.4217
  64   2.0000      -0.518996       -14.1226
  65   2.0000      -0.516965       -14.0673
  66   2.0000      -0.506164       -13.7734
  67   2.0000      -0.498317       -13.5599
  68   2.0000      -0.480926       -13.0867
  69   2.0000      -0.465864       -12.6768
  70   2.0000      -0.454474       -12.3669
  71   2.0000      -0.443135       -12.0583
  72   2.0000      -0.359182        -9.7738
  73   2.0000      -0.354575        -9.6485
  74   2.0000      -0.331727        -9.0267
  75   2.0000      -0.327857        -8.9214
  76   2.0000      -0.318886        -8.6773
  77   0.0000       0.068552         1.8654
  78   0.0000       0.098962         2.6929
  79   0.0000       0.120854         3.2886
  80   0.0000       0.127391         3.4665
  81   0.0000       0.131431         3.5764

MULLIKEN ATOMIC CHARGES
-----------------------
   0 C :   -0.263356
   1 C :    0.022767
   2 O :   -0.379370
   3 C :    0.493482
   4 O :   -0.395579
   5 C :   -0.277018
   6 C :    0.155538
   7 C :   -0.270885
   8 N :   -0.126139
   9 C :    0.208358
  10 S :   -0.433576
  11 N :   -0.194378
  12 C :    0.040025
  13 C :    0.049630
  14 C :   -0.185290
  15 C :   -0.129903
  16 C :   -0.273926
  17 C :    0.311557
  18 O :   -0.355745
  19 C :   -0.262149
  20 H :    0.100753
  21 H :    0.088774
  22 H :    0.100249
  23 H :    0.103807
  24 H :    0.109800
  25 H :    0.126484
  26 H :    0.137802
  27 H :    0.094428
  28 H :    0.198776
  29 H :    0.191802
  30 H :    0.150697
  31 H :    0.150136
  32 H :    0.165768
  33 H :    0.134044
  34 H :    0.241933
  35 H :    0.170707
Sum of atomic charges:   -0.0000000

LOEWDIN ATOMIC CHARGES
----------------------
   0 C :    0.106106
   1 C :   -0.022691
   2 O :    0.284523
   3 C :   -0.420959
   4 O :    0.126106
   5 C :   -0.100216
   6 C :   -0.059518
   7 C :    0.130661
   8 N :    0.406829
   9 C :   -0.457297
  10 S :   -0.030760
  11 N :    0.396392
  12 C :   -0.052547
  13 C :   -0.039324
  14 C :    0.016150
  15 C :    0.042399
  16 C :   -0.000505
  17 C :   -0.191043
  18 O :    0.396662
  19 C :    0.030531
  20 H :   -0.028409
  21 H :   -0.030009
  22 H :   -0.024855
  23 H :   -0.034266
  24 H :   -0.023682
  25 H :   -0.006205
  26 H :   -0.002630
  27 H :   -0.022958
  28 H :   -0.057304
  29 H :   -0.065130
  30 H :   -0.006200
  31 H :   -0.028816
  32 H :   -0.019678
  33 H :   -0.034082
  34 H :   -0.152412
  35 H :   -0.024862

  Mayer bond orders larger than 0.100000
B(  0-C ,  1-C ) :   0.9813 B(  0-C , 20-H ) :   0.9732 B(  0-C , 21-H ) :   0.9766
B(  0-C , 22-H ) :   0.9796 B(  1-C ,  2-O ) :   0.8752 B(  1-C , 23-H ) :   0.9639
B(  1-C , 24-H ) :   0.9798 B(  2-O ,  3-C ) :   1.1072 B(  3-C ,  4-O ) :   2.0340
B(  3-C ,  5-C ) :   1.0381 B(  5-C ,  6-C ) :   1.6585 B(  5-C , 12-C ) :   0.9688
B(  6-C ,  7-C ) :   0.9704 B(  6-C ,  8-N ) :   1.1520 B(  7-C , 25-H ) :   0.9656
B(  7-C , 26-H ) :   0.9556 B(  7-C , 27-H ) :   0.9880 B(  8-N ,  9-C ) :   1.1772
B(  8-N , 28-H ) :   0.9484 B(  9-C , 10-S ) :   1.6173 B(  9-C , 11-N ) :   1.2999
B( 11-N , 12-C ) :   0.9787 B( 11-N , 29-H ) :   0.9541 B( 12-C , 13-C ) :   0.9526
B( 12-C , 30-H ) :   1.0018 B( 13-C , 14-C ) :   1.3462 B( 13-C , 19-C ) :   1.3643
B( 14-C , 15-C ) :   1.3844 B( 14-C , 31-H ) :   0.9772 B( 15-C , 16-C ) :   1.3689
B( 15-C , 32-H ) :   0.9688 B( 16-C , 17-C ) :   1.3258 B( 16-C , 33-H ) :   0.9833
B( 17-C , 18-O ) :   1.1151 B( 17-C , 19-C ) :   1.3763 B( 18-O , 34-H ) :   0.9789
B( 19-C , 35-H ) :   0.9566

MP2 TOTAL ENERGY:    -1274.329064839 Eh
FINAL SINGLE POINT ENERGY     -1274.329064839206

DIPOLE MOMENT
-------------
                                X             Y             Z
Electronic contribution:     10.75060       8.99787       6.91297
Nuclear contribution   :    -11.84559     -10.50706      -6.54314
                        -----------------------------------------
Total Dipole Moment    :     -1.09499      -1.50919       0.36983
                        -----------------------------------------
Magnitude (a.u.)       :      1.90090
Magnitude (Debye)      :      4.83171

Rotational constants in cm-1:     0.011620     0.009464     0.006410
Rotational constants in MHz :   348.362704   283.713185   192.152235

                             ****ORCA TERMINATED NORMALLY****
TOTAL RUN TIME: 0 days 1 hours 46 minutes 17 seconds 306 msec
