                         Program Version 4.2.0 -  RELEASE  -
|  1> ! ri-mp2 cc-pvtz cc-pvtz/c TightSCF  NoKeepInts
|  2>
|  3> %scf
|  4>   MaxCore 4096
|  5> end
|  6> *xyz  0  1
|  7>     C       14.4265264   15.7666461   16.7623241
|  8>     C       15.7253859   14.9447415   16.8101504
|  9>     O       16.6780048   15.5062308   15.8857231
| 10>     C       17.9288157   15.8079808   16.3440233
| 11>     O       18.7758400   14.9334229   16.3739439
| 12>     C       17.9276026   16.9099778   17.3577313
| 13>     C       17.2963854   18.0909167   17.1485691
| 14>     C       16.5547333   18.5322101   15.9030767
| 15>     N       17.3934838   19.1085908   18.1009965
| 16>     C       18.2268498   19.0806242   19.1888034
| 17>     S       18.3737868   20.3762686   20.2056618
| 18>     N       18.9346228   17.9214230   19.3908047
| 19>     C       18.7459536   16.6703779   18.6301047
| 20>     C       18.0975076   15.5978587   19.5008353
| 21>     C       18.6133689   14.2890299   19.5153010
| 22>     C       18.0073968   13.2880700   20.2926338
| 23>     C       16.8731896   13.5964910   21.0625668
| 24>     C       16.3529111   14.8974374   21.0483426
| 25>     O       15.2497698   15.1957152   21.7794116
| 26>     C       16.9574024   15.8915772   20.2725914
| 27>     H       14.5598828   16.7340105   17.2587350
| 28>     H       13.6219609   15.2338282   17.2838441
| 29>     H       14.1090291   15.9372099   15.7260117
| 30>     H       16.1118162   14.9185106   17.8359027
| 31>     H       15.5126782   13.9097029   16.5123998
| 32>     H       16.8018747   17.9141797   15.0317213
| 33>     H       16.8129864   19.5638371   15.6327882
| 34>     H       15.4697207   18.4873397   16.0478443
| 35>     H       16.8907646   19.9712483   17.9631723
| 36>     H       19.5257973   17.9208536   20.2123659
| 37>     H       19.7404841   16.3109856   18.3273990
| 38>     H       19.4797693   14.0426978   18.9051126
| 39>     H       18.4148657   12.2784189   20.2906727
| 40>     H       16.4009851   12.8253856   21.6624006
| 41>     H       15.0201702   14.4075295   22.2946762
| 42>     H       16.5346774   16.8906716   20.2753579
| 43> *
| 44>
| 45>                          ****END OF INPUT****

CARTESIAN COORDINATES (ANGSTROEM)
---------------------------------
  C     14.426526   15.766646   16.762324
  C     15.725386   14.944741   16.810150
  O     16.678005   15.506231   15.885723
  C     17.928816   15.807981   16.344023
  O     18.775840   14.933423   16.373944
  C     17.927603   16.909978   17.357731
  C     17.296385   18.090917   17.148569
  C     16.554733   18.532210   15.903077
  N     17.393484   19.108591   18.100996
  C     18.226850   19.080624   19.188803
  S     18.373787   20.376269   20.205662
  N     18.934623   17.921423   19.390805
  C     18.745954   16.670378   18.630105
  C     18.097508   15.597859   19.500835
  C     18.613369   14.289030   19.515301
  C     18.007397   13.288070   20.292634
  C     16.873190   13.596491   21.062567
  C     16.352911   14.897437   21.048343
  O     15.249770   15.195715   21.779412
  C     16.957402   15.891577   20.272591
  H     14.559883   16.734011   17.258735
  H     13.621961   15.233828   17.283844
  H     14.109029   15.937210   15.726012
  H     16.111816   14.918511   17.835903
  H     15.512678   13.909703   16.512400
  H     16.801875   17.914180   15.031721
  H     16.812986   19.563837   15.632788
  H     15.469721   18.487340   16.047844
  H     16.890765   19.971248   17.963172
  H     19.525797   17.920854   20.212366
  H     19.740484   16.310986   18.327399
  H     19.479769   14.042698   18.905113
  H     18.414866   12.278419   20.290673
  H     16.400985   12.825386   21.662401
  H     15.020170   14.407530   22.294676
  H     16.534677   16.890672   20.275358

 Total Charge           Charge          ....    0
 Multiplicity           Mult            ....    1
 Number of Electrons    NEL             ....  154
 Basis Dimension        Dim             ....  828

ORBITAL ENERGIES
----------------

  NO   OCC          E(Eh)            E(eV)
   0   2.0000     -91.890666     -2500.4721
   1   2.0000     -20.599258      -560.5343
   2   2.0000     -20.579087      -559.9854
   3   2.0000     -20.558170      -559.4162
   4   2.0000     -15.629173      -425.2914
   5   2.0000     -15.610674      -424.7880
   6   2.0000     -11.394715      -310.0660
   7   2.0000     -11.386627      -309.8459
   8   2.0000     -11.333882      -308.4106
   9   2.0000     -11.316293      -307.9320
  10   2.0000     -11.312553      -307.8302
  11   2.0000     -11.298814      -307.4564
  12   2.0000     -11.263269      -306.4891
  13   2.0000     -11.262596      -306.4708
  14   2.0000     -11.261981      -306.4541
  15   2.0000     -11.256317      -306.3000
  16   2.0000     -11.245867      -306.0156
  17   2.0000     -11.241505      -305.8969
  18   2.0000     -11.238410      -305.8127
  19   2.0000     -11.232546      -305.6531
  20   2.0000      -8.895747      -242.0656
  21   2.0000      -6.577325      -178.9781
  22   2.0000      -6.575312      -178.9233
  23   2.0000      -6.574727      -178.9074
  24   2.0000      -1.449705       -39.4485
  25   2.0000      -1.419097       -38.6156
  26   2.0000      -1.355976       -36.8980
  27   2.0000      -1.341487       -36.5037
  28   2.0000      -1.240147       -33.7461
  29   2.0000      -1.160218       -31.5711
  30   2.0000      -1.123760       -30.5791
  31   2.0000      -1.047394       -28.5010
  32   2.0000      -1.035315       -28.1724
  33   2.0000      -1.017857       -27.6973
  34   2.0000      -1.002711       -27.2852
  35   2.0000      -0.988562       -26.9001
  36   2.0000      -0.926608       -25.2143
  37   2.0000      -0.883062       -24.0293
  38   2.0000      -0.851051       -23.1583
  39   2.0000      -0.842009       -22.9122
  40   2.0000      -0.836190       -22.7539
  41   2.0000      -0.831771       -22.6336
  42   2.0000      -0.756527       -20.5862
  43   2.0000      -0.735635       -20.0176
  44   2.0000      -0.730906       -19.8890
  45   2.0000      -0.697505       -18.9801
  46   2.0000      -0.687985       -18.7210
  47   2.0000      -0.681124       -18.5343
  48   2.0000      -0.675460       -18.3802
  49   2.0000      -0.659755       -17.9528
  50   2.0000      -0.654259       -17.8033
  51   2.0000      -0.643286       -17.5047
  52   2.0000      -0.634892       -17.2763
  53   2.0000      -0.613929       -16.7058
  54   2.0000      -0.608157       -16.5488
  55   2.0000      -0.606578       -16.5058
  56   2.0000      -0.602777       -16.4024
  57   2.0000      -0.581371       -15.8199
  58   2.0000      -0.575432       -15.6583
  59   2.0000      -0.572669       -15.5831
  60   2.0000      -0.563330       -15.3290
  61   2.0000      -0.553687       -15.0666
  62   2.0000      -0.543539       -14.7904
  63   2.0000      -0.525456       -14.2984
  64   2.0000      -0.518835       -14.1182
  65   2.0000      -0.514803       -14.0085
  66   2.0000      -0.502671       -13.6784
  67   2.0000      -0.497677       -13.5425
  68   2.0000      -0.482821       -13.1382
  69   2.0000      -0.468104       -12.7378
  70   2.0000      -0.456369       -12.4184
  71   2.0000      -0.450367       -12.2551
  72   2.0000      -0.358052        -9.7431
  73   2.0000      -0.351246        -9.5579
  74   2.0000      -0.330086        -8.9821
  75   2.0000      -0.323940        -8.8148
  76   2.0000      -0.318894        -8.6775
  77   0.0000       0.072583         1.9751
  78   0.0000       0.100906         2.7458
  79   0.0000       0.117636         3.2010
  80   0.0000       0.129164         3.5147
  81   0.0000       0.131281         3.5723

MULLIKEN ATOMIC CHARGES
-----------------------
   0 C :   -0.296755
   1 C :    0.030108
   2 O :   -0.372214
   3 C :    0.457763
   4 O :   -0.378019
   5 C :   -0.197502
   6 C :    0.115142
   7 C :   -0.308075
   8 N :   -0.126834
   9 C :    0.193408
  10 S :   -0.437532
  11 N :   -0.204390
  12 C :    0.060268
  13 C :    0.006809
  14 C :   -0.167864
  15 C :   -0.138848
  16 C :   -0.273713
  17 C :    0.308497
  18 O :   -0.357807
  19 C :   -0.256950
  20 H :    0.087765
  21 H :    0.113405
  22 H :    0.106296
  23 H :    0.103972
  24 H :    0.120395
  25 H :    0.131540
  26 H :    0.126592
  27 H :    0.122739
  28 H :    0.198138
  29 H :    0.195331
  30 H :    0.161373
  31 H :    0.166437
  32 H :    0.163218
  33 H :    0.133155
  34 H :    0.241406
  35 H :    0.172747
Sum of atomic charges:   -0.0000000

LOEWDIN ATOMIC CHARGES
----------------------
   0 C :    0.106095
   1 C :   -0.010767
   2 O :    0.279520
   3 C :   -0.420482
   4 O :    0.138157
   5 C :   -0.090835
   6 C :   -0.082536
   7 C :    0.127116
   8 N :    0.403879
   9 C :   -0.458298
  10 S :   -0.035214
  11 N :    0.396822
  12 C :   -0.044347
  13 C :   -0.044844
  14 C :    0.020610
  15 C :    0.043809
  16 C :   -0.000842
  17 C :   -0.194883
  18 O :    0.395023
  19 C :    0.026656
  20 H :   -0.034498
  21 H :   -0.022222
  22 H :   -0.025780
  23 H :   -0.030037
  24 H :   -0.025426
  25 H :   -0.008611
  26 H :   -0.014375
  27 H :   -0.016190
  28 H :   -0.056962
  29 H :   -0.063863
  30 H :   -0.003053
  31 H :   -0.022715
  32 H :   -0.018886
  33 H :   -0.034634
  34 H :   -0.153216
  35 H :   -0.024171

  Mayer bond orders larger than 0.100000
B(  0-C ,  1-C ) :   0.9712 B(  0-C , 20-H ) :   0.9774 B(  0-C , 21-H ) :   0.9780
B(  0-C , 22-H ) :   0.9748 B(  1-C ,  2-O ) :   0.8891 B(  1-C , 23-H ) :   0.9622
B(  1-C , 24-H ) :   0.9871 B(  2-O ,  3-C ) :   1.1034 B(  3-C ,  4-O ) :   2.0685
B(  3-C ,  5-C ) :   0.9737 B(  5-C ,  6-C ) :   1.6689 B(  5-C , 12-C ) :   0.9575
B(  6-C ,  7-C ) :   0.9579 B(  6-C ,  8-N ) :   1.1225 B(  7-C , 25-H ) :   0.9723
B(  7-C , 26-H ) :   0.9787 B(  7-C , 27-H ) :   0.9623 B(  8-N ,  9-C ) :   1.1880
B(  8-N , 28-H ) :   0.9516 B(  9-C , 10-S ) :   1.6149 B(  9-C , 11-N ) :   1.2935
B( 11-N , 12-C ) :   0.9933 B( 11-N , 29-H ) :   0.9513 B( 12-C , 13-C ) :   0.9488
B( 12-C , 30-H ) :   0.9972 B( 13-C , 14-C ) :   1.3904 B( 13-C , 19-C ) :   1.3507
B( 14-C , 15-C ) :   1.3955 B( 14-C , 31-H ) :   0.9597 B( 15-C , 16-C ) :   1.3647
B( 15-C , 32-H ) :   0.9703 B( 16-C , 17-C ) :   1.3291 B( 16-C , 33-H ) :   0.9840
B( 17-C , 18-O ) :   1.1128 B( 17-C , 19-C ) :   1.3730 B( 18-O , 34-H ) :   0.9793
B( 19-C , 35-H ) :   0.9590

MP2 TOTAL ENERGY:    -1274.319847505 Eh
FINAL SINGLE POINT ENERGY     -1274.319847505378

DIPOLE MOMENT
-------------
                                X             Y             Z
Electronic contribution:     10.98280       6.27507       6.38436
Nuclear contribution   :    -12.23466      -7.44219      -6.75101
                        -----------------------------------------
Total Dipole Moment    :     -1.25186      -1.16712      -0.36665
                        -----------------------------------------
Magnitude (a.u.)       :      1.75036
Magnitude (Debye)      :      4.44906

Rotational constants in cm-1:     0.011622     0.009495     0.007014
Rotational constants in MHz :   348.416951   284.647075   210.266856

                             ****ORCA TERMINATED NORMALLY****
TOTAL RUN TIME: 0 days 1 hours 55 minutes 22 seconds 116 msec
