                         Program Version 5.0.0 -  RELEASE  -
|  1> ! ri-mp2 cc-pvtz cc-pvtz/c TightSCF NoKeepInts
|  2>
|  3> %scf
|  4>   MaxCore 4096
|  5> end
|  6> *xyz  0  1
|  7>     C       14.9653397   14.5691420   17.0435570
|  8>     C       15.6877482   14.8059087   15.7027526
|  9>     O       16.4884350   15.9956058   15.8240111
| 10>     C       17.6854296   15.9266067   16.4775477
| 11>     O       18.3149802   14.8845854   16.5627141
| 12>     C       17.8903001   17.0572058   17.4409578
| 13>     C       17.3844326   18.3059932   17.2758948
| 14>     C       16.5712160   18.8277138   16.1094653
| 15>     N       17.6649812   19.2992790   18.2194705
| 16>     C       18.5370103   19.1604672   19.2671888
| 17>     S       18.8969220   20.4223540   20.2740355
| 18>     N       19.0966140   17.9192852   19.4382100
| 19>     C       18.7213496   16.7108485   18.6799562
| 20>     C       17.9670094   15.7298335   19.5734612
| 21>     C       18.4183845   14.4051593   19.7191738
| 22>     C       17.7152264   13.4932235   20.5240285
| 23>     C       16.5488445   13.9080328   21.1889543
| 24>     C       16.0937565   15.2254875   21.0435337
| 25>     O       14.9623861   15.6264919   21.6762062
| 26>     C       16.7959676   16.1309257   20.2421848
| 27>     H       15.6860368   14.3440294   17.8404805
| 28>     H       14.2755834   13.7204819   16.9630499
| 29>     H       14.3887893   15.4546295   17.3383917
| 30>     H       16.2987172   13.9347310   15.4286827
| 31>     H       14.9369868   14.9549169   14.9162638
| 32>     H       15.5384474   18.4613056   16.1643497
| 33>     H       16.9963231   18.4932138   15.1549452
| 34>     H       16.5357044   19.9234411   16.0775803
| 35>     H       17.2637209   20.2171258   18.1116867
| 36>     H       19.7115533   17.8358296   20.2374565
| 37>     H       19.6484682   16.2277304   18.3390397
| 38>     H       19.3084589   14.0762085   19.1883405
| 39>     H       18.0716648   12.4694877   20.6230795
| 40>     H       16.0012154   13.2060777   21.8088968
| 41>     H       14.6524007   14.8827968   22.2144607
| 42>     H       16.4265958   17.1458447   20.1439917
| 43> *
| 44>
| 45>                          ****END OF INPUT****

CARTESIAN COORDINATES (ANGSTROEM)
---------------------------------
  C     14.965340   14.569142   17.043557
  C     15.687748   14.805909   15.702753
  O     16.488435   15.995606   15.824011
  C     17.685430   15.926607   16.477548
  O     18.314980   14.884585   16.562714
  C     17.890300   17.057206   17.440958
  C     17.384433   18.305993   17.275895
  C     16.571216   18.827714   16.109465
  N     17.664981   19.299279   18.219470
  C     18.537010   19.160467   19.267189
  S     18.896922   20.422354   20.274035
  N     19.096614   17.919285   19.438210
  C     18.721350   16.710849   18.679956
  C     17.967009   15.729833   19.573461
  C     18.418384   14.405159   19.719174
  C     17.715226   13.493223   20.524029
  C     16.548845   13.908033   21.188954
  C     16.093757   15.225487   21.043534
  O     14.962386   15.626492   21.676206
  C     16.795968   16.130926   20.242185
  H     15.686037   14.344029   17.840480
  H     14.275583   13.720482   16.963050
  H     14.388789   15.454629   17.338392
  H     16.298717   13.934731   15.428683
  H     14.936987   14.954917   14.916264
  H     15.538447   18.461306   16.164350
  H     16.996323   18.493214   15.154945
  H     16.535704   19.923441   16.077580
  H     17.263721   20.217126   18.111687
  H     19.711553   17.835830   20.237457
  H     19.648468   16.227730   18.339040
  H     19.308459   14.076208   19.188340
  H     18.071665   12.469488   20.623079
  H     16.001215   13.206078   21.808897
  H     14.652401   14.882797   22.214461
  H     16.426596   17.145845   20.143992

 Total Charge           Charge          ....    0
 Multiplicity           Mult            ....    1
 Number of Electrons    NEL             ....  154
 Basis Dimension        Dim             ....  828

ORBITAL ENERGIES
----------------

  NO   OCC          E(Eh)            E(eV)
   0   2.0000     -91.888236     -2500.4060
   1   2.0000     -20.596183      -560.4506
   2   2.0000     -20.594327      -560.4001
   3   2.0000     -20.549517      -559.1808
   4   2.0000     -15.627906      -425.2569
   5   2.0000     -15.607559      -424.7033
   6   2.0000     -11.395741      -310.0939
   7   2.0000     -11.383543      -309.7620
   8   2.0000     -11.333844      -308.4096
   9   2.0000     -11.310401      -307.7717
  10   2.0000     -11.307448      -307.6913
  11   2.0000     -11.297676      -307.4254
  12   2.0000     -11.259764      -306.3938
  13   2.0000     -11.258990      -306.3727
  14   2.0000     -11.255994      -306.2912
  15   2.0000     -11.250831      -306.1507
  16   2.0000     -11.240451      -305.8682
  17   2.0000     -11.236045      -305.7483
  18   2.0000     -11.233581      -305.6813
  19   2.0000     -11.224753      -305.4411
  20   2.0000      -8.893306      -241.9992
  21   2.0000      -6.574884      -178.9117
  22   2.0000      -6.572876      -178.8570
  23   2.0000      -6.572292      -178.8411
  24   2.0000      -1.453155       -39.5424
  25   2.0000      -1.414100       -38.4796
  26   2.0000      -1.356902       -36.9232
  27   2.0000      -1.339082       -36.4383
  28   2.0000      -1.237241       -33.6670
  29   2.0000      -1.154988       -31.4288
  30   2.0000      -1.120683       -30.4953
  31   2.0000      -1.043395       -28.3922
  32   2.0000      -1.032403       -28.0931
  33   2.0000      -1.012203       -27.5434
  34   2.0000      -0.998442       -27.1690
  35   2.0000      -0.984031       -26.7768
  36   2.0000      -0.922644       -25.1064
  37   2.0000      -0.892227       -24.2787
  38   2.0000      -0.847428       -23.0597
  39   2.0000      -0.836738       -22.7688
  40   2.0000      -0.830747       -22.6058
  41   2.0000      -0.814628       -22.1672
  42   2.0000      -0.753531       -20.5046
  43   2.0000      -0.736204       -20.0331
  44   2.0000      -0.726862       -19.7789
  45   2.0000      -0.692849       -18.8534
  46   2.0000      -0.685796       -18.6615
  47   2.0000      -0.678528       -18.4637
  48   2.0000      -0.672720       -18.3057
  49   2.0000      -0.659285       -17.9400
  50   2.0000      -0.651479       -17.7276
  51   2.0000      -0.645201       -17.5568
  52   2.0000      -0.633933       -17.2502
  53   2.0000      -0.607633       -16.5345
  54   2.0000      -0.601717       -16.3736
  55   2.0000      -0.600633       -16.3440
  56   2.0000      -0.598026       -16.2731
  57   2.0000      -0.579962       -15.7816
  58   2.0000      -0.575440       -15.6585
  59   2.0000      -0.562821       -15.3151
  60   2.0000      -0.555097       -15.1049
  61   2.0000      -0.551485       -15.0067
  62   2.0000      -0.535925       -14.5833
  63   2.0000      -0.529698       -14.4138
  64   2.0000      -0.519656       -14.1406
  65   2.0000      -0.510441       -13.8898
  66   2.0000      -0.498210       -13.5570
  67   2.0000      -0.493312       -13.4237
  68   2.0000      -0.481962       -13.1149
  69   2.0000      -0.464257       -12.6331
  70   2.0000      -0.460100       -12.5199
  71   2.0000      -0.449980       -12.2446
  72   2.0000      -0.353844        -9.6286
  73   2.0000      -0.346635        -9.4324
  74   2.0000      -0.327503        -8.9118
  75   2.0000      -0.317847        -8.6490
  76   2.0000      -0.315190        -8.5768
  77   0.0000       0.074949         2.0395
  78   0.0000       0.108774         2.9599
  79   0.0000       0.119368         3.2482
  80   0.0000       0.133354         3.6287
  81   0.0000       0.143133         3.8948

MULLIKEN ATOMIC CHARGES
-----------------------
   0 C :   -0.299889
   1 C :    0.030666
   2 O :   -0.361899
   3 C :    0.428778
   4 O :   -0.416565
   5 C :   -0.160771
   6 C :    0.137963
   7 C :   -0.283661
   8 N :   -0.124392
   9 C :    0.204196
  10 S :   -0.440110
  11 N :   -0.200568
  12 C :    0.053134
  13 C :    0.031624
  14 C :   -0.154546
  15 C :   -0.135955
  16 C :   -0.278888
  17 C :    0.310621
  18 O :   -0.359981
  19 C :   -0.266402
  20 H :    0.121296
  21 H :    0.100172
  22 H :    0.095031
  23 H :    0.113282
  24 H :    0.105142
  25 H :    0.126514
  26 H :    0.124871
  27 H :    0.102143
  28 H :    0.197011
  29 H :    0.194076
  30 H :    0.154100
  31 H :    0.155408
  32 H :    0.160147
  33 H :    0.129921
  34 H :    0.240540
  35 H :    0.166991
Sum of atomic charges:    0.0000000

LOEWDIN ATOMIC CHARGES
----------------------
   0 C :    0.105694
   1 C :   -0.018368
   2 O :    0.300161
   3 C :   -0.414005
   4 O :    0.111530
   5 C :   -0.091617
   6 C :   -0.071196
   7 C :    0.125790
   8 N :    0.404284
   9 C :   -0.457632
  10 S :   -0.036587
  11 N :    0.397491
  12 C :   -0.045451
  13 C :   -0.041219
  14 C :    0.021157
  15 C :    0.040620
  16 C :   -0.002453
  17 C :   -0.193332
  18 O :    0.393925
  19 C :    0.029955
  20 H :   -0.022341
  21 H :   -0.026463
  22 H :   -0.028808
  23 H :   -0.027698
  24 H :   -0.026620
  25 H :   -0.010220
  26 H :   -0.008203
  27 H :   -0.020275
  28 H :   -0.058936
  29 H :   -0.063955
  30 H :   -0.004860
  31 H :   -0.024849
  32 H :   -0.020659
  33 H :   -0.035864
  34 H :   -0.154420
  35 H :   -0.024575

  Mayer bond orders larger than 0.100000
B(  0-C ,  1-C ) :   0.9631 B(  0-C , 20-H ) :   0.9689 B(  0-C , 21-H ) :   0.9770
B(  0-C , 22-H ) :   0.9770 B(  1-C ,  2-O ) :   0.8916 B(  1-C , 23-H ) :   0.9771
B(  1-C , 24-H ) :   0.9846 B(  2-O ,  3-C ) :   1.1244 B(  3-C ,  4-O ) :   2.0001
B(  3-C ,  5-C ) :   1.0328 B(  5-C ,  6-C ) :   1.6605 B(  5-C , 12-C ) :   0.9652
B(  6-C ,  7-C ) :   0.9538 B(  6-C ,  8-N ) :   1.1409 B(  7-C , 25-H ) :   0.9628
B(  7-C , 26-H ) :   0.9688 B(  7-C , 27-H ) :   0.9893 B(  8-N ,  9-C ) :   1.1830
B(  8-N , 28-H ) :   0.9495 B(  9-C , 10-S ) :   1.6100 B(  9-C , 11-N ) :   1.3014
B( 11-N , 12-C ) :   0.9929 B( 11-N , 29-H ) :   0.9518 B( 12-C , 13-C ) :   0.9422
B( 12-C , 30-H ) :   0.9990 B( 13-C , 14-C ) :   1.3793 B( 13-C , 19-C ) :   1.3719
B( 14-C , 15-C ) :   1.3936 B( 14-C , 31-H ) :   0.9641 B( 15-C , 16-C ) :   1.3621
B( 15-C , 32-H ) :   0.9716 B( 16-C , 17-C ) :   1.3315 B( 16-C , 33-H ) :   0.9854
B( 17-C , 18-O ) :   1.1088 B( 17-C , 19-C ) :   1.3756 B( 18-O , 34-H ) :   0.9802
B( 19-C , 35-H ) :   0.9578

MP2 TOTAL ENERGY:    -1274.341297923 Eh
FINAL SINGLE POINT ENERGY     -1274.341297922855

DIPOLE MOMENT
-------------
                                X             Y             Z
Electronic contribution:     10.17905       9.36813       7.00430
Nuclear contribution   :    -11.55007     -10.68128      -7.91164
                        -----------------------------------------
Total Dipole Moment    :     -1.37101      -1.31315      -0.90734
                        -----------------------------------------
Magnitude (a.u.)       :      2.10412
Magnitude (Debye)      :      5.34824

Rotational constants in cm-1:     0.011811     0.009268     0.006566
Rotational constants in MHz :   354.099671   277.861215   196.852351

                             ****ORCA TERMINATED NORMALLY****
TOTAL RUN TIME: 0 days 1 hours 31 minutes 39 seconds 105 msec
