                         Program Version 4.2.0 -  RELEASE  -
|  1> ! ri-mp2 cc-pvtz cc-pvtz/c TightSCF  NoKeepInts
|  2>
|  3> %scf
|  4>   MaxCore 4096
|  5> end
|  6> *xyz  0  1
|  7>     C       14.9713658   16.2014958   17.3415160
|  8>     C       15.5264306   14.9005098   16.7266531
|  9>     O       16.9349680   14.8284456   16.3661195
| 10>     C       18.0161991   15.6709026   16.5032312
| 11>     O       19.1235695   15.2438305   16.2351204
| 12>     C       17.9001612   16.8592541   17.3873133
| 13>     C       17.4940502   18.0535050   16.9040135
| 14>     C       17.0735157   18.3477583   15.4799282
| 15>     N       17.5065190   19.1794247   17.7295019
| 16>     C       17.9612073   19.1913351   19.0229426
| 17>     S       17.9298510   20.5658949   19.9415903
| 18>     N       18.4431625   18.0052369   19.5219329
| 19>     C       18.4865286   16.7198450   18.7948790
| 20>     C       17.8507070   15.5780816   19.5892536
| 21>     C       18.3384772   14.2668046   19.4333066
| 22>     C       17.7670422   13.1970378   20.1416011
| 23>     C       16.6981458   13.4373859   21.0206540
| 24>     C       16.2106376   14.7404176   21.1847816
| 25>     O       15.1738305   14.9757957   22.0274073
| 26>     C       16.7813793   15.8039628   20.4782244
| 27>     H       15.4886669   16.4883046   18.2594753
| 28>     H       13.9189737   16.0510522   17.6119107
| 29>     H       14.9947723   17.0266860   16.6245178
| 30>     H       15.3356647   14.0948551   17.4480797
| 31>     H       14.9325482   14.6605236   15.8352593
| 32>     H       16.7602028   17.4431770   14.9444910
| 33>     H       17.9087189   18.7854492   14.9182133
| 34>     H       16.2344935   19.0535367   15.4444337
| 35>     H       17.1830960   20.0656625   17.3748296
| 36>     H       18.7617615   18.0435884   20.4820273
| 37>     H       19.5481864   16.4613523   18.6659097
| 38>     H       19.1605623   14.0734593   18.7467478
| 39>     H       18.1526379   12.1880797   20.0043783
| 40>     H       16.2529713   12.6135265   21.5687513
| 41>     H       14.9491105   14.1351986   22.4544007
| 42>     H       16.3768853   16.8006241   20.6206040
| 43> *
| 44>
| 45>                          ****END OF INPUT****

CARTESIAN COORDINATES (ANGSTROEM)
---------------------------------
  C     14.971366   16.201496   17.341516
  C     15.526431   14.900510   16.726653
  O     16.934968   14.828446   16.366119
  C     18.016199   15.670903   16.503231
  O     19.123569   15.243830   16.235120
  C     17.900161   16.859254   17.387313
  C     17.494050   18.053505   16.904014
  C     17.073516   18.347758   15.479928
  N     17.506519   19.179425   17.729502
  C     17.961207   19.191335   19.022943
  S     17.929851   20.565895   19.941590
  N     18.443162   18.005237   19.521933
  C     18.486529   16.719845   18.794879
  C     17.850707   15.578082   19.589254
  C     18.338477   14.266805   19.433307
  C     17.767042   13.197038   20.141601
  C     16.698146   13.437386   21.020654
  C     16.210638   14.740418   21.184782
  O     15.173830   14.975796   22.027407
  C     16.781379   15.803963   20.478224
  H     15.488667   16.488305   18.259475
  H     13.918974   16.051052   17.611911
  H     14.994772   17.026686   16.624518
  H     15.335665   14.094855   17.448080
  H     14.932548   14.660524   15.835259
  H     16.760203   17.443177   14.944491
  H     17.908719   18.785449   14.918213
  H     16.234493   19.053537   15.444434
  H     17.183096   20.065662   17.374830
  H     18.761761   18.043588   20.482027
  H     19.548186   16.461352   18.665910
  H     19.160562   14.073459   18.746748
  H     18.152638   12.188080   20.004378
  H     16.252971   12.613527   21.568751
  H     14.949110   14.135199   22.454401
  H     16.376885   16.800624   20.620604

 Total Charge           Charge          ....    0
 Multiplicity           Mult            ....    1
 Number of Electrons    NEL             ....  154
 Basis Dimension        Dim             ....  828

ORBITAL ENERGIES
----------------

  NO   OCC          E(Eh)            E(eV)
   0   2.0000     -91.889105     -2500.4297
   1   2.0000     -20.600748      -560.5748
   2   2.0000     -20.597519      -560.4870
   3   2.0000     -20.549720      -559.1863
   4   2.0000     -15.624446      -425.1628
   5   2.0000     -15.612012      -424.8244
   6   2.0000     -11.400334      -310.2189
   7   2.0000     -11.386313      -309.8373
   8   2.0000     -11.322448      -308.0995
   9   2.0000     -11.317812      -307.9733
  10   2.0000     -11.317418      -307.9626
  11   2.0000     -11.311518      -307.8020
  12   2.0000     -11.267206      -306.5963
  13   2.0000     -11.267004      -306.5908
  14   2.0000     -11.261109      -306.4304
  15   2.0000     -11.257827      -306.3411
  16   2.0000     -11.246781      -306.0405
  17   2.0000     -11.243563      -305.9529
  18   2.0000     -11.239822      -305.8511
  19   2.0000     -11.236857      -305.7704
  20   2.0000      -8.894233      -242.0244
  21   2.0000      -6.575827      -178.9373
  22   2.0000      -6.573795      -178.8821
  23   2.0000      -6.573226      -178.8666
  24   2.0000      -1.442076       -39.2409
  25   2.0000      -1.420562       -38.6555
  26   2.0000      -1.354200       -36.8497
  27   2.0000      -1.338091       -36.4113
  28   2.0000      -1.238988       -33.7146
  29   2.0000      -1.161794       -31.6140
  30   2.0000      -1.124920       -30.6106
  31   2.0000      -1.049101       -28.5475
  32   2.0000      -1.041760       -28.3477
  33   2.0000      -1.020341       -27.7649
  34   2.0000      -1.004747       -27.3406
  35   2.0000      -0.990154       -26.9435
  36   2.0000      -0.927843       -25.2479
  37   2.0000      -0.903451       -24.5841
  38   2.0000      -0.852160       -23.1884
  39   2.0000      -0.841155       -22.8890
  40   2.0000      -0.836656       -22.7666
  41   2.0000      -0.829917       -22.5832
  42   2.0000      -0.746262       -20.3068
  43   2.0000      -0.733984       -19.9727
  44   2.0000      -0.728698       -19.8289
  45   2.0000      -0.698125       -18.9969
  46   2.0000      -0.685881       -18.6638
  47   2.0000      -0.676142       -18.3988
  48   2.0000      -0.675481       -18.3808
  49   2.0000      -0.663131       -18.0447
  50   2.0000      -0.657540       -17.8926
  51   2.0000      -0.653712       -17.7884
  52   2.0000      -0.638587       -17.3768
  53   2.0000      -0.613452       -16.6929
  54   2.0000      -0.607668       -16.5355
  55   2.0000      -0.604986       -16.4625
  56   2.0000      -0.602795       -16.4029
  57   2.0000      -0.591974       -16.1084
  58   2.0000      -0.583959       -15.8903
  59   2.0000      -0.577018       -15.7014
  60   2.0000      -0.567059       -15.4305
  61   2.0000      -0.557672       -15.1750
  62   2.0000      -0.543417       -14.7871
  63   2.0000      -0.531696       -14.4682
  64   2.0000      -0.517295       -14.0763
  65   2.0000      -0.513427       -13.9711
  66   2.0000      -0.503108       -13.6903
  67   2.0000      -0.500976       -13.6323
  68   2.0000      -0.487536       -13.2665
  69   2.0000      -0.467224       -12.7138
  70   2.0000      -0.452378       -12.3098
  71   2.0000      -0.448299       -12.1988
  72   2.0000      -0.355168        -9.6646
  73   2.0000      -0.349155        -9.5010
  74   2.0000      -0.328921        -8.9504
  75   2.0000      -0.325060        -8.8453
  76   2.0000      -0.317576        -8.6417
  77   0.0000       0.094912         2.5827
  78   0.0000       0.105610         2.8738
  79   0.0000       0.114582         3.1179
  80   0.0000       0.126182         3.4336
  81   0.0000       0.128724         3.5028

MULLIKEN ATOMIC CHARGES
-----------------------
   0 C :   -0.348855
   1 C :    0.052647
   2 O :   -0.334056
   3 C :    0.385369
   4 O :   -0.379049
   5 C :   -0.183557
   6 C :    0.141659
   7 C :   -0.318874
   8 N :   -0.140969
   9 C :    0.216010
  10 S :   -0.445128
  11 N :   -0.238636
  12 C :    0.121240
  13 C :    0.004702
  14 C :   -0.214189
  15 C :   -0.133719
  16 C :   -0.277758
  17 C :    0.325088
  18 O :   -0.355882
  19 C :   -0.282818
  20 H :    0.122057
  21 H :    0.130432
  22 H :    0.097925
  23 H :    0.109179
  24 H :    0.112602
  25 H :    0.112570
  26 H :    0.151802
  27 H :    0.109231
  28 H :    0.195129
  29 H :    0.205810
  30 H :    0.165268
  31 H :    0.170413
  32 H :    0.165363
  33 H :    0.132623
  34 H :    0.241715
  35 H :    0.184657
Sum of atomic charges:   -0.0000000

LOEWDIN ATOMIC CHARGES
----------------------
   0 C :    0.104620
   1 C :   -0.011434
   2 O :    0.295435
   3 C :   -0.420511
   4 O :    0.125788
   5 C :   -0.081088
   6 C :   -0.106818
   7 C :    0.123261
   8 N :    0.401963
   9 C :   -0.453647
  10 S :   -0.040281
  11 N :    0.397739
  12 C :   -0.042523
  13 C :   -0.041123
  14 C :    0.024090
  15 C :    0.045186
  16 C :   -0.001362
  17 C :   -0.193759
  18 O :    0.395344
  19 C :    0.024108
  20 H :   -0.032291
  21 H :   -0.018256
  22 H :   -0.032747
  23 H :   -0.021297
  24 H :   -0.024341
  25 H :   -0.011607
  26 H :   -0.006721
  27 H :   -0.017878
  28 H :   -0.059110
  29 H :   -0.064696
  30 H :   -0.003535
  31 H :   -0.020998
  32 H :   -0.017861
  33 H :   -0.034629
  34 H :   -0.152902
  35 H :   -0.026119

  Mayer bond orders larger than 0.100000
B(  0-C ,  1-C ) :   0.9613 B(  0-C , 20-H ) :   0.9666 B(  0-C , 21-H ) :   0.9765
B(  0-C , 22-H ) :   0.9766 B(  1-C ,  2-O ) :   0.9110 B(  1-C , 23-H ) :   0.9740
B(  1-C , 24-H ) :   0.9804 B(  2-O ,  3-C ) :   1.1634 B(  3-C ,  4-O ) :   2.0927
B(  3-C ,  5-C ) :   0.9266 B(  5-C ,  6-C ) :   1.7016 B(  5-C , 12-C ) :   0.9446
B(  6-C ,  7-C ) :   0.9456 B(  6-C ,  8-N ) :   1.1120 B(  7-C , 25-H ) :   0.9813
B(  7-C , 26-H ) :   0.9641 B(  7-C , 27-H ) :   0.9748 B(  8-N ,  9-C ) :   1.2059
B(  8-N , 28-H ) :   0.9525 B(  9-C , 10-S ) :   1.6017 B(  9-C , 11-N ) :   1.2861
B( 11-N , 12-C ) :   0.9876 B( 11-N , 29-H ) :   0.9437 B( 12-C , 13-C ) :   0.9543
B( 12-C , 30-H ) :   0.9943 B( 13-C , 14-C ) :   1.3903 B( 13-C , 19-C ) :   1.3348
B( 14-C , 15-C ) :   1.4053 B( 14-C , 31-H ) :   0.9617 B( 15-C , 16-C ) :   1.3546
B( 15-C , 32-H ) :   0.9691 B( 16-C , 17-C ) :   1.3342 B( 16-C , 33-H ) :   0.9846
B( 17-C , 18-O ) :   1.1089 B( 17-C , 19-C ) :   1.3646 B( 18-O , 34-H ) :   0.9790
B( 19-C , 35-H ) :   0.9539

MP2 TOTAL ENERGY:    -1274.317258378 Eh
FINAL SINGLE POINT ENERGY     -1274.317258378079

DIPOLE MOMENT
-------------
                                X             Y             Z
Electronic contribution:      8.87443       5.27917       6.44680
Nuclear contribution   :    -10.39628      -6.58584      -6.94553
                        -----------------------------------------
Total Dipole Moment    :     -1.52185      -1.30666      -0.49873
                        -----------------------------------------
Magnitude (a.u.)       :      2.06691
Magnitude (Debye)      :      5.25367

Rotational constants in cm-1:     0.012559     0.009146     0.006726
Rotational constants in MHz :   376.510567   274.204495   201.630491

                             ****ORCA TERMINATED NORMALLY****
TOTAL RUN TIME: 0 days 1 hours 54 minutes 15 seconds 373 msec
