                         Program Version 5.0.0 -  RELEASE  -
|  1> ! ri-mp2 cc-pvtz cc-pvtz/c TightSCF NoKeepInts
|  2>
|  3> %scf
|  4>   MaxCore 4096
|  5> end
|  6> *xyz  0  1
|  7>     C       15.1469487   14.8305281   17.3853117
|  8>     C       15.4889151   15.5504853   16.0687419
|  9>     O       16.8630933   15.2910291   15.7059343
| 10>     C       17.9725105   15.6286766   16.4433380
| 11>     O       18.9237720   14.8698128   16.4759621
| 12>     C       17.8961026   16.8135220   17.3602745
| 13>     C       17.4261892   18.0271004   16.9753805
| 14>     C       16.9502158   18.4489677   15.5993621
| 15>     N       17.5047210   19.1145204   17.8489503
| 16>     C       18.2077472   19.1225866   19.0242200
| 17>     S       18.3515062   20.4899180   19.9427094
| 18>     N       18.7950641   17.9393371   19.3942993
| 19>     C       18.5888199   16.6421500   18.7202790
| 20>     C       17.8501062   15.6589011   19.6263553
| 21>     C       18.1921908   14.2938084   19.6070461
| 22>     C       17.5172666   13.3719342   20.4240553
| 23>     C       16.4903976   13.8167728   21.2732215
| 24>     C       16.1463879   15.1746647   21.2993534
| 25>     O       15.1490393   15.6061656   22.1114824
| 26>     C       16.8190036   16.0907174   20.4840199
| 27>     H       15.5320481   15.3833445   18.2448444
| 28>     H       15.5679140   13.8168716   17.4016935
| 29>     H       14.0598655   14.7506176   17.5059583
| 30>     H       14.8435072   15.1527186   15.2747781
| 31>     H       15.2670841   16.6158757   16.1675849
| 32>     H       17.1192166   17.6776546   14.8389099
| 33>     H       17.4977266   19.3369309   15.2575830
| 34>     H       15.8829058   18.7008246   15.6030251
| 35>     H       17.1036718   19.9997734   17.5816379
| 36>     H       19.3005125   17.9691883   20.2708510
| 37>     H       19.5859758   16.2190413   18.5273793
| 38>     H       18.9815847   13.9426869   18.9455757
| 39>     H       17.7907993   12.3185332   20.3939284
| 40>     H       15.9655934   13.1074665   21.9046507
| 41>     H       14.8422116   14.8440114   22.6254761
| 42>     H       16.5263854   17.1348626   20.5198270
| 43> *
| 44>
| 45>                          ****END OF INPUT****

CARTESIAN COORDINATES (ANGSTROEM)
---------------------------------
  C     15.146949   14.830528   17.385312
  C     15.488915   15.550485   16.068742
  O     16.863093   15.291029   15.705934
  C     17.972510   15.628677   16.443338
  O     18.923772   14.869813   16.475962
  C     17.896103   16.813522   17.360274
  C     17.426189   18.027100   16.975380
  C     16.950216   18.448968   15.599362
  N     17.504721   19.114520   17.848950
  C     18.207747   19.122587   19.024220
  S     18.351506   20.489918   19.942709
  N     18.795064   17.939337   19.394299
  C     18.588820   16.642150   18.720279
  C     17.850106   15.658901   19.626355
  C     18.192191   14.293808   19.607046
  C     17.517267   13.371934   20.424055
  C     16.490398   13.816773   21.273221
  C     16.146388   15.174665   21.299353
  O     15.149039   15.606166   22.111482
  C     16.819004   16.090717   20.484020
  H     15.532048   15.383344   18.244844
  H     15.567914   13.816872   17.401693
  H     14.059865   14.750618   17.505958
  H     14.843507   15.152719   15.274778
  H     15.267084   16.615876   16.167585
  H     17.119217   17.677655   14.838910
  H     17.497727   19.336931   15.257583
  H     15.882906   18.700825   15.603025
  H     17.103672   19.999773   17.581638
  H     19.300512   17.969188   20.270851
  H     19.585976   16.219041   18.527379
  H     18.981585   13.942687   18.945576
  H     17.790799   12.318533   20.393928
  H     15.965593   13.107466   21.904651
  H     14.842212   14.844011   22.625476
  H     16.526385   17.134863   20.519827

 Total Charge           Charge          ....    0
 Multiplicity           Mult            ....    1
 Number of Electrons    NEL             ....  154
 Basis Dimension        Dim             ....  828

ORBITAL ENERGIES
----------------

  NO   OCC          E(Eh)            E(eV)
   0   2.0000     -91.891195     -2500.4865
   1   2.0000     -20.598434      -560.5119
   2   2.0000     -20.597698      -560.4919
   3   2.0000     -20.550007      -559.1941
   4   2.0000     -15.629513      -425.3007
   5   2.0000     -15.611102      -424.7997
   6   2.0000     -11.400257      -310.2168
   7   2.0000     -11.387133      -309.8596
   8   2.0000     -11.336941      -308.4938
   9   2.0000     -11.314660      -307.8875
  10   2.0000     -11.313144      -307.8463
  11   2.0000     -11.307592      -307.6952
  12   2.0000     -11.269045      -306.6463
  13   2.0000     -11.268833      -306.6405
  14   2.0000     -11.261895      -306.4517
  15   2.0000     -11.254836      -306.2597
  16   2.0000     -11.243886      -305.9617
  17   2.0000     -11.239649      -305.8464
  18   2.0000     -11.235774      -305.7409
  19   2.0000     -11.226161      -305.4794
  20   2.0000      -8.896286      -242.0802
  21   2.0000      -6.577870      -178.9930
  22   2.0000      -6.575848      -178.9379
  23   2.0000      -6.575268      -178.9221
  24   2.0000      -1.446687       -39.3663
  25   2.0000      -1.417508       -38.5723
  26   2.0000      -1.359018       -36.9808
  27   2.0000      -1.342808       -36.5397
  28   2.0000      -1.241253       -33.7762
  29   2.0000      -1.158834       -31.5335
  30   2.0000      -1.124885       -30.6097
  31   2.0000      -1.047224       -28.4964
  32   2.0000      -1.037193       -28.2235
  33   2.0000      -1.017417       -27.6853
  34   2.0000      -1.005570       -27.3629
  35   2.0000      -0.989849       -26.9352
  36   2.0000      -0.927769       -25.2459
  37   2.0000      -0.894342       -24.3363
  38   2.0000      -0.855615       -23.2825
  39   2.0000      -0.841665       -22.9029
  40   2.0000      -0.834434       -22.7061
  41   2.0000      -0.830449       -22.5977
  42   2.0000      -0.747061       -20.3286
  43   2.0000      -0.739872       -20.1330
  44   2.0000      -0.730190       -19.8695
  45   2.0000      -0.695528       -18.9263
  46   2.0000      -0.687590       -18.7103
  47   2.0000      -0.681376       -18.5412
  48   2.0000      -0.675500       -18.3813
  49   2.0000      -0.660963       -17.9857
  50   2.0000      -0.655627       -17.8405
  51   2.0000      -0.648989       -17.6599
  52   2.0000      -0.639129       -17.3916
  53   2.0000      -0.623562       -16.9680
  54   2.0000      -0.610049       -16.6003
  55   2.0000      -0.605659       -16.4808
  56   2.0000      -0.601483       -16.3672
  57   2.0000      -0.587555       -15.9882
  58   2.0000      -0.576157       -15.6780
  59   2.0000      -0.565808       -15.3964
  60   2.0000      -0.564774       -15.3683
  61   2.0000      -0.549345       -14.9484
  62   2.0000      -0.542644       -14.7661
  63   2.0000      -0.534799       -14.5526
  64   2.0000      -0.520006       -14.1501
  65   2.0000      -0.513080       -13.9616
  66   2.0000      -0.501872       -13.6566
  67   2.0000      -0.499688       -13.5972
  68   2.0000      -0.482026       -13.1166
  69   2.0000      -0.469417       -12.7735
  70   2.0000      -0.457906       -12.4602
  71   2.0000      -0.449394       -12.2286
  72   2.0000      -0.359911        -9.7937
  73   2.0000      -0.349137        -9.5005
  74   2.0000      -0.330699        -8.9988
  75   2.0000      -0.323125        -8.7927
  76   2.0000      -0.319791        -8.7020
  77   0.0000       0.078798         2.1442
  78   0.0000       0.106565         2.8998
  79   0.0000       0.115316         3.1379
  80   0.0000       0.129799         3.5320
  81   0.0000       0.131303         3.5729

MULLIKEN ATOMIC CHARGES
-----------------------
   0 C :   -0.311840
   1 C :    0.027758
   2 O :   -0.334363
   3 C :    0.439651
   4 O :   -0.386049
   5 C :   -0.234770
   6 C :    0.154995
   7 C :   -0.328570
   8 N :   -0.135362
   9 C :    0.197241
  10 S :   -0.438329
  11 N :   -0.221880
  12 C :    0.081138
  13 C :    0.010745
  14 C :   -0.205174
  15 C :   -0.141674
  16 C :   -0.268946
  17 C :    0.311244
  18 O :   -0.357138
  19 C :   -0.253383
  20 H :    0.109708
  21 H :    0.117271
  22 H :    0.106262
  23 H :    0.123536
  24 H :    0.085353
  25 H :    0.136148
  26 H :    0.137923
  27 H :    0.121096
  28 H :    0.196661
  29 H :    0.201444
  30 H :    0.166722
  31 H :    0.177964
  32 H :    0.164803
  33 H :    0.132155
  34 H :    0.240723
  35 H :    0.176938
Sum of atomic charges:   -0.0000000

LOEWDIN ATOMIC CHARGES
----------------------
   0 C :    0.108475
   1 C :   -0.021779
   2 O :    0.297171
   3 C :   -0.413963
   4 O :    0.122715
   5 C :   -0.082768
   6 C :   -0.090533
   7 C :    0.122656
   8 N :    0.403398
   9 C :   -0.459701
  10 S :   -0.035792
  11 N :    0.397860
  12 C :   -0.043143
  13 C :   -0.043515
  14 C :    0.020456
  15 C :    0.044338
  16 C :   -0.001044
  17 C :   -0.192818
  18 O :    0.395615
  19 C :    0.025230
  20 H :   -0.032977
  21 H :   -0.020704
  22 H :   -0.025473
  23 H :   -0.020438
  24 H :   -0.039635
  25 H :   -0.008200
  26 H :   -0.009553
  27 H :   -0.018993
  28 H :   -0.056688
  29 H :   -0.063111
  30 H :   -0.002075
  31 H :   -0.022554
  32 H :   -0.018830
  33 H :   -0.035029
  34 H :   -0.153472
  35 H :   -0.025126

  Mayer bond orders larger than 0.100000
B(  0-C ,  1-C ) :   0.9651 B(  0-C , 20-H ) :   0.9695 B(  0-C , 21-H ) :   0.9723
B(  0-C , 22-H ) :   0.9784 B(  1-C ,  2-O ) :   0.8988 B(  1-C , 23-H ) :   0.9823
B(  1-C , 24-H ) :   0.9697 B(  2-O ,  3-C ) :   1.1657 B(  3-C ,  4-O ) :   2.0728
B(  3-C ,  5-C ) :   0.9423 B(  5-C ,  6-C ) :   1.6823 B(  5-C , 12-C ) :   0.9473
B(  6-C ,  7-C ) :   0.9394 B(  6-C ,  8-N ) :   1.1179 B(  7-C , 25-H ) :   0.9765
B(  7-C , 26-H ) :   0.9713 B(  7-C , 27-H ) :   0.9660 B(  8-N ,  9-C ) :   1.1917
B(  8-N , 28-H ) :   0.9520 B(  9-C , 10-S ) :   1.6116 B(  9-C , 11-N ) :   1.2920
B( 11-N , 12-C ) :   0.9855 B( 11-N , 29-H ) :   0.9487 B( 12-C , 13-C ) :   0.9532
B( 12-C , 30-H ) :   0.9953 B( 13-C , 14-C ) :   1.3907 B( 13-C , 19-C ) :   1.3425
B( 14-C , 15-C ) :   1.3994 B( 14-C , 31-H ) :   0.9566 B( 15-C , 16-C ) :   1.3593
B( 15-C , 32-H ) :   0.9697 B( 16-C , 17-C ) :   1.3314 B( 16-C , 33-H ) :   0.9844
B( 17-C , 18-O ) :   1.1109 B( 17-C , 19-C ) :   1.3671 B( 18-O , 34-H ) :   0.9798
B( 19-C , 35-H ) :   0.9595

MP2 TOTAL ENERGY:    -1274.334779259 Eh
FINAL SINGLE POINT ENERGY     -1274.334779258837

DIPOLE MOMENT
-------------
                                X             Y             Z
Electronic contribution:      9.38068       7.23231       6.24192
Nuclear contribution   :    -10.95965      -8.15561      -6.79235
                        -----------------------------------------
Total Dipole Moment    :     -1.57896      -0.92330      -0.55044
                        -----------------------------------------
Magnitude (a.u.)       :      1.91013
Magnitude (Debye)      :      4.85516

Rotational constants in cm-1:     0.011524     0.009680     0.006633
Rotational constants in MHz :   345.488046   290.194682   198.865464

                             ****ORCA TERMINATED NORMALLY****
TOTAL RUN TIME: 0 days 2 hours 10 minutes 31 seconds 621 msec
