                         Program Version 5.0.0 -  RELEASE  -
|  1> ! ri-mp2 cc-pvtz cc-pvtz/c TightSCF NoKeepInts
|  2>
|  3> %scf
|  4>   MaxCore 4096
|  5> end
|  6> *xyz  0  1
|  7>     C       14.1919083   15.3251255   16.1902715
|  8>     C       15.5338694   15.2057491   16.9323539
|  9>     O       16.5826540   15.4897806   15.9884210
| 10>     C       17.8376119   15.7225687   16.4718661
| 11>     O       18.6631284   14.8275710   16.4729658
| 12>     C       17.9406875   16.8933487   17.4012695
| 13>     C       17.3146967   18.0764985   17.1885799
| 14>     C       16.4604348   18.4640539   16.0008064
| 15>     N       17.4946245   19.1294817   18.0896154
| 16>     C       18.3783635   19.1182046   19.1371951
| 17>     S       18.6034397   20.4442224   20.0990524
| 18>     N       19.0639408   17.9478623   19.3501544
| 19>     C       18.8213291   16.6804768   18.6337931
| 20>     C       18.1899824   15.6440232   19.5593105
| 21>     C       18.7216522   14.3440175   19.6392902
| 22>     C       18.1290753   13.3771664   20.4685103
| 23>     C       16.9922403   13.7110527   21.2238950
| 24>     C       16.4560791   15.0030770   21.1433535
| 25>     O       15.3502824   15.3257179   21.8599723
| 26>     C       17.0476766   15.9633044   20.3166850
| 27>     H       13.3570526   15.1203146   16.8715713
| 28>     H       14.1449371   14.6027216   15.3656242
| 29>     H       14.0577639   16.3303458   15.7746078
| 30>     H       15.5415779   15.9174115   17.7679614
| 31>     H       15.6579880   14.1936965   17.3412296
| 32>     H       16.7419658   17.9061473   15.0990261
| 33>     H       16.5665105   19.5279333   15.7543537
| 34>     H       15.4008831   18.2700831   16.2020971
| 35>     H       17.0054555   19.9990891   17.9467401
| 36>     H       19.6910405   17.9596020   20.1445975
| 37>     H       19.7936033   16.2955028   18.2925414
| 38>     H       19.5884865   14.0765109   19.0389790
| 39>     H       18.5477477   12.3732800   20.5163066
| 40>     H       16.5298905   12.9658450   21.8628247
| 41>     H       15.1320091   14.5625975   22.4164427
| 42>     H       16.6164112   16.9576158   20.2717357
| 43> *
| 44>
| 45>                          ****END OF INPUT****

CARTESIAN COORDINATES (ANGSTROEM)
---------------------------------
  C     14.191908   15.325125   16.190272
  C     15.533869   15.205749   16.932354
  O     16.582654   15.489781   15.988421
  C     17.837612   15.722569   16.471866
  O     18.663128   14.827571   16.472966
  C     17.940687   16.893349   17.401269
  C     17.314697   18.076498   17.188580
  C     16.460435   18.464054   16.000806
  N     17.494625   19.129482   18.089615
  C     18.378363   19.118205   19.137195
  S     18.603440   20.444222   20.099052
  N     19.063941   17.947862   19.350154
  C     18.821329   16.680477   18.633793
  C     18.189982   15.644023   19.559310
  C     18.721652   14.344017   19.639290
  C     18.129075   13.377166   20.468510
  C     16.992240   13.711053   21.223895
  C     16.456079   15.003077   21.143353
  O     15.350282   15.325718   21.859972
  C     17.047677   15.963304   20.316685
  H     13.357053   15.120315   16.871571
  H     14.144937   14.602722   15.365624
  H     14.057764   16.330346   15.774608
  H     15.541578   15.917411   17.767961
  H     15.657988   14.193696   17.341230
  H     16.741966   17.906147   15.099026
  H     16.566510   19.527933   15.754354
  H     15.400883   18.270083   16.202097
  H     17.005455   19.999089   17.946740
  H     19.691040   17.959602   20.144597
  H     19.793603   16.295503   18.292541
  H     19.588486   14.076511   19.038979
  H     18.547748   12.373280   20.516307
  H     16.529891   12.965845   21.862825
  H     15.132009   14.562597   22.416443
  H     16.616411   16.957616   20.271736

 Total Charge           Charge          ....    0
 Multiplicity           Mult            ....    1
 Number of Electrons    NEL             ....  154
 Basis Dimension        Dim             ....  828

ORBITAL ENERGIES
----------------

  NO   OCC          E(Eh)            E(eV)
   0   2.0000     -91.890837     -2500.4768
   1   2.0000     -20.598211      -560.5058
   2   2.0000     -20.586950      -560.1994
   3   2.0000     -20.555461      -559.3425
   4   2.0000     -15.630199      -425.3193
   5   2.0000     -15.610503      -424.7834
   6   2.0000     -11.394299      -310.0546
   7   2.0000     -11.386678      -309.8473
   8   2.0000     -11.335267      -308.4483
   9   2.0000     -11.314456      -307.8820
  10   2.0000     -11.310937      -307.7863
  11   2.0000     -11.302219      -307.5490
  12   2.0000     -11.264793      -306.5306
  13   2.0000     -11.262416      -306.4659
  14   2.0000     -11.260162      -306.4046
  15   2.0000     -11.254253      -306.2438
  16   2.0000     -11.243990      -305.9645
  17   2.0000     -11.240167      -305.8605
  18   2.0000     -11.236797      -305.7688
  19   2.0000     -11.235192      -305.7251
  20   2.0000      -8.895911      -242.0701
  21   2.0000      -6.577489      -178.9826
  22   2.0000      -6.575477      -178.9278
  23   2.0000      -6.574892      -178.9119
  24   2.0000      -1.450767       -39.4774
  25   2.0000      -1.418008       -38.5860
  26   2.0000      -1.358820       -36.9754
  27   2.0000      -1.341842       -36.5134
  28   2.0000      -1.240124       -33.7455
  29   2.0000      -1.158852       -31.5340
  30   2.0000      -1.123883       -30.5824
  31   2.0000      -1.046713       -28.4825
  32   2.0000      -1.038448       -28.2576
  33   2.0000      -1.016306       -27.6551
  34   2.0000      -1.003119       -27.2963
  35   2.0000      -0.988378       -26.8951
  36   2.0000      -0.926072       -25.1997
  37   2.0000      -0.880182       -23.9510
  38   2.0000      -0.852939       -23.2097
  39   2.0000      -0.842526       -22.9263
  40   2.0000      -0.834772       -22.7153
  41   2.0000      -0.833795       -22.6887
  42   2.0000      -0.757839       -20.6218
  43   2.0000      -0.737643       -20.0723
  44   2.0000      -0.730715       -19.8838
  45   2.0000      -0.696231       -18.9454
  46   2.0000      -0.687828       -18.7168
  47   2.0000      -0.683051       -18.5868
  48   2.0000      -0.675920       -18.3927
  49   2.0000      -0.659382       -17.9427
  50   2.0000      -0.651787       -17.7360
  51   2.0000      -0.642889       -17.4939
  52   2.0000      -0.635171       -17.2839
  53   2.0000      -0.623780       -16.9739
  54   2.0000      -0.606805       -16.5120
  55   2.0000      -0.606696       -16.5090
  56   2.0000      -0.601822       -16.3764
  57   2.0000      -0.582294       -15.8450
  58   2.0000      -0.576683       -15.6923
  59   2.0000      -0.566869       -15.4253
  60   2.0000      -0.560029       -15.2392
  61   2.0000      -0.552289       -15.0286
  62   2.0000      -0.540838       -14.7170
  63   2.0000      -0.527719       -14.3600
  64   2.0000      -0.523686       -14.2502
  65   2.0000      -0.515111       -14.0169
  66   2.0000      -0.502235       -13.6665
  67   2.0000      -0.497521       -13.5382
  68   2.0000      -0.484653       -13.1881
  69   2.0000      -0.467078       -12.7098
  70   2.0000      -0.462583       -12.5875
  71   2.0000      -0.451820       -12.2947
  72   2.0000      -0.357383        -9.7249
  73   2.0000      -0.350047        -9.5253
  74   2.0000      -0.330143        -8.9837
  75   2.0000      -0.321868        -8.7585
  76   2.0000      -0.318580        -8.6690
  77   0.0000       0.072418         1.9706
  78   0.0000       0.103879         2.8267
  79   0.0000       0.117773         3.2048
  80   0.0000       0.130751         3.5579
  81   0.0000       0.134841         3.6692

MULLIKEN ATOMIC CHARGES
-----------------------
   0 C :   -0.266395
   1 C :    0.011390
   2 O :   -0.356947
   3 C :    0.463605
   4 O :   -0.381878
   5 C :   -0.240883
   6 C :    0.153637
   7 C :   -0.310309
   8 N :   -0.127469
   9 C :    0.197910
  10 S :   -0.437371
  11 N :   -0.203251
  12 C :    0.057322
  13 C :    0.050119
  14 C :   -0.174096
  15 C :   -0.132131
  16 C :   -0.279257
  17 C :    0.318495
  18 O :   -0.358800
  19 C :   -0.304338
  20 H :    0.095953
  21 H :    0.108136
  22 H :    0.090984
  23 H :    0.099549
  24 H :    0.120766
  25 H :    0.137906
  26 H :    0.122723
  27 H :    0.119340
  28 H :    0.197787
  29 H :    0.195180
  30 H :    0.159719
  31 H :    0.162332
  32 H :    0.162355
  33 H :    0.131417
  34 H :    0.241567
  35 H :    0.174933
Sum of atomic charges:    0.0000000

LOEWDIN ATOMIC CHARGES
----------------------
   0 C :    0.110299
   1 C :   -0.019748
   2 O :    0.290865
   3 C :   -0.419074
   4 O :    0.134318
   5 C :   -0.093077
   6 C :   -0.081833
   7 C :    0.127581
   8 N :    0.403895
   9 C :   -0.457938
  10 S :   -0.034660
  11 N :    0.397143
  12 C :   -0.045682
  13 C :   -0.042343
  14 C :    0.022428
  15 C :    0.043512
  16 C :   -0.001280
  17 C :   -0.194977
  18 O :    0.393512
  19 C :    0.027320
  20 H :   -0.023327
  21 H :   -0.023489
  22 H :   -0.032291
  23 H :   -0.038223
  24 H :   -0.024965
  25 H :   -0.006641
  26 H :   -0.015151
  27 H :   -0.015211
  28 H :   -0.057722
  29 H :   -0.063629
  30 H :   -0.003349
  31 H :   -0.023061
  32 H :   -0.019396
  33 H :   -0.035104
  34 H :   -0.153273
  35 H :   -0.025426

  Mayer bond orders larger than 0.100000
B(  0-C ,  1-C ) :   0.9776 B(  0-C , 20-H ) :   0.9759 B(  0-C , 21-H ) :   0.9791
B(  0-C , 22-H ) :   0.9777 B(  1-C ,  2-O ) :   0.8943 B(  1-C , 23-H ) :   0.9622
B(  1-C , 24-H ) :   0.9786 B(  2-O ,  3-C ) :   1.1242 B(  3-C ,  4-O ) :   2.0806
B(  3-C ,  5-C ) :   0.9702 B(  5-C ,  6-C ) :   1.6628 B(  5-C , 12-C ) :   0.9625
B(  6-C ,  7-C ) :   0.9490 B(  6-C ,  8-N ) :   1.1326 B(  7-C , 25-H ) :   0.9707
B(  7-C , 26-H ) :   0.9835 B(  7-C , 27-H ) :   0.9632 B(  8-N ,  9-C ) :   1.1850
B(  8-N , 28-H ) :   0.9505 B(  9-C , 10-S ) :   1.6145 B(  9-C , 11-N ) :   1.2963
B( 11-N , 12-C ) :   0.9957 B( 11-N , 29-H ) :   0.9515 B( 12-C , 13-C ) :   0.9432
B( 12-C , 30-H ) :   0.9985 B( 13-C , 14-C ) :   1.3845 B( 13-C , 19-C ) :   1.3468
B( 14-C , 15-C ) :   1.3956 B( 14-C , 31-H ) :   0.9612 B( 15-C , 16-C ) :   1.3644
B( 15-C , 32-H ) :   0.9704 B( 16-C , 17-C ) :   1.3298 B( 16-C , 33-H ) :   0.9846
B( 17-C , 18-O ) :   1.1114 B( 17-C , 19-C ) :   1.3703 B( 18-O , 34-H ) :   0.9796
B( 19-C , 35-H ) :   0.9578

MP2 TOTAL ENERGY:    -1274.329212817 Eh
FINAL SINGLE POINT ENERGY     -1274.329212817040

DIPOLE MOMENT
-------------
                                X             Y             Z
Electronic contribution:     12.02614       6.89839       7.25607
Nuclear contribution   :    -13.43387      -7.95305      -7.57975
                        -----------------------------------------
Total Dipole Moment    :     -1.40773      -1.05465      -0.32369
                        -----------------------------------------
Magnitude (a.u.)       :      1.78851
Magnitude (Debye)      :      4.54604

Rotational constants in cm-1:     0.011151     0.009398     0.006814
Rotational constants in MHz :   334.309148   281.740490   204.269041

                             ****ORCA TERMINATED NORMALLY****
TOTAL RUN TIME: 0 days 2 hours 4 minutes 0 seconds 673 msec
