                         Program Version 4.2.0 -  RELEASE  -
|  1> ! ri-mp2 cc-pvtz cc-pvtz/c TightSCF  NoKeepInts
|  2>
|  3> %scf
|  4>   MaxCore 4096
|  5> end
|  6> *xyz  0  1
|  7>     C       15.2096364   15.3533351   17.3166935
|  8>     C       15.6284357   15.1440297   15.8464690
|  9>     O       16.9718437   15.5739127   15.5076352
| 10>     C       18.0046998   15.7148078   16.3956234
| 11>     O       18.7861252   14.7947595   16.5559637
| 12>     C       17.9100578   16.8495442   17.3770205
| 13>     C       17.3120138   18.0363599   17.0986697
| 14>     C       16.6402786   18.4537148   15.8061803
| 15>     N       17.3694724   19.0787970   18.0286739
| 16>     C       18.1682171   19.0867018   19.1417149
| 17>     S       18.2963238   20.4193651   20.1122832
| 18>     N       18.8566830   17.9299233   19.4077788
| 19>     C       18.6518566   16.6481705   18.7053103
| 20>     C       17.9328722   15.6471975   19.6067330
| 21>     C       18.3836116   14.3165852   19.6869583
| 22>     C       17.7228419   13.3826120   20.5020864
| 23>     C       16.5996456   13.7807545   21.2463453
| 24>     C       16.1456033   15.1040934   21.1696692
| 25>     O       15.0547729   15.4893960   21.8784196
| 26>     C       16.8052002   16.0317591   20.3573201
| 27>     H       15.8684263   14.7942341   17.9908057
| 28>     H       14.1936432   14.9700663   17.4707987
| 29>     H       15.2033901   16.4099294   17.6028097
| 30>     H       15.5558800   14.0692008   15.6336800
| 31>     H       14.9117891   15.6486163   15.1859442
| 32>     H       15.6157389   18.0689537   15.7507293
| 33>     H       17.1918954   18.0790506   14.9347402
| 34>     H       16.5913965   19.5443426   15.6979490
| 35>     H       16.8792210   19.9397921   17.8449631
| 36>     H       19.4228741   17.9535489   20.2463584
| 37>     H       19.6460195   16.2384789   18.4736804
| 38>     H       19.2433563   14.0007744   19.0999110
| 39>     H       18.0800030   12.3552888   20.5492611
| 40>     H       16.0849838   13.0616945   21.8749979
| 41>     H       14.7759146   14.7329025   22.4160699
| 42>     H       16.4322765   17.0493068   20.3137531
| 43> *
| 44>
| 45>                          ****END OF INPUT****

CARTESIAN COORDINATES (ANGSTROEM)
---------------------------------
  C     15.209636   15.353335   17.316693
  C     15.628436   15.144030   15.846469
  O     16.971844   15.573913   15.507635
  C     18.004700   15.714808   16.395623
  O     18.786125   14.794759   16.555964
  C     17.910058   16.849544   17.377021
  C     17.312014   18.036360   17.098670
  C     16.640279   18.453715   15.806180
  N     17.369472   19.078797   18.028674
  C     18.168217   19.086702   19.141715
  S     18.296324   20.419365   20.112283
  N     18.856683   17.929923   19.407779
  C     18.651857   16.648170   18.705310
  C     17.932872   15.647198   19.606733
  C     18.383612   14.316585   19.686958
  C     17.722842   13.382612   20.502086
  C     16.599646   13.780754   21.246345
  C     16.145603   15.104093   21.169669
  O     15.054773   15.489396   21.878420
  C     16.805200   16.031759   20.357320
  H     15.868426   14.794234   17.990806
  H     14.193643   14.970066   17.470799
  H     15.203390   16.409929   17.602810
  H     15.555880   14.069201   15.633680
  H     14.911789   15.648616   15.185944
  H     15.615739   18.068954   15.750729
  H     17.191895   18.079051   14.934740
  H     16.591396   19.544343   15.697949
  H     16.879221   19.939792   17.844963
  H     19.422874   17.953549   20.246358
  H     19.646020   16.238479   18.473680
  H     19.243356   14.000774   19.099911
  H     18.080003   12.355289   20.549261
  H     16.084984   13.061694   21.874998
  H     14.775915   14.732902   22.416070
  H     16.432277   17.049307   20.313753

 Total Charge           Charge          ....    0
 Multiplicity           Mult            ....    1
 Number of Electrons    NEL             ....  154
 Basis Dimension        Dim             ....  828

ORBITAL ENERGIES
----------------

  NO   OCC          E(Eh)            E(eV)
   0   2.0000     -91.891246     -2500.4879
   1   2.0000     -20.596169      -560.4503
   2   2.0000     -20.583079      -560.0941
   3   2.0000     -20.551491      -559.2345
   4   2.0000     -15.631586      -425.3571
   5   2.0000     -15.609714      -424.7619
   6   2.0000     -11.396246      -310.1076
   7   2.0000     -11.386324      -309.8376
   8   2.0000     -11.337704      -308.5146
   9   2.0000     -11.312420      -307.8266
  10   2.0000     -11.309539      -307.7482
  11   2.0000     -11.309448      -307.7457
  12   2.0000     -11.264580      -306.5248
  13   2.0000     -11.262971      -306.4810
  14   2.0000     -11.258419      -306.3572
  15   2.0000     -11.252761      -306.2032
  16   2.0000     -11.242402      -305.9213
  17   2.0000     -11.237719      -305.7939
  18   2.0000     -11.234473      -305.7056
  19   2.0000     -11.232904      -305.6629
  20   2.0000      -8.896300      -242.0806
  21   2.0000      -6.577874      -178.9930
  22   2.0000      -6.575867      -178.9384
  23   2.0000      -6.575277      -178.9224
  24   2.0000      -1.443609       -39.2826
  25   2.0000      -1.415992       -38.5311
  26   2.0000      -1.353209       -36.8227
  27   2.0000      -1.342695       -36.5366
  28   2.0000      -1.240183       -33.7471
  29   2.0000      -1.156742       -31.4766
  30   2.0000      -1.122584       -30.5471
  31   2.0000      -1.045046       -28.4372
  32   2.0000      -1.036816       -28.2132
  33   2.0000      -1.014709       -27.6116
  34   2.0000      -1.003117       -27.2962
  35   2.0000      -0.988934       -26.9103
  36   2.0000      -0.926115       -25.2009
  37   2.0000      -0.898131       -24.4394
  38   2.0000      -0.852201       -23.1896
  39   2.0000      -0.840378       -22.8679
  40   2.0000      -0.832743       -22.6601
  41   2.0000      -0.821796       -22.3622
  42   2.0000      -0.745919       -20.2975
  43   2.0000      -0.731690       -19.9103
  44   2.0000      -0.728396       -19.8207
  45   2.0000      -0.694081       -18.8869
  46   2.0000      -0.687728       -18.7140
  47   2.0000      -0.676342       -18.4042
  48   2.0000      -0.673859       -18.3366
  49   2.0000      -0.662517       -18.0280
  50   2.0000      -0.652464       -17.7545
  51   2.0000      -0.650336       -17.6965
  52   2.0000      -0.642088       -17.4721
  53   2.0000      -0.620329       -16.8800
  54   2.0000      -0.604572       -16.4512
  55   2.0000      -0.603766       -16.4293
  56   2.0000      -0.600489       -16.3401
  57   2.0000      -0.584320       -15.9001
  58   2.0000      -0.575687       -15.6652
  59   2.0000      -0.563841       -15.3429
  60   2.0000      -0.559900       -15.2356
  61   2.0000      -0.549956       -14.9651
  62   2.0000      -0.545622       -14.8471
  63   2.0000      -0.532421       -14.4879
  64   2.0000      -0.521464       -14.1898
  65   2.0000      -0.513273       -13.9669
  66   2.0000      -0.500132       -13.6093
  67   2.0000      -0.488841       -13.3020
  68   2.0000      -0.483303       -13.1513
  69   2.0000      -0.469264       -12.7693
  70   2.0000      -0.455833       -12.4039
  71   2.0000      -0.447820       -12.1858
  72   2.0000      -0.356966        -9.7135
  73   2.0000      -0.347385        -9.4528
  74   2.0000      -0.330381        -8.9901
  75   2.0000      -0.321081        -8.7371
  76   2.0000      -0.318329        -8.6622
  77   0.0000       0.070268         1.9121
  78   0.0000       0.107545         2.9265
  79   0.0000       0.117432         3.1955
  80   0.0000       0.132061         3.5936
  81   0.0000       0.133838         3.6419

MULLIKEN ATOMIC CHARGES
-----------------------
   0 C :   -0.348810
   1 C :    0.039746
   2 O :   -0.378793
   3 C :    0.468004
   4 O :   -0.387792
   5 C :   -0.210975
   6 C :    0.137715
   7 C :   -0.304607
   8 N :   -0.126680
   9 C :    0.189141
  10 S :   -0.434798
  11 N :   -0.203405
  12 C :    0.054756
  13 C :    0.027477
  14 C :   -0.182079
  15 C :   -0.136168
  16 C :   -0.278421
  17 C :    0.312339
  18 O :   -0.358975
  19 C :   -0.263168
  20 H :    0.130681
  21 H :    0.125422
  22 H :    0.105414
  23 H :    0.119222
  24 H :    0.104970
  25 H :    0.115399
  26 H :    0.141775
  27 H :    0.114974
  28 H :    0.197804
  29 H :    0.195328
  30 H :    0.160701
  31 H :    0.167318
  32 H :    0.162329
  33 H :    0.131284
  34 H :    0.240842
  35 H :    0.172031
Sum of atomic charges:   -0.0000000

LOEWDIN ATOMIC CHARGES
----------------------
   0 C :    0.104647
   1 C :   -0.015519
   2 O :    0.277894
   3 C :   -0.419221
   4 O :    0.126451
   5 C :   -0.091642
   6 C :   -0.074057
   7 C :    0.128089
   8 N :    0.405344
   9 C :   -0.460188
  10 S :   -0.033439
  11 N :    0.397750
  12 C :   -0.044884
  13 C :   -0.042760
  14 C :    0.019828
  15 C :    0.041539
  16 C :   -0.002210
  17 C :   -0.194300
  18 O :    0.394495
  19 C :    0.029731
  20 H :   -0.020857
  21 H :   -0.020434
  22 H :   -0.034907
  23 H :   -0.023338
  24 H :   -0.028450
  25 H :   -0.014981
  26 H :   -0.005295
  27 H :   -0.017044
  28 H :   -0.058491
  29 H :   -0.063450
  30 H :   -0.002707
  31 H :   -0.023075
  32 H :   -0.019604
  33 H :   -0.035394
  34 H :   -0.154005
  35 H :   -0.025515

  Mayer bond orders larger than 0.100000
B(  0-C ,  1-C ) :   0.9630 B(  0-C , 20-H ) :   0.9649 B(  0-C , 21-H ) :   0.9758
B(  0-C , 22-H ) :   0.9703 B(  1-C ,  2-O ) :   0.8908 B(  1-C , 23-H ) :   0.9839
B(  1-C , 24-H ) :   0.9805 B(  2-O ,  3-C ) :   1.1101 B(  3-C ,  4-O ) :   2.0540
B(  3-C ,  5-C ) :   0.9905 B(  5-C ,  6-C ) :   1.6671 B(  5-C , 12-C ) :   0.9594
B(  6-C ,  7-C ) :   0.9530 B(  6-C ,  8-N ) :   1.1269 B(  7-C , 25-H ) :   0.9647
B(  7-C , 26-H ) :   0.9655 B(  7-C , 27-H ) :   0.9884 B(  8-N ,  9-C ) :   1.1796
B(  8-N , 28-H ) :   0.9491 B(  9-C , 10-S ) :   1.6165 B(  9-C , 11-N ) :   1.2978
B( 11-N , 12-C ) :   0.9855 B( 11-N , 29-H ) :   0.9518 B( 12-C , 13-C ) :   0.9471
B( 12-C , 30-H ) :   0.9982 B( 13-C , 14-C ) :   1.3895 B( 13-C , 19-C ) :   1.3512
B( 14-C , 15-C ) :   1.3959 B( 14-C , 31-H ) :   0.9594 B( 15-C , 16-C ) :   1.3621
B( 15-C , 32-H ) :   0.9708 B( 16-C , 17-C ) :   1.3296 B( 16-C , 33-H ) :   0.9849
B( 17-C , 18-O ) :   1.1111 B( 17-C , 19-C ) :   1.3760 B( 18-O , 34-H ) :   0.9800
B( 19-C , 35-H ) :   0.9581

MP2 TOTAL ENERGY:    -1274.325199787 Eh
FINAL SINGLE POINT ENERGY     -1274.325199786870

DIPOLE MOMENT
-------------
                                X             Y             Z
Electronic contribution:      9.62800       7.10280       6.30291
Nuclear contribution   :    -11.12654      -8.17531      -6.88981
                        -----------------------------------------
Total Dipole Moment    :     -1.49854      -1.07251      -0.58690
                        -----------------------------------------
Magnitude (a.u.)       :      1.93400
Magnitude (Debye)      :      4.91583

Rotational constants in cm-1:     0.011296     0.009954     0.006814
Rotational constants in MHz :   338.643240   298.425810   204.292384

                             ****ORCA TERMINATED NORMALLY****
TOTAL RUN TIME: 0 days 1 hours 50 minutes 4 seconds 880 msec
