                         Program Version 4.2.0 -  RELEASE  -
|  1> ! ri-mp2 cc-pvtz cc-pvtz/c TightSCF  NoKeepInts
|  2>
|  3> %scf
|  4>   MaxCore 4096
|  5> end
|  6> *xyz  0  1
|  7>     C       15.4605404   14.1953121   14.8853268
|  8>     C       15.8337390   14.0100858   16.3731257
|  9>     O       16.7148568   15.0479695   16.8583418
| 10>     C       16.4486703   16.3892883   16.7592634
| 11>     O       15.4832867   16.8399809   16.1683822
| 12>     C       17.3755204   17.2165407   17.6088418
| 13>     C       17.3193636   18.5727913   17.6405303
| 14>     C       16.3685810   19.4709038   16.8780294
| 15>     N       18.2351285   19.2949972   18.4117923
| 16>     C       19.2993485   18.7501898   19.0792125
| 17>     S       20.4005961   19.6864753   19.8833508
| 18>     N       19.4090611   17.3836936   19.0430839
| 19>     C       18.4074184   16.4669575   18.4686725
| 20>     C       17.7444789   15.6657310   19.5858240
| 21>     C       17.9654654   14.2800282   19.6976517
| 22>     C       17.3565508   13.5393628   20.7247492
| 23>     C       16.5219900   14.1895855   21.6497787
| 24>     C       16.3033037   15.5700439   21.5441065
| 25>     O       15.4993695   16.2009204   22.4367356
| 26>     C       16.9105696   16.3044046   20.5208856
| 27>     H       14.6937134   14.9676645   14.7521925
| 28>     H       15.0540243   13.2613015   14.4793112
| 29>     H       16.3417817   14.4687788   14.2921016
| 30>     H       14.9154315   13.9925508   16.9749888
| 31>     H       16.3324420   13.0406837   16.4993261
| 32>     H       15.3311030   19.2738619   17.1773428
| 33>     H       16.4390689   19.2816300   15.7994061
| 34>     H       16.5630401   20.5376710   17.0391100
| 35>     H       18.1704964   20.2997249   18.4484326
| 36>     H       20.1824365   17.0085400   19.5768502
| 37>     H       18.9447695   15.7685925   17.8118859
| 38>     H       18.6068889   13.7742904   18.9810311
| 39>     H       17.5321620   12.4678382   20.8018681
| 40>     H       16.0498167   13.6221987   22.4449848
| 41>     H       15.1976992   15.5384685   23.0761443
| 42>     H       16.7342872   17.3729425   20.4613393
| 43> *
| 44>
| 45>                          ****END OF INPUT****

CARTESIAN COORDINATES (ANGSTROEM)
---------------------------------
  C     15.460540   14.195312   14.885327
  C     15.833739   14.010086   16.373126
  O     16.714857   15.047969   16.858342
  C     16.448670   16.389288   16.759263
  O     15.483287   16.839981   16.168382
  C     17.375520   17.216541   17.608842
  C     17.319364   18.572791   17.640530
  C     16.368581   19.470904   16.878029
  N     18.235128   19.294997   18.411792
  C     19.299349   18.750190   19.079212
  S     20.400596   19.686475   19.883351
  N     19.409061   17.383694   19.043084
  C     18.407418   16.466957   18.468673
  C     17.744479   15.665731   19.585824
  C     17.965465   14.280028   19.697652
  C     17.356551   13.539363   20.724749
  C     16.521990   14.189585   21.649779
  C     16.303304   15.570044   21.544107
  O     15.499369   16.200920   22.436736
  C     16.910570   16.304405   20.520886
  H     14.693713   14.967664   14.752192
  H     15.054024   13.261302   14.479311
  H     16.341782   14.468779   14.292102
  H     14.915432   13.992551   16.974989
  H     16.332442   13.040684   16.499326
  H     15.331103   19.273862   17.177343
  H     16.439069   19.281630   15.799406
  H     16.563040   20.537671   17.039110
  H     18.170496   20.299725   18.448433
  H     20.182436   17.008540   19.576850
  H     18.944769   15.768592   17.811886
  H     18.606889   13.774290   18.981031
  H     17.532162   12.467838   20.801868
  H     16.049817   13.622199   22.444985
  H     15.197699   15.538468   23.076144
  H     16.734287   17.372943   20.461339

 Total Charge           Charge          ....    0
 Multiplicity           Mult            ....    1
 Number of Electrons    NEL             ....  154
 Basis Dimension        Dim             ....  828

ORBITAL ENERGIES
----------------

  NO   OCC          E(Eh)            E(eV)
   0   2.0000     -91.888055     -2500.4011
   1   2.0000     -20.600177      -560.5593
   2   2.0000     -20.595066      -560.4202
   3   2.0000     -20.541646      -558.9666
   4   2.0000     -15.628204      -425.2651
   5   2.0000     -15.607228      -424.6943
   6   2.0000     -11.396838      -310.1237
   7   2.0000     -11.383054      -309.7487
   8   2.0000     -11.334968      -308.4402
   9   2.0000     -11.312035      -307.8161
  10   2.0000     -11.307790      -307.7006
  11   2.0000     -11.301593      -307.5320
  12   2.0000     -11.258453      -306.3581
  13   2.0000     -11.257997      -306.3457
  14   2.0000     -11.253564      -306.2250
  15   2.0000     -11.251464      -306.1679
  16   2.0000     -11.241290      -305.8910
  17   2.0000     -11.236681      -305.7656
  18   2.0000     -11.236548      -305.7620
  19   2.0000     -11.222062      -305.3678
  20   2.0000      -8.893122      -241.9942
  21   2.0000      -6.574699      -178.9066
  22   2.0000      -6.572693      -178.8521
  23   2.0000      -6.572108      -178.8361
  24   2.0000      -1.447284       -39.3826
  25   2.0000      -1.414703       -38.4960
  26   2.0000      -1.355176       -36.8762
  27   2.0000      -1.339215       -36.4419
  28   2.0000      -1.237568       -33.6759
  29   2.0000      -1.155904       -31.4538
  30   2.0000      -1.119095       -30.4521
  31   2.0000      -1.041407       -28.3381
  32   2.0000      -1.035818       -28.1860
  33   2.0000      -1.013353       -27.5747
  34   2.0000      -0.994378       -27.0584
  35   2.0000      -0.982858       -26.7449
  36   2.0000      -0.921380       -25.0720
  37   2.0000      -0.896332       -24.3904
  38   2.0000      -0.846392       -23.0315
  39   2.0000      -0.836645       -22.7663
  40   2.0000      -0.832403       -22.6508
  41   2.0000      -0.818082       -22.2611
  42   2.0000      -0.750193       -20.4138
  43   2.0000      -0.729909       -19.8618
  44   2.0000      -0.720648       -19.6098
  45   2.0000      -0.694342       -18.8940
  46   2.0000      -0.687543       -18.7090
  47   2.0000      -0.679881       -18.5005
  48   2.0000      -0.668888       -18.2014
  49   2.0000      -0.652307       -17.7502
  50   2.0000      -0.651604       -17.7311
  51   2.0000      -0.644335       -17.5332
  52   2.0000      -0.632854       -17.2208
  53   2.0000      -0.607863       -16.5408
  54   2.0000      -0.605025       -16.4636
  55   2.0000      -0.598169       -16.2770
  56   2.0000      -0.597405       -16.2562
  57   2.0000      -0.579991       -15.7823
  58   2.0000      -0.572788       -15.5864
  59   2.0000      -0.570138       -15.5143
  60   2.0000      -0.561667       -15.2837
  61   2.0000      -0.538237       -14.6462
  62   2.0000      -0.536220       -14.5913
  63   2.0000      -0.523797       -14.2532
  64   2.0000      -0.521418       -14.1885
  65   2.0000      -0.512330       -13.9412
  66   2.0000      -0.502476       -13.6731
  67   2.0000      -0.498666       -13.5694
  68   2.0000      -0.483398       -13.1539
  69   2.0000      -0.463278       -12.6064
  70   2.0000      -0.455680       -12.3997
  71   2.0000      -0.441470       -12.0130
  72   2.0000      -0.353409        -9.6167
  73   2.0000      -0.347796        -9.4640
  74   2.0000      -0.327390        -8.9087
  75   2.0000      -0.319678        -8.6989
  76   2.0000      -0.315036        -8.5726
  77   0.0000       0.077070         2.0972
  78   0.0000       0.108964         2.9651
  79   0.0000       0.125021         3.4020
  80   0.0000       0.133464         3.6317
  81   0.0000       0.137478         3.7410

MULLIKEN ATOMIC CHARGES
-----------------------
   0 C :   -0.297788
   1 C :    0.049180
   2 O :   -0.356774
   3 C :    0.469982
   4 O :   -0.435991
   5 C :   -0.210271
   6 C :    0.146695
   7 C :   -0.274620
   8 N :   -0.119896
   9 C :    0.211642
  10 S :   -0.441074
  11 N :   -0.203171
  12 C :    0.047998
  13 C :    0.074772
  14 C :   -0.185007
  15 C :   -0.131056
  16 C :   -0.278739
  17 C :    0.315639
  18 O :   -0.356924
  19 C :   -0.269884
  20 H :    0.127699
  21 H :    0.094832
  22 H :    0.092458
  23 H :    0.090329
  24 H :    0.102568
  25 H :    0.132691
  26 H :    0.129124
  27 H :    0.095165
  28 H :    0.197087
  29 H :    0.194088
  30 H :    0.148899
  31 H :    0.147505
  32 H :    0.159071
  33 H :    0.129074
  34 H :    0.240467
  35 H :    0.164227
Sum of atomic charges:    0.0000000

LOEWDIN ATOMIC CHARGES
----------------------
   0 C :    0.103855
   1 C :   -0.010684
   2 O :    0.300045
   3 C :   -0.412264
   4 O :    0.103429
   5 C :   -0.093146
   6 C :   -0.059456
   7 C :    0.130815
   8 N :    0.406381
   9 C :   -0.456740
  10 S :   -0.036326
  11 N :    0.396440
  12 C :   -0.052816
  13 C :   -0.037816
  14 C :    0.013717
  15 C :    0.038915
  16 C :   -0.002032
  17 C :   -0.189427
  18 O :    0.394988
  19 C :    0.031456
  20 H :   -0.026009
  21 H :   -0.028979
  22 H :   -0.028328
  23 H :   -0.028067
  24 H :   -0.024818
  25 H :   -0.004663
  26 H :   -0.004566
  27 H :   -0.023534
  28 H :   -0.057743
  29 H :   -0.064750
  30 H :   -0.011279
  31 H :   -0.030790
  32 H :   -0.021725
  33 H :   -0.035900
  34 H :   -0.154173
  35 H :   -0.024007

  Mayer bond orders larger than 0.100000
B(  0-C ,  1-C ) :   0.9714 B(  0-C , 20-H ) :   0.9713 B(  0-C , 21-H ) :   0.9782
B(  0-C , 22-H ) :   0.9756 B(  1-C ,  2-O ) :   0.9006 B(  1-C , 23-H ) :   0.9765
B(  1-C , 24-H ) :   0.9838 B(  2-O ,  3-C ) :   1.1606 B(  3-C ,  4-O ) :   1.9589
B(  3-C ,  5-C ) :   1.0604 B(  5-C ,  6-C ) :   1.6572 B(  5-C , 12-C ) :   0.9740
B(  6-C ,  7-C ) :   0.9677 B(  6-C ,  8-N ) :   1.1641 B(  7-C , 25-H ) :   0.9601
B(  7-C , 26-H ) :   0.9607 B(  7-C , 27-H ) :   0.9909 B(  8-N ,  9-C ) :   1.1826
B(  8-N , 28-H ) :   0.9481 B(  9-C , 10-S ) :   1.6063 B(  9-C , 11-N ) :   1.3055
B( 11-N , 12-C ) :   0.9865 B( 11-N , 29-H ) :   0.9519 B( 12-C , 13-C ) :   0.9375
B( 12-C , 30-H ) :   1.0026 B( 13-C , 14-C ) :   1.3541 B( 13-C , 19-C ) :   1.3832
B( 14-C , 15-C ) :   1.3926 B( 14-C , 31-H ) :   0.9721 B( 15-C , 16-C ) :   1.3643
B( 15-C , 32-H ) :   0.9710 B( 16-C , 17-C ) :   1.3318 B( 16-C , 33-H ) :   0.9853
B( 17-C , 18-O ) :   1.1098 B( 17-C , 19-C ) :   1.3735 B( 18-O , 34-H ) :   0.9801
B( 19-C , 35-H ) :   0.9583

MP2 TOTAL ENERGY:    -1274.344287643 Eh
FINAL SINGLE POINT ENERGY     -1274.344287643433

DIPOLE MOMENT
-------------
                                X             Y             Z
Electronic contribution:      9.72996       9.44465      10.25230
Nuclear contribution   :    -10.80801     -11.15924     -10.65385
                        -----------------------------------------
Total Dipole Moment    :     -1.07805      -1.71459      -0.40155
                        -----------------------------------------
Magnitude (a.u.)       :      2.06477
Magnitude (Debye)      :      5.24823

Rotational constants in cm-1:     0.010920     0.008851     0.006008
Rotational constants in MHz :   327.376625   265.355351   180.105650

                             ****ORCA TERMINATED NORMALLY****
TOTAL RUN TIME: 0 days 1 hours 42 minutes 41 seconds 76 msec
