                         Program Version 4.2.0 -  RELEASE  -
|  1> ! ri-mp2 cc-pvtz cc-pvtz/c TightSCF  NoKeepInts
|  2>
|  3> %scf
|  4>   MaxCore 4096
|  5> end
|  6> *xyz  0  1
|  7>     C       15.1441868   15.3956931   17.5198637
|  8>     C       15.5290527   15.4049641   16.0266471
|  9>     O       16.9325790   15.1258456   15.8009248
| 10>     C       18.0389933   15.5828069   16.4814537
| 11>     O       19.0390047   14.8893770   16.5147143
| 12>     C       17.9172773   16.7827722   17.3702385
| 13>     C       17.4009695   17.9670567   16.9590755
| 14>     C       16.9112151   18.3343670   15.5746911
| 15>     N       17.4159888   19.0696994   17.8165663
| 16>     C       18.0719948   19.1163151   19.0180454
| 17>     S       18.1206258   20.4954701   19.9288063
| 18>     N       18.6921746   17.9615366   19.4237659
| 19>     C       18.5850921   16.6544269   18.7457451
| 20>     C       17.8798531   15.6267206   19.6291882
| 21>     C       18.3174521   14.2891357   19.6374467
| 22>     C       17.6737815   13.3272322   20.4333480
| 23>     C       16.5814789   13.7038490   21.2324790
| 24>     C       16.1419727   15.0341517   21.2302312
| 25>     O       15.0814588   15.3996687   21.9932604
| 26>     C       16.7847194   15.9899962   20.4370688
| 27>     H       15.6427124   14.5721848   18.0470402
| 28>     H       14.0623441   15.2508220   17.6269029
| 29>     H       15.3898802   16.3409960   18.0138144
| 30>     H       14.9492265   14.6250359   15.5159437
| 31>     H       15.2321057   16.3566190   15.5764988
| 32>     H       17.1326532   17.5583714   14.8322610
| 33>     H       17.4068946   19.2469139   15.2189841
| 34>     H       15.8308095   18.5218237   15.5708992
| 35>     H       16.9878194   19.9346582   17.5259595
| 36>     H       19.1588531   18.0194928   20.3201708
| 37>     H       19.6105929   16.2928408   18.5781945
| 38>     H       19.1564734   13.9902277   19.0123777
| 39>     H       18.0211095   12.2954109   20.4243838
| 40>     H       16.0800965   12.9632101   21.8467125
| 41>     H       14.8056646   14.6206829   22.4995749
| 42>     H       16.4198933   17.0116250   20.4507221
| 43> *
| 44>
| 45>                          ****END OF INPUT****

CARTESIAN COORDINATES (ANGSTROEM)
---------------------------------
  C     15.144187   15.395693   17.519864
  C     15.529053   15.404964   16.026647
  O     16.932579   15.125846   15.800925
  C     18.038993   15.582807   16.481454
  O     19.039005   14.889377   16.514714
  C     17.917277   16.782772   17.370238
  C     17.400969   17.967057   16.959076
  C     16.911215   18.334367   15.574691
  N     17.415989   19.069699   17.816566
  C     18.071995   19.116315   19.018045
  S     18.120626   20.495470   19.928806
  N     18.692175   17.961537   19.423766
  C     18.585092   16.654427   18.745745
  C     17.879853   15.626721   19.629188
  C     18.317452   14.289136   19.637447
  C     17.673781   13.327232   20.433348
  C     16.581479   13.703849   21.232479
  C     16.141973   15.034152   21.230231
  O     15.081459   15.399669   21.993260
  C     16.784719   15.989996   20.437069
  H     15.642712   14.572185   18.047040
  H     14.062344   15.250822   17.626903
  H     15.389880   16.340996   18.013814
  H     14.949226   14.625036   15.515944
  H     15.232106   16.356619   15.576499
  H     17.132653   17.558371   14.832261
  H     17.406895   19.246914   15.218984
  H     15.830810   18.521824   15.570899
  H     16.987819   19.934658   17.525959
  H     19.158853   18.019493   20.320171
  H     19.610593   16.292841   18.578194
  H     19.156473   13.990228   19.012378
  H     18.021109   12.295411   20.424384
  H     16.080096   12.963210   21.846712
  H     14.805665   14.620683   22.499575
  H     16.419893   17.011625   20.450722

 Total Charge           Charge          ....    0
 Multiplicity           Mult            ....    1
 Number of Electrons    NEL             ....  154
 Basis Dimension        Dim             ....  828

ORBITAL ENERGIES
----------------

  NO   OCC          E(Eh)            E(eV)
   0   2.0000     -91.890997     -2500.4811
   1   2.0000     -20.598192      -560.5053
   2   2.0000     -20.597500      -560.4865
   3   2.0000     -20.547951      -559.1382
   4   2.0000     -15.629268      -425.2940
   5   2.0000     -15.611221      -424.8029
   6   2.0000     -11.400633      -310.2270
   7   2.0000     -11.387151      -309.8601
   8   2.0000     -11.334331      -308.4228
   9   2.0000     -11.314012      -307.8699
  10   2.0000     -11.313248      -307.8491
  11   2.0000     -11.309926      -307.7587
  12   2.0000     -11.269865      -306.6686
  13   2.0000     -11.267994      -306.6177
  14   2.0000     -11.261239      -306.4339
  15   2.0000     -11.254399      -306.2478
  16   2.0000     -11.243872      -305.9613
  17   2.0000     -11.239305      -305.8370
  18   2.0000     -11.235968      -305.7462
  19   2.0000     -11.230770      -305.6048
  20   2.0000      -8.896094      -242.0750
  21   2.0000      -6.577680      -178.9878
  22   2.0000      -6.575656      -178.9327
  23   2.0000      -6.575077      -178.9169
  24   2.0000      -1.443785       -39.2874
  25   2.0000      -1.417320       -38.5672
  26   2.0000      -1.356496       -36.9121
  27   2.0000      -1.342419       -36.5291
  28   2.0000      -1.241071       -33.7713
  29   2.0000      -1.158817       -31.5330
  30   2.0000      -1.125077       -30.6149
  31   2.0000      -1.047410       -28.5015
  32   2.0000      -1.038772       -28.2664
  33   2.0000      -1.017098       -27.6767
  34   2.0000      -1.006130       -27.3782
  35   2.0000      -0.990208       -26.9449
  36   2.0000      -0.928130       -25.2557
  37   2.0000      -0.898409       -24.4470
  38   2.0000      -0.855385       -23.2762
  39   2.0000      -0.841005       -22.8849
  40   2.0000      -0.834391       -22.7049
  41   2.0000      -0.828706       -22.5502
  42   2.0000      -0.745516       -20.2865
  43   2.0000      -0.738475       -20.0949
  44   2.0000      -0.730455       -19.8767
  45   2.0000      -0.695322       -18.9207
  46   2.0000      -0.686914       -18.6919
  47   2.0000      -0.679894       -18.5009
  48   2.0000      -0.675136       -18.3714
  49   2.0000      -0.660748       -17.9799
  50   2.0000      -0.655828       -17.8460
  51   2.0000      -0.651606       -17.7311
  52   2.0000      -0.640142       -17.4191
  53   2.0000      -0.620282       -16.8787
  54   2.0000      -0.610128       -16.6024
  55   2.0000      -0.605700       -16.4819
  56   2.0000      -0.601861       -16.3775
  57   2.0000      -0.589361       -16.0373
  58   2.0000      -0.577043       -15.7021
  59   2.0000      -0.568377       -15.4663
  60   2.0000      -0.565762       -15.3952
  61   2.0000      -0.554346       -15.0845
  62   2.0000      -0.540817       -14.7164
  63   2.0000      -0.533147       -14.5077
  64   2.0000      -0.521417       -14.1885
  65   2.0000      -0.513166       -13.9640
  66   2.0000      -0.501202       -13.6384
  67   2.0000      -0.498524       -13.5655
  68   2.0000      -0.482880       -13.1398
  69   2.0000      -0.468419       -12.7463
  70   2.0000      -0.455822       -12.4035
  71   2.0000      -0.449648       -12.2356
  72   2.0000      -0.358004        -9.7418
  73   2.0000      -0.348380        -9.4799
  74   2.0000      -0.330508        -8.9936
  75   2.0000      -0.322912        -8.7869
  76   2.0000      -0.319474        -8.6933
  77   0.0000       0.079739         2.1698
  78   0.0000       0.107738         2.9317
  79   0.0000       0.113855         3.0982
  80   0.0000       0.130888         3.5616
  81   0.0000       0.131547         3.5796

MULLIKEN ATOMIC CHARGES
-----------------------
   0 C :   -0.336104
   1 C :    0.028239
   2 O :   -0.329531
   3 C :    0.430983
   4 O :   -0.387281
   5 C :   -0.230743
   6 C :    0.165314
   7 C :   -0.339621
   8 N :   -0.136506
   9 C :    0.198853
  10 S :   -0.439102
  11 N :   -0.220391
  12 C :    0.080916
  13 C :    0.020489
  14 C :   -0.209860
  15 C :   -0.135064
  16 C :   -0.278499
  17 C :    0.320317
  18 O :   -0.358532
  19 C :   -0.272007
  20 H :    0.130327
  21 H :    0.117536
  22 H :    0.110098
  23 H :    0.131867
  24 H :    0.086464
  25 H :    0.134881
  26 H :    0.139957
  27 H :    0.120745
  28 H :    0.197284
  29 H :    0.201123
  30 H :    0.166407
  31 H :    0.176408
  32 H :    0.163924
  33 H :    0.131872
  34 H :    0.241022
  35 H :    0.178214
Sum of atomic charges:   -0.0000000

LOEWDIN ATOMIC CHARGES
----------------------
   0 C :    0.103417
   1 C :   -0.017536
   2 O :    0.293802
   3 C :   -0.414092
   4 O :    0.121505
   5 C :   -0.080648
   6 C :   -0.092417
   7 C :    0.122833
   8 N :    0.403065
   9 C :   -0.459121
  10 S :   -0.036359
  11 N :    0.398273
  12 C :   -0.042953
  13 C :   -0.043002
  14 C :    0.019770
  15 C :    0.042513
  16 C :   -0.001605
  17 C :   -0.193529
  18 O :    0.395118
  19 C :    0.028923
  20 H :   -0.018159
  21 H :   -0.023807
  22 H :   -0.035589
  23 H :   -0.018213
  24 H :   -0.039659
  25 H :   -0.007528
  26 H :   -0.009011
  27 H :   -0.018832
  28 H :   -0.057008
  29 H :   -0.063050
  30 H :   -0.001914
  31 H :   -0.022065
  32 H :   -0.018800
  33 H :   -0.035007
  34 H :   -0.153585
  35 H :   -0.025732

  Mayer bond orders larger than 0.100000
B(  0-C ,  1-C ) :   0.9551 B(  0-C , 20-H ) :   0.9672 B(  0-C , 21-H ) :   0.9767
B(  0-C , 22-H ) :   0.9723 B(  1-C ,  2-O ) :   0.9042 B(  1-C , 23-H ) :   0.9818
B(  1-C , 24-H ) :   0.9733 B(  2-O ,  3-C ) :   1.1834 B(  3-C ,  4-O ) :   2.0757
B(  3-C ,  5-C ) :   0.9319 B(  5-C ,  6-C ) :   1.6851 B(  5-C , 12-C ) :   0.9540
B(  6-C ,  7-C ) :   0.9449 B(  6-C ,  8-N ) :   1.1119 B(  7-C , 25-H ) :   0.9784
B(  7-C , 26-H ) :   0.9705 B(  7-C , 27-H ) :   0.9658 B(  8-N ,  9-C ) :   1.1923
B(  8-N , 28-H ) :   0.9519 B(  9-C , 10-S ) :   1.6113 B(  9-C , 11-N ) :   1.2907
B( 11-N , 12-C ) :   0.9896 B( 11-N , 29-H ) :   0.9488 B( 12-C , 13-C ) :   0.9495
B( 12-C , 30-H ) :   0.9958 B( 13-C , 14-C ) :   1.3913 B( 13-C , 19-C ) :   1.3390
B( 14-C , 15-C ) :   1.3994 B( 14-C , 31-H ) :   0.9573 B( 15-C , 16-C ) :   1.3590
B( 15-C , 32-H ) :   0.9703 B( 16-C , 17-C ) :   1.3307 B( 16-C , 33-H ) :   0.9848
B( 17-C , 18-O ) :   1.1096 B( 17-C , 19-C ) :   1.3694 B( 18-O , 34-H ) :   0.9797
B( 19-C , 35-H ) :   0.9567

MP2 TOTAL ENERGY:    -1274.330635836 Eh
FINAL SINGLE POINT ENERGY     -1274.330635836212

DIPOLE MOMENT
-------------
                                X             Y             Z
Electronic contribution:      9.12747       6.18505       6.17959
Nuclear contribution   :    -10.68828      -7.14391      -6.78519
                        -----------------------------------------
Total Dipole Moment    :     -1.56081      -0.95886      -0.60560
                        -----------------------------------------
Magnitude (a.u.)       :      1.92933
Magnitude (Debye)      :      4.90396

Rotational constants in cm-1:     0.011694     0.009645     0.006789
Rotational constants in MHz :   350.587480   289.161297   203.543693

                             ****ORCA TERMINATED NORMALLY****
TOTAL RUN TIME: 0 days 1 hours 50 minutes 53 seconds 584 msec
