                         Program Version 5.0.0 -  RELEASE  -
|  1> ! ri-mp2 cc-pvtz cc-pvtz/c TightSCF NoKeepInts
|  2>
|  3> %scf
|  4>   MaxCore 4096
|  5> end
|  6> *xyz  0  1
|  7>     C       14.4844193   14.5845168   16.2860244
|  8>     C       15.6112472   15.3935012   16.9479981
|  9>     O       16.8279428   15.0828837   16.2413630
| 10>     C       18.0511517   15.5515766   16.6464802
| 11>     O       19.0171017   14.8111469   16.6445156
| 12>     C       18.0461936   16.8188106   17.4400198
| 13>     C       17.5204002   17.9765857   16.9745684
| 14>     C       16.9015885   18.2204675   15.6138535
| 15>     N       17.6040645   19.1374732   17.7464195
| 16>     C       18.2917118   19.2403673   18.9278743
| 17>     S       18.3992080   20.6721598   19.7476908
| 18>     N       18.8839187   18.0940655   19.3989908
| 19>     C       18.7466991   16.7531237   18.7961045
| 20>     C       18.0049554   15.7975886   19.7256672
| 21>     C       18.4654601   14.4793889   19.8967446
| 22>     C       17.7728799   13.5803019   20.7245148
| 23>     C       16.6064219   14.0007165   21.3855897
| 24>     C       16.1400386   15.3106077   21.2126685
| 25>     O       15.0055112   15.7156592   21.8363661
| 26>     C       16.8307219   16.2035095   20.3871363
| 27>     H       14.7047323   13.5103449   16.3304552
| 28>     H       14.3690398   14.8699280   15.2330291
| 29>     H       13.5306005   14.7605136   16.7980769
| 30>     H       15.3648085   16.4592750   16.9044431
| 31>     H       15.7007994   15.0955255   18.0013855
| 32>     H       17.0157588   17.3615854   14.9413047
| 33>     H       17.3807048   19.0728922   15.1154444
| 34>     H       15.8301596   18.4394928   15.6976680
| 35>     H       17.1911936   19.9935417   17.4102479
| 36>     H       19.3679485   18.1959000   20.2822561
| 37>     H       19.7590350   16.3549876   18.6313369
| 38>     H       19.3569150   14.1449274   19.3699020
| 39>     H       18.1380125   12.5615369   20.8441990
| 40>     H       16.0670392   13.3077650   22.0230051
| 41>     H       14.7102438   14.9876853   22.4043430
| 42>     H       16.4483727   17.2116480   20.2663129
| 43> *
| 44>
| 45>                          ****END OF INPUT****

CARTESIAN COORDINATES (ANGSTROEM)
---------------------------------
  C     14.484419   14.584517   16.286024
  C     15.611247   15.393501   16.947998
  O     16.827943   15.082884   16.241363
  C     18.051152   15.551577   16.646480
  O     19.017102   14.811147   16.644516
  C     18.046194   16.818811   17.440020
  C     17.520400   17.976586   16.974568
  C     16.901588   18.220468   15.613853
  N     17.604064   19.137473   17.746419
  C     18.291712   19.240367   18.927874
  S     18.399208   20.672160   19.747691
  N     18.883919   18.094065   19.398991
  C     18.746699   16.753124   18.796104
  C     18.004955   15.797589   19.725667
  C     18.465460   14.479389   19.896745
  C     17.772880   13.580302   20.724515
  C     16.606422   14.000716   21.385590
  C     16.140039   15.310608   21.212668
  O     15.005511   15.715659   21.836366
  C     16.830722   16.203509   20.387136
  H     14.704732   13.510345   16.330455
  H     14.369040   14.869928   15.233029
  H     13.530600   14.760514   16.798077
  H     15.364809   16.459275   16.904443
  H     15.700799   15.095526   18.001386
  H     17.015759   17.361585   14.941305
  H     17.380705   19.072892   15.115444
  H     15.830160   18.439493   15.697668
  H     17.191194   19.993542   17.410248
  H     19.367949   18.195900   20.282256
  H     19.759035   16.354988   18.631337
  H     19.356915   14.144927   19.369902
  H     18.138012   12.561537   20.844199
  H     16.067039   13.307765   22.023005
  H     14.710244   14.987685   22.404343
  H     16.448373   17.211648   20.266313

 Total Charge           Charge          ....    0
 Multiplicity           Mult            ....    1
 Number of Electrons    NEL             ....  154
 Basis Dimension        Dim             ....  828

ORBITAL ENERGIES
----------------

  NO   OCC          E(Eh)            E(eV)
   0   2.0000     -91.890679     -2500.4725
   1   2.0000     -20.599941      -560.5529
   2   2.0000     -20.597512      -560.4868
   3   2.0000     -20.551697      -559.2401
   4   2.0000     -15.628438      -425.2714
   5   2.0000     -15.611628      -424.8140
   6   2.0000     -11.396863      -310.1244
   7   2.0000     -11.387262      -309.8631
   8   2.0000     -11.332264      -308.3666
   9   2.0000     -11.316767      -307.9449
  10   2.0000     -11.313845      -307.8654
  11   2.0000     -11.302727      -307.5629
  12   2.0000     -11.268423      -306.6294
  13   2.0000     -11.264446      -306.5212
  14   2.0000     -11.263141      -306.4856
  15   2.0000     -11.256871      -306.3150
  16   2.0000     -11.246299      -306.0273
  17   2.0000     -11.242105      -305.9132
  18   2.0000     -11.239224      -305.8348
  19   2.0000     -11.233212      -305.6712
  20   2.0000      -8.895783      -242.0666
  21   2.0000      -6.577367      -178.9793
  22   2.0000      -6.575345      -178.9242
  23   2.0000      -6.574767      -178.9085
  24   2.0000      -1.448620       -39.4189
  25   2.0000      -1.419774       -38.6340
  26   2.0000      -1.360056       -37.0090
  27   2.0000      -1.341242       -36.4971
  28   2.0000      -1.240503       -33.7558
  29   2.0000      -1.161440       -31.6044
  30   2.0000      -1.125661       -30.6308
  31   2.0000      -1.048954       -28.5435
  32   2.0000      -1.039705       -28.2918
  33   2.0000      -1.018901       -27.7257
  34   2.0000      -1.005249       -27.3542
  35   2.0000      -0.989569       -26.9275
  36   2.0000      -0.927930       -25.2503
  37   2.0000      -0.879298       -23.9269
  38   2.0000      -0.855843       -23.2887
  39   2.0000      -0.842860       -22.9354
  40   2.0000      -0.837418       -22.7873
  41   2.0000      -0.836363       -22.7586
  42   2.0000      -0.757348       -20.6085
  43   2.0000      -0.739895       -20.1336
  44   2.0000      -0.732159       -19.9231
  45   2.0000      -0.697504       -18.9800
  46   2.0000      -0.688355       -18.7311
  47   2.0000      -0.682445       -18.5703
  48   2.0000      -0.676946       -18.4206
  49   2.0000      -0.663957       -18.0672
  50   2.0000      -0.653719       -17.7886
  51   2.0000      -0.650234       -17.6938
  52   2.0000      -0.640818       -17.4375
  53   2.0000      -0.611766       -16.6470
  54   2.0000      -0.608004       -16.5446
  55   2.0000      -0.603903       -16.4330
  56   2.0000      -0.599834       -16.3223
  57   2.0000      -0.586629       -15.9630
  58   2.0000      -0.578049       -15.7295
  59   2.0000      -0.568008       -15.4563
  60   2.0000      -0.561616       -15.2823
  61   2.0000      -0.557850       -15.1799
  62   2.0000      -0.547795       -14.9063
  63   2.0000      -0.526078       -14.3153
  64   2.0000      -0.522749       -14.2247
  65   2.0000      -0.515971       -14.0403
  66   2.0000      -0.502669       -13.6783
  67   2.0000      -0.501706       -13.6521
  68   2.0000      -0.490539       -13.3483
  69   2.0000      -0.469215       -12.7680
  70   2.0000      -0.457296       -12.4437
  71   2.0000      -0.450707       -12.2644
  72   2.0000      -0.358095        -9.7443
  73   2.0000      -0.351823        -9.5736
  74   2.0000      -0.330246        -8.9865
  75   2.0000      -0.324762        -8.8372
  76   2.0000      -0.319104        -8.6833
  77   0.0000       0.080682         2.1955
  78   0.0000       0.104528         2.8444
  79   0.0000       0.113629         3.0920
  80   0.0000       0.128782         3.5043
  81   0.0000       0.131511         3.5786

MULLIKEN ATOMIC CHARGES
-----------------------
   0 C :   -0.259797
   1 C :    0.019026
   2 O :   -0.318550
   3 C :    0.407104
   4 O :   -0.380110
   5 C :   -0.191174
   6 C :    0.129475
   7 C :   -0.321252
   8 N :   -0.133129
   9 C :    0.201173
  10 S :   -0.439303
  11 N :   -0.211435
  12 C :    0.066945
  13 C :    0.020885
  14 C :   -0.189462
  15 C :   -0.133312
  16 C :   -0.275594
  17 C :    0.321459
  18 O :   -0.358882
  19 C :   -0.281942
  20 H :    0.107674
  21 H :    0.096491
  22 H :    0.090262
  23 H :    0.085959
  24 H :    0.118525
  25 H :    0.132957
  26 H :    0.137316
  27 H :    0.119155
  28 H :    0.196373
  29 H :    0.197594
  30 H :    0.163530
  31 H :    0.169260
  32 H :    0.163934
  33 H :    0.132827
  34 H :    0.241656
  35 H :    0.174362
Sum of atomic charges:   -0.0000000

LOEWDIN ATOMIC CHARGES
----------------------
   0 C :    0.111969
   1 C :   -0.023817
   2 O :    0.300442
   3 C :   -0.415705
   4 O :    0.126511
   5 C :   -0.084610
   6 C :   -0.096676
   7 C :    0.124961
   8 N :    0.402302
   9 C :   -0.456612
  10 S :   -0.036340
  11 N :    0.397186
  12 C :   -0.044708
  13 C :   -0.044907
  14 C :    0.021513
  15 C :    0.044927
  16 C :   -0.000614
  17 C :   -0.195140
  18 O :    0.394644
  19 C :    0.027074
  20 H :   -0.022350
  21 H :   -0.027562
  22 H :   -0.024627
  23 H :   -0.039033
  24 H :   -0.027531
  25 H :   -0.007759
  26 H :   -0.010460
  27 H :   -0.017836
  28 H :   -0.057108
  29 H :   -0.063623
  30 H :   -0.002586
  31 H :   -0.021801
  32 H :   -0.018432
  33 H :   -0.034539
  34 H :   -0.152909
  35 H :   -0.024244

  Mayer bond orders larger than 0.100000
B(  0-C ,  1-C ) :   0.9840 B(  0-C , 20-H ) :   0.9784 B(  0-C , 21-H ) :   0.9789
B(  0-C , 22-H ) :   0.9767 B(  1-C ,  2-O ) :   0.9041 B(  1-C , 23-H ) :   0.9672
B(  1-C , 24-H ) :   0.9694 B(  2-O ,  3-C ) :   1.1807 B(  3-C ,  4-O ) :   2.0975
B(  3-C ,  5-C ) :   0.9271 B(  5-C ,  6-C ) :   1.6815 B(  5-C , 12-C ) :   0.9613
B(  6-C ,  7-C ) :   0.9424 B(  6-C ,  8-N ) :   1.1217 B(  7-C , 25-H ) :   0.9777
B(  7-C , 26-H ) :   0.9710 B(  7-C , 27-H ) :   0.9657 B(  8-N ,  9-C ) :   1.1913
B(  8-N , 28-H ) :   0.9519 B(  9-C , 10-S ) :   1.6127 B(  9-C , 11-N ) :   1.2906
B( 11-N , 12-C ) :   0.9967 B( 11-N , 29-H ) :   0.9497 B( 12-C , 13-C ) :   0.9406
B( 12-C , 30-H ) :   0.9976 B( 13-C , 14-C ) :   1.3878 B( 13-C , 19-C ) :   1.3506
B( 14-C , 15-C ) :   1.3957 B( 14-C , 31-H ) :   0.9600 B( 15-C , 16-C ) :   1.3643
B( 15-C , 32-H ) :   0.9700 B( 16-C , 17-C ) :   1.3282 B( 16-C , 33-H ) :   0.9843
B( 17-C , 18-O ) :   1.1099 B( 17-C , 19-C ) :   1.3663 B( 18-O , 34-H ) :   0.9791
B( 19-C , 35-H ) :   0.9588

MP2 TOTAL ENERGY:    -1274.335030004 Eh
FINAL SINGLE POINT ENERGY     -1274.335030004328

DIPOLE MOMENT
-------------
                                X             Y             Z
Electronic contribution:     10.92623       8.27063       7.56289
Nuclear contribution   :    -12.41355      -9.30306      -7.87650
                        -----------------------------------------
Total Dipole Moment    :     -1.48733      -1.03243      -0.31361
                        -----------------------------------------
Magnitude (a.u.)       :      1.83750
Magnitude (Debye)      :      4.67056

Rotational constants in cm-1:     0.011466     0.009181     0.006731
Rotational constants in MHz :   343.731066   275.242765   201.787844

                             ****ORCA TERMINATED NORMALLY****
TOTAL RUN TIME: 0 days 2 hours 5 minutes 38 seconds 698 msec
