                         Program Version 4.2.0 -  RELEASE  -
|  1> ! ri-mp2 cc-pvtz cc-pvtz/c TightSCF  NoKeepInts
|  2>
|  3> %scf
|  4>   MaxCore 4096
|  5> end
|  6> *xyz  0  1
|  7>     C       14.2703763   14.9583832   14.9497316
|  8>     C       15.6738827   14.5893387   15.4587319
|  9>     O       16.2458758   15.7727932   16.0388071
| 10>     C       17.3485008   15.6498623   16.8322935
| 11>     O       17.9633024   14.5998752   16.9289623
| 12>     C       17.6804417   16.8626661   17.6563837
| 13>     C       17.1339602   18.0977184   17.4967323
| 14>     C       16.0940787   18.5414637   16.4877333
| 15>     N       17.5798368   19.1609900   18.2894815
| 16>     C       18.6538168   19.1108428   19.1381801
| 17>     S       19.1987292   20.4534012   19.9358400
| 18>     N       19.2535227   17.8870838   19.2912132
| 19>     C       18.7299846   16.6200773   18.7477978
| 20>     C       18.1671260   15.7507176   19.8694817
| 21>     C       18.6269838   14.4328301   20.0481087
| 22>     C       18.1117717   13.6271707   21.0773877
| 23>     C       17.1272705   14.1427436   21.9373315
| 24>     C       16.6637235   15.4534865   21.7609348
| 25>     O       15.7088348   15.9523404   22.5860110
| 26>     C       17.1781308   16.2528167   20.7352857
| 27>     H       13.6414447   15.3159023   15.7745437
| 28>     H       13.7828973   14.0846857   14.5002068
| 29>     H       14.3294835   15.7476618   14.1900793
| 30>     H       15.5862216   13.7959083   16.2140140
| 31>     H       16.3022350   14.2219228   14.6364284
| 32>     H       16.4136928   18.2979461   15.4668205
| 33>     H       15.9065870   19.6215786   16.5176019
| 34>     H       15.1366201   18.0382094   16.6719154
| 35>     H       17.1526308   20.0680450   18.1914574
| 36>     H       20.0232179   17.8686700   19.9478223
| 37>     H       19.5731192   16.0841819   18.2882657
| 38>     H       19.3759818   14.0257528   19.3731805
| 39>     H       18.4716524   12.6073050   21.2004100
| 40>     H       16.7252308   13.5233445   22.7320546
| 41>     H       15.5080962   15.2687980   23.2426641
| 42>     H       16.8077389   17.2654860   20.6201061
| 43> *
| 44>
| 45>                          ****END OF INPUT****

CARTESIAN COORDINATES (ANGSTROEM)
---------------------------------
  C     14.270376   14.958383   14.949732
  C     15.673883   14.589339   15.458732
  O     16.245876   15.772793   16.038807
  C     17.348501   15.649862   16.832293
  O     17.963302   14.599875   16.928962
  C     17.680442   16.862666   17.656384
  C     17.133960   18.097718   17.496732
  C     16.094079   18.541464   16.487733
  N     17.579837   19.160990   18.289482
  C     18.653817   19.110843   19.138180
  S     19.198729   20.453401   19.935840
  N     19.253523   17.887084   19.291213
  C     18.729985   16.620077   18.747798
  C     18.167126   15.750718   19.869482
  C     18.626984   14.432830   20.048109
  C     18.111772   13.627171   21.077388
  C     17.127271   14.142744   21.937331
  C     16.663723   15.453487   21.760935
  O     15.708835   15.952340   22.586011
  C     17.178131   16.252817   20.735286
  H     13.641445   15.315902   15.774544
  H     13.782897   14.084686   14.500207
  H     14.329483   15.747662   14.190079
  H     15.586222   13.795908   16.214014
  H     16.302235   14.221923   14.636428
  H     16.413693   18.297946   15.466821
  H     15.906587   19.621579   16.517602
  H     15.136620   18.038209   16.671915
  H     17.152631   20.068045   18.191457
  H     20.023218   17.868670   19.947822
  H     19.573119   16.084182   18.288266
  H     19.375982   14.025753   19.373181
  H     18.471652   12.607305   21.200410
  H     16.725231   13.523344   22.732055
  H     15.508096   15.268798   23.242664
  H     16.807739   17.265486   20.620106

 Total Charge           Charge          ....    0
 Multiplicity           Mult            ....    1
 Number of Electrons    NEL             ....  154
 Basis Dimension        Dim             ....  828

ORBITAL ENERGIES
----------------

  NO   OCC          E(Eh)            E(eV)
   0   2.0000     -91.888069     -2500.4015
   1   2.0000     -20.605150      -560.6946
   2   2.0000     -20.590968      -560.3087
   3   2.0000     -20.544872      -559.0544
   4   2.0000     -15.628631      -425.2767
   5   2.0000     -15.606511      -424.6748
   6   2.0000     -11.395079      -310.0759
   7   2.0000     -11.382825      -309.7424
   8   2.0000     -11.337150      -308.4995
   9   2.0000     -11.306691      -307.6707
  10   2.0000     -11.305013      -307.6250
  11   2.0000     -11.299635      -307.4787
  12   2.0000     -11.260808      -306.4222
  13   2.0000     -11.259049      -306.3743
  14   2.0000     -11.252652      -306.2002
  15   2.0000     -11.246761      -306.0399
  16   2.0000     -11.236461      -305.7596
  17   2.0000     -11.235762      -305.7406
  18   2.0000     -11.232660      -305.6562
  19   2.0000     -11.229499      -305.5702
  20   2.0000      -8.893129      -241.9943
  21   2.0000      -6.574705      -178.9068
  22   2.0000      -6.572700      -178.8523
  23   2.0000      -6.572113      -178.8363
  24   2.0000      -1.455845       -39.6156
  25   2.0000      -1.410702       -38.3871
  26   2.0000      -1.357162       -36.9302
  27   2.0000      -1.339463       -36.4486
  28   2.0000      -1.236917       -33.6582
  29   2.0000      -1.151423       -31.3318
  30   2.0000      -1.119288       -30.4574
  31   2.0000      -1.045112       -28.4389
  32   2.0000      -1.036940       -28.2166
  33   2.0000      -1.008777       -27.4502
  34   2.0000      -0.997527       -27.1441
  35   2.0000      -0.983187       -26.7539
  36   2.0000      -0.920725       -25.0542
  37   2.0000      -0.889248       -24.1977
  38   2.0000      -0.846970       -23.0472
  39   2.0000      -0.834391       -22.7049
  40   2.0000      -0.827009       -22.5041
  41   2.0000      -0.817273       -22.2391
  42   2.0000      -0.762632       -20.7523
  43   2.0000      -0.735865       -20.0239
  44   2.0000      -0.724232       -19.7073
  45   2.0000      -0.690569       -18.7913
  46   2.0000      -0.684558       -18.6278
  47   2.0000      -0.681187       -18.5360
  48   2.0000      -0.675739       -18.3878
  49   2.0000      -0.659948       -17.9581
  50   2.0000      -0.648924       -17.6581
  51   2.0000      -0.643407       -17.5080
  52   2.0000      -0.634798       -17.2737
  53   2.0000      -0.600600       -16.3432
  54   2.0000      -0.599672       -16.3179
  55   2.0000      -0.594719       -16.1831
  56   2.0000      -0.591802       -16.1038
  57   2.0000      -0.584072       -15.8934
  58   2.0000      -0.572438       -15.5768
  59   2.0000      -0.564520       -15.3614
  60   2.0000      -0.562198       -15.2982
  61   2.0000      -0.555199       -15.1077
  62   2.0000      -0.539489       -14.6802
  63   2.0000      -0.520346       -14.1593
  64   2.0000      -0.516833       -14.0637
  65   2.0000      -0.511256       -13.9120
  66   2.0000      -0.504309       -13.7230
  67   2.0000      -0.495229       -13.4759
  68   2.0000      -0.480752       -13.0819
  69   2.0000      -0.464976       -12.6526
  70   2.0000      -0.459337       -12.4992
  71   2.0000      -0.455603       -12.3976
  72   2.0000      -0.354334        -9.6419
  73   2.0000      -0.343348        -9.3430
  74   2.0000      -0.327145        -8.9021
  75   2.0000      -0.315438        -8.5835
  76   2.0000      -0.312985        -8.5168
  77   0.0000       0.076081         2.0703
  78   0.0000       0.114181         3.1070
  79   0.0000       0.120317         3.2740
  80   0.0000       0.136118         3.7040
  81   0.0000       0.138618         3.7720

MULLIKEN ATOMIC CHARGES
-----------------------
   0 C :   -0.274027
   1 C :    0.044452
   2 O :   -0.332509
   3 C :    0.431100
   4 O :   -0.430878
   5 C :   -0.167464
   6 C :    0.143864
   7 C :   -0.288028
   8 N :   -0.120461
   9 C :    0.201093
  10 S :   -0.438926
  11 N :   -0.196568
  12 C :    0.033329
  13 C :    0.060102
  14 C :   -0.160000
  15 C :   -0.134081
  16 C :   -0.278908
  17 C :    0.311599
  18 O :   -0.359357
  19 C :   -0.273406
  20 H :    0.096404
  21 H :    0.102213
  22 H :    0.094032
  23 H :    0.095966
  24 H :    0.094328
  25 H :    0.127325
  26 H :    0.104150
  27 H :    0.127714
  28 H :    0.196590
  29 H :    0.193443
  30 H :    0.153302
  31 H :    0.152929
  32 H :    0.158792
  33 H :    0.127738
  34 H :    0.239989
  35 H :    0.164160
Sum of atomic charges:   -0.0000000

LOEWDIN ATOMIC CHARGES
----------------------
   0 C :    0.106763
   1 C :   -0.017539
   2 O :    0.307845
   3 C :   -0.415076
   4 O :    0.102186
   5 C :   -0.091346
   6 C :   -0.064645
   7 C :    0.124890
   8 N :    0.404955
   9 C :   -0.459106
  10 S :   -0.035727
  11 N :    0.398024
  12 C :   -0.046678
  13 C :   -0.038686
  14 C :    0.022570
  15 C :    0.040931
  16 C :   -0.002375
  17 C :   -0.192669
  18 O :    0.392851
  19 C :    0.028202
  20 H :   -0.027285
  21 H :   -0.022701
  22 H :   -0.028634
  23 H :   -0.026268
  24 H :   -0.029235
  25 H :   -0.008783
  26 H :   -0.021181
  27 H :   -0.009934
  28 H :   -0.059265
  29 H :   -0.063586
  30 H :   -0.005055
  31 H :   -0.025308
  32 H :   -0.021300
  33 H :   -0.036501
  34 H :   -0.154994
  35 H :   -0.025342

  Mayer bond orders larger than 0.100000
B(  0-C ,  1-C ) :   0.9705 B(  0-C , 20-H ) :   0.9770 B(  0-C , 21-H ) :   0.9790
B(  0-C , 22-H ) :   0.9778 B(  1-C ,  2-O ) :   0.9041 B(  1-C , 23-H ) :   0.9748
B(  1-C , 24-H ) :   0.9801 B(  2-O ,  3-C ) :   1.1768 B(  3-C ,  4-O ) :   1.9744
B(  3-C ,  5-C ) :   1.0643 B(  5-C ,  6-C ) :   1.6399 B(  5-C , 12-C ) :   0.9669
B(  6-C ,  7-C ) :   0.9549 B(  6-C ,  8-N ) :   1.1515 B(  7-C , 25-H ) :   0.9647
B(  7-C , 26-H ) :   0.9923 B(  7-C , 27-H ) :   0.9638 B(  8-N ,  9-C ) :   1.1767
B(  8-N , 28-H ) :   0.9487 B(  9-C , 10-S ) :   1.6111 B(  9-C , 11-N ) :   1.3052
B( 11-N , 12-C ) :   0.9928 B( 11-N , 29-H ) :   0.9521 B( 12-C , 13-C ) :   0.9479
B( 12-C , 30-H ) :   1.0004 B( 13-C , 14-C ) :   1.3754 B( 13-C , 19-C ) :   1.3689
B( 14-C , 15-C ) :   1.3947 B( 14-C , 31-H ) :   0.9651 B( 15-C , 16-C ) :   1.3623
B( 15-C , 32-H ) :   0.9715 B( 16-C , 17-C ) :   1.3316 B( 16-C , 33-H ) :   0.9861
B( 17-C , 18-O ) :   1.1078 B( 17-C , 19-C ) :   1.3796 B( 18-O , 34-H ) :   0.9807
B( 19-C , 35-H ) :   0.9586

MP2 TOTAL ENERGY:    -1274.350247376 Eh
FINAL SINGLE POINT ENERGY     -1274.350247375590

DIPOLE MOMENT
-------------
                                X             Y             Z
Electronic contribution:     11.90140       8.61617      11.33208
Nuclear contribution   :    -13.41584      -9.92972     -12.31635
                        -----------------------------------------
Total Dipole Moment    :     -1.51443      -1.31355      -0.98428
                        -----------------------------------------
Magnitude (a.u.)       :      2.23332
Magnitude (Debye)      :      5.67666

Rotational constants in cm-1:     0.010337     0.008753     0.005806
Rotational constants in MHz :   309.887968   262.413322   174.071967

                             ****ORCA TERMINATED NORMALLY****
TOTAL RUN TIME: 0 days 1 hours 40 minutes 47 seconds 686 msec
