                         Program Version 4.2.0 -  RELEASE  -
|  1> ! ri-mp2 cc-pvtz cc-pvtz/c TightSCF  NoKeepInts
|  2>
|  3> %scf
|  4>   MaxCore 4096
|  5> end
|  6> *xyz  0  1
|  7>     C       15.5058691   13.6036643   15.5237880
|  8>     C       15.7049206   14.4372279   16.8007193
|  9>     O       16.8297865   15.3070974   16.5816614
| 10>     C       16.6146078   16.6545693   16.5414524
| 11>     O       15.6429844   17.1253645   15.9754238
| 12>     C       17.4670374   17.4102958   17.5242551
| 13>     C       17.3779644   18.7562408   17.6772991
| 14>     C       16.4572184   19.7042639   16.9389025
| 15>     N       18.2242877   19.4181206   18.5718029
| 16>     C       19.2540873   18.8306694   19.2567261
| 17>     S       20.2756300   19.7046803   20.2202538
| 18>     N       19.4006242   17.4764153   19.0978859
| 19>     C       18.4652541   16.6004028   18.3695589
| 20>     C       17.7680287   15.6689663   19.3571345
| 21>     C       18.1240667   14.3086724   19.4223835
| 22>     C       17.4809359   13.4436647   20.3236154
| 23>     C       16.4764527   13.9434030   21.1698393
| 24>     C       16.1252343   15.2991323   21.1134292
| 25>     O       15.1574393   15.7851465   21.9306062
| 26>     C       16.7660785   16.1572991   20.2146039
| 27>     H       15.2793382   14.2568036   14.6713875
| 28>     H       14.6729825   12.9012230   15.6482054
| 29>     H       16.4106637   13.0291457   15.2901788
| 30>     H       14.7913821   15.0022350   17.0329047
| 31>     H       15.9143771   13.7678373   17.6449265
| 32>     H       15.4079253   19.4762963   17.1663514
| 33>     H       16.5857289   19.6019046   15.8538212
| 34>     H       16.6311112   20.7564692   17.1928248
| 35>     H       18.1332738   20.4135192   18.6984195
| 36>     H       20.1472096   17.0667902   19.6443797
| 37>     H       19.0606810   15.9873010   17.6782801
| 38>     H       18.8978791   13.9189455   18.7661803
| 39>     H       17.7625150   12.3927685   20.3656479
| 40>     H       15.9778526   13.2797253   21.8687529
| 41>     H       14.8709156   15.0611461   22.5074794
| 42>     H       16.4846564   17.2045931   20.1929188
| 43> *
| 44>
| 45>                          ****END OF INPUT****

CARTESIAN COORDINATES (ANGSTROEM)
---------------------------------
  C     15.505869   13.603664   15.523788
  C     15.704921   14.437228   16.800719
  O     16.829787   15.307097   16.581661
  C     16.614608   16.654569   16.541452
  O     15.642984   17.125364   15.975424
  C     17.467037   17.410296   17.524255
  C     17.377964   18.756241   17.677299
  C     16.457218   19.704264   16.938903
  N     18.224288   19.418121   18.571803
  C     19.254087   18.830669   19.256726
  S     20.275630   19.704680   20.220254
  N     19.400624   17.476415   19.097886
  C     18.465254   16.600403   18.369559
  C     17.768029   15.668966   19.357135
  C     18.124067   14.308672   19.422383
  C     17.480936   13.443665   20.323615
  C     16.476453   13.943403   21.169839
  C     16.125234   15.299132   21.113429
  O     15.157439   15.785146   21.930606
  C     16.766078   16.157299   20.214604
  H     15.279338   14.256804   14.671387
  H     14.672982   12.901223   15.648205
  H     16.410664   13.029146   15.290179
  H     14.791382   15.002235   17.032905
  H     15.914377   13.767837   17.644927
  H     15.407925   19.476296   17.166351
  H     16.585729   19.601905   15.853821
  H     16.631111   20.756469   17.192825
  H     18.133274   20.413519   18.698419
  H     20.147210   17.066790   19.644380
  H     19.060681   15.987301   17.678280
  H     18.897879   13.918945   18.766180
  H     17.762515   12.392769   20.365648
  H     15.977853   13.279725   21.868753
  H     14.870916   15.061146   22.507479
  H     16.484656   17.204593   20.192919

 Total Charge           Charge          ....    0
 Multiplicity           Mult            ....    1
 Number of Electrons    NEL             ....  154
 Basis Dimension        Dim             ....  828

ORBITAL ENERGIES
----------------

  NO   OCC          E(Eh)            E(eV)
   0   2.0000     -91.889686     -2500.4455
   1   2.0000     -20.599440      -560.5393
   2   2.0000     -20.590901      -560.3069
   3   2.0000     -20.544747      -559.0510
   4   2.0000     -15.629996      -425.3138
   5   2.0000     -15.609157      -424.7467
   6   2.0000     -11.394282      -310.0542
   7   2.0000     -11.384800      -309.7962
   8   2.0000     -11.336622      -308.4852
   9   2.0000     -11.317069      -307.9531
  10   2.0000     -11.310469      -307.7735
  11   2.0000     -11.293546      -307.3130
  12   2.0000     -11.262439      -306.4665
  13   2.0000     -11.259233      -306.3793
  14   2.0000     -11.258411      -306.3569
  15   2.0000     -11.252973      -306.2090
  16   2.0000     -11.245934      -306.0174
  17   2.0000     -11.241036      -305.8841
  18   2.0000     -11.240747      -305.8763
  19   2.0000     -11.221729      -305.3588
  20   2.0000      -8.894743      -242.0383
  21   2.0000      -6.576316      -178.9507
  22   2.0000      -6.574313      -178.8961
  23   2.0000      -6.573724      -178.8801
  24   2.0000      -1.449981       -39.4560
  25   2.0000      -1.419080       -38.6151
  26   2.0000      -1.353567       -36.8324
  27   2.0000      -1.341010       -36.4907
  28   2.0000      -1.239627       -33.7320
  29   2.0000      -1.160201       -31.5707
  30   2.0000      -1.121175       -30.5087
  31   2.0000      -1.044579       -28.4245
  32   2.0000      -1.034561       -28.1518
  33   2.0000      -1.018119       -27.7044
  34   2.0000      -0.996358       -27.1123
  35   2.0000      -0.984810       -26.7980
  36   2.0000      -0.924083       -25.1456
  37   2.0000      -0.884402       -24.0658
  38   2.0000      -0.848317       -23.0839
  39   2.0000      -0.840146       -22.8615
  40   2.0000      -0.836576       -22.7644
  41   2.0000      -0.822853       -22.3910
  42   2.0000      -0.760370       -20.6907
  43   2.0000      -0.734388       -19.9837
  44   2.0000      -0.724055       -19.7025
  45   2.0000      -0.698306       -19.0019
  46   2.0000      -0.689457       -18.7611
  47   2.0000      -0.679050       -18.4779
  48   2.0000      -0.671945       -18.2846
  49   2.0000      -0.654755       -17.8168
  50   2.0000      -0.647697       -17.6247
  51   2.0000      -0.643877       -17.5208
  52   2.0000      -0.628854       -17.1120
  53   2.0000      -0.613922       -16.7057
  54   2.0000      -0.610035       -16.5999
  55   2.0000      -0.601739       -16.3741
  56   2.0000      -0.600259       -16.3339
  57   2.0000      -0.580547       -15.7975
  58   2.0000      -0.572548       -15.5798
  59   2.0000      -0.567889       -15.4530
  60   2.0000      -0.565367       -15.3844
  61   2.0000      -0.539383       -14.6774
  62   2.0000      -0.533809       -14.5257
  63   2.0000      -0.527597       -14.3567
  64   2.0000      -0.517654       -14.0861
  65   2.0000      -0.514621       -14.0036
  66   2.0000      -0.502864       -13.6836
  67   2.0000      -0.496420       -13.5083
  68   2.0000      -0.488539       -13.2938
  69   2.0000      -0.464182       -12.6310
  70   2.0000      -0.453685       -12.3454
  71   2.0000      -0.447577       -12.1792
  72   2.0000      -0.355009        -9.6603
  73   2.0000      -0.352240        -9.5849
  74   2.0000      -0.329379        -8.9629
  75   2.0000      -0.324422        -8.8280
  76   2.0000      -0.317156        -8.6303
  77   0.0000       0.072656         1.9771
  78   0.0000       0.103323         2.8116
  79   0.0000       0.124036         3.3752
  80   0.0000       0.130795         3.5591
  81   0.0000       0.135215         3.6794

MULLIKEN ATOMIC CHARGES
-----------------------
   0 C :   -0.265653
   1 C :    0.033355
   2 O :   -0.373764
   3 C :    0.465903
   4 O :   -0.420594
   5 C :   -0.248292
   6 C :    0.161279
   7 C :   -0.269992
   8 N :   -0.123522
   9 C :    0.214126
  10 S :   -0.439723
  11 N :   -0.207626
  12 C :    0.071820
  13 C :    0.054785
  14 C :   -0.198644
  15 C :   -0.131036
  16 C :   -0.278101
  17 C :    0.312359
  18 O :   -0.355503
  19 C :   -0.257436
  20 H :    0.106355
  21 H :    0.087982
  22 H :    0.090398
  23 H :    0.099779
  24 H :    0.115151
  25 H :    0.132019
  26 H :    0.130653
  27 H :    0.095479
  28 H :    0.197675
  29 H :    0.195257
  30 H :    0.149772
  31 H :    0.151500
  32 H :    0.163754
  33 H :    0.132203
  34 H :    0.241288
  35 H :    0.166994
Sum of atomic charges:    0.0000000

LOEWDIN ATOMIC CHARGES
----------------------
   0 C :    0.104954
   1 C :   -0.015491
   2 O :    0.301548
   3 C :   -0.417701
   4 O :    0.104888
   5 C :   -0.097006
   6 C :   -0.058782
   7 C :    0.131607
   8 N :    0.406859
   9 C :   -0.455758
  10 S :   -0.034936
  11 N :    0.396125
  12 C :   -0.052309
  13 C :   -0.036987
  14 C :    0.013609
  15 C :    0.039214
  16 C :   -0.002587
  17 C :   -0.189307
  18 O :    0.396002
  19 C :    0.031196
  20 H :   -0.023650
  21 H :   -0.028650
  22 H :   -0.029261
  23 H :   -0.028471
  24 H :   -0.028892
  25 H :   -0.004719
  26 H :   -0.003836
  27 H :   -0.023184
  28 H :   -0.057408
  29 H :   -0.064835
  30 H :   -0.009758
  31 H :   -0.029679
  32 H :   -0.020657
  33 H :   -0.035110
  34 H :   -0.153234
  35 H :   -0.023792

  Mayer bond orders larger than 0.100000
B(  0-C ,  1-C ) :   0.9828 B(  0-C , 20-H ) :   0.9781 B(  0-C , 21-H ) :   0.9772
B(  0-C , 22-H ) :   0.9787 B(  1-C ,  2-O ) :   0.8723 B(  1-C , 23-H ) :   0.9716
B(  1-C , 24-H ) :   0.9715 B(  2-O ,  3-C ) :   1.1263 B(  3-C ,  4-O ) :   1.9887
B(  3-C ,  5-C ) :   1.0687 B(  5-C ,  6-C ) :   1.6486 B(  5-C , 12-C ) :   0.9703
B(  6-C ,  7-C ) :   0.9665 B(  6-C ,  8-N ) :   1.1611 B(  7-C , 25-H ) :   0.9595
B(  7-C , 26-H ) :   0.9609 B(  7-C , 27-H ) :   0.9904 B(  8-N ,  9-C ) :   1.1831
B(  8-N , 28-H ) :   0.9476 B(  9-C , 10-S ) :   1.6060 B(  9-C , 11-N ) :   1.3070
B( 11-N , 12-C ) :   0.9771 B( 11-N , 29-H ) :   0.9517 B( 12-C , 13-C ) :   0.9378
B( 12-C , 30-H ) :   1.0020 B( 13-C , 14-C ) :   1.3506 B( 13-C , 19-C ) :   1.3796
B( 14-C , 15-C ) :   1.3904 B( 14-C , 31-H ) :   0.9735 B( 15-C , 16-C ) :   1.3604
B( 15-C , 32-H ) :   0.9701 B( 16-C , 17-C ) :   1.3307 B( 16-C , 33-H ) :   0.9844
B( 17-C , 18-O ) :   1.1125 B( 17-C , 19-C ) :   1.3717 B( 18-O , 34-H ) :   0.9793
B( 19-C , 35-H ) :   0.9579

MP2 TOTAL ENERGY:    -1274.339741374 Eh
FINAL SINGLE POINT ENERGY     -1274.339741373852

DIPOLE MOMENT
-------------
                                X             Y             Z
Electronic contribution:      9.74571      10.50124       8.31979
Nuclear contribution   :    -10.75210     -12.06637      -8.43005
                        -----------------------------------------
Total Dipole Moment    :     -1.00638      -1.56513      -0.11026
                        -----------------------------------------
Magnitude (a.u.)       :      1.86403
Magnitude (Debye)      :      4.73798

Rotational constants in cm-1:     0.012109     0.008553     0.006198
Rotational constants in MHz :   363.008041   256.403914   185.808285

                             ****ORCA TERMINATED NORMALLY****
TOTAL RUN TIME: 0 days 1 hours 47 minutes 54 seconds 695 msec
