                         Program Version 4.2.0 -  RELEASE  -
|  1> ! ri-mp2 cc-pvtz cc-pvtz/c TightSCF  NoKeepInts
|  2>
|  3> %scf
|  4>   MaxCore 4096
|  5> end
|  6> *xyz  0  1
|  7>     C       15.2717897   14.6681590   17.2328931
|  8>     C       15.5965645   14.9736835   15.7529897
|  9>     O       16.6720519   15.9285644   15.6191421
| 10>     C       17.7745643   15.8587537   16.4198477
| 11>     O       18.3728138   14.8069271   16.5721091
| 12>     C       17.8951877   16.9945145   17.3950386
| 13>     C       17.3667810   18.2315519   17.2068436
| 14>     C       16.5849331   18.7365449   16.0117058
| 15>     N       17.5919035   19.2343327   18.1555913
| 16>     C       18.4503881   19.1283115   19.2180432
| 17>     S       18.7601521   20.4077486   20.2192205
| 18>     N       19.0396358   17.9039991   19.4078282
| 19>     C       18.6914963   16.6775333   18.6659645
| 20>     C       17.9250402   15.7100125   19.5640040
| 21>     C       18.3669173   14.3835808   19.7229845
| 22>     C       17.6562569   13.4837952   20.5348168
| 23>     C       16.4921579   13.9127890   21.1945796
| 24>     C       16.0475666   15.2324511   21.0378975
| 25>     O       14.9182670   15.6472852   21.6651966
| 26>     C       16.7574722   16.1260048   20.2299982
| 27>     H       16.0859246   14.1163168   17.7193190
| 28>     H       14.3696294   14.0487669   17.3022915
| 29>     H       15.0900944   15.5930897   17.7938837
| 30>     H       15.8812010   14.0362517   15.2566504
| 31>     H       14.7021097   15.3615643   15.2490911
| 32>     H       15.5723237   18.3147520   16.0049758
| 33>     H       17.0764113   18.4495863   15.0735543
| 34>     H       16.4897339   19.8291511   16.0007377
| 35>     H       17.1703831   20.1410919   18.0322360
| 36>     H       19.6458794   17.8434437   20.2158000
| 37>     H       19.6310836   16.1941053   18.3613647
| 38>     H       19.2554066   14.0433684   19.1963709
| 39>     H       18.0052490   12.4583948   20.6430709
| 40>     H       15.9384555   13.2200781   21.8195297
| 41>     H       14.6051492   14.9125074   22.2139100
| 42>     H       16.3960257   17.1429892   20.1245197
| 43> *
| 44>
| 45>                          ****END OF INPUT****

CARTESIAN COORDINATES (ANGSTROEM)
---------------------------------
  C     15.271790   14.668159   17.232893
  C     15.596564   14.973683   15.752990
  O     16.672052   15.928564   15.619142
  C     17.774564   15.858754   16.419848
  O     18.372814   14.806927   16.572109
  C     17.895188   16.994514   17.395039
  C     17.366781   18.231552   17.206844
  C     16.584933   18.736545   16.011706
  N     17.591904   19.234333   18.155591
  C     18.450388   19.128311   19.218043
  S     18.760152   20.407749   20.219220
  N     19.039636   17.903999   19.407828
  C     18.691496   16.677533   18.665965
  C     17.925040   15.710012   19.564004
  C     18.366917   14.383581   19.722984
  C     17.656257   13.483795   20.534817
  C     16.492158   13.912789   21.194580
  C     16.047567   15.232451   21.037897
  O     14.918267   15.647285   21.665197
  C     16.757472   16.126005   20.229998
  H     16.085925   14.116317   17.719319
  H     14.369629   14.048767   17.302291
  H     15.090094   15.593090   17.793884
  H     15.881201   14.036252   15.256650
  H     14.702110   15.361564   15.249091
  H     15.572324   18.314752   16.004976
  H     17.076411   18.449586   15.073554
  H     16.489734   19.829151   16.000738
  H     17.170383   20.141092   18.032236
  H     19.645879   17.843444   20.215800
  H     19.631084   16.194105   18.361365
  H     19.255407   14.043368   19.196371
  H     18.005249   12.458395   20.643071
  H     15.938455   13.220078   21.819530
  H     14.605149   14.912507   22.213910
  H     16.396026   17.142989   20.124520

 Total Charge           Charge          ....    0
 Multiplicity           Mult            ....    1
 Number of Electrons    NEL             ....  154
 Basis Dimension        Dim             ....  828

ORBITAL ENERGIES
----------------

  NO   OCC          E(Eh)            E(eV)
   0   2.0000     -91.889530     -2500.4412
   1   2.0000     -20.595118      -560.4216
   2   2.0000     -20.586137      -560.1773
   3   2.0000     -20.550579      -559.2097
   4   2.0000     -15.629944      -425.3124
   5   2.0000     -15.608291      -424.7232
   6   2.0000     -11.395200      -310.0792
   7   2.0000     -11.384564      -309.7897
   8   2.0000     -11.336904      -308.4928
   9   2.0000     -11.310973      -307.7872
  10   2.0000     -11.307717      -307.6986
  11   2.0000     -11.302550      -307.5580
  12   2.0000     -11.261071      -306.4293
  13   2.0000     -11.260245      -306.4068
  14   2.0000     -11.256394      -306.3021
  15   2.0000     -11.251248      -306.1620
  16   2.0000     -11.240954      -305.8819
  17   2.0000     -11.236415      -305.7584
  18   2.0000     -11.233650      -305.6832
  19   2.0000     -11.224650      -305.4383
  20   2.0000      -8.894587      -242.0340
  21   2.0000      -6.576162      -178.9465
  22   2.0000      -6.574156      -178.8919
  23   2.0000      -6.573568      -178.8759
  24   2.0000      -1.448882       -39.4261
  25   2.0000      -1.414893       -38.5012
  26   2.0000      -1.354219       -36.8502
  27   2.0000      -1.340826       -36.4857
  28   2.0000      -1.238522       -33.7019
  29   2.0000      -1.155333       -31.4382
  30   2.0000      -1.120953       -30.5027
  31   2.0000      -1.043488       -28.3948
  32   2.0000      -1.030760       -28.0484
  33   2.0000      -1.012880       -27.5619
  34   2.0000      -0.999909       -27.2089
  35   2.0000      -0.985632       -26.8204
  36   2.0000      -0.923792       -25.1377
  37   2.0000      -0.895194       -24.3595
  38   2.0000      -0.849145       -23.1064
  39   2.0000      -0.838145       -22.8071
  40   2.0000      -0.831361       -22.6225
  41   2.0000      -0.816657       -22.2224
  42   2.0000      -0.746428       -20.3113
  43   2.0000      -0.732976       -19.9453
  44   2.0000      -0.727435       -19.7945
  45   2.0000      -0.693283       -18.8652
  46   2.0000      -0.686702       -18.6861
  47   2.0000      -0.676764       -18.4157
  48   2.0000      -0.671960       -18.2850
  49   2.0000      -0.659350       -17.9418
  50   2.0000      -0.653771       -17.7900
  51   2.0000      -0.645929       -17.5766
  52   2.0000      -0.635076       -17.2813
  53   2.0000      -0.619169       -16.8485
  54   2.0000      -0.603235       -16.4148
  55   2.0000      -0.602314       -16.3898
  56   2.0000      -0.598952       -16.2983
  57   2.0000      -0.579560       -15.7706
  58   2.0000      -0.575627       -15.6636
  59   2.0000      -0.563432       -15.3318
  60   2.0000      -0.551836       -15.0162
  61   2.0000      -0.546466       -14.8701
  62   2.0000      -0.534325       -14.5397
  63   2.0000      -0.532668       -14.4946
  64   2.0000      -0.520341       -14.1592
  65   2.0000      -0.511213       -13.9108
  66   2.0000      -0.499401       -13.5894
  67   2.0000      -0.493370       -13.4253
  68   2.0000      -0.480789       -13.0829
  69   2.0000      -0.464410       -12.6372
  70   2.0000      -0.456114       -12.4115
  71   2.0000      -0.449227       -12.2241
  72   2.0000      -0.355250        -9.6668
  73   2.0000      -0.346847        -9.4382
  74   2.0000      -0.328662        -8.9433
  75   2.0000      -0.318665        -8.6713
  76   2.0000      -0.316372        -8.6089
  77   0.0000       0.070602         1.9212
  78   0.0000       0.107309         2.9200
  79   0.0000       0.118694         3.2298
  80   0.0000       0.132622         3.6088
  81   0.0000       0.139695         3.8013

MULLIKEN ATOMIC CHARGES
-----------------------
   0 C :   -0.342768
   1 C :    0.049716
   2 O :   -0.384655
   3 C :    0.471676
   4 O :   -0.412456
   5 C :   -0.200774
   6 C :    0.148487
   7 C :   -0.282909
   8 N :   -0.123138
   9 C :    0.198978
  10 S :   -0.437427
  11 N :   -0.198880
  12 C :    0.045336
  13 C :    0.054562
  14 C :   -0.168766
  15 C :   -0.133636
  16 C :   -0.278628
  17 C :    0.321445
  18 O :   -0.360951
  19 C :   -0.292147
  20 H :    0.133146
  21 H :    0.112611
  22 H :    0.102950
  23 H :    0.108011
  24 H :    0.106923
  25 H :    0.120941
  26 H :    0.130345
  27 H :    0.104700
  28 H :    0.197347
  29 H :    0.193718
  30 H :    0.154433
  31 H :    0.157640
  32 H :    0.161387
  33 H :    0.130457
  34 H :    0.240784
  35 H :    0.171542
Sum of atomic charges:   -0.0000000

LOEWDIN ATOMIC CHARGES
----------------------
   0 C :    0.105230
   1 C :   -0.015169
   2 O :    0.287020
   3 C :   -0.418267
   4 O :    0.118678
   5 C :   -0.093867
   6 C :   -0.068211
   7 C :    0.125893
   8 N :    0.405118
   9 C :   -0.458899
  10 S :   -0.034722
  11 N :    0.397728
  12 C :   -0.045767
  13 C :   -0.040387
  14 C :    0.021158
  15 C :    0.040715
  16 C :   -0.002184
  17 C :   -0.193073
  18 O :    0.393856
  19 C :    0.030716
  20 H :   -0.021739
  21 H :   -0.024701
  22 H :   -0.030846
  23 H :   -0.027503
  24 H :   -0.025630
  25 H :   -0.010788
  26 H :   -0.006619
  27 H :   -0.020324
  28 H :   -0.058769
  29 H :   -0.063763
  30 H :   -0.004219
  31 H :   -0.024690
  32 H :   -0.020530
  33 H :   -0.035760
  34 H :   -0.154165
  35 H :   -0.025520

  Mayer bond orders larger than 0.100000
B(  0-C ,  1-C ) :   0.9584 B(  0-C , 20-H ) :   0.9656 B(  0-C , 21-H ) :   0.9760
B(  0-C , 22-H ) :   0.9717 B(  1-C ,  2-O ) :   0.8946 B(  1-C , 23-H ) :   0.9857
B(  1-C , 24-H ) :   0.9826 B(  2-O ,  3-C ) :   1.0898 B(  3-C ,  4-O ) :   2.0152
B(  3-C ,  5-C ) :   1.0404 B(  5-C ,  6-C ) :   1.6528 B(  5-C , 12-C ) :   0.9661
B(  6-C ,  7-C ) :   0.9551 B(  6-C ,  8-N ) :   1.1435 B(  7-C , 25-H ) :   0.9648
B(  7-C , 26-H ) :   0.9661 B(  7-C , 27-H ) :   0.9901 B(  8-N ,  9-C ) :   1.1798
B(  8-N , 28-H ) :   0.9489 B(  9-C , 10-S ) :   1.6133 B(  9-C , 11-N ) :   1.3023
B( 11-N , 12-C ) :   0.9902 B( 11-N , 29-H ) :   0.9521 B( 12-C , 13-C ) :   0.9453
B( 12-C , 30-H ) :   0.9993 B( 13-C , 14-C ) :   1.3798 B( 13-C , 19-C ) :   1.3534
B( 14-C , 15-C ) :   1.3930 B( 14-C , 31-H ) :   0.9635 B( 15-C , 16-C ) :   1.3620
B( 15-C , 32-H ) :   0.9710 B( 16-C , 17-C ) :   1.3324 B( 16-C , 33-H ) :   0.9849
B( 17-C , 18-O ) :   1.1086 B( 17-C , 19-C ) :   1.3686 B( 18-O , 34-H ) :   0.9803
B( 19-C , 35-H ) :   0.9586

MP2 TOTAL ENERGY:    -1274.333116209 Eh
FINAL SINGLE POINT ENERGY     -1274.333116209391

DIPOLE MOMENT
-------------
                                X             Y             Z
Electronic contribution:      9.74842       8.89635       6.37551
Nuclear contribution   :    -11.16768     -10.09653      -7.11828
                        -----------------------------------------
Total Dipole Moment    :     -1.41926      -1.20018      -0.74276
                        -----------------------------------------
Magnitude (a.u.)       :      2.00161
Magnitude (Debye)      :      5.08768

Rotational constants in cm-1:     0.011737     0.009581     0.006684
Rotational constants in MHz :   351.874447   287.242582   200.370633

                             ****ORCA TERMINATED NORMALLY****
TOTAL RUN TIME: 0 days 1 hours 47 minutes 47 seconds 150 msec
