                         Program Version 5.0.0 -  RELEASE  -
|  1> ! ri-mp2 cc-pvtz cc-pvtz/c TightSCF NoKeepInts
|  2>
|  3> %scf
|  4>   MaxCore 4096
|  5> end
|  6> *xyz  0  1
|  7>     C       15.3774436   14.4080875   17.3777812
|  8>     C       16.3218825   14.2407292   16.1761408
|  9>     O       17.5830674   14.9033087   16.4167997
| 10>     C       17.6890116   16.2204460   16.0713082
| 11>     O       17.2952480   16.5951344   14.9803508
| 12>     C       17.7656511   17.1290370   17.2673805
| 13>     C       17.3266839   18.4140184   17.2425345
| 14>     C       16.5688192   19.1086800   16.1315430
| 15>     N       17.6197910   19.2706006   18.3086599
| 16>     C       18.5401950   18.9986745   19.2868308
| 17>     S       19.0015182   20.1341215   20.3973990
| 18>     N       19.0697485   17.7324602   19.2876214
| 19>     C       18.5416486   16.6096677   18.4901939
| 20>     C       17.7340654   15.6946936   19.4047805
| 21>     C       18.1802462   14.3858336   19.6698815
| 22>     C       17.4725844   13.5535754   20.5539060
| 23>     C       16.3102113   14.0340562   21.1810074
| 24>     C       15.8662466   15.3385805   20.9246045
| 25>     O       14.7443349   15.8054840   21.5277657
| 26>     C       16.5739885   16.1654956   20.0467460
| 27>     H       15.7822311   13.9040325   18.2610747
| 28>     H       14.4006471   13.9609904   17.1578130
| 29>     H       15.2188809   15.4677548   17.6109041
| 30>     H       16.5064847   13.1688419   16.0295408
| 31>     H       15.8432731   14.6179459   15.2619419
| 32>     H       15.7073929   18.5069145   15.8154846
| 33>     H       17.2129933   19.2443350   15.2532643
| 34>     H       16.1894162   20.0945863   16.4244537
| 35>     H       17.2529058   20.2089934   18.3084159
| 36>     H       19.7264364   17.5506527   20.0357277
| 37>     H       19.4019644   16.0385121   18.1138652
| 38>     H       19.0797677   14.0113789   19.1884829
| 39>     H       17.8258783   12.5428330   20.7509908
| 40>     H       15.7601719   13.3950464   21.8640223
| 41>     H       14.4343740   15.1197668   22.1383083
| 42>     H       16.2217961   17.1767306   19.8764748
| 43> *
| 44>
| 45>                          ****END OF INPUT****

CARTESIAN COORDINATES (ANGSTROEM)
---------------------------------
  C     15.377444   14.408088   17.377781
  C     16.321883   14.240729   16.176141
  O     17.583067   14.903309   16.416800
  C     17.689012   16.220446   16.071308
  O     17.295248   16.595134   14.980351
  C     17.765651   17.129037   17.267380
  C     17.326684   18.414018   17.242535
  C     16.568819   19.108680   16.131543
  N     17.619791   19.270601   18.308660
  C     18.540195   18.998674   19.286831
  S     19.001518   20.134121   20.397399
  N     19.069748   17.732460   19.287621
  C     18.541649   16.609668   18.490194
  C     17.734065   15.694694   19.404780
  C     18.180246   14.385834   19.669881
  C     17.472584   13.553575   20.553906
  C     16.310211   14.034056   21.181007
  C     15.866247   15.338581   20.924605
  O     14.744335   15.805484   21.527766
  C     16.573988   16.165496   20.046746
  H     15.782231   13.904032   18.261075
  H     14.400647   13.960990   17.157813
  H     15.218881   15.467755   17.610904
  H     16.506485   13.168842   16.029541
  H     15.843273   14.617946   15.261942
  H     15.707393   18.506915   15.815485
  H     17.212993   19.244335   15.253264
  H     16.189416   20.094586   16.424454
  H     17.252906   20.208993   18.308416
  H     19.726436   17.550653   20.035728
  H     19.401964   16.038512   18.113865
  H     19.079768   14.011379   19.188483
  H     17.825878   12.542833   20.750991
  H     15.760172   13.395046   21.864022
  H     14.434374   15.119767   22.138308
  H     16.221796   17.176731   19.876475

 Total Charge           Charge          ....    0
 Multiplicity           Mult            ....    1
 Number of Electrons    NEL             ....  154
 Basis Dimension        Dim             ....  828

ORBITAL ENERGIES
----------------

  NO   OCC          E(Eh)            E(eV)
   0   2.0000     -91.890383     -2500.4644
   1   2.0000     -20.598458      -560.5125
   2   2.0000     -20.586013      -560.1739
   3   2.0000     -20.550417      -559.2053
   4   2.0000     -15.630434      -425.3257
   5   2.0000     -15.608895      -424.7396
   6   2.0000     -11.394743      -310.0667
   7   2.0000     -11.384835      -309.7971
   8   2.0000     -11.336343      -308.4776
   9   2.0000     -11.315524      -307.9111
  10   2.0000     -11.311814      -307.8101
  11   2.0000     -11.295543      -307.3673
  12   2.0000     -11.260981      -306.4269
  13   2.0000     -11.260677      -306.4186
  14   2.0000     -11.256994      -306.3184
  15   2.0000     -11.253773      -306.2307
  16   2.0000     -11.245176      -305.9968
  17   2.0000     -11.239660      -305.8467
  18   2.0000     -11.239410      -305.8399
  19   2.0000     -11.220490      -305.3250
  20   2.0000      -8.895397      -242.0560
  21   2.0000      -6.576961      -178.9682
  22   2.0000      -6.574969      -178.9140
  23   2.0000      -6.574372      -178.8978
  24   2.0000      -1.449879       -39.4532
  25   2.0000      -1.418158       -38.5900
  26   2.0000      -1.352597       -36.8060
  27   2.0000      -1.341630       -36.5076
  28   2.0000      -1.239814       -33.7371
  29   2.0000      -1.158695       -31.5297
  30   2.0000      -1.120799       -30.4985
  31   2.0000      -1.043817       -28.4037
  32   2.0000      -1.032623       -28.0991
  33   2.0000      -1.016878       -27.6707
  34   2.0000      -0.998470       -27.1698
  35   2.0000      -0.985593       -26.8194
  36   2.0000      -0.924310       -25.1518
  37   2.0000      -0.890048       -24.2194
  38   2.0000      -0.847697       -23.0670
  39   2.0000      -0.840924       -22.8827
  40   2.0000      -0.835616       -22.7383
  41   2.0000      -0.816530       -22.2189
  42   2.0000      -0.756251       -20.5786
  43   2.0000      -0.733600       -19.9623
  44   2.0000      -0.722919       -19.6716
  45   2.0000      -0.698008       -18.9938
  46   2.0000      -0.690282       -18.7835
  47   2.0000      -0.679123       -18.4799
  48   2.0000      -0.669093       -18.2069
  49   2.0000      -0.667044       -18.1512
  50   2.0000      -0.649290       -17.6681
  51   2.0000      -0.646088       -17.5810
  52   2.0000      -0.637330       -17.3426
  53   2.0000      -0.608964       -16.5708
  54   2.0000      -0.603465       -16.4211
  55   2.0000      -0.600199       -16.3322
  56   2.0000      -0.593564       -16.1517
  57   2.0000      -0.579168       -15.7600
  58   2.0000      -0.572778       -15.5861
  59   2.0000      -0.564873       -15.3710
  60   2.0000      -0.563624       -15.3370
  61   2.0000      -0.548529       -14.9262
  62   2.0000      -0.539458       -14.6794
  63   2.0000      -0.526532       -14.3277
  64   2.0000      -0.520149       -14.1540
  65   2.0000      -0.514548       -14.0016
  66   2.0000      -0.503451       -13.6996
  67   2.0000      -0.502013       -13.6605
  68   2.0000      -0.476355       -12.9623
  69   2.0000      -0.463468       -12.6116
  70   2.0000      -0.452227       -12.3057
  71   2.0000      -0.445992       -12.1361
  72   2.0000      -0.357542        -9.7292
  73   2.0000      -0.350019        -9.5245
  74   2.0000      -0.329549        -8.9675
  75   2.0000      -0.324038        -8.8175
  76   2.0000      -0.317080        -8.6282
  77   0.0000       0.068485         1.8636
  78   0.0000       0.104860         2.8534
  79   0.0000       0.119368         3.2482
  80   0.0000       0.130544         3.5523
  81   0.0000       0.133764         3.6399

MULLIKEN ATOMIC CHARGES
-----------------------
   0 C :   -0.317457
   1 C :    0.041280
   2 O :   -0.380072
   3 C :    0.476449
   4 O :   -0.409253
   5 C :   -0.232633
   6 C :    0.154505
   7 C :   -0.272357
   8 N :   -0.124922
   9 C :    0.203756
  10 S :   -0.434565
  11 N :   -0.192065
  12 C :    0.026245
  13 C :    0.085582
  14 C :   -0.182069
  15 C :   -0.132595
  16 C :   -0.281019
  17 C :    0.319987
  18 O :   -0.359112
  19 C :   -0.281265
  20 H :    0.110320
  21 H :    0.116106
  22 H :    0.100352
  23 H :    0.105537
  24 H :    0.113136
  25 H :    0.124715
  26 H :    0.137502
  27 H :    0.094226
  28 H :    0.198351
  29 H :    0.191098
  30 H :    0.148002
  31 H :    0.147749
  32 H :    0.161959
  33 H :    0.131669
  34 H :    0.241291
  35 H :    0.169568
Sum of atomic charges:   -0.0000000

LOEWDIN ATOMIC CHARGES
----------------------
   0 C :    0.104164
   1 C :   -0.013992
   2 O :    0.284333
   3 C :   -0.416450
   4 O :    0.120314
   5 C :   -0.096936
   6 C :   -0.062333
   7 C :    0.129635
   8 N :    0.406509
   9 C :   -0.457712
  10 S :   -0.032028
  11 N :    0.396718
  12 C :   -0.052641
  13 C :   -0.037258
  14 C :    0.013664
  15 C :    0.039392
  16 C :   -0.002307
  17 C :   -0.190175
  18 O :    0.396288
  19 C :    0.035046
  20 H :   -0.025412
  21 H :   -0.026070
  22 H :   -0.031292
  23 H :   -0.024561
  24 H :   -0.029099
  25 H :   -0.007178
  26 H :   -0.003410
  27 H :   -0.023043
  28 H :   -0.057901
  29 H :   -0.065286
  30 H :   -0.006609
  31 H :   -0.029437
  32 H :   -0.020744
  33 H :   -0.035224
  34 H :   -0.153395
  35 H :   -0.025568

  Mayer bond orders larger than 0.100000
B(  0-C ,  1-C ) :   0.9638 B(  0-C , 20-H ) :   0.9733 B(  0-C , 21-H ) :   0.9774
B(  0-C , 22-H ) :   0.9724 B(  1-C ,  2-O ) :   0.8825 B(  1-C , 23-H ) :   0.9865
B(  1-C , 24-H ) :   0.9782 B(  2-O ,  3-C ) :   1.1093 B(  3-C ,  4-O ) :   2.0040
B(  3-C ,  5-C ) :   1.0535 B(  5-C ,  6-C ) :   1.6591 B(  5-C , 12-C ) :   0.9736
B(  6-C ,  7-C ) :   0.9701 B(  6-C ,  8-N ) :   1.1429 B(  7-C , 25-H ) :   0.9666
B(  7-C , 26-H ) :   0.9570 B(  7-C , 27-H ) :   0.9878 B(  8-N ,  9-C ) :   1.1784
B(  8-N , 28-H ) :   0.9488 B(  9-C , 10-S ) :   1.6177 B(  9-C , 11-N ) :   1.2987
B( 11-N , 12-C ) :   0.9852 B( 11-N , 29-H ) :   0.9542 B( 12-C , 13-C ) :   0.9415
B( 12-C , 30-H ) :   1.0061 B( 13-C , 14-C ) :   1.3595 B( 13-C , 19-C ) :   1.3585
B( 14-C , 15-C ) :   1.3875 B( 14-C , 31-H ) :   0.9723 B( 15-C , 16-C ) :   1.3620
B( 15-C , 32-H ) :   0.9713 B( 16-C , 17-C ) :   1.3310 B( 16-C , 33-H ) :   0.9849
B( 17-C , 18-O ) :   1.1121 B( 17-C , 19-C ) :   1.3705 B( 18-O , 34-H ) :   0.9795
B( 19-C , 35-H ) :   0.9577

MP2 TOTAL ENERGY:    -1274.328238030 Eh
FINAL SINGLE POINT ENERGY     -1274.328238030094

DIPOLE MOMENT
-------------
                                X             Y             Z
Electronic contribution:      9.35303       9.35850       5.42634
Nuclear contribution   :    -10.38739     -11.01570      -5.50341
                        -----------------------------------------
Total Dipole Moment    :     -1.03436      -1.65720      -0.07708
                        -----------------------------------------
Magnitude (a.u.)       :      1.95504
Magnitude (Debye)      :      4.96930

Rotational constants in cm-1:     0.011773     0.009787     0.006576
Rotational constants in MHz :   352.960287   293.406320   197.138585

                             ****ORCA TERMINATED NORMALLY****
TOTAL RUN TIME: 0 days 1 hours 45 minutes 15 seconds 302 msec
