                         Program Version 4.2.0 -  RELEASE  -
|  1> ! ri-mp2 cc-pvtz cc-pvtz/c TightSCF  NoKeepInts
|  2>
|  3> %scf
|  4>   MaxCore 4096
|  5> end
|  6> *xyz  0  1
|  7>     C       15.0695134   15.3978128   16.9232487
|  8>     C       16.1968938   14.3396471   16.8956061
|  9>     O       17.4132333   14.8063872   16.2583168
| 10>     C       17.7366034   16.1203267   16.0508279
| 11>     O       17.7360263   16.5574675   14.9148887
| 12>     C       17.7856555   17.0053623   17.2655819
| 13>     C       17.3607711   18.2927399   17.2218928
| 14>     C       16.6201499   18.9696750   16.0892385
| 15>     N       17.6374917   19.1568714   18.2848743
| 16>     C       18.5353254   18.8859599   19.2837552
| 17>     S       18.9708695   20.0227888   20.4030155
| 18>     N       19.0672844   17.6205052   19.2983031
| 19>     C       18.5696932   16.4929436   18.4875253
| 20>     C       17.8000396   15.5459894   19.3990408
| 21>     C       18.3014714   14.2574712   19.6661692
| 22>     C       17.6062545   13.3828650   20.5183083
| 23>     C       16.4056441   13.8023950   21.1162340
| 24>     C       15.9140910   15.0911511   20.8683730
| 25>     O       14.7571209   15.5011286   21.4456118
| 26>     C       16.6083912   15.9597730   20.0209972
| 27>     H       15.2827824   16.2170569   17.6161419
| 28>     H       14.1320074   14.9330464   17.2519959
| 29>     H       14.9011801   15.8141626   15.9218368
| 30>     H       16.3960391   13.9942642   17.9138830
| 31>     H       15.8382109   13.4644250   16.3386863
| 32>     H       15.8532991   18.3068673   15.6697623
| 33>     H       17.3134413   19.2191912   15.2753757
| 34>     H       16.1188240   19.8928628   16.4026600
| 35>     H       17.2779619   20.0981449   18.2686151
| 36>     H       19.7129570   17.4449680   20.0576358
| 37>     H       19.4460073   15.9520418   18.1029491
| 38>     H       19.2296950   13.9286150   19.2056360
| 39>     H       17.9991014   12.3863499   20.7145503
| 40>     H       15.8654143   13.1299953   21.7749318
| 41>     H       14.4685458   14.8022327   22.0521595
| 42>     H       16.2190094   16.9585150   19.8553714
| 43> *
| 44>
| 45>                          ****END OF INPUT****

CARTESIAN COORDINATES (ANGSTROEM)
---------------------------------
  C     15.069513   15.397813   16.923249
  C     16.196894   14.339647   16.895606
  O     17.413233   14.806387   16.258317
  C     17.736603   16.120327   16.050828
  O     17.736026   16.557468   14.914889
  C     17.785656   17.005362   17.265582
  C     17.360771   18.292740   17.221893
  C     16.620150   18.969675   16.089239
  N     17.637492   19.156871   18.284874
  C     18.535325   18.885960   19.283755
  S     18.970869   20.022789   20.403015
  N     19.067284   17.620505   19.298303
  C     18.569693   16.492944   18.487525
  C     17.800040   15.545989   19.399041
  C     18.301471   14.257471   19.666169
  C     17.606254   13.382865   20.518308
  C     16.405644   13.802395   21.116234
  C     15.914091   15.091151   20.868373
  O     14.757121   15.501129   21.445612
  C     16.608391   15.959773   20.020997
  H     15.282782   16.217057   17.616142
  H     14.132007   14.933046   17.251996
  H     14.901180   15.814163   15.921837
  H     16.396039   13.994264   17.913883
  H     15.838211   13.464425   16.338686
  H     15.853299   18.306867   15.669762
  H     17.313441   19.219191   15.275376
  H     16.118824   19.892863   16.402660
  H     17.277962   20.098145   18.268615
  H     19.712957   17.444968   20.057636
  H     19.446007   15.952042   18.102949
  H     19.229695   13.928615   19.205636
  H     17.999101   12.386350   20.714550
  H     15.865414   13.129995   21.774932
  H     14.468546   14.802233   22.052159
  H     16.219009   16.958515   19.855371

 Total Charge           Charge          ....    0
 Multiplicity           Mult            ....    1
 Number of Electrons    NEL             ....  154
 Basis Dimension        Dim             ....  828

ORBITAL ENERGIES
----------------

  NO   OCC          E(Eh)            E(eV)
   0   2.0000     -91.891306     -2500.4896
   1   2.0000     -20.604639      -560.6807
   2   2.0000     -20.581768      -560.0584
   3   2.0000     -20.550005      -559.1941
   4   2.0000     -15.630016      -425.3144
   5   2.0000     -15.611143      -424.8008
   6   2.0000     -11.393880      -310.0432
   7   2.0000     -11.386152      -309.8329
   8   2.0000     -11.333690      -308.4054
   9   2.0000     -11.322750      -308.1077
  10   2.0000     -11.316694      -307.9429
  11   2.0000     -11.299318      -307.4701
  12   2.0000     -11.267335      -306.5998
  13   2.0000     -11.263613      -306.4985
  14   2.0000     -11.259226      -306.3791
  15   2.0000     -11.254614      -306.2536
  16   2.0000     -11.252142      -306.1864
  17   2.0000     -11.246588      -306.0352
  18   2.0000     -11.246397      -306.0300
  19   2.0000     -11.230644      -305.6014
  20   2.0000      -8.896335      -242.0816
  21   2.0000      -6.577902      -178.9938
  22   2.0000      -6.575906      -178.9395
  23   2.0000      -6.575311      -178.9233
  24   2.0000      -1.441136       -39.2153
  25   2.0000      -1.424342       -38.7583
  26   2.0000      -1.350865       -36.7589
  27   2.0000      -1.342254       -36.5246
  28   2.0000      -1.241602       -33.7857
  29   2.0000      -1.165329       -31.7102
  30   2.0000      -1.122670       -30.5494
  31   2.0000      -1.049257       -28.5517
  32   2.0000      -1.032126       -28.0856
  33   2.0000      -1.023728       -27.8571
  34   2.0000      -1.002308       -27.2742
  35   2.0000      -0.988203       -26.8904
  36   2.0000      -0.927811       -25.2470
  37   2.0000      -0.897164       -24.4131
  38   2.0000      -0.850411       -23.1408
  39   2.0000      -0.846701       -23.0399
  40   2.0000      -0.842057       -22.9135
  41   2.0000      -0.825577       -22.4651
  42   2.0000      -0.747789       -20.3484
  43   2.0000      -0.738220       -20.0880
  44   2.0000      -0.717608       -19.5271
  45   2.0000      -0.703561       -19.1449
  46   2.0000      -0.692594       -18.8464
  47   2.0000      -0.677104       -18.4249
  48   2.0000      -0.672914       -18.3109
  49   2.0000      -0.660259       -17.9666
  50   2.0000      -0.656129       -17.8542
  51   2.0000      -0.649726       -17.6800
  52   2.0000      -0.638692       -17.3797
  53   2.0000      -0.626461       -17.0469
  54   2.0000      -0.614586       -16.7237
  55   2.0000      -0.606765       -16.5109
  56   2.0000      -0.602894       -16.4056
  57   2.0000      -0.583921       -15.8893
  58   2.0000      -0.575818       -15.6688
  59   2.0000      -0.566839       -15.4245
  60   2.0000      -0.549411       -14.9502
  61   2.0000      -0.546446       -14.8695
  62   2.0000      -0.540823       -14.7166
  63   2.0000      -0.534440       -14.5428
  64   2.0000      -0.531747       -14.4696
  65   2.0000      -0.517620       -14.0852
  66   2.0000      -0.507271       -13.8036
  67   2.0000      -0.495294       -13.4776
  68   2.0000      -0.479591       -13.0503
  69   2.0000      -0.472223       -12.8498
  70   2.0000      -0.448252       -12.1976
  71   2.0000      -0.445688       -12.1278
  72   2.0000      -0.358530        -9.7561
  73   2.0000      -0.355706        -9.6793
  74   2.0000      -0.332828        -9.0567
  75   2.0000      -0.328972        -8.9518
  76   2.0000      -0.318484        -8.6664
  77   0.0000       0.071434         1.9438
  78   0.0000       0.101099         2.7510
  79   0.0000       0.119823         3.2605
  80   0.0000       0.125849         3.4245
  81   0.0000       0.131342         3.5740

MULLIKEN ATOMIC CHARGES
-----------------------
   0 C :   -0.348552
   1 C :    0.040775
   2 O :   -0.364137
   3 C :    0.450972
   4 O :   -0.376135
   5 C :   -0.272422
   6 C :    0.163052
   7 C :   -0.278482
   8 N :   -0.126513
   9 C :    0.203994
  10 S :   -0.434847
  11 N :   -0.192148
  12 C :    0.048617
  13 C :    0.045014
  14 C :   -0.169032
  15 C :   -0.132969
  16 C :   -0.274093
  17 C :    0.319460
  18 O :   -0.356622
  19 C :   -0.294974
  20 H :    0.108700
  21 H :    0.119942
  22 H :    0.117999
  23 H :    0.106855
  24 H :    0.124324
  25 H :    0.123355
  26 H :    0.145233
  27 H :    0.094518
  28 H :    0.198069
  29 H :    0.191278
  30 H :    0.149284
  31 H :    0.149407
  32 H :    0.163949
  33 H :    0.134678
  34 H :    0.242455
  35 H :    0.178995
Sum of atomic charges:   -0.0000000

LOEWDIN ATOMIC CHARGES
----------------------
   0 C :    0.104181
   1 C :   -0.009145
   2 O :    0.279994
   3 C :   -0.424147
   4 O :    0.130872
   5 C :   -0.094464
   6 C :   -0.070284
   7 C :    0.129780
   8 N :    0.406008
   9 C :   -0.457080
  10 S :   -0.032192
  11 N :    0.396776
  12 C :   -0.053124
  13 C :   -0.041730
  14 C :    0.014018
  15 C :    0.042265
  16 C :    0.000150
  17 C :   -0.190597
  18 O :    0.397258
  19 C :    0.034879
  20 H :   -0.037991
  21 H :   -0.021082
  22 H :   -0.027010
  23 H :   -0.034714
  24 H :   -0.023307
  25 H :   -0.008979
  26 H :   -0.002464
  27 H :   -0.022304
  28 H :   -0.057572
  29 H :   -0.065062
  30 H :   -0.005888
  31 H :   -0.028470
  32 H :   -0.019030
  33 H :   -0.033490
  34 H :   -0.151992
  35 H :   -0.024066

  Mayer bond orders larger than 0.100000
B(  0-C ,  1-C ) :   0.9615 B(  0-C , 20-H ) :   0.9674 B(  0-C , 21-H ) :   0.9762
B(  0-C , 22-H ) :   0.9742 B(  1-C ,  2-O ) :   0.8961 B(  1-C , 23-H ) :   0.9677
B(  1-C , 24-H ) :   0.9835 B(  2-O ,  3-C ) :   1.1478 B(  3-C ,  4-O ) :   2.0845
B(  3-C ,  5-C ) :   0.9763 B(  5-C ,  6-C ) :   1.6796 B(  5-C , 12-C ) :   0.9726
B(  6-C ,  7-C ) :   0.9602 B(  6-C ,  8-N ) :   1.1403 B(  7-C , 25-H ) :   0.9701
B(  7-C , 26-H ) :   0.9567 B(  7-C , 27-H ) :   0.9853 B(  8-N ,  9-C ) :   1.1840
B(  8-N , 28-H ) :   0.9496 B(  9-C , 10-S ) :   1.6176 B(  9-C , 11-N ) :   1.2929
B( 11-N , 12-C ) :   0.9836 B( 11-N , 29-H ) :   0.9540 B( 12-C , 13-C ) :   0.9413
B( 12-C , 30-H ) :   1.0063 B( 13-C , 14-C ) :   1.3507 B( 13-C , 19-C ) :   1.3601
B( 14-C , 15-C ) :   1.3939 B( 14-C , 31-H ) :   0.9737 B( 15-C , 16-C ) :   1.3665
B( 15-C , 32-H ) :   0.9701 B( 16-C , 17-C ) :   1.3264 B( 16-C , 33-H ) :   0.9832
B( 17-C , 18-O ) :   1.1145 B( 17-C , 19-C ) :   1.3733 B( 18-O , 34-H ) :   0.9787
B( 19-C , 35-H ) :   0.9527

MP2 TOTAL ENERGY:    -1274.323763903 Eh
FINAL SINGLE POINT ENERGY     -1274.323763903370

DIPOLE MOMENT
-------------
                                X             Y             Z
Electronic contribution:      9.89905       6.86833       5.42119
Nuclear contribution   :    -11.17769      -8.48574      -4.95133
                        -----------------------------------------
Total Dipole Moment    :     -1.27864      -1.61741       0.46986
                        -----------------------------------------
Magnitude (a.u.)       :      2.11464
Magnitude (Debye)      :      5.37499

Rotational constants in cm-1:     0.011817     0.009854     0.006766
Rotational constants in MHz :   354.250244   295.411644   202.838259

                             ****ORCA TERMINATED NORMALLY****
TOTAL RUN TIME: 0 days 1 hours 52 minutes 5 seconds 569 msec
