                         Program Version 5.0.0 -  RELEASE  -
|  1> ! ri-mp2 cc-pvtz cc-pvtz/c TightSCF NoKeepInts
|  2>
|  3> %scf
|  4>   MaxCore 4096
|  5> end
|  6> *xyz  0  1
|  7>     C       15.6079552   14.2910886   14.3802502
|  8>     C       15.0607795   14.7690039   15.7378907
|  9>     O       15.9005068   15.8376202   16.2118069
| 10>     C       16.9878416   15.5547083   16.9887379
| 11>     O       17.3688482   14.4124302   17.1884891
| 12>     C       17.5933099   16.7398053   17.6880205
| 13>     C       17.3322398   18.0425393   17.3985314
| 14>     C       16.4057441   18.6006498   16.3373331
| 15>     N       18.0139984   19.0551472   18.0823037
| 16>     C       19.0630372   18.8543121   18.9398499
| 17>     S       19.9028681   20.1163802   19.6013195
| 18>     N       19.3801239   17.5499761   19.2206069
| 19>     C       18.5820614   16.3818349   18.8042347
| 20>     C       17.8607989   15.7731918   20.0042767
| 21>     C       18.0193011   14.4096656   20.3138998
| 22>     C       17.3570861   13.8431285   21.4159159
| 23>     C       16.5280663   14.6463833   22.2172082
| 24>     C       16.3643345   16.0040063   21.9104480
| 25>     O       15.5597832   16.7810260   22.6787958
| 26>     C       17.0243830   16.5649215   20.8126193
| 27>     H       15.6577217   15.1224510   13.6663623
| 28>     H       14.9606300   13.5129614   13.9580596
| 29>     H       16.6150160   13.8702138   14.4947352
| 30>     H       14.0411691   15.1483508   15.5930166
| 31>     H       15.0153217   13.9401001   16.4580117
| 32>     H       16.6367154   18.1716418   15.3542945
| 33>     H       16.4810682   19.6902650   16.2382237
| 34>     H       15.3605536   18.3645967   16.5731738
| 35>     H       17.7960540   20.0196367   17.8896233
| 36>     H       20.1367107   17.4278779   19.8813353
| 37>     H       19.2792370   15.6306216   18.4056550
| 38>     H       18.6463239   13.7821864   19.6850970
| 39>     H       17.4834323   12.7855712   21.6403737
| 40>     H       16.0132558   14.2124971   23.0678463
| 41>     H       15.2244678   16.2266335   23.3991609
| 42>     H       16.8862557   17.6185759   20.5964927
| 43> *
| 44>
| 45>                          ****END OF INPUT****

CARTESIAN COORDINATES (ANGSTROEM)
---------------------------------
  C     15.607955   14.291089   14.380250
  C     15.060780   14.769004   15.737891
  O     15.900507   15.837620   16.211807
  C     16.987842   15.554708   16.988738
  O     17.368848   14.412430   17.188489
  C     17.593310   16.739805   17.688021
  C     17.332240   18.042539   17.398531
  C     16.405744   18.600650   16.337333
  N     18.013998   19.055147   18.082304
  C     19.063037   18.854312   18.939850
  S     19.902868   20.116380   19.601319
  N     19.380124   17.549976   19.220607
  C     18.582061   16.381835   18.804235
  C     17.860799   15.773192   20.004277
  C     18.019301   14.409666   20.313900
  C     17.357086   13.843129   21.415916
  C     16.528066   14.646383   22.217208
  C     16.364334   16.004006   21.910448
  O     15.559783   16.781026   22.678796
  C     17.024383   16.564922   20.812619
  H     15.657722   15.122451   13.666362
  H     14.960630   13.512961   13.958060
  H     16.615016   13.870214   14.494735
  H     14.041169   15.148351   15.593017
  H     15.015322   13.940100   16.458012
  H     16.636715   18.171642   15.354294
  H     16.481068   19.690265   16.238224
  H     15.360554   18.364597   16.573174
  H     17.796054   20.019637   17.889623
  H     20.136711   17.427878   19.881335
  H     19.279237   15.630622   18.405655
  H     18.646324   13.782186   19.685097
  H     17.483432   12.785571   21.640374
  H     16.013256   14.212497   23.067846
  H     15.224468   16.226633   23.399161
  H     16.886256   17.618576   20.596493

 Total Charge           Charge          ....    0
 Multiplicity           Mult            ....    1
 Number of Electrons    NEL             ....  154
 Basis Dimension        Dim             ....  828

ORBITAL ENERGIES
----------------

  NO   OCC          E(Eh)            E(eV)
   0   2.0000     -91.888073     -2500.4016
   1   2.0000     -20.604287      -560.6711
   2   2.0000     -20.590898      -560.3068
   3   2.0000     -20.545587      -559.0739
   4   2.0000     -15.628569      -425.2750
   5   2.0000     -15.606578      -424.6766
   6   2.0000     -11.396886      -310.1250
   7   2.0000     -11.382855      -309.7432
   8   2.0000     -11.336997      -308.4954
   9   2.0000     -11.306700      -307.6710
  10   2.0000     -11.305190      -307.6299
  11   2.0000     -11.300244      -307.4953
  12   2.0000     -11.260892      -306.4245
  13   2.0000     -11.258892      -306.3700
  14   2.0000     -11.252724      -306.2022
  15   2.0000     -11.246843      -306.0422
  16   2.0000     -11.236499      -305.7607
  17   2.0000     -11.232670      -305.6565
  18   2.0000     -11.229607      -305.5731
  19   2.0000     -11.227719      -305.5218
  20   2.0000      -8.893133      -241.9944
  21   2.0000      -6.574709      -178.9069
  22   2.0000      -6.572704      -178.8524
  23   2.0000      -6.572117      -178.8364
  24   2.0000      -1.454527       -39.5797
  25   2.0000      -1.410630       -38.3852
  26   2.0000      -1.357557       -36.9410
  27   2.0000      -1.339456       -36.4485
  28   2.0000      -1.236940       -33.6588
  29   2.0000      -1.151477       -31.3333
  30   2.0000      -1.119309       -30.4580
  31   2.0000      -1.042375       -28.3645
  32   2.0000      -1.035100       -28.1665
  33   2.0000      -1.008779       -27.4503
  34   2.0000      -0.997137       -27.1335
  35   2.0000      -0.982661       -26.7396
  36   2.0000      -0.920969       -25.0608
  37   2.0000      -0.892608       -24.2891
  38   2.0000      -0.847585       -23.0640
  39   2.0000      -0.834867       -22.7179
  40   2.0000      -0.827103       -22.5066
  41   2.0000      -0.817165       -22.2362
  42   2.0000      -0.756698       -20.5908
  43   2.0000      -0.735353       -20.0100
  44   2.0000      -0.724425       -19.7126
  45   2.0000      -0.690130       -18.7794
  46   2.0000      -0.685041       -18.6409
  47   2.0000      -0.679916       -18.5015
  48   2.0000      -0.671580       -18.2746
  49   2.0000      -0.657424       -17.8894
  50   2.0000      -0.647059       -17.6074
  51   2.0000      -0.641849       -17.4656
  52   2.0000      -0.629467       -17.1287
  53   2.0000      -0.613443       -16.6926
  54   2.0000      -0.599870       -16.3233
  55   2.0000      -0.598868       -16.2960
  56   2.0000      -0.594150       -16.1676
  57   2.0000      -0.584818       -15.9137
  58   2.0000      -0.572424       -15.5764
  59   2.0000      -0.564976       -15.3738
  60   2.0000      -0.560655       -15.2562
  61   2.0000      -0.545603       -14.8466
  62   2.0000      -0.534030       -14.5317
  63   2.0000      -0.530144       -14.4259
  64   2.0000      -0.516491       -14.0544
  65   2.0000      -0.509839       -13.8734
  66   2.0000      -0.499858       -13.6018
  67   2.0000      -0.494990       -13.4694
  68   2.0000      -0.480136       -13.0652
  69   2.0000      -0.463506       -12.6127
  70   2.0000      -0.456457       -12.4208
  71   2.0000      -0.455493       -12.3946
  72   2.0000      -0.354339        -9.6421
  73   2.0000      -0.343367        -9.3435
  74   2.0000      -0.327152        -8.9023
  75   2.0000      -0.315466        -8.5843
  76   2.0000      -0.313061        -8.5188
  77   0.0000       0.076013         2.0684
  78   0.0000       0.114239         3.1086
  79   0.0000       0.121458         3.3050
  80   0.0000       0.136471         3.7136
  81   0.0000       0.140762         3.8303

MULLIKEN ATOMIC CHARGES
-----------------------
   0 C :   -0.287226
   1 C :    0.031288
   2 O :   -0.344358
   3 C :    0.450830
   4 O :   -0.437890
   5 C :   -0.174472
   6 C :    0.145866
   7 C :   -0.284207
   8 N :   -0.120460
   9 C :    0.200862
  10 S :   -0.439008
  11 N :   -0.196196
  12 C :    0.032973
  13 C :    0.058253
  14 C :   -0.160617
  15 C :   -0.134008
  16 C :   -0.278704
  17 C :    0.311716
  18 O :   -0.359183
  19 C :   -0.272127
  20 H :    0.090938
  21 H :    0.095517
  22 H :    0.112230
  23 H :    0.105389
  24 H :    0.108998
  25 H :    0.126408
  26 H :    0.101626
  27 H :    0.128596
  28 H :    0.196658
  29 H :    0.193432
  30 H :    0.153230
  31 H :    0.153023
  32 H :    0.158731
  33 H :    0.127741
  34 H :    0.239951
  35 H :    0.164202
Sum of atomic charges:   -0.0000000

LOEWDIN ATOMIC CHARGES
----------------------
   0 C :    0.104275
   1 C :   -0.016132
   2 O :    0.307301
   3 C :   -0.413846
   4 O :    0.101195
   5 C :   -0.090585
   6 C :   -0.064518
   7 C :    0.124932
   8 N :    0.404969
   9 C :   -0.459141
  10 S :   -0.035765
  11 N :    0.397992
  12 C :   -0.046590
  13 C :   -0.038780
  14 C :    0.022168
  15 C :    0.040808
  16 C :   -0.002250
  17 C :   -0.192464
  18 O :    0.392981
  19 C :    0.028534
  20 H :   -0.030339
  21 H :   -0.026602
  22 H :   -0.024088
  23 H :   -0.026987
  24 H :   -0.026212
  25 H :   -0.008978
  26 H :   -0.021214
  27 H :   -0.009238
  28 H :   -0.059201
  29 H :   -0.063585
  30 H :   -0.005202
  31 H :   -0.025424
  32 H :   -0.021345
  33 H :   -0.036471
  34 H :   -0.154981
  35 H :   -0.025217

  Mayer bond orders larger than 0.100000
B(  0-C ,  1-C ) :   0.9657 B(  0-C , 20-H ) :   0.9779 B(  0-C , 21-H ) :   0.9762
B(  0-C , 22-H ) :   0.9757 B(  1-C ,  2-O ) :   0.8947 B(  1-C , 23-H ) :   0.9848
B(  1-C , 24-H ) :   0.9747 B(  2-O ,  3-C ) :   1.1608 B(  3-C ,  4-O ) :   1.9510
B(  3-C ,  5-C ) :   1.0748 B(  5-C ,  6-C ) :   1.6436 B(  5-C , 12-C ) :   0.9665
B(  6-C ,  7-C ) :   0.9554 B(  6-C ,  8-N ) :   1.1519 B(  7-C , 25-H ) :   0.9652
B(  7-C , 26-H ) :   0.9914 B(  7-C , 27-H ) :   0.9637 B(  8-N ,  9-C ) :   1.1770
B(  8-N , 28-H ) :   0.9487 B(  9-C , 10-S ) :   1.6110 B(  9-C , 11-N ) :   1.3048
B( 11-N , 12-C ) :   0.9935 B( 11-N , 29-H ) :   0.9519 B( 12-C , 13-C ) :   0.9474
B( 12-C , 30-H ) :   1.0005 B( 13-C , 14-C ) :   1.3747 B( 13-C , 19-C ) :   1.3696
B( 14-C , 15-C ) :   1.3945 B( 14-C , 31-H ) :   0.9652 B( 15-C , 16-C ) :   1.3625
B( 15-C , 32-H ) :   0.9715 B( 16-C , 17-C ) :   1.3316 B( 16-C , 33-H ) :   0.9861
B( 17-C , 18-O ) :   1.1079 B( 17-C , 19-C ) :   1.3794 B( 18-O , 34-H ) :   0.9807
B( 19-C , 35-H ) :   0.9585

MP2 TOTAL ENERGY:    -1274.348764795 Eh
FINAL SINGLE POINT ENERGY     -1274.348764795064

DIPOLE MOMENT
-------------
                                X             Y             Z
Electronic contribution:     10.04360       9.04748      12.16929
Nuclear contribution   :    -11.75779     -10.13188     -13.03660
                        -----------------------------------------
Total Dipole Moment    :     -1.71419      -1.08439      -0.86731
                        -----------------------------------------
Magnitude (a.u.)       :      2.20603
Magnitude (Debye)      :      5.60729

Rotational constants in cm-1:     0.010563     0.008717     0.005708
Rotational constants in MHz :   316.679896   261.336416   171.135431

                             ****ORCA TERMINATED NORMALLY****
TOTAL RUN TIME: 0 days 2 hours 20 minutes 46 seconds 759 msec
