                         Program Version 5.0.0 -  RELEASE  -
|  1> ! ri-mp2 cc-pvtz cc-pvtz/c TightSCF NoKeepInts
|  2>
|  3> %scf
|  4>   MaxCore 4096
|  5> end
|  6> *xyz  0  1
|  7>     C       16.2137039   13.1890485   15.6384582
|  8>     C       15.4977753   14.4935004   16.0267178
|  9>     O       16.4547139   15.3170671   16.7133944
| 10>     C       16.2950618   16.6747907   16.7263543
| 11>     O       15.4085886   17.2343335   16.1031290
| 12>     C       17.3205912   17.3712012   17.5777630
| 13>     C       17.3978327   18.7233911   17.6661028
| 14>     C       16.5156642   19.7392715   16.9724502
| 15>     N       18.3988403   19.3194415   18.4391282
| 16>     C       19.4151711   18.6445775   19.0610495
| 17>     S       20.6185271   19.4334613   19.8768279
| 18>     N       19.3863268   17.2763046   18.9709803
| 19>     C       18.2918421   16.4868366   18.3768631
| 20>     C       17.5738608   15.6963123   19.4670638
| 21>     C       17.6248637   14.2896756   19.4798038
| 22>     C       16.9632800   13.5591283   20.4811759
| 23>     C       16.2470772   14.2402866   21.4802001
| 24>     C       16.1972806   15.6410405   21.4727163
| 25>     O       15.5070357   16.3015360   22.4362485
| 26>     C       16.8563411   16.3653242   20.4746201
| 27>     H       16.5730377   12.6652884   16.5329156
| 28>     H       17.0725117   13.3975421   14.9883482
| 29>     H       15.5299112   12.5211362   15.1005920
| 30>     H       15.1442944   14.9837126   15.1090412
| 31>     H       14.6326599   14.2911011   16.6717461
| 32>     H       15.4678153   19.6061022   17.2707419
| 33>     H       16.5641526   19.6132785   15.8833693
| 34>     H       16.7944828   20.7751564   17.1982662
| 35>     H       18.4366405   20.3233464   18.5152095
| 36>     H       20.1275878   16.8046314   19.4728715
| 37>     H       18.7489247   15.7747535   17.6754464
| 38>     H       18.1726066   13.7606276   18.7046345
| 39>     H       17.0061248   12.4714475   20.4805904
| 40>     H       15.7344933   13.6806615   22.2556200
| 41>     H       15.1461200   15.6377572   23.0427677
| 42>     H       16.8112583   17.4489283   20.4907927
| 43> *
| 44>
| 45>                          ****END OF INPUT****

CARTESIAN COORDINATES (ANGSTROEM)
---------------------------------
  C     16.213704   13.189049   15.638458
  C     15.497775   14.493500   16.026718
  O     16.454714   15.317067   16.713394
  C     16.295062   16.674791   16.726354
  O     15.408589   17.234334   16.103129
  C     17.320591   17.371201   17.577763
  C     17.397833   18.723391   17.666103
  C     16.515664   19.739271   16.972450
  N     18.398840   19.319441   18.439128
  C     19.415171   18.644577   19.061049
  S     20.618527   19.433461   19.876828
  N     19.386327   17.276305   18.970980
  C     18.291842   16.486837   18.376863
  C     17.573861   15.696312   19.467064
  C     17.624864   14.289676   19.479804
  C     16.963280   13.559128   20.481176
  C     16.247077   14.240287   21.480200
  C     16.197281   15.641041   21.472716
  O     15.507036   16.301536   22.436249
  C     16.856341   16.365324   20.474620
  H     16.573038   12.665288   16.532916
  H     17.072512   13.397542   14.988348
  H     15.529911   12.521136   15.100592
  H     15.144294   14.983713   15.109041
  H     14.632660   14.291101   16.671746
  H     15.467815   19.606102   17.270742
  H     16.564153   19.613278   15.883369
  H     16.794483   20.775156   17.198266
  H     18.436640   20.323346   18.515209
  H     20.127588   16.804631   19.472872
  H     18.748925   15.774753   17.675446
  H     18.172607   13.760628   18.704634
  H     17.006125   12.471448   20.480590
  H     15.734493   13.680661   22.255620
  H     15.146120   15.637757   23.042768
  H     16.811258   17.448928   20.490793

 Total Charge           Charge          ....    0
 Multiplicity           Mult            ....    1
 Number of Electrons    NEL             ....  154
 Basis Dimension        Dim             ....  828

ORBITAL ENERGIES
----------------

  NO   OCC          E(Eh)            E(eV)
   0   2.0000     -91.888626     -2500.4166
   1   2.0000     -20.603166      -560.6406
   2   2.0000     -20.595369      -560.4285
   3   2.0000     -20.541328      -558.9580
   4   2.0000     -15.628757      -425.2801
   5   2.0000     -15.607952      -424.7140
   6   2.0000     -11.394631      -310.0637
   7   2.0000     -11.383710      -309.7665
   8   2.0000     -11.335655      -308.4589
   9   2.0000     -11.312436      -307.8270
  10   2.0000     -11.308519      -307.7204
  11   2.0000     -11.296212      -307.3856
  12   2.0000     -11.258700      -306.3648
  13   2.0000     -11.258467      -306.3585
  14   2.0000     -11.253932      -306.2350
  15   2.0000     -11.251649      -306.1729
  16   2.0000     -11.241910      -305.9079
  17   2.0000     -11.237463      -305.7869
  18   2.0000     -11.237176      -305.7791
  19   2.0000     -11.232254      -305.6452
  20   2.0000      -8.893688      -242.0095
  21   2.0000      -6.575262      -178.9220
  22   2.0000      -6.573258      -178.8674
  23   2.0000      -6.572671      -178.8515
  24   2.0000      -1.452424       -39.5225
  25   2.0000      -1.415029       -38.5049
  26   2.0000      -1.355012       -36.8717
  27   2.0000      -1.339720       -36.4556
  28   2.0000      -1.238136       -33.6914
  29   2.0000      -1.156610       -31.4729
  30   2.0000      -1.120031       -30.4776
  31   2.0000      -1.043637       -28.3988
  32   2.0000      -1.040035       -28.3008
  33   2.0000      -1.013959       -27.5912
  34   2.0000      -0.995549       -27.0903
  35   2.0000      -0.984126       -26.7794
  36   2.0000      -0.921961       -25.0878
  37   2.0000      -0.889663       -24.2090
  38   2.0000      -0.846335       -23.0300
  39   2.0000      -0.836585       -22.7646
  40   2.0000      -0.832902       -22.6644
  41   2.0000      -0.817251       -22.2385
  42   2.0000      -0.765634       -20.8340
  43   2.0000      -0.731413       -19.9028
  44   2.0000      -0.720805       -19.6141
  45   2.0000      -0.694621       -18.9016
  46   2.0000      -0.685311       -18.6483
  47   2.0000      -0.679425       -18.4881
  48   2.0000      -0.679214       -18.4824
  49   2.0000      -0.663195       -18.0465
  50   2.0000      -0.645705       -17.5705
  51   2.0000      -0.644790       -17.5456
  52   2.0000      -0.635430       -17.2909
  53   2.0000      -0.605612       -16.4795
  54   2.0000      -0.599810       -16.3217
  55   2.0000      -0.597988       -16.2721
  56   2.0000      -0.591907       -16.1066
  57   2.0000      -0.577236       -15.7074
  58   2.0000      -0.570742       -15.5307
  59   2.0000      -0.570175       -15.5153
  60   2.0000      -0.561907       -15.2903
  61   2.0000      -0.551639       -15.0109
  62   2.0000      -0.539960       -14.6931
  63   2.0000      -0.524336       -14.2679
  64   2.0000      -0.522865       -14.2279
  65   2.0000      -0.512926       -13.9574
  66   2.0000      -0.503238       -13.6938
  67   2.0000      -0.498476       -13.5642
  68   2.0000      -0.484535       -13.1849
  69   2.0000      -0.464887       -12.6502
  70   2.0000      -0.459272       -12.4974
  71   2.0000      -0.447534       -12.1780
  72   2.0000      -0.354052        -9.6343
  73   2.0000      -0.348415        -9.4809
  74   2.0000      -0.327912        -8.9230
  75   2.0000      -0.320085        -8.7100
  76   2.0000      -0.315613        -8.5883
  77   0.0000       0.076727         2.0878
  78   0.0000       0.107336         2.9208
  79   0.0000       0.124491         3.3876
  80   0.0000       0.132334         3.6010
  81   0.0000       0.136062         3.7024

MULLIKEN ATOMIC CHARGES
-----------------------
   0 C :   -0.269153
   1 C :    0.030580
   2 O :   -0.340256
   3 C :    0.461789
   4 O :   -0.434644
   5 C :   -0.216443
   6 C :    0.149352
   7 C :   -0.274761
   8 N :   -0.120435
   9 C :    0.210146
  10 S :   -0.439902
  11 N :   -0.202601
  12 C :    0.044773
  13 C :    0.066713
  14 C :   -0.178326
  15 C :   -0.132959
  16 C :   -0.277574
  17 C :    0.315737
  18 O :   -0.356764
  19 C :   -0.269742
  20 H :    0.092043
  21 H :    0.095995
  22 H :    0.097128
  23 H :    0.112708
  24 H :    0.093762
  25 H :    0.132310
  26 H :    0.130727
  27 H :    0.094813
  28 H :    0.197283
  29 H :    0.194295
  30 H :    0.150966
  31 H :    0.149015
  32 H :    0.159082
  33 H :    0.129202
  34 H :    0.240497
  35 H :    0.164644
Sum of atomic charges:    0.0000000

LOEWDIN ATOMIC CHARGES
----------------------
   0 C :    0.105858
   1 C :   -0.014480
   2 O :    0.310788
   3 C :   -0.413200
   4 O :    0.094947
   5 C :   -0.094484
   6 C :   -0.059029
   7 C :    0.131506
   8 N :    0.406482
   9 C :   -0.456774
  10 S :   -0.035560
  11 N :    0.396586
  12 C :   -0.052853
  13 C :   -0.038933
  14 C :    0.014244
  15 C :    0.038783
  16 C :   -0.001284
  17 C :   -0.189524
  18 O :    0.395026
  19 C :    0.031719
  20 H :   -0.030340
  21 H :   -0.026722
  22 H :   -0.024123
  23 H :   -0.027129
  24 H :   -0.029188
  25 H :   -0.004378
  26 H :   -0.004094
  27 H :   -0.023486
  28 H :   -0.057608
  29 H :   -0.064540
  30 H :   -0.011504
  31 H :   -0.031409
  32 H :   -0.021768
  33 H :   -0.035705
  34 H :   -0.154093
  35 H :   -0.023729

  Mayer bond orders larger than 0.100000
B(  0-C ,  1-C ) :   0.9716 B(  0-C , 20-H ) :   0.9789 B(  0-C , 21-H ) :   0.9768
B(  0-C , 22-H ) :   0.9781 B(  1-C ,  2-O ) :   0.8980 B(  1-C , 23-H ) :   0.9778
B(  1-C , 24-H ) :   0.9769 B(  2-O ,  3-C ) :   1.1831 B(  3-C ,  4-O ) :   1.9677
B(  3-C ,  5-C ) :   1.0576 B(  5-C ,  6-C ) :   1.6592 B(  5-C , 12-C ) :   0.9709
B(  6-C ,  7-C ) :   0.9676 B(  6-C ,  8-N ) :   1.1649 B(  7-C , 25-H ) :   0.9606
B(  7-C , 26-H ) :   0.9601 B(  7-C , 27-H ) :   0.9903 B(  8-N ,  9-C ) :   1.1826
B(  8-N , 28-H ) :   0.9480 B(  9-C , 10-S ) :   1.6080 B(  9-C , 11-N ) :   1.3043
B( 11-N , 12-C ) :   0.9897 B( 11-N , 29-H ) :   0.9516 B( 12-C , 13-C ) :   0.9365
B( 12-C , 30-H ) :   1.0039 B( 13-C , 14-C ) :   1.3593 B( 13-C , 19-C ) :   1.3814
B( 14-C , 15-C ) :   1.3915 B( 14-C , 31-H ) :   0.9707 B( 15-C , 16-C ) :   1.3647
B( 15-C , 32-H ) :   0.9708 B( 16-C , 17-C ) :   1.3323 B( 16-C , 33-H ) :   0.9853
B( 17-C , 18-O ) :   1.1098 B( 17-C , 19-C ) :   1.3737 B( 18-O , 34-H ) :   0.9801
B( 19-C , 35-H ) :   0.9583

MP2 TOTAL ENERGY:    -1274.351610087 Eh
FINAL SINGLE POINT ENERGY     -1274.351610087228

DIPOLE MOMENT
-------------
                                X             Y             Z
Electronic contribution:      8.47952      10.82196       8.99732
Nuclear contribution   :     -9.67669     -12.41407      -9.43433
                        -----------------------------------------
Total Dipole Moment    :     -1.19718      -1.59210      -0.43701
                        -----------------------------------------
Magnitude (a.u.)       :      2.03936
Magnitude (Debye)      :      5.18365

Rotational constants in cm-1:     0.011184     0.008565     0.006129
Rotational constants in MHz :   335.292706   256.767947   183.744423

                             ****ORCA TERMINATED NORMALLY****
TOTAL RUN TIME: 0 days 1 hours 55 minutes 24 seconds 739 msec
