                         Program Version 5.0.0 -  RELEASE  -
|  1> ! ri-mp2 cc-pvtz cc-pvtz/c TightSCF NoKeepInts
|  2>
|  3> %scf
|  4>   MaxCore 4096
|  5> end
|  6> *xyz  0  1
|  7>     C       14.8981088   14.1364999   16.2113097
|  8>     C       16.1177662   14.6500393   16.9937688
|  9>     O       17.0356970   15.1903858   16.0290032
| 10>     C       17.3918161   16.5114372   16.0030573
| 11>     O       17.4061446   17.1021348   14.9393729
| 12>     C       17.6432680   17.2055798   17.3150290
| 13>     C       17.3206632   18.5129697   17.4774587
| 14>     C       16.4975153   19.3686603   16.5397509
| 15>     N       17.8171690   19.2245561   18.5736327
| 16>     C       18.8570209   18.7931640   19.3559027
| 17>     S       19.5736955   19.7701224   20.4814350
| 18>     N       19.2867837   17.5069300   19.1388354
| 19>     C       18.5375451   16.5053108   18.3572343
| 20>     C       17.8052128   15.5988462   19.3409031
| 21>     C       18.2529075   14.2809397   19.5531363
| 22>     C       17.5916907   13.4388527   20.4628644
| 23>     C       16.4809270   13.9209257   21.1758191
| 24>     C       16.0445284   15.2384433   20.9829181
| 25>     O       14.9748089   15.7090671   21.6713743
| 26>     C       16.7026244   16.0736795   20.0750091
| 27>     H       14.4204980   14.9546257   15.6574754
| 28>     H       14.1565960   13.7034506   16.8935987
| 29>     H       15.1978542   13.3631319   15.4929153
| 30>     H       15.7728425   15.4105334   17.7033553
| 31>     H       16.5780890   13.8172207   17.5391001
| 32>     H       15.6574871   18.7993680   16.1224233
| 33>     H       17.1112631   19.7079293   15.6948905
| 34>     H       16.0797369   20.2538528   17.0335726
| 35>     H       17.5340742   20.1811120   18.7171304
| 36>     H       20.0478788   17.2118644   19.7370550
| 37>     H       19.2672609   15.8952865   17.8056431
| 38>     H       19.1145525   13.9046854   19.0072400
| 39>     H       17.9430341   12.4196052   20.6169594
| 40>     H       15.9682905   13.2743377   21.8808884
| 41>     H       14.7067534   15.0229904   22.3016692
| 42>     H       16.3548955   17.0934614   19.9522683
| 43> *
| 44>
| 45>                          ****END OF INPUT****

CARTESIAN COORDINATES (ANGSTROEM)
---------------------------------
  C     14.898109   14.136500   16.211310
  C     16.117766   14.650039   16.993769
  O     17.035697   15.190386   16.029003
  C     17.391816   16.511437   16.003057
  O     17.406145   17.102135   14.939373
  C     17.643268   17.205580   17.315029
  C     17.320663   18.512970   17.477459
  C     16.497515   19.368660   16.539751
  N     17.817169   19.224556   18.573633
  C     18.857021   18.793164   19.355903
  S     19.573695   19.770122   20.481435
  N     19.286784   17.506930   19.138835
  C     18.537545   16.505311   18.357234
  C     17.805213   15.598846   19.340903
  C     18.252907   14.280940   19.553136
  C     17.591691   13.438853   20.462864
  C     16.480927   13.920926   21.175819
  C     16.044528   15.238443   20.982918
  O     14.974809   15.709067   21.671374
  C     16.702624   16.073680   20.075009
  H     14.420498   14.954626   15.657475
  H     14.156596   13.703451   16.893599
  H     15.197854   13.363132   15.492915
  H     15.772842   15.410533   17.703355
  H     16.578089   13.817221   17.539100
  H     15.657487   18.799368   16.122423
  H     17.111263   19.707929   15.694890
  H     16.079737   20.253853   17.033573
  H     17.534074   20.181112   18.717130
  H     20.047879   17.211864   19.737055
  H     19.267261   15.895286   17.805643
  H     19.114552   13.904685   19.007240
  H     17.943034   12.419605   20.616959
  H     15.968291   13.274338   21.880888
  H     14.706753   15.022990   22.301669
  H     16.354896   17.093461   19.952268

 Total Charge           Charge          ....    0
 Multiplicity           Mult            ....    1
 Number of Electrons    NEL             ....  154
 Basis Dimension        Dim             ....  828

ORBITAL ENERGIES
----------------

  NO   OCC          E(Eh)            E(eV)
   0   2.0000     -91.891947     -2500.5070
   1   2.0000     -20.605160      -560.6949
   2   2.0000     -20.592665      -560.3549
   3   2.0000     -20.545255      -559.0648
   4   2.0000     -15.630910      -425.3387
   5   2.0000     -15.611838      -424.8197
   6   2.0000     -11.393617      -310.0361
   7   2.0000     -11.386714      -309.8482
   8   2.0000     -11.334790      -308.4353
   9   2.0000     -11.323466      -308.1272
  10   2.0000     -11.319050      -308.0070
  11   2.0000     -11.295283      -307.3603
  12   2.0000     -11.268598      -306.6341
  13   2.0000     -11.264876      -306.5328
  14   2.0000     -11.260842      -306.4231
  15   2.0000     -11.255235      -306.2705
  16   2.0000     -11.252514      -306.1965
  17   2.0000     -11.247410      -306.0576
  18   2.0000     -11.246251      -306.0260
  19   2.0000     -11.225202      -305.4533
  20   2.0000      -8.896948      -242.0983
  21   2.0000      -6.578508      -179.0103
  22   2.0000      -6.576519      -178.9562
  23   2.0000      -6.575919      -178.9399
  24   2.0000      -1.445506       -39.3342
  25   2.0000      -1.424830       -38.7716
  26   2.0000      -1.355479       -36.8845
  27   2.0000      -1.343181       -36.5498
  28   2.0000      -1.242399       -33.8074
  29   2.0000      -1.165929       -31.7265
  30   2.0000      -1.123284       -30.5661
  31   2.0000      -1.050089       -28.5744
  32   2.0000      -1.033834       -28.1320
  33   2.0000      -1.024798       -27.8862
  34   2.0000      -1.001891       -27.2629
  35   2.0000      -0.988128       -26.8883
  36   2.0000      -0.928604       -25.2686
  37   2.0000      -0.880342       -23.9553
  38   2.0000      -0.852922       -23.2092
  39   2.0000      -0.848327       -23.0841
  40   2.0000      -0.842696       -22.9309
  41   2.0000      -0.835028       -22.7223
  42   2.0000      -0.760035       -20.6816
  43   2.0000      -0.738802       -20.1038
  44   2.0000      -0.719958       -19.5910
  45   2.0000      -0.704967       -19.1831
  46   2.0000      -0.695105       -18.9148
  47   2.0000      -0.678371       -18.4594
  48   2.0000      -0.673836       -18.3360
  49   2.0000      -0.669501       -18.2180
  50   2.0000      -0.653907       -17.7937
  51   2.0000      -0.647333       -17.6148
  52   2.0000      -0.640658       -17.4332
  53   2.0000      -0.615797       -16.7567
  54   2.0000      -0.608877       -16.5684
  55   2.0000      -0.603755       -16.4290
  56   2.0000      -0.588890       -16.0245
  57   2.0000      -0.585089       -15.9211
  58   2.0000      -0.576715       -15.6932
  59   2.0000      -0.572767       -15.5858
  60   2.0000      -0.562096       -15.2954
  61   2.0000      -0.549930       -14.9644
  62   2.0000      -0.542675       -14.7670
  63   2.0000      -0.533410       -14.5148
  64   2.0000      -0.522402       -14.2153
  65   2.0000      -0.517148       -14.0723
  66   2.0000      -0.508846       -13.8464
  67   2.0000      -0.503385       -13.6978
  68   2.0000      -0.484566       -13.1857
  69   2.0000      -0.466757       -12.7011
  70   2.0000      -0.449993       -12.2449
  71   2.0000      -0.446547       -12.1511
  72   2.0000      -0.360758        -9.8167
  73   2.0000      -0.356087        -9.6896
  74   2.0000      -0.333628        -9.0785
  75   2.0000      -0.329129        -8.9561
  76   2.0000      -0.319006        -8.6806
  77   0.0000       0.073058         1.9880
  78   0.0000       0.098028         2.6675
  79   0.0000       0.117812         3.2058
  80   0.0000       0.126704         3.4478
  81   0.0000       0.127935         3.4813

MULLIKEN ATOMIC CHARGES
-----------------------
   0 C :   -0.254829
   1 C :    0.023695
   2 O :   -0.324963
   3 C :    0.418609
   4 O :   -0.377779
   5 C :   -0.263197
   6 C :    0.153964
   7 C :   -0.273641
   8 N :   -0.130094
   9 C :    0.209818
  10 S :   -0.433387
  11 N :   -0.193098
  12 C :    0.047130
  13 C :    0.042371
  14 C :   -0.211595
  15 C :   -0.125238
  16 C :   -0.272865
  17 C :    0.309626
  18 O :   -0.354826
  19 C :   -0.250140
  20 H :    0.095140
  21 H :    0.087128
  22 H :    0.101699
  23 H :    0.097502
  24 H :    0.107841
  25 H :    0.119987
  26 H :    0.143378
  27 H :    0.094621
  28 H :    0.198940
  29 H :    0.190555
  30 H :    0.150432
  31 H :    0.155838
  32 H :    0.166026
  33 H :    0.134735
  34 H :    0.242512
  35 H :    0.174105
Sum of atomic charges:    0.0000000

LOEWDIN ATOMIC CHARGES
----------------------
   0 C :    0.106979
   1 C :   -0.026602
   2 O :    0.304804
   3 C :   -0.424925
   4 O :    0.122896
   5 C :   -0.097696
   6 C :   -0.070986
   7 C :    0.129588
   8 N :    0.405961
   9 C :   -0.455443
  10 S :   -0.030361
  11 N :    0.396314
  12 C :   -0.050814
  13 C :   -0.039937
  14 C :    0.010901
  15 C :    0.042814
  16 C :    0.000936
  17 C :   -0.190089
  18 O :    0.397195
  19 C :    0.032805
  20 H :   -0.026632
  21 H :   -0.027834
  22 H :   -0.025510
  23 H :   -0.036201
  24 H :   -0.029041
  25 H :   -0.007786
  26 H :   -0.002133
  27 H :   -0.022112
  28 H :   -0.057186
  29 H :   -0.065737
  30 H :   -0.004828
  31 H :   -0.030011
  32 H :   -0.019007
  33 H :   -0.033422
  34 H :   -0.151739
  35 H :   -0.025161

  Mayer bond orders larger than 0.100000
B(  0-C ,  1-C ) :   0.9764 B(  0-C , 20-H ) :   0.9773 B(  0-C , 21-H ) :   0.9773
B(  0-C , 22-H ) :   0.9812 B(  1-C ,  2-O ) :   0.8880 B(  1-C , 23-H ) :   0.9618
B(  1-C , 24-H ) :   0.9753 B(  2-O ,  3-C ) :   1.1867 B(  3-C ,  4-O ) :   2.0894
B(  3-C ,  5-C ) :   0.9644 B(  5-C ,  6-C ) :   1.6821 B(  5-C , 12-C ) :   0.9690
B(  6-C ,  7-C ) :   0.9656 B(  6-C ,  8-N ) :   1.1394 B(  7-C , 25-H ) :   0.9723
B(  7-C , 26-H ) :   0.9546 B(  7-C , 27-H ) :   0.9839 B(  8-N ,  9-C ) :   1.1820
B(  8-N , 28-H ) :   0.9498 B(  9-C , 10-S ) :   1.6194 B(  9-C , 11-N ) :   1.2924
B( 11-N , 12-C ) :   0.9737 B( 11-N , 29-H ) :   0.9544 B( 12-C , 13-C ) :   0.9557
B( 12-C , 30-H ) :   1.0036 B( 13-C , 14-C ) :   1.3550 B( 13-C , 19-C ) :   1.3548
B( 14-C , 15-C ) :   1.3817 B( 14-C , 31-H ) :   0.9744 B( 15-C , 16-C ) :   1.3732
B( 15-C , 32-H ) :   0.9688 B( 16-C , 17-C ) :   1.3229 B( 16-C , 33-H ) :   0.9830
B( 17-C , 18-O ) :   1.1164 B( 17-C , 19-C ) :   1.3809 B( 18-O , 34-H ) :   0.9785
B( 19-C , 35-H ) :   0.9551

MP2 TOTAL ENERGY:    -1274.331235056 Eh
FINAL SINGLE POINT ENERGY     -1274.331235055613

DIPOLE MOMENT
-------------
                                X             Y             Z
Electronic contribution:     10.65631       9.09453       6.12992
Nuclear contribution   :    -11.97801     -10.72997      -5.45112
                        -----------------------------------------
Total Dipole Moment    :     -1.32170      -1.63544       0.67880
                        -----------------------------------------
Magnitude (a.u.)       :      2.20960
Magnitude (Debye)      :      5.61636

Rotational constants in cm-1:     0.011304     0.009641     0.006400
Rotational constants in MHz :   338.872706   289.035143   191.857915

                             ****ORCA TERMINATED NORMALLY****
TOTAL RUN TIME: 0 days 1 hours 55 minutes 34 seconds 420 msec
