                         Program Version 5.0.0 -  RELEASE  -
|  1> ! ri-mp2 cc-pvtz cc-pvtz/c TightSCF NoKeepInts
|  2>
|  3> %scf
|  4>   MaxCore 4096
|  5> end
|  6> *xyz  0  1
|  7>     C       14.9395137   15.4102449   17.5819315
|  8>     C       15.6865504   15.2250642   16.2494831
|  9>     O       17.0430480   14.8260797   16.5110725
| 10>     C       18.1162989   15.6762452   16.4654929
| 11>     O       19.2218385   15.1827306   16.3430281
| 12>     C       17.9623124   16.8600808   17.3609283
| 13>     C       17.4365080   18.0295795   16.9310150
| 14>     C       16.9368592   18.3484310   15.5387933
| 15>     N       17.3998952   19.1328929   17.7863877
| 16>     C       17.9902611   19.1803446   19.0222852
| 17>     S       17.9647913   20.5531061   19.9437931
| 18>     N       18.6058429   18.0321055   19.4562285
| 19>     C       18.5746412   16.7300794   18.7591621
| 20>     C       17.8797954   15.6562954   19.5950533
| 21>     C       18.3323848   14.3250224   19.5365942
| 22>     C       17.7048763   13.3185831   20.2890459
| 23>     C       16.6139791   13.6439286   21.1122109
| 24>     C       16.1588450   14.9674967   21.1752175
| 25>     O       15.0985195   15.2831895   21.9605351
| 26>     C       16.7851368   15.9678728   20.4248982
| 27>     H       15.1084818   14.5504158   18.2429956
| 28>     H       13.8604536   15.4999504   17.4083374
| 29>     H       15.2723338   16.3168805   18.0990833
| 30>     H       15.1947527   14.4111827   15.7008287
| 31>     H       15.6237062   16.1194337   15.6238871
| 32>     H       17.2431041   17.5935474   14.8043633
| 33>     H       17.3455913   19.3048686   15.1877180
| 34>     H       15.8428499   18.4261251   15.5195155
| 35>     H       16.9693121   19.9912325   17.4802926
| 36>     H       19.0220008   18.0919381   20.3769754
| 37>     H       19.6187080   16.4105668   18.6242796
| 38>     H       19.1677798   14.0666057   18.8889551
| 39>     H       18.0624666   12.2922817   20.2265244
| 40>     H       16.1247026   12.8688985   21.6926785
| 41>     H       14.8324713   14.4762488   22.4265427
| 42>     H       16.4063879   16.9824505   20.4878665
| 43> *
| 44>
| 45>                          ****END OF INPUT****

CARTESIAN COORDINATES (ANGSTROEM)
---------------------------------
  C     14.939514   15.410245   17.581931
  C     15.686550   15.225064   16.249483
  O     17.043048   14.826080   16.511073
  C     18.116299   15.676245   16.465493
  O     19.221839   15.182731   16.343028
  C     17.962312   16.860081   17.360928
  C     17.436508   18.029580   16.931015
  C     16.936859   18.348431   15.538793
  N     17.399895   19.132893   17.786388
  C     17.990261   19.180345   19.022285
  S     17.964791   20.553106   19.943793
  N     18.605843   18.032105   19.456229
  C     18.574641   16.730079   18.759162
  C     17.879795   15.656295   19.595053
  C     18.332385   14.325022   19.536594
  C     17.704876   13.318583   20.289046
  C     16.613979   13.643929   21.112211
  C     16.158845   14.967497   21.175217
  O     15.098519   15.283190   21.960535
  C     16.785137   15.967873   20.424898
  H     15.108482   14.550416   18.242996
  H     13.860454   15.499950   17.408337
  H     15.272334   16.316880   18.099083
  H     15.194753   14.411183   15.700829
  H     15.623706   16.119434   15.623887
  H     17.243104   17.593547   14.804363
  H     17.345591   19.304869   15.187718
  H     15.842850   18.426125   15.519516
  H     16.969312   19.991232   17.480293
  H     19.022001   18.091938   20.376975
  H     19.618708   16.410567   18.624280
  H     19.167780   14.066606   18.888955
  H     18.062467   12.292282   20.226524
  H     16.124703   12.868899   21.692678
  H     14.832471   14.476249   22.426543
  H     16.406388   16.982450   20.487866

 Total Charge           Charge          ....    0
 Multiplicity           Mult            ....    1
 Number of Electrons    NEL             ....  154
 Basis Dimension        Dim             ....  828

ORBITAL ENERGIES
----------------

  NO   OCC          E(Eh)            E(eV)
   0   2.0000     -91.888169     -2500.4042
   1   2.0000     -20.599824      -560.5497
   2   2.0000     -20.596293      -560.4536
   3   2.0000     -20.559250      -559.4456
   4   2.0000     -15.623789      -425.1449
   5   2.0000     -15.610476      -424.7827
   6   2.0000     -11.398452      -310.1676
   7   2.0000     -11.384942      -309.8000
   8   2.0000     -11.324207      -308.1473
   9   2.0000     -11.315929      -307.9221
  10   2.0000     -11.312455      -307.8276
  11   2.0000     -11.306338      -307.6611
  12   2.0000     -11.271728      -306.7193
  13   2.0000     -11.266778      -306.5846
  14   2.0000     -11.260742      -306.4204
  15   2.0000     -11.253043      -306.2109
  16   2.0000     -11.242398      -305.9212
  17   2.0000     -11.238105      -305.8044
  18   2.0000     -11.235353      -305.7295
  19   2.0000     -11.227993      -305.5292
  20   2.0000      -8.893304      -241.9991
  21   2.0000      -6.574903      -178.9122
  22   2.0000      -6.572866      -178.8568
  23   2.0000      -6.572300      -178.8414
  24   2.0000      -1.454875       -39.5892
  25   2.0000      -1.416120       -38.5346
  26   2.0000      -1.363392       -37.0998
  27   2.0000      -1.338290       -36.4167
  28   2.0000      -1.238426       -33.6993
  29   2.0000      -1.157511       -31.4975
  30   2.0000      -1.123926       -30.5836
  31   2.0000      -1.047065       -28.4921
  32   2.0000      -1.039126       -28.2761
  33   2.0000      -1.015716       -27.6390
  34   2.0000      -1.004252       -27.3271
  35   2.0000      -0.988260       -26.8919
  36   2.0000      -0.926564       -25.2131
  37   2.0000      -0.891308       -24.2537
  38   2.0000      -0.853085       -23.2136
  39   2.0000      -0.839079       -22.8325
  40   2.0000      -0.833089       -22.6695
  41   2.0000      -0.831491       -22.6260
  42   2.0000      -0.756771       -20.5928
  43   2.0000      -0.738031       -20.0828
  44   2.0000      -0.729569       -19.8526
  45   2.0000      -0.694574       -18.9003
  46   2.0000      -0.688453       -18.7338
  47   2.0000      -0.682381       -18.5685
  48   2.0000      -0.676086       -18.3972
  49   2.0000      -0.664621       -18.0853
  50   2.0000      -0.651493       -17.7280
  51   2.0000      -0.639476       -17.4010
  52   2.0000      -0.637390       -17.3443
  53   2.0000      -0.617094       -16.7920
  54   2.0000      -0.610989       -16.6259
  55   2.0000      -0.605214       -16.4687
  56   2.0000      -0.600790       -16.3483
  57   2.0000      -0.590134       -16.0584
  58   2.0000      -0.580469       -15.7954
  59   2.0000      -0.573141       -15.5959
  60   2.0000      -0.564327       -15.3561
  61   2.0000      -0.557567       -15.1722
  62   2.0000      -0.540095       -14.6967
  63   2.0000      -0.527342       -14.3497
  64   2.0000      -0.517112       -14.0713
  65   2.0000      -0.511750       -13.9254
  66   2.0000      -0.502897       -13.6845
  67   2.0000      -0.500148       -13.6097
  68   2.0000      -0.486721       -13.2443
  69   2.0000      -0.464783       -12.6474
  70   2.0000      -0.456933       -12.4338
  71   2.0000      -0.452157       -12.3038
  72   2.0000      -0.355815        -9.6822
  73   2.0000      -0.346755        -9.4357
  74   2.0000      -0.328005        -8.9255
  75   2.0000      -0.320679        -8.7261
  76   2.0000      -0.316692        -8.6176
  77   0.0000       0.090453         2.4614
  78   0.0000       0.100173         2.7259
  79   0.0000       0.111370         3.0305
  80   0.0000       0.127426         3.4674
  81   0.0000       0.131074         3.5667

MULLIKEN ATOMIC CHARGES
-----------------------
   0 C :   -0.297744
   1 C :   -0.003889
   2 O :   -0.311183
   3 C :    0.387800
   4 O :   -0.364750
   5 C :   -0.163523
   6 C :    0.128868
   7 C :   -0.332503
   8 N :   -0.136203
   9 C :    0.209396
  10 S :   -0.444763
  11 N :   -0.229813
  12 C :    0.081070
  13 C :    0.050044
  14 C :   -0.203443
  15 C :   -0.133386
  16 C :   -0.280920
  17 C :    0.322077
  18 O :   -0.359639
  19 C :   -0.290366
  20 H :    0.119462
  21 H :    0.109127
  22 H :    0.102726
  23 H :    0.128272
  24 H :    0.087949
  25 H :    0.118329
  26 H :    0.136386
  27 H :    0.123091
  28 H :    0.194770
  29 H :    0.203004
  30 H :    0.169039
  31 H :    0.165941
  32 H :    0.162503
  33 H :    0.131487
  34 H :    0.240911
  35 H :    0.179872
Sum of atomic charges:    0.0000000

LOEWDIN ATOMIC CHARGES
----------------------
   0 C :    0.104858
   1 C :   -0.026490
   2 O :    0.318496
   3 C :   -0.421751
   4 O :    0.139982
   5 C :   -0.075186
   6 C :   -0.112510
   7 C :    0.119823
   8 N :    0.399938
   9 C :   -0.456606
  10 S :   -0.041045
  11 N :    0.398566
  12 C :   -0.040626
  13 C :   -0.040385
  14 C :    0.024339
  15 C :    0.043613
  16 C :   -0.002493
  17 C :   -0.193851
  18 O :    0.395033
  19 C :    0.029108
  20 H :   -0.018721
  21 H :   -0.027161
  22 H :   -0.034136
  23 H :   -0.022282
  24 H :   -0.039312
  25 H :   -0.012164
  26 H :   -0.009704
  27 H :   -0.017710
  28 H :   -0.059387
  29 H :   -0.063544
  30 H :   -0.001869
  31 H :   -0.022515
  32 H :   -0.019135
  33 H :   -0.035413
  34 H :   -0.153852
  35 H :   -0.025909

  Mayer bond orders larger than 0.100000
B(  0-C ,  1-C ) :   0.9638 B(  0-C , 20-H ) :   0.9709 B(  0-C , 21-H ) :   0.9771
B(  0-C , 22-H ) :   0.9717 B(  1-C ,  2-O ) :   0.9141 B(  1-C , 23-H ) :   0.9858
B(  1-C , 24-H ) :   0.9766 B(  2-O ,  3-C ) :   1.1116 B(  3-C ,  4-O ) :   2.0929
B(  3-C ,  5-C ) :   0.9218 B(  5-C ,  6-C ) :   1.7188 B(  5-C , 12-C ) :   0.9530
B(  6-C ,  7-C ) :   0.9372 B(  6-C ,  8-N ) :   1.1001 B(  7-C , 25-H ) :   0.9835
B(  7-C , 26-H ) :   0.9725 B(  7-C , 27-H ) :   0.9671 B(  8-N ,  9-C ) :   1.2019
B(  8-N , 28-H ) :   0.9541 B(  9-C , 10-S ) :   1.6041 B(  9-C , 11-N ) :   1.2851
B( 11-N , 12-C ) :   0.9851 B( 11-N , 29-H ) :   0.9465 B( 12-C , 13-C ) :   0.9509
B( 12-C , 30-H ) :   0.9965 B( 13-C , 14-C ) :   1.3842 B( 13-C , 19-C ) :   1.3346
B( 14-C , 15-C ) :   1.4039 B( 14-C , 31-H ) :   0.9629 B( 15-C , 16-C ) :   1.3554
B( 15-C , 32-H ) :   0.9704 B( 16-C , 17-C ) :   1.3335 B( 16-C , 33-H ) :   0.9852
B( 17-C , 18-O ) :   1.1068 B( 17-C , 19-C ) :   1.3645 B( 18-O , 34-H ) :   0.9798
B( 19-C , 35-H ) :   0.9566

MP2 TOTAL ENERGY:    -1274.316181593 Eh
FINAL SINGLE POINT ENERGY     -1274.316181592990

DIPOLE MOMENT
-------------
                                X             Y             Z
Electronic contribution:      9.37919       6.30528       6.36626
Nuclear contribution   :    -10.86102      -7.49287      -7.30307
                        -----------------------------------------
Total Dipole Moment    :     -1.48183      -1.18759      -0.93681
                        -----------------------------------------
Magnitude (a.u.)       :      2.11750
Magnitude (Debye)      :      5.38225

Rotational constants in cm-1:     0.012253     0.009447     0.006876
Rotational constants in MHz :   367.322690   283.218230   206.139228

                             ****ORCA TERMINATED NORMALLY****
TOTAL RUN TIME: 0 days 2 hours 54 minutes 32 seconds 213 msec
