                         Program Version 4.2.0 -  RELEASE  -
|  1> ! ri-mp2 cc-pvtz cc-pvtz/c TightSCF  NoKeepInts
|  2>
|  3> %scf
|  4>   MaxCore 4096
|  5> end
|  6> *xyz  0  1
|  7>     C       14.3122524   15.2634966   16.4349387
|  8>     C       15.7726645   14.8432353   16.6692360
|  9>     O       16.6154935   15.7430713   15.9299038
| 10>     C       17.8810174   15.9185806   16.4023332
| 11>     O       18.6383587   14.9659323   16.4704952
| 12>     C       17.9406007   17.0216127   17.4140238
| 13>     C       17.2978209   18.2049330   17.2586611
| 14>     C       16.4669480   18.6444462   16.0715162
| 15>     N       17.4405084   19.2055268   18.2243437
| 16>     C       18.3124102   19.1511804   19.2805520
| 17>     S       18.5076463   20.4268706   20.3146455
| 18>     N       19.0147912   17.9818620   19.4372560
| 19>     C       18.7885004   16.7483673   18.6591164
| 20>     C       18.1347466   15.6756602   19.5262541
| 21>     C       18.6852612   14.3827852   19.5956626
| 22>     C       18.0748720   13.3846291   20.3733096
| 23>     C       16.9017153   13.6800178   21.0881039
| 24>     C       16.3474330   14.9651211   21.0188247
| 25>     O       15.2079577   15.2506796   21.6975352
| 26>     C       16.9566609   15.9562514   20.2430591
| 27>     H       14.1302295   16.2716741   16.8256097
| 28>     H       13.6294156   14.5725678   16.9442545
| 29>     H       14.0739675   15.2545227   15.3640000
| 30>     H       15.9908206   14.8955413   17.7445442
| 31>     H       15.9387830   13.8105800   16.3345703
| 32>     H       15.4462608   18.2508416   16.1441899
| 33>     H       16.8983134   18.2809146   15.1304033
| 34>     H       16.4016869   19.7364139   15.9906128
| 35>     H       16.9356880   20.0719757   18.1248293
| 36>     H       19.6306689   17.9594029   20.2400022
| 37>     H       19.7684011   16.3763992   18.3260600
| 38>     H       19.5815415   14.1459497   19.0268744
| 39>     H       18.5087678   12.3869615   20.4136996
| 40>     H       16.4259968   12.9111083   21.6878809
| 41>     H       14.9787234   14.4689112   22.2225248
| 42>     H       16.5100759   16.9439759   20.2041733
| 43> *
| 44>
| 45>                          ****END OF INPUT****

CARTESIAN COORDINATES (ANGSTROEM)
---------------------------------
  C     14.312252   15.263497   16.434939
  C     15.772664   14.843235   16.669236
  O     16.615493   15.743071   15.929904
  C     17.881017   15.918581   16.402333
  O     18.638359   14.965932   16.470495
  C     17.940601   17.021613   17.414024
  C     17.297821   18.204933   17.258661
  C     16.466948   18.644446   16.071516
  N     17.440508   19.205527   18.224344
  C     18.312410   19.151180   19.280552
  S     18.507646   20.426871   20.314646
  N     19.014791   17.981862   19.437256
  C     18.788500   16.748367   18.659116
  C     18.134747   15.675660   19.526254
  C     18.685261   14.382785   19.595663
  C     18.074872   13.384629   20.373310
  C     16.901715   13.680018   21.088104
  C     16.347433   14.965121   21.018825
  O     15.207958   15.250680   21.697535
  C     16.956661   15.956251   20.243059
  H     14.130229   16.271674   16.825610
  H     13.629416   14.572568   16.944254
  H     14.073968   15.254523   15.364000
  H     15.990821   14.895541   17.744544
  H     15.938783   13.810580   16.334570
  H     15.446261   18.250842   16.144190
  H     16.898313   18.280915   15.130403
  H     16.401687   19.736414   15.990613
  H     16.935688   20.071976   18.124829
  H     19.630669   17.959403   20.240002
  H     19.768401   16.376399   18.326060
  H     19.581541   14.145950   19.026874
  H     18.508768   12.386961   20.413700
  H     16.425997   12.911108   21.687881
  H     14.978723   14.468911   22.222525
  H     16.510076   16.943976   20.204173

 Total Charge           Charge          ....    0
 Multiplicity           Mult            ....    1
 Number of Electrons    NEL             ....  154
 Basis Dimension        Dim             ....  828

ORBITAL ENERGIES
----------------

  NO   OCC          E(Eh)            E(eV)
   0   2.0000     -91.889785     -2500.4482
   1   2.0000     -20.597539      -560.4875
   2   2.0000     -20.580709      -560.0296
   3   2.0000     -20.557317      -559.3930
   4   2.0000     -15.629210      -425.2924
   5   2.0000     -15.609369      -424.7525
   6   2.0000     -11.393579      -310.0350
   7   2.0000     -11.385368      -309.8116
   8   2.0000     -11.333468      -308.3993
   9   2.0000     -11.314053      -307.8710
  10   2.0000     -11.310152      -307.7649
  11   2.0000     -11.297530      -307.4214
  12   2.0000     -11.261256      -306.4344
  13   2.0000     -11.260303      -306.4084
  14   2.0000     -11.259431      -306.3847
  15   2.0000     -11.254061      -306.2386
  16   2.0000     -11.243741      -305.9578
  17   2.0000     -11.239457      -305.8412
  18   2.0000     -11.236504      -305.7608
  19   2.0000     -11.232810      -305.6603
  20   2.0000      -8.894858      -242.0414
  21   2.0000      -6.576435      -178.9539
  22   2.0000      -6.574426      -178.8992
  23   2.0000      -6.573840      -178.8833
  24   2.0000      -1.452996       -39.5380
  25   2.0000      -1.417373       -38.5687
  26   2.0000      -1.356280       -36.9063
  27   2.0000      -1.340449       -36.4755
  28   2.0000      -1.238787       -33.7091
  29   2.0000      -1.158012       -31.5111
  30   2.0000      -1.122369       -30.5412
  31   2.0000      -1.046006       -28.4633
  32   2.0000      -1.035134       -28.1674
  33   2.0000      -1.015587       -27.6355
  34   2.0000      -1.000534       -27.2259
  35   2.0000      -0.986511       -26.8443
  36   2.0000      -0.924630       -25.1605
  37   2.0000      -0.881185       -23.9783
  38   2.0000      -0.849187       -23.1075
  39   2.0000      -0.840242       -22.8641
  40   2.0000      -0.834016       -22.6947
  41   2.0000      -0.828424       -22.5426
  42   2.0000      -0.756988       -20.5987
  43   2.0000      -0.735762       -20.0211
  44   2.0000      -0.729525       -19.8514
  45   2.0000      -0.695653       -18.9297
  46   2.0000      -0.686516       -18.6811
  47   2.0000      -0.681755       -18.5515
  48   2.0000      -0.675788       -18.3891
  49   2.0000      -0.656130       -17.8542
  50   2.0000      -0.653586       -17.7850
  51   2.0000      -0.643196       -17.5022
  52   2.0000      -0.635060       -17.2809
  53   2.0000      -0.614605       -16.7243
  54   2.0000      -0.606214       -16.4959
  55   2.0000      -0.604072       -16.4376
  56   2.0000      -0.601133       -16.3576
  57   2.0000      -0.579018       -15.7559
  58   2.0000      -0.575685       -15.6652
  59   2.0000      -0.566418       -15.4130
  60   2.0000      -0.558871       -15.2077
  61   2.0000      -0.548479       -14.9249
  62   2.0000      -0.546200       -14.8629
  63   2.0000      -0.523329       -14.2405
  64   2.0000      -0.516422       -14.0525
  65   2.0000      -0.513132       -13.9630
  66   2.0000      -0.504172       -13.7192
  67   2.0000      -0.498956       -13.5773
  68   2.0000      -0.481781       -13.1099
  69   2.0000      -0.466631       -12.6977
  70   2.0000      -0.455791       -12.4027
  71   2.0000      -0.453395       -12.3375
  72   2.0000      -0.355716        -9.6795
  73   2.0000      -0.349429        -9.5084
  74   2.0000      -0.329111        -8.9556
  75   2.0000      -0.321373        -8.7450
  76   2.0000      -0.316864        -8.6223
  77   0.0000       0.069390         1.8882
  78   0.0000       0.102554         2.7906
  79   0.0000       0.118406         3.2220
  80   0.0000       0.130708         3.5567
  81   0.0000       0.134041         3.6474

MULLIKEN ATOMIC CHARGES
-----------------------
   0 C :   -0.282068
   1 C :    0.044485
   2 O :   -0.374004
   3 C :    0.459072
   4 O :   -0.390621
   5 C :   -0.203973
   6 C :    0.130578
   7 C :   -0.283812
   8 N :   -0.124492
   9 C :    0.198540
  10 S :   -0.438142
  11 N :   -0.201560
  12 C :    0.059242
  13 C :    0.020931
  14 C :   -0.156498
  15 C :   -0.137079
  16 C :   -0.276469
  17 C :    0.314238
  18 O :   -0.359571
  19 C :   -0.273694
  20 H :    0.088585
  21 H :    0.104288
  22 H :    0.103150
  23 H :    0.095317
  24 H :    0.111870
  25 H :    0.123245
  26 H :    0.124471
  27 H :    0.108632
  28 H :    0.197563
  29 H :    0.194288
  30 H :    0.157413
  31 H :    0.160600
  32 H :    0.161957
  33 H :    0.132065
  34 H :    0.241089
  35 H :    0.170364
Sum of atomic charges:   -0.0000000

LOEWDIN ATOMIC CHARGES
----------------------
   0 C :    0.108758
   1 C :   -0.015074
   2 O :    0.285331
   3 C :   -0.419788
   4 O :    0.134743
   5 C :   -0.094559
   6 C :   -0.076509
   7 C :    0.127254
   8 N :    0.404129
   9 C :   -0.457853
  10 S :   -0.035417
  11 N :    0.396939
  12 C :   -0.044965
  13 C :   -0.042751
  14 C :    0.021582
  15 C :    0.042873
  16 C :   -0.001773
  17 C :   -0.195280
  18 O :    0.394154
  19 C :    0.026776
  20 H :   -0.031600
  21 H :   -0.022574
  22 H :   -0.025720
  23 H :   -0.029453
  24 H :   -0.027654
  25 H :   -0.012306
  26 H :   -0.007391
  27 H :   -0.018573
  28 H :   -0.058483
  29 H :   -0.064093
  30 H :   -0.003981
  31 H :   -0.023723
  32 H :   -0.019664
  33 H :   -0.035182
  34 H :   -0.153662
  35 H :   -0.024513

  Mayer bond orders larger than 0.100000
B(  0-C ,  1-C ) :   0.9752 B(  0-C , 20-H ) :   0.9782 B(  0-C , 21-H ) :   0.9775
B(  0-C , 22-H ) :   0.9769 B(  1-C ,  2-O ) :   0.8929 B(  1-C , 23-H ) :   0.9626
B(  1-C , 24-H ) :   0.9841 B(  2-O ,  3-C ) :   1.0887 B(  3-C ,  4-O ) :   2.0389
B(  3-C ,  5-C ) :   1.0144 B(  5-C ,  6-C ) :   1.6719 B(  5-C , 12-C ) :   0.9587
B(  6-C ,  7-C ) :   0.9525 B(  6-C ,  8-N ) :   1.1350 B(  7-C , 25-H ) :   0.9632
B(  7-C , 26-H ) :   0.9710 B(  7-C , 27-H ) :   0.9874 B(  8-N ,  9-C ) :   1.1848
B(  8-N , 28-H ) :   0.9502 B(  9-C , 10-S ) :   1.6133 B(  9-C , 11-N ) :   1.2974
B( 11-N , 12-C ) :   0.9932 B( 11-N , 29-H ) :   0.9518 B( 12-C , 13-C ) :   0.9458
B( 12-C , 30-H ) :   0.9980 B( 13-C , 14-C ) :   1.3830 B( 13-C , 19-C ) :   1.3597
B( 14-C , 15-C ) :   1.3952 B( 14-C , 31-H ) :   0.9617 B( 15-C , 16-C ) :   1.3644
B( 15-C , 32-H ) :   0.9707 B( 16-C , 17-C ) :   1.3296 B( 16-C , 33-H ) :   0.9844
B( 17-C , 18-O ) :   1.1110 B( 17-C , 19-C ) :   1.3721 B( 18-O , 34-H ) :   0.9796
B( 19-C , 35-H ) :   0.9594

MP2 TOTAL ENERGY:    -1274.321329925 Eh
FINAL SINGLE POINT ENERGY     -1274.321329925381

DIPOLE MOMENT
-------------
                                X             Y             Z
Electronic contribution:     11.34752       7.83166       7.17433
Nuclear contribution   :    -12.58074      -9.09001      -7.70073
                        -----------------------------------------
Total Dipole Moment    :     -1.23322      -1.25835      -0.52640
                        -----------------------------------------
Magnitude (a.u.)       :      1.83885
Magnitude (Debye)      :      4.67398

Rotational constants in cm-1:     0.011509     0.009333     0.006843
Rotational constants in MHz :   345.016301   279.782069   205.152211

                             ****ORCA TERMINATED NORMALLY****
TOTAL RUN TIME: 0 days 1 hours 52 minutes 16 seconds 677 msec
