                         Program Version 4.2.0 -  RELEASE  -
|  1> ! ri-mp2 cc-pvtz cc-pvtz/c TightSCF  NoKeepInts
|  2>
|  3> %scf
|  4>   MaxCore 4096
|  5> end
|  6> *xyz  0  1
|  7>     C       15.3007898   14.7359108   17.3045631
|  8>     C       15.5260680   15.4577895   15.9616521
|  9>     O       16.9209749   15.4480416   15.5792026
| 10>     C       17.9606297   15.6432936   16.4505336
| 11>     O       18.8342182   14.8012341   16.5515183
| 12>     C       17.8978642   16.8326574   17.3668343
| 13>     C       17.3867875   18.0422977   17.0189349
| 14>     C       16.8389464   18.4845536   15.6764473
| 15>     N       17.4687813   19.1143711   17.9121135
| 16>     C       18.2161043   19.1209166   19.0596453
| 17>     S       18.3713080   20.4789605   19.9900581
| 18>     N       18.8331421   17.9423131   19.3929738
| 19>     C       18.6045866   16.6496827   18.7186243
| 20>     C       17.8552901   15.6816003   19.6324022
| 21>     C       18.2219322   14.3234168   19.6723707
| 22>     C       17.5353198   13.4176141   20.4976510
| 23>     C       16.4717620   13.8720047   21.2950959
| 24>     C       16.1031712   15.2233010   21.2617955
| 25>     O       15.0706876   15.6637799   22.0236842
| 26>     C       16.7877334   16.1230649   20.4384529
| 27>     H       15.8825245   13.8063401   17.3584987
| 28>     H       14.2413079   14.4796969   17.4251463
| 29>     H       15.5781125   15.3761556   18.1457635
| 30>     H       14.9486185   14.9490386   15.1787746
| 31>     H       15.1390489   16.4781924   16.0412366
| 32>     H       17.1227703   17.8072695   14.8629111
| 33>     H       17.2375705   19.4683614   15.3970772
| 34>     H       15.7463165   18.5681726   15.6958887
| 35>     H       17.0383552   19.9943400   17.6750834
| 36>     H       19.3674198   17.9679123   20.2523175
| 37>     H       19.5938507   16.2128658   18.5164405
| 38>     H       19.0384435   13.9646382   19.0491752
| 39>     H       17.8277722   12.3690249   20.5132555
| 40>     H       15.9376973   13.1750806   21.9324932
| 41>     H       14.7627427   14.9152780   22.5566973
| 42>     H       16.4783515   17.1628291   20.4286874
| 43> *
| 44>
| 45>                          ****END OF INPUT****

CARTESIAN COORDINATES (ANGSTROEM)
---------------------------------
  C     15.300790   14.735911   17.304563
  C     15.526068   15.457790   15.961652
  O     16.920975   15.448042   15.579203
  C     17.960630   15.643294   16.450534
  O     18.834218   14.801234   16.551518
  C     17.897864   16.832657   17.366834
  C     17.386788   18.042298   17.018935
  C     16.838946   18.484554   15.676447
  N     17.468781   19.114371   17.912113
  C     18.216104   19.120917   19.059645
  S     18.371308   20.478960   19.990058
  N     18.833142   17.942313   19.392974
  C     18.604587   16.649683   18.718624
  C     17.855290   15.681600   19.632402
  C     18.221932   14.323417   19.672371
  C     17.535320   13.417614   20.497651
  C     16.471762   13.872005   21.295096
  C     16.103171   15.223301   21.261796
  O     15.070688   15.663780   22.023684
  C     16.787733   16.123065   20.438453
  H     15.882524   13.806340   17.358499
  H     14.241308   14.479697   17.425146
  H     15.578112   15.376156   18.145763
  H     14.948618   14.949039   15.178775
  H     15.139049   16.478192   16.041237
  H     17.122770   17.807270   14.862911
  H     17.237571   19.468361   15.397077
  H     15.746317   18.568173   15.695889
  H     17.038355   19.994340   17.675083
  H     19.367420   17.967912   20.252318
  H     19.593851   16.212866   18.516440
  H     19.038443   13.964638   19.049175
  H     17.827772   12.369025   20.513255
  H     15.937697   13.175081   21.932493
  H     14.762743   14.915278   22.556697
  H     16.478351   17.162829   20.428687

 Total Charge           Charge          ....    0
 Multiplicity           Mult            ....    1
 Number of Electrons    NEL             ....  154
 Basis Dimension        Dim             ....  828

ORBITAL ENERGIES
----------------

  NO   OCC          E(Eh)            E(eV)
   0   2.0000     -91.891066     -2500.4830
   1   2.0000     -20.597055      -560.4744
   2   2.0000     -20.592837      -560.3596
   3   2.0000     -20.551846      -559.2442
   4   2.0000     -15.630055      -425.3154
   5   2.0000     -15.610246      -424.7764
   6   2.0000     -11.398767      -310.1762
   7   2.0000     -11.386557      -309.8440
   8   2.0000     -11.338708      -308.5419
   9   2.0000     -11.313777      -307.8635
  10   2.0000     -11.311197      -307.7933
  11   2.0000     -11.308302      -307.7145
  12   2.0000     -11.267933      -306.6161
  13   2.0000     -11.266120      -306.5667
  14   2.0000     -11.260399      -306.4110
  15   2.0000     -11.253835      -306.2324
  16   2.0000     -11.243191      -305.9428
  17   2.0000     -11.238899      -305.8260
  18   2.0000     -11.234899      -305.7172
  19   2.0000     -11.227626      -305.5192
  20   2.0000      -8.896146      -242.0764
  21   2.0000      -6.577728      -178.9891
  22   2.0000      -6.575710      -178.9342
  23   2.0000      -6.575127      -178.9183
  24   2.0000      -1.446667       -39.3658
  25   2.0000      -1.416874       -38.5551
  26   2.0000      -1.358361       -36.9629
  27   2.0000      -1.342896       -36.5421
  28   2.0000      -1.240878       -33.7660
  29   2.0000      -1.157800       -31.5053
  30   2.0000      -1.123477       -30.5714
  31   2.0000      -1.045919       -28.4609
  32   2.0000      -1.036069       -28.1929
  33   2.0000      -1.016329       -27.6557
  34   2.0000      -1.004811       -27.3423
  35   2.0000      -0.988877       -26.9087
  36   2.0000      -0.927003       -25.2250
  37   2.0000      -0.896388       -24.3920
  38   2.0000      -0.854532       -23.2530
  39   2.0000      -0.841228       -22.8910
  40   2.0000      -0.833676       -22.6855
  41   2.0000      -0.827687       -22.5225
  42   2.0000      -0.745048       -20.2738
  43   2.0000      -0.735070       -20.0023
  44   2.0000      -0.729683       -19.8557
  45   2.0000      -0.694895       -18.9091
  46   2.0000      -0.686594       -18.6832
  47   2.0000      -0.682063       -18.5599
  48   2.0000      -0.675220       -18.3737
  49   2.0000      -0.661861       -18.0102
  50   2.0000      -0.656184       -17.8557
  51   2.0000      -0.649977       -17.6868
  52   2.0000      -0.639337       -17.3972
  53   2.0000      -0.625697       -17.0261
  54   2.0000      -0.608760       -16.5652
  55   2.0000      -0.604896       -16.4601
  56   2.0000      -0.600945       -16.3525
  57   2.0000      -0.585169       -15.9233
  58   2.0000      -0.574781       -15.6406
  59   2.0000      -0.565114       -15.3775
  60   2.0000      -0.560745       -15.2587
  61   2.0000      -0.546990       -14.8844
  62   2.0000      -0.542111       -14.7516
  63   2.0000      -0.534966       -14.5572
  64   2.0000      -0.520472       -14.1628
  65   2.0000      -0.512788       -13.9537
  66   2.0000      -0.500800       -13.6275
  67   2.0000      -0.494368       -13.4524
  68   2.0000      -0.484108       -13.1732
  69   2.0000      -0.470208       -12.7950
  70   2.0000      -0.458532       -12.4773
  71   2.0000      -0.449477       -12.2309
  72   2.0000      -0.359613        -9.7856
  73   2.0000      -0.348436        -9.4814
  74   2.0000      -0.330458        -8.9922
  75   2.0000      -0.322233        -8.7684
  76   2.0000      -0.319207        -8.6861
  77   0.0000       0.074739         2.0338
  78   0.0000       0.106712         2.9038
  79   0.0000       0.117039         3.1848
  80   0.0000       0.131203         3.5702
  81   0.0000       0.133164         3.6236

MULLIKEN ATOMIC CHARGES
-----------------------
   0 C :   -0.323498
   1 C :    0.036014
   2 O :   -0.352464
   3 C :    0.467037
   4 O :   -0.387691
   5 C :   -0.244802
   6 C :    0.167162
   7 C :   -0.335599
   8 N :   -0.132143
   9 C :    0.191297
  10 S :   -0.437164
  11 N :   -0.213246
  12 C :    0.067216
  13 C :    0.018039
  14 C :   -0.198878
  15 C :   -0.139675
  16 C :   -0.271123
  17 C :    0.310981
  18 O :   -0.357549
  19 C :   -0.255543
  20 H :    0.120326
  21 H :    0.110163
  22 H :    0.112182
  23 H :    0.122926
  24 H :    0.080856
  25 H :    0.143656
  26 H :    0.130346
  27 H :    0.123326
  28 H :    0.197558
  29 H :    0.198692
  30 H :    0.164607
  31 H :    0.174822
  32 H :    0.164204
  33 H :    0.131788
  34 H :    0.240642
  35 H :    0.175536
Sum of atomic charges:   -0.0000000

LOEWDIN ATOMIC CHARGES
----------------------
   0 C :    0.108312
   1 C :   -0.019217
   2 O :    0.290680
   3 C :   -0.417424
   4 O :    0.125813
   5 C :   -0.085949
   6 C :   -0.081262
   7 C :    0.124548
   8 N :    0.404118
   9 C :   -0.460821
  10 S :   -0.035067
  11 N :    0.397674
  12 C :   -0.044111
  13 C :   -0.042781
  14 C :    0.021241
  15 C :    0.043315
  16 C :   -0.001392
  17 C :   -0.193318
  18 O :    0.395152
  19 C :    0.025867
  20 H :   -0.020077
  21 H :   -0.024161
  22 H :   -0.032589
  23 H :   -0.020576
  24 H :   -0.039752
  25 H :   -0.008412
  26 H :   -0.011864
  27 H :   -0.019359
  28 H :   -0.056765
  29 H :   -0.063119
  30 H :   -0.002461
  31 H :   -0.022986
  32 H :   -0.019282
  33 H :   -0.035208
  34 H :   -0.153674
  35 H :   -0.025095

  Mayer bond orders larger than 0.100000
B(  0-C ,  1-C ) :   0.9617 B(  0-C , 20-H ) :   0.9702 B(  0-C , 21-H ) :   0.9779
B(  0-C , 22-H ) :   0.9696 B(  1-C ,  2-O ) :   0.9001 B(  1-C , 23-H ) :   0.9816
B(  1-C , 24-H ) :   0.9732 B(  2-O ,  3-C ) :   1.1411 B(  3-C ,  4-O ) :   2.0638
B(  3-C ,  5-C ) :   0.9645 B(  5-C ,  6-C ) :   1.6650 B(  5-C , 12-C ) :   0.9531
B(  6-C ,  7-C ) :   0.9412 B(  6-C ,  8-N ) :   1.1257 B(  7-C , 25-H ) :   0.9717
B(  7-C , 26-H ) :   0.9769 B(  7-C , 27-H ) :   0.9657 B(  8-N ,  9-C ) :   1.1873
B(  8-N , 28-H ) :   0.9517 B(  9-C , 10-S ) :   1.6135 B(  9-C , 11-N ) :   1.2950
B( 11-N , 12-C ) :   0.9863 B( 11-N , 29-H ) :   0.9503 B( 12-C , 13-C ) :   0.9510
B( 12-C , 30-H ) :   0.9970 B( 13-C , 14-C ) :   1.3871 B( 13-C , 19-C ) :   1.3451
B( 14-C , 15-C ) :   1.3982 B( 14-C , 31-H ) :   0.9575 B( 15-C , 16-C ) :   1.3608
B( 15-C , 32-H ) :   0.9699 B( 16-C , 17-C ) :   1.3309 B( 16-C , 33-H ) :   0.9845
B( 17-C , 18-O ) :   1.1116 B( 17-C , 19-C ) :   1.3685 B( 18-O , 34-H ) :   0.9799
B( 19-C , 35-H ) :   0.9595

MP2 TOTAL ENERGY:    -1274.333595449 Eh
FINAL SINGLE POINT ENERGY     -1274.333595448814

DIPOLE MOMENT
-------------
                                X             Y             Z
Electronic contribution:      9.27827       7.59911       6.31993
Nuclear contribution   :    -10.84875      -8.58601      -6.87363
                        -----------------------------------------
Total Dipole Moment    :     -1.57048      -0.98689      -0.55371
                        -----------------------------------------
Magnitude (a.u.)       :      1.93571
Magnitude (Debye)      :      4.92017

Rotational constants in cm-1:     0.011410     0.009808     0.006654
Rotational constants in MHz :   342.071444   294.049240   199.486784

                             ****ORCA TERMINATED NORMALLY****
TOTAL RUN TIME: 0 days 1 hours 47 minutes 52 seconds 891 msec
