                         Program Version 5.0.0 -  RELEASE  -
|  1> ! ri-mp2 cc-pvtz cc-pvtz/c TightSCF NoKeepInts
|  2>
|  3> %scf
|  4>   MaxCore 4096
|  5> end
|  6> *xyz  0  1
|  7>     C       15.7642845   13.1662597   16.2840459
|  8>     C       15.6058557   14.5973345   16.8229456
|  9>     O       16.7940639   15.3248349   16.4641386
| 10>     C       16.7054640   16.6816705   16.3535310
| 11>     O       15.8078105   17.1999936   15.7126758
| 12>     C       17.5212969   17.4059400   17.3911031
| 13>     C       17.4809155   18.7556958   17.5346490
| 14>     C       16.6402268   19.7387201   16.7479432
| 15>     N       18.3115521   19.3869927   18.4655126
| 16>     C       19.3021885   18.7656591   19.1778992
| 17>     S       20.3274434   19.6050705   20.1678040
| 18>     N       19.4072933   17.4073448   19.0209435
| 19>     C       18.4472803   16.5637186   18.2865489
| 20>     C       17.6748300   15.6987422   19.2778934
| 21>     C       17.9378509   14.3189664   19.3713069
| 22>     C       17.2236091   13.5145814   20.2750492
| 23>     C       16.2424463   14.0951139   21.0967090
| 24>     C       15.9847302   15.4702839   21.0133126
| 25>     O       15.0389260   16.0339686   21.8058572
| 26>     C       16.6951018   16.2678793   20.1109332
| 27>     H       14.8760031   12.5670484   16.5176797
| 28>     H       16.6370349   12.6786296   16.7354450
| 29>     H       15.8958035   13.1765272   15.1947748
| 30>     H       14.7166400   15.0476647   16.3606306
| 31>     H       15.4646289   14.5913613   17.9113749
| 32>     H       15.5716804   19.5425373   16.9040739
| 33>     H       16.8364051   19.6414625   15.6725339
| 34>     H       16.8292651   20.7827464   17.0238583
| 35>     H       18.2521360   20.3852844   18.5882210
| 36>     H       20.1268785   16.9729475   19.5843015
| 37>     H       19.0276385   15.9005471   17.6294851
| 38>     H       18.6929606   13.8667150   18.7336904
| 39>     H       17.4323690   12.4478582   20.3378313
| 40>     H       15.6892849   13.4782798   21.7975143
| 41>     H       14.6999395   15.3424745   22.3941573
| 42>     H       16.4851621   17.3311459   20.0676261
| 43> *
| 44>
| 45>                          ****END OF INPUT****

CARTESIAN COORDINATES (ANGSTROEM)
---------------------------------
  C     15.764284   13.166260   16.284046
  C     15.605856   14.597335   16.822946
  O     16.794064   15.324835   16.464139
  C     16.705464   16.681670   16.353531
  O     15.807811   17.199994   15.712676
  C     17.521297   17.405940   17.391103
  C     17.480915   18.755696   17.534649
  C     16.640227   19.738720   16.747943
  N     18.311552   19.386993   18.465513
  C     19.302188   18.765659   19.177899
  S     20.327443   19.605071   20.167804
  N     19.407293   17.407345   19.020944
  C     18.447280   16.563719   18.286549
  C     17.674830   15.698742   19.277893
  C     17.937851   14.318966   19.371307
  C     17.223609   13.514581   20.275049
  C     16.242446   14.095114   21.096709
  C     15.984730   15.470284   21.013313
  O     15.038926   16.033969   21.805857
  C     16.695102   16.267879   20.110933
  H     14.876003   12.567048   16.517680
  H     16.637035   12.678630   16.735445
  H     15.895803   13.176527   15.194775
  H     14.716640   15.047665   16.360631
  H     15.464629   14.591361   17.911375
  H     15.571680   19.542537   16.904074
  H     16.836405   19.641462   15.672534
  H     16.829265   20.782746   17.023858
  H     18.252136   20.385284   18.588221
  H     20.126879   16.972947   19.584301
  H     19.027638   15.900547   17.629485
  H     18.692961   13.866715   18.733690
  H     17.432369   12.447858   20.337831
  H     15.689285   13.478280   21.797514
  H     14.699939   15.342474   22.394157
  H     16.485162   17.331146   20.067626

 Total Charge           Charge          ....    0
 Multiplicity           Mult            ....    1
 Number of Electrons    NEL             ....  154
 Basis Dimension        Dim             ....  828

ORBITAL ENERGIES
----------------

  NO   OCC          E(Eh)            E(eV)
   0   2.0000     -91.890132     -2500.4576
   1   2.0000     -20.600508      -560.5683
   2   2.0000     -20.588022      -560.2286
   3   2.0000     -20.545384      -559.0683
   4   2.0000     -15.630470      -425.3267
   5   2.0000     -15.609504      -424.7562
   6   2.0000     -11.393289      -310.0271
   7   2.0000     -11.385088      -309.8040
   8   2.0000     -11.336933      -308.4936
   9   2.0000     -11.318393      -307.9891
  10   2.0000     -11.311107      -307.7909
  11   2.0000     -11.292269      -307.2783
  12   2.0000     -11.263213      -306.4876
  13   2.0000     -11.259668      -306.3911
  14   2.0000     -11.259429      -306.3846
  15   2.0000     -11.252995      -306.2096
  16   2.0000     -11.247305      -306.0547
  17   2.0000     -11.242208      -305.9160
  18   2.0000     -11.241808      -305.9052
  19   2.0000     -11.226064      -305.4767
  20   2.0000      -8.895182      -242.0502
  21   2.0000      -6.576753      -178.9626
  22   2.0000      -6.574752      -178.9081
  23   2.0000      -6.574162      -178.8920
  24   2.0000      -1.449463       -39.4419
  25   2.0000      -1.420191       -38.6454
  26   2.0000      -1.353016       -36.8174
  27   2.0000      -1.341530       -36.5049
  28   2.0000      -1.240115       -33.7453
  29   2.0000      -1.161301       -31.6006
  30   2.0000      -1.121310       -30.5124
  31   2.0000      -1.045335       -28.4450
  32   2.0000      -1.035673       -28.1821
  33   2.0000      -1.019375       -27.7386
  34   2.0000      -0.997036       -27.1307
  35   2.0000      -0.985417       -26.8146
  36   2.0000      -0.924708       -25.1626
  37   2.0000      -0.881483       -23.9864
  38   2.0000      -0.848524       -23.0895
  39   2.0000      -0.840934       -22.8830
  40   2.0000      -0.837616       -22.7927
  41   2.0000      -0.824215       -22.4280
  42   2.0000      -0.762131       -20.7387
  43   2.0000      -0.735611       -20.0170
  44   2.0000      -0.724288       -19.7089
  45   2.0000      -0.699455       -19.0331
  46   2.0000      -0.689849       -18.7717
  47   2.0000      -0.678589       -18.4653
  48   2.0000      -0.673452       -18.3256
  49   2.0000      -0.656069       -17.8525
  50   2.0000      -0.647872       -17.6295
  51   2.0000      -0.643323       -17.5057
  52   2.0000      -0.630157       -17.1474
  53   2.0000      -0.620026       -16.8718
  54   2.0000      -0.611016       -16.6266
  55   2.0000      -0.603111       -16.4115
  56   2.0000      -0.600616       -16.3436
  57   2.0000      -0.580835       -15.8053
  58   2.0000      -0.571919       -15.5627
  59   2.0000      -0.565964       -15.4007
  60   2.0000      -0.557766       -15.1776
  61   2.0000      -0.540377       -14.7044
  62   2.0000      -0.533227       -14.5099
  63   2.0000      -0.528681       -14.3861
  64   2.0000      -0.520496       -14.1634
  65   2.0000      -0.515501       -14.0275
  66   2.0000      -0.504413       -13.7258
  67   2.0000      -0.497585       -13.5400
  68   2.0000      -0.488128       -13.2826
  69   2.0000      -0.464677       -12.6445
  70   2.0000      -0.456566       -12.4238
  71   2.0000      -0.445470       -12.1218
  72   2.0000      -0.355933        -9.6854
  73   2.0000      -0.353413        -9.6168
  74   2.0000      -0.329957        -8.9786
  75   2.0000      -0.325740        -8.8638
  76   2.0000      -0.317443        -8.6381
  77   0.0000       0.070765         1.9256
  78   0.0000       0.102381         2.7859
  79   0.0000       0.123170         3.3516
  80   0.0000       0.129035         3.5112
  81   0.0000       0.134086         3.6487

MULLIKEN ATOMIC CHARGES
-----------------------
   0 C :   -0.263213
   1 C :    0.007473
   2 O :   -0.380925
   3 C :    0.504992
   4 O :   -0.417654
   5 C :   -0.277499
   6 C :    0.161993
   7 C :   -0.269284
   8 N :   -0.123969
   9 C :    0.212829
  10 S :   -0.438561
  11 N :   -0.204711
  12 C :    0.063183
  13 C :    0.019112
  14 C :   -0.165646
  15 C :   -0.134574
  16 C :   -0.275915
  17 C :    0.306776
  18 O :   -0.356041
  19 C :   -0.243171
  20 H :    0.087819
  21 H :    0.088823
  22 H :    0.103085
  23 H :    0.124184
  24 H :    0.114599
  25 H :    0.131661
  26 H :    0.131527
  27 H :    0.095175
  28 H :    0.198011
  29 H :    0.194399
  30 H :    0.149236
  31 H :    0.151238
  32 H :    0.163137
  33 H :    0.133005
  34 H :    0.241483
  35 H :    0.167425
Sum of atomic charges:   -0.0000000

LOEWDIN ATOMIC CHARGES
----------------------
   0 C :    0.107995
   1 C :   -0.017032
   2 O :    0.296467
   3 C :   -0.416557
   4 O :    0.110258
   5 C :   -0.097925
   6 C :   -0.058362
   7 C :    0.131466
   8 N :    0.406904
   9 C :   -0.456359
  10 S :   -0.034179
  11 N :    0.396238
  12 C :   -0.052730
  13 C :   -0.038411
  14 C :    0.014580
  15 C :    0.040662
  16 C :   -0.002425
  17 C :   -0.190435
  18 O :    0.396563
  19 C :    0.030472
  20 H :   -0.025820
  21 H :   -0.031597
  22 H :   -0.024727
  23 H :   -0.028708
  24 H :   -0.031928
  25 H :   -0.004756
  26 H :   -0.003650
  27 H :   -0.023252
  28 H :   -0.057365
  29 H :   -0.064878
  30 H :   -0.008929
  31 H :   -0.029943
  32 H :   -0.020227
  33 H :   -0.034709
  34 H :   -0.152967
  35 H :   -0.023735

  Mayer bond orders larger than 0.100000
B(  0-C ,  1-C ) :   0.9792 B(  0-C , 20-H ) :   0.9765 B(  0-C , 21-H ) :   0.9792
B(  0-C , 22-H ) :   0.9786 B(  1-C ,  2-O ) :   0.8715 B(  1-C , 23-H ) :   0.9767
B(  1-C , 24-H ) :   0.9651 B(  2-O ,  3-C ) :   1.1171 B(  3-C ,  4-O ) :   2.0039
B(  3-C ,  5-C ) :   1.0703 B(  5-C ,  6-C ) :   1.6496 B(  5-C , 12-C ) :   0.9714
B(  6-C ,  7-C ) :   0.9667 B(  6-C ,  8-N ) :   1.1600 B(  7-C , 25-H ) :   0.9600
B(  7-C , 26-H ) :   0.9602 B(  7-C , 27-H ) :   0.9903 B(  8-N ,  9-C ) :   1.1821
B(  8-N , 28-H ) :   0.9477 B(  9-C , 10-S ) :   1.6083 B(  9-C , 11-N ) :   1.3058
B( 11-N , 12-C ) :   0.9773 B( 11-N , 29-H ) :   0.9525 B( 12-C , 13-C ) :   0.9395
B( 12-C , 30-H ) :   1.0017 B( 13-C , 14-C ) :   1.3573 B( 13-C , 19-C ) :   1.3808
B( 14-C , 15-C ) :   1.3904 B( 14-C , 31-H ) :   0.9732 B( 15-C , 16-C ) :   1.3616
B( 15-C , 32-H ) :   0.9701 B( 16-C , 17-C ) :   1.3294 B( 16-C , 33-H ) :   0.9843
B( 17-C , 18-O ) :   1.1139 B( 17-C , 19-C ) :   1.3741 B( 18-O , 34-H ) :   0.9791
B( 19-C , 35-H ) :   0.9572

MP2 TOTAL ENERGY:    -1274.337507666 Eh
FINAL SINGLE POINT ENERGY     -1274.337507666081

DIPOLE MOMENT
-------------
                                X             Y             Z
Electronic contribution:      9.42338      11.06409       6.42006
Nuclear contribution   :    -10.50932     -12.56268      -6.40964
                        -----------------------------------------
Total Dipole Moment    :     -1.08593      -1.49859       0.01042
                        -----------------------------------------
Magnitude (a.u.)       :      1.85071
Magnitude (Debye)      :      4.70413

Rotational constants in cm-1:     0.012514     0.008576     0.006337
Rotational constants in MHz :   375.172058   257.094049   189.975356

                             ****ORCA TERMINATED NORMALLY****
TOTAL RUN TIME: 0 days 1 hours 50 minutes 35 seconds 591 msec
