                         Program Version 5.0.0 -  RELEASE  -
|  1> ! ri-mp2 cc-pvtz cc-pvtz/c TightSCF NoKeepInts
|  2>
|  3> %scf
|  4>   MaxCore 4096
|  5> end
|  6> *xyz  0  1
|  7>     C       15.0953034   15.5157569   17.0158326
|  8>     C       16.1356615   14.3745332   16.9314989
|  9>     O       17.4256505   14.7672398   16.3915046
| 10>     C       17.8120725   16.0508065   16.1153034
| 11>     O       17.8333160   16.4234270   14.9567620
| 12>     C       17.8139815   17.0041561   17.2778961
| 13>     C       17.3903700   18.2866534   17.1524971
| 14>     C       16.7102873   18.9100025   15.9527724
| 15>     N       17.6010807   19.1982535   18.1902365
| 16>     C       18.4085170   18.9679068   19.2721535
| 17>     S       18.7393853   20.1460812   20.3843454
| 18>     N       18.9377062   17.7065394   19.3824573
| 19>     C       18.5477854   16.5495533   18.5538166
| 20>     C       17.7933156   15.5488878   19.4217227
| 21>     C       18.2856352   14.2394248   19.5830733
| 22>     C       17.6097790   13.3167848   20.3993734
| 23>     C       16.4370304   13.7079830   21.0675178
| 24>     C       15.9542009   15.0157728   20.9244635
| 25>     O       14.8240260   15.3981149   21.5697208
| 26>     C       16.6301449   15.9323895   20.1134259
| 27>     H       15.3502535   16.2644924   17.7703858
| 28>     H       14.1171892   15.1033976   17.2919033
| 29>     H       14.9810371   16.0113977   16.0438492
| 30>     H       16.2602834   13.9278977   17.9238378
| 31>     H       15.7270365   13.5860830   16.2863486
| 32>     H       15.9566120   18.2340184   15.5315152
| 33>     H       17.4435210   19.1106000   15.1607519
| 34>     H       16.2054609   19.8528976   16.1934640
| 35>     H       17.2418108   20.1362767   18.1096506
| 36>     H       19.5118052   17.5619221   20.2034578
| 37>     H       19.4771854   16.0635044   18.2248383
| 38>     H       19.1910047   13.9313770   19.0660519
| 39>     H       17.9956031   12.3047716   20.5125700
| 40>     H       15.9113904   12.9984151   21.6984187
| 41>     H       14.5439043   14.6604925   22.1327056
| 42>     H       16.2476533   16.9441893   20.0278777
| 43> *
| 44>
| 45>                          ****END OF INPUT****

CARTESIAN COORDINATES (ANGSTROEM)
---------------------------------
  C     15.095303   15.515757   17.015833
  C     16.135662   14.374533   16.931499
  O     17.425650   14.767240   16.391505
  C     17.812072   16.050807   16.115303
  O     17.833316   16.423427   14.956762
  C     17.813982   17.004156   17.277896
  C     17.390370   18.286653   17.152497
  C     16.710287   18.910003   15.952772
  N     17.601081   19.198253   18.190236
  C     18.408517   18.967907   19.272154
  S     18.739385   20.146081   20.384345
  N     18.937706   17.706539   19.382457
  C     18.547785   16.549553   18.553817
  C     17.793316   15.548888   19.421723
  C     18.285635   14.239425   19.583073
  C     17.609779   13.316785   20.399373
  C     16.437030   13.707983   21.067518
  C     15.954201   15.015773   20.924464
  O     14.824026   15.398115   21.569721
  C     16.630145   15.932389   20.113426
  H     15.350253   16.264492   17.770386
  H     14.117189   15.103398   17.291903
  H     14.981037   16.011398   16.043849
  H     16.260283   13.927898   17.923838
  H     15.727037   13.586083   16.286349
  H     15.956612   18.234018   15.531515
  H     17.443521   19.110600   15.160752
  H     16.205461   19.852898   16.193464
  H     17.241811   20.136277   18.109651
  H     19.511805   17.561922   20.203458
  H     19.477185   16.063504   18.224838
  H     19.191005   13.931377   19.066052
  H     17.995603   12.304772   20.512570
  H     15.911390   12.998415   21.698419
  H     14.543904   14.660493   22.132706
  H     16.247653   16.944189   20.027878

 Total Charge           Charge          ....    0
 Multiplicity           Mult            ....    1
 Number of Electrons    NEL             ....  154
 Basis Dimension        Dim             ....  828

ORBITAL ENERGIES
----------------

  NO   OCC          E(Eh)            E(eV)
   0   2.0000     -91.891230     -2500.4875
   1   2.0000     -20.603701      -560.6552
   2   2.0000     -20.579577      -559.9987
   3   2.0000     -20.551567      -559.2366
   4   2.0000     -15.629602      -425.3031
   5   2.0000     -15.611279      -424.8045
   6   2.0000     -11.394306      -310.0548
   7   2.0000     -11.386204      -309.8344
   8   2.0000     -11.333541      -308.4013
   9   2.0000     -11.321713      -308.0795
  10   2.0000     -11.316526      -307.9383
  11   2.0000     -11.300608      -307.5052
  12   2.0000     -11.266753      -306.5839
  13   2.0000     -11.262264      -306.4618
  14   2.0000     -11.259591      -306.3891
  15   2.0000     -11.254687      -306.2556
  16   2.0000     -11.251358      -306.1650
  17   2.0000     -11.246340      -306.0285
  18   2.0000     -11.245407      -306.0031
  19   2.0000     -11.231080      -305.6132
  20   2.0000      -8.896279      -242.0801
  21   2.0000      -6.577851      -178.9924
  22   2.0000      -6.575848      -178.9379
  23   2.0000      -6.575257      -178.9218
  24   2.0000      -1.441184       -39.2166
  25   2.0000      -1.423471       -38.7346
  26   2.0000      -1.350240       -36.7419
  27   2.0000      -1.341956       -36.5165
  28   2.0000      -1.241484       -33.7825
  29   2.0000      -1.164419       -31.6855
  30   2.0000      -1.122412       -30.5424
  31   2.0000      -1.048652       -28.5353
  32   2.0000      -1.032663       -28.1002
  33   2.0000      -1.022850       -27.8332
  34   2.0000      -1.002366       -27.2758
  35   2.0000      -0.988286       -26.8926
  36   2.0000      -0.927497       -25.2385
  37   2.0000      -0.897578       -24.4243
  38   2.0000      -0.850334       -23.1388
  39   2.0000      -0.845140       -22.9974
  40   2.0000      -0.841713       -22.9042
  41   2.0000      -0.824595       -22.4384
  42   2.0000      -0.747141       -20.3307
  43   2.0000      -0.737607       -20.0713
  44   2.0000      -0.719383       -19.5754
  45   2.0000      -0.702482       -19.1155
  46   2.0000      -0.691419       -18.8145
  47   2.0000      -0.676229       -18.4011
  48   2.0000      -0.672868       -18.3097
  49   2.0000      -0.658573       -17.9207
  50   2.0000      -0.657343       -17.8872
  51   2.0000      -0.648572       -17.6485
  52   2.0000      -0.639289       -17.3960
  53   2.0000      -0.626090       -17.0368
  54   2.0000      -0.613413       -16.6918
  55   2.0000      -0.605993       -16.4899
  56   2.0000      -0.602815       -16.4034
  57   2.0000      -0.582777       -15.8582
  58   2.0000      -0.575781       -15.6678
  59   2.0000      -0.566896       -15.4260
  60   2.0000      -0.551155       -14.9977
  61   2.0000      -0.548542       -14.9266
  62   2.0000      -0.541405       -14.7324
  63   2.0000      -0.532843       -14.4994
  64   2.0000      -0.529959       -14.4209
  65   2.0000      -0.516973       -14.0676
  66   2.0000      -0.506050       -13.7703
  67   2.0000      -0.493518       -13.4293
  68   2.0000      -0.479614       -13.0510
  69   2.0000      -0.473001       -12.8710
  70   2.0000      -0.449500       -12.2315
  71   2.0000      -0.445383       -12.1195
  72   2.0000      -0.358528        -9.7560
  73   2.0000      -0.353194        -9.6109
  74   2.0000      -0.331629        -9.0241
  75   2.0000      -0.328800        -8.9471
  76   2.0000      -0.318960        -8.6794
  77   0.0000       0.072257         1.9662
  78   0.0000       0.100305         2.7294
  79   0.0000       0.119148         3.2422
  80   0.0000       0.126020         3.4292
  81   0.0000       0.131589         3.5807

MULLIKEN ATOMIC CHARGES
-----------------------
   0 C :   -0.351712
   1 C :    0.040573
   2 O :   -0.369766
   3 C :    0.448874
   4 O :   -0.374817
   5 C :   -0.261428
   6 C :    0.160492
   7 C :   -0.279289
   8 N :   -0.123825
   9 C :    0.198312
  10 S :   -0.435374
  11 N :   -0.194392
  12 C :    0.054297
  13 C :    0.031514
  14 C :   -0.163684
  15 C :   -0.135397
  16 C :   -0.275510
  17 C :    0.319913
  18 O :   -0.356142
  19 C :   -0.289089
  20 H :    0.112943
  21 H :    0.123288
  22 H :    0.113947
  23 H :    0.109552
  24 H :    0.124964
  25 H :    0.123721
  26 H :    0.144176
  27 H :    0.094543
  28 H :    0.197838
  29 H :    0.192611
  30 H :    0.150571
  31 H :    0.148651
  32 H :    0.164165
  33 H :    0.134572
  34 H :    0.242013
  35 H :    0.178896
Sum of atomic charges:   -0.0000000

LOEWDIN ATOMIC CHARGES
----------------------
   0 C :    0.104515
   1 C :   -0.007688
   2 O :    0.277618
   3 C :   -0.424137
   4 O :    0.132653
   5 C :   -0.093967
   6 C :   -0.069738
   7 C :    0.130032
   8 N :    0.405887
   9 C :   -0.458345
  10 S :   -0.033123
  11 N :    0.396857
  12 C :   -0.052985
  13 C :   -0.042126
  14 C :    0.017268
  15 C :    0.041117
  16 C :   -0.000596
  17 C :   -0.191676
  18 O :    0.397106
  19 C :    0.034398
  20 H :   -0.037981
  21 H :   -0.020510
  22 H :   -0.028807
  23 H :   -0.031062
  24 H :   -0.024163
  25 H :   -0.010108
  26 H :   -0.002740
  27 H :   -0.022284
  28 H :   -0.057635
  29 H :   -0.064349
  30 H :   -0.007315
  31 H :   -0.027862
  32 H :   -0.019275
  33 H :   -0.033699
  34 H :   -0.152296
  35 H :   -0.022986

  Mayer bond orders larger than 0.100000
B(  0-C ,  1-C ) :   0.9624 B(  0-C , 20-H ) :   0.9672 B(  0-C , 21-H ) :   0.9758
B(  0-C , 22-H ) :   0.9743 B(  1-C ,  2-O ) :   0.8906 B(  1-C , 23-H ) :   0.9694
B(  1-C , 24-H ) :   0.9839 B(  2-O ,  3-C ) :   1.1423 B(  3-C ,  4-O ) :   2.0844
B(  3-C ,  5-C ) :   0.9753 B(  5-C ,  6-C ) :   1.6814 B(  5-C , 12-C ) :   0.9663
B(  6-C ,  7-C ) :   0.9598 B(  6-C ,  8-N ) :   1.1392 B(  7-C , 25-H ) :   0.9700
B(  7-C , 26-H ) :   0.9570 B(  7-C , 27-H ) :   0.9859 B(  8-N ,  9-C ) :   1.1864
B(  8-N , 28-H ) :   0.9494 B(  9-C , 10-S ) :   1.6178 B(  9-C , 11-N ) :   1.2905
B( 11-N , 12-C ) :   0.9938 B( 11-N , 29-H ) :   0.9525 B( 12-C , 13-C ) :   0.9362
B( 12-C , 30-H ) :   1.0083 B( 13-C , 14-C ) :   1.3579 B( 13-C , 19-C ) :   1.3589
B( 14-C , 15-C ) :   1.3958 B( 14-C , 31-H ) :   0.9726 B( 15-C , 16-C ) :   1.3623
B( 15-C , 32-H ) :   0.9704 B( 16-C , 17-C ) :   1.3282 B( 16-C , 33-H ) :   0.9835
B( 17-C , 18-O ) :   1.1139 B( 17-C , 19-C ) :   1.3692 B( 18-O , 34-H ) :   0.9788
B( 19-C , 35-H ) :   0.9537

MP2 TOTAL ENERGY:    -1274.319636094 Eh
FINAL SINGLE POINT ENERGY     -1274.319636094166

DIPOLE MOMENT
-------------
                                X             Y             Z
Electronic contribution:      9.58224       6.75058       5.67847
Nuclear contribution   :    -10.78841      -8.35216      -5.35532
                        -----------------------------------------
Total Dipole Moment    :     -1.20617      -1.60158       0.32315
                        -----------------------------------------
Magnitude (a.u.)       :      2.03084
Magnitude (Debye)      :      5.16199

Rotational constants in cm-1:     0.012042     0.009751     0.006702
Rotational constants in MHz :   361.013575   292.314454   200.924749

                             ****ORCA TERMINATED NORMALLY****
TOTAL RUN TIME: 0 days 2 hours 31 minutes 22 seconds 985 msec
