                         Program Version 5.0.0 -  RELEASE  -
|  1> ! ri-mp2 cc-pvtz cc-pvtz/c TightSCF NoKeepInts
|  2>
|  3> %scf
|  4>   MaxCore 4096
|  5> end
|  6> *xyz  0  1
|  7>     C       14.6407884   14.3883100   16.8406681
|  8>     C       15.5543594   15.6194957   16.7332413
|  9>     O       16.8075780   15.1640597   16.1854405
| 10>     C       18.0367005   15.6274287   16.5848639
| 11>     O       19.0028184   14.8880874   16.5483210
| 12>     C       18.0525911   16.8742400   17.4102422
| 13>     C       17.5492948   18.0546106   16.9789429
| 14>     C       16.9498711   18.3535402   15.6215792
| 15>     N       17.6413237   19.1872277   17.7908338
| 16>     C       18.3058934   19.2365897   18.9888196
| 17>     S       18.4175201   20.6362698   19.8617980
| 18>     N       18.8702279   18.0648110   19.4304363
| 19>     C       18.7326623   16.7499641   18.7727507
| 20>     C       17.9719773   15.7619645   19.6524154
| 21>     C       18.4194336   14.4335567   19.7719919
| 22>     C       17.7078284   13.5048410   20.5493852
| 23>     C       16.5350038   13.9055722   21.2113426
| 24>     C       16.0819305   15.2258727   21.0899257
| 25>     O       14.9416830   15.6128624   21.7148067
| 26>     C       16.7925310   16.1487683   20.3159743
| 27>     H       15.0887936   13.6348616   17.5013101
| 28>     H       14.4846590   13.9338536   15.8542940
| 29>     H       13.6629158   14.6668509   17.2517391
| 30>     H       15.0937426   16.3734696   16.0838726
| 31>     H       15.6767466   16.0373630   17.7403965
| 32>     H       17.0614686   17.5164086   14.9215195
| 33>     H       17.4478106   19.2150750   15.1583567
| 34>     H       15.8814990   18.5877759   15.7023002
| 35>     H       17.2486512   20.0614764   17.4780908
| 36>     H       19.3364378   18.1267547   20.3268991
| 37>     H       19.7447108   16.3519407   18.6060601
| 38>     H       19.3147991   14.1144450   19.2423844
| 39>     H       18.0626447   12.4785472   20.6283465
| 40>     H       15.9804002   13.1897098   21.8090385
| 41>     H       14.6295815   14.8609157   22.2409197
| 42>     H       16.4201223   17.1644800   20.2346928
| 43> *
| 44>
| 45>                          ****END OF INPUT****

CARTESIAN COORDINATES (ANGSTROEM)
---------------------------------
  C     14.640788   14.388310   16.840668
  C     15.554359   15.619496   16.733241
  O     16.807578   15.164060   16.185440
  C     18.036700   15.627429   16.584864
  O     19.002818   14.888087   16.548321
  C     18.052591   16.874240   17.410242
  C     17.549295   18.054611   16.978943
  C     16.949871   18.353540   15.621579
  N     17.641324   19.187228   17.790834
  C     18.305893   19.236590   18.988820
  S     18.417520   20.636270   19.861798
  N     18.870228   18.064811   19.430436
  C     18.732662   16.749964   18.772751
  C     17.971977   15.761964   19.652415
  C     18.419434   14.433557   19.771992
  C     17.707828   13.504841   20.549385
  C     16.535004   13.905572   21.211343
  C     16.081930   15.225873   21.089926
  O     14.941683   15.612862   21.714807
  C     16.792531   16.148768   20.315974
  H     15.088794   13.634862   17.501310
  H     14.484659   13.933854   15.854294
  H     13.662916   14.666851   17.251739
  H     15.093743   16.373470   16.083873
  H     15.676747   16.037363   17.740396
  H     17.061469   17.516409   14.921519
  H     17.447811   19.215075   15.158357
  H     15.881499   18.587776   15.702300
  H     17.248651   20.061476   17.478091
  H     19.336438   18.126755   20.326899
  H     19.744711   16.351941   18.606060
  H     19.314799   14.114445   19.242384
  H     18.062645   12.478547   20.628346
  H     15.980400   13.189710   21.809038
  H     14.629582   14.860916   22.240920
  H     16.420122   17.164480   20.234693

 Total Charge           Charge          ....    0
 Multiplicity           Mult            ....    1
 Number of Electrons    NEL             ....  154
 Basis Dimension        Dim             ....  828

ORBITAL ENERGIES
----------------

  NO   OCC          E(Eh)            E(eV)
   0   2.0000     -91.890759     -2500.4747
   1   2.0000     -20.600719      -560.5741
   2   2.0000     -20.600160      -560.5588
   3   2.0000     -20.548923      -559.1646
   4   2.0000     -15.628347      -425.2689
   5   2.0000     -15.611925      -424.8221
   6   2.0000     -11.397463      -310.1407
   7   2.0000     -11.387419      -309.8674
   8   2.0000     -11.331877      -308.3561
   9   2.0000     -11.317059      -307.9528
  10   2.0000     -11.314300      -307.8777
  11   2.0000     -11.303431      -307.5820
  12   2.0000     -11.269189      -306.6502
  13   2.0000     -11.265006      -306.5364
  14   2.0000     -11.263643      -306.4993
  15   2.0000     -11.256817      -306.3136
  16   2.0000     -11.246190      -306.0244
  17   2.0000     -11.242644      -305.9279
  18   2.0000     -11.239148      -305.8328
  19   2.0000     -11.230441      -305.5958
  20   2.0000      -8.895866      -242.0688
  21   2.0000      -6.577451      -178.9815
  22   2.0000      -6.575428      -178.9265
  23   2.0000      -6.574850      -178.9108
  24   2.0000      -1.447791       -39.3964
  25   2.0000      -1.419965       -38.6392
  26   2.0000      -1.359402       -36.9912
  27   2.0000      -1.341310       -36.4989
  28   2.0000      -1.240690       -33.7609
  29   2.0000      -1.161612       -31.6091
  30   2.0000      -1.125889       -30.6370
  31   2.0000      -1.049193       -28.5500
  32   2.0000      -1.039195       -28.2779
  33   2.0000      -1.019138       -27.7322
  34   2.0000      -1.005638       -27.3648
  35   2.0000      -0.989797       -26.9337
  36   2.0000      -0.928211       -25.2579
  37   2.0000      -0.880765       -23.9668
  38   2.0000      -0.856391       -23.3036
  39   2.0000      -0.842620       -22.9289
  40   2.0000      -0.837282       -22.7836
  41   2.0000      -0.836655       -22.7665
  42   2.0000      -0.755920       -20.5696
  43   2.0000      -0.740636       -20.1537
  44   2.0000      -0.731698       -19.9105
  45   2.0000      -0.698201       -18.9990
  46   2.0000      -0.688644       -18.7390
  47   2.0000      -0.681273       -18.5384
  48   2.0000      -0.677559       -18.4373
  49   2.0000      -0.660660       -17.9775
  50   2.0000      -0.658683       -17.9237
  51   2.0000      -0.650280       -17.6950
  52   2.0000      -0.640701       -17.4344
  53   2.0000      -0.611941       -16.6518
  54   2.0000      -0.608269       -16.5518
  55   2.0000      -0.603935       -16.4339
  56   2.0000      -0.595766       -16.2116
  57   2.0000      -0.582686       -15.8557
  58   2.0000      -0.578426       -15.7398
  59   2.0000      -0.571670       -15.5559
  60   2.0000      -0.563383       -15.3304
  61   2.0000      -0.559615       -15.2279
  62   2.0000      -0.549823       -14.9614
  63   2.0000      -0.527314       -14.3489
  64   2.0000      -0.517620       -14.0851
  65   2.0000      -0.516177       -14.0459
  66   2.0000      -0.502981       -13.6868
  67   2.0000      -0.501588       -13.6489
  68   2.0000      -0.489565       -13.3217
  69   2.0000      -0.471983       -12.8433
  70   2.0000      -0.454182       -12.3589
  71   2.0000      -0.450751       -12.2656
  72   2.0000      -0.357464        -9.7271
  73   2.0000      -0.352227        -9.5846
  74   2.0000      -0.330348        -8.9892
  75   2.0000      -0.324630        -8.8336
  76   2.0000      -0.319247        -8.6872
  77   0.0000       0.081863         2.2276
  78   0.0000       0.103648         2.8204
  79   0.0000       0.114742         3.1223
  80   0.0000       0.128056         3.4846
  81   0.0000       0.133757         3.6397

MULLIKEN ATOMIC CHARGES
-----------------------
   0 C :   -0.254587
   1 C :    0.009412
   2 O :   -0.311243
   3 C :    0.406036
   4 O :   -0.385094
   5 C :   -0.214674
   6 C :    0.160723
   7 C :   -0.333782
   8 N :   -0.136868
   9 C :    0.202336
  10 S :   -0.439482
  11 N :   -0.213485
  12 C :    0.077121
  13 C :    0.031944
  14 C :   -0.195325
  15 C :   -0.130563
  16 C :   -0.276724
  17 C :    0.324282
  18 O :   -0.357657
  19 C :   -0.300905
  20 H :    0.107651
  21 H :    0.102298
  22 H :    0.088023
  23 H :    0.093243
  24 H :    0.107886
  25 H :    0.132671
  26 H :    0.139285
  27 H :    0.121526
  28 H :    0.196973
  29 H :    0.198274
  30 H :    0.163885
  31 H :    0.168670
  32 H :    0.164216
  33 H :    0.132391
  34 H :    0.241740
  35 H :    0.179801
Sum of atomic charges:   -0.0000000

LOEWDIN ATOMIC CHARGES
----------------------
   0 C :    0.111600
   1 C :   -0.022996
   2 O :    0.306322
   3 C :   -0.416137
   4 O :    0.121802
   5 C :   -0.084888
   6 C :   -0.096021
   7 C :    0.124303
   8 N :    0.402172
   9 C :   -0.456601
  10 S :   -0.036533
  11 N :    0.397167
  12 C :   -0.044744
  13 C :   -0.044019
  14 C :    0.023028
  15 C :    0.045583
  16 C :    0.000025
  17 C :   -0.194024
  18 O :    0.394544
  19 C :    0.026059
  20 H :   -0.021765
  21 H :   -0.026010
  22 H :   -0.025667
  23 H :   -0.037278
  24 H :   -0.035086
  25 H :   -0.007448
  26 H :   -0.010001
  27 H :   -0.017854
  28 H :   -0.057273
  29 H :   -0.063520
  30 H :   -0.002402
  31 H :   -0.021606
  32 H :   -0.018411
  33 H :   -0.034614
  34 H :   -0.152860
  35 H :   -0.024851

  Mayer bond orders larger than 0.100000
B(  0-C ,  1-C ) :   0.9860 B(  0-C , 20-H ) :   0.9773 B(  0-C , 21-H ) :   0.9798
B(  0-C , 22-H ) :   0.9769 B(  1-C ,  2-O ) :   0.9051 B(  1-C , 23-H ) :   0.9743
B(  1-C , 24-H ) :   0.9583 B(  2-O ,  3-C ) :   1.1951 B(  3-C ,  4-O ) :   2.0880
B(  3-C ,  5-C ) :   0.9281 B(  5-C ,  6-C ) :   1.6779 B(  5-C , 12-C ) :   0.9567
B(  6-C ,  7-C ) :   0.9418 B(  6-C ,  8-N ) :   1.1236 B(  7-C , 25-H ) :   0.9791
B(  7-C , 26-H ) :   0.9698 B(  7-C , 27-H ) :   0.9664 B(  8-N ,  9-C ) :   1.1924
B(  8-N , 28-H ) :   0.9519 B(  9-C , 10-S ) :   1.6128 B(  9-C , 11-N ) :   1.2894
B( 11-N , 12-C ) :   0.9974 B( 11-N , 29-H ) :   0.9494 B( 12-C , 13-C ) :   0.9416
B( 12-C , 30-H ) :   0.9974 B( 13-C , 14-C ) :   1.3891 B( 13-C , 19-C ) :   1.3412
B( 14-C , 15-C ) :   1.3962 B( 14-C , 31-H ) :   0.9602 B( 15-C , 16-C ) :   1.3633
B( 15-C , 32-H ) :   0.9698 B( 16-C , 17-C ) :   1.3299 B( 16-C , 33-H ) :   0.9843
B( 17-C , 18-O ) :   1.1106 B( 17-C , 19-C ) :   1.3640 B( 18-O , 34-H ) :   0.9793
B( 19-C , 35-H ) :   0.9568

MP2 TOTAL ENERGY:    -1274.335924861 Eh
FINAL SINGLE POINT ENERGY     -1274.335924861035

DIPOLE MOMENT
-------------
                                X             Y             Z
Electronic contribution:     10.60588       8.34351       6.77447
Nuclear contribution   :    -12.11626      -9.29802      -7.16037
                        -----------------------------------------
Total Dipole Moment    :     -1.51039      -0.95452      -0.38590
                        -----------------------------------------
Magnitude (a.u.)       :      1.82792
Magnitude (Debye)      :      4.64620

Rotational constants in cm-1:     0.012019     0.009088     0.006790
Rotational constants in MHz :   360.328847   272.459088   203.553770

                             ****ORCA TERMINATED NORMALLY****
TOTAL RUN TIME: 0 days 1 hours 58 minutes 50 seconds 251 msec
