                         Program Version 5.0.0 -  RELEASE  -
|  1> ! ri-mp2 cc-pvtz cc-pvtz/c TightSCF NoKeepInts
|  2>
|  3> %scf
|  4>   MaxCore 4096
|  5> end
|  6> *xyz  0  1
|  7>     C       15.2007093   14.1218512   17.0117154
|  8>     C       16.4890247   13.9845068   16.1720738
|  9>     O       17.4242017   15.0262846   16.5152377
| 10>     C       17.0902540   16.3395550   16.3321993
| 11>     O       16.2953162   16.6901002   15.4764340
| 12>     C       17.6804943   17.2455116   17.3774156
| 13>     C       17.4833250   18.5884518   17.3708649
| 14>     C       16.6709998   19.3911370   16.3772534
| 15>     N       18.0952439   19.3915834   18.3379662
| 16>     C       19.0030185   18.9494900   19.2629311
| 17>     S       19.7633729   19.9833400   20.3064556
| 18>     N       19.2548274   17.6013713   19.2770314
| 19>     C       18.5291856   16.5940384   18.4818833
| 20>     C       17.6919165   15.7177718   19.4089622
| 21>     C       18.0429561   14.3720523   19.6263061
| 22>     C       17.2760839   13.5620526   20.4807850
| 23>     C       16.1503066   14.1023501   21.1255693
| 24>     C       15.8008834   15.4433974   20.9153926
| 25>     O       14.7145747   15.9679005   21.5362956
| 26>     C       16.5659737   16.2470118   20.0645897
| 27>     H       15.4337413   14.1291247   18.0830381
| 28>     H       14.5288243   13.2775372   16.8168111
| 29>     H       14.6576818   15.0432217   16.7679403
| 30>     H       16.9475478   13.0071495   16.3691444
| 31>     H       16.2416928   14.0350937   15.1029753
| 32>     H       17.0426393   19.2326930   15.3568704
| 33>     H       16.6957839   20.4693345   16.5738783
| 34>     H       15.6201240   19.0749014   16.3950179
| 35>     H       17.9245895   20.3845241   18.3401306
| 36>     H       19.9015732   17.3008708   19.9948117
| 37>     H       19.2818579   15.9603826   17.9920003
| 38>     H       18.9105021   13.9508367   19.1254384
| 39>     H       17.5549240   12.5220409   20.6412370
| 40>     H       15.5550768   13.4810268   21.7866387
| 41>     H       14.3443720   15.2790551   22.1084200
| 42>     H       16.2834010   17.2844496   19.9222853
| 43> *
| 44>
| 45>                          ****END OF INPUT****

CARTESIAN COORDINATES (ANGSTROEM)
---------------------------------
  C     15.200709   14.121851   17.011715
  C     16.489025   13.984507   16.172074
  O     17.424202   15.026285   16.515238
  C     17.090254   16.339555   16.332199
  O     16.295316   16.690100   15.476434
  C     17.680494   17.245512   17.377416
  C     17.483325   18.588452   17.370865
  C     16.671000   19.391137   16.377253
  N     18.095244   19.391583   18.337966
  C     19.003018   18.949490   19.262931
  S     19.763373   19.983340   20.306456
  N     19.254827   17.601371   19.277031
  C     18.529186   16.594038   18.481883
  C     17.691917   15.717772   19.408962
  C     18.042956   14.372052   19.626306
  C     17.276084   13.562053   20.480785
  C     16.150307   14.102350   21.125569
  C     15.800883   15.443397   20.915393
  O     14.714575   15.967901   21.536296
  C     16.565974   16.247012   20.064590
  H     15.433741   14.129125   18.083038
  H     14.528824   13.277537   16.816811
  H     14.657682   15.043222   16.767940
  H     16.947548   13.007150   16.369144
  H     16.241693   14.035094   15.102975
  H     17.042639   19.232693   15.356870
  H     16.695784   20.469334   16.573878
  H     15.620124   19.074901   16.395018
  H     17.924589   20.384524   18.340131
  H     19.901573   17.300871   19.994812
  H     19.281858   15.960383   17.992000
  H     18.910502   13.950837   19.125438
  H     17.554924   12.522041   20.641237
  H     15.555077   13.481027   21.786639
  H     14.344372   15.279055   22.108420
  H     16.283401   17.284450   19.922285

 Total Charge           Charge          ....    0
 Multiplicity           Mult            ....    1
 Number of Electrons    NEL             ....  154
 Basis Dimension        Dim             ....  828

ORBITAL ENERGIES
----------------

  NO   OCC          E(Eh)            E(eV)
   0   2.0000     -91.889388     -2500.4374
   1   2.0000     -20.598278      -560.5076
   2   2.0000     -20.595912      -560.4433
   3   2.0000     -20.541905      -558.9736
   4   2.0000     -15.629711      -425.3061
   5   2.0000     -15.608730      -424.7351
   6   2.0000     -11.394586      -310.0624
   7   2.0000     -11.384465      -309.7871
   8   2.0000     -11.336590      -308.4843
   9   2.0000     -11.315776      -307.9179
  10   2.0000     -11.309646      -307.7511
  11   2.0000     -11.296911      -307.4046
  12   2.0000     -11.261208      -306.4330
  13   2.0000     -11.259218      -306.3789
  14   2.0000     -11.257199      -306.3240
  15   2.0000     -11.252481      -306.1956
  16   2.0000     -11.245000      -305.9920
  17   2.0000     -11.240020      -305.8565
  18   2.0000     -11.239743      -305.8489
  19   2.0000     -11.220492      -305.3251
  20   2.0000      -8.894442      -242.0301
  21   2.0000      -6.576014      -178.9424
  22   2.0000      -6.574012      -178.8879
  23   2.0000      -6.573423      -178.8719
  24   2.0000      -1.448905       -39.4267
  25   2.0000      -1.417977       -38.5851
  26   2.0000      -1.352897       -36.8142
  27   2.0000      -1.340661       -36.4812
  28   2.0000      -1.239146       -33.7189
  29   2.0000      -1.159289       -31.5459
  30   2.0000      -1.121025       -30.5046
  31   2.0000      -1.043791       -28.4030
  32   2.0000      -1.033025       -28.1100
  33   2.0000      -1.016918       -27.6717
  34   2.0000      -0.996109       -27.1055
  35   2.0000      -0.984859       -26.7994
  36   2.0000      -0.923458       -25.1286
  37   2.0000      -0.895067       -24.3560
  38   2.0000      -0.847618       -23.0648
  39   2.0000      -0.839398       -22.8412
  40   2.0000      -0.835612       -22.7382
  41   2.0000      -0.815422       -22.1888
  42   2.0000      -0.751709       -20.4550
  43   2.0000      -0.733649       -19.9636
  44   2.0000      -0.723295       -19.6818
  45   2.0000      -0.697405       -18.9774
  46   2.0000      -0.689541       -18.7634
  47   2.0000      -0.677019       -18.4226
  48   2.0000      -0.670452       -18.2439
  49   2.0000      -0.662699       -18.0330
  50   2.0000      -0.649216       -17.6661
  51   2.0000      -0.641736       -17.4625
  52   2.0000      -0.633682       -17.2434
  53   2.0000      -0.613413       -16.6918
  54   2.0000      -0.608702       -16.5636
  55   2.0000      -0.601414       -16.3653
  56   2.0000      -0.599716       -16.3191
  57   2.0000      -0.578965       -15.7544
  58   2.0000      -0.571089       -15.5401
  59   2.0000      -0.566886       -15.4258
  60   2.0000      -0.555574       -15.1179
  61   2.0000      -0.543630       -14.7929
  62   2.0000      -0.533008       -14.5039
  63   2.0000      -0.529129       -14.3983
  64   2.0000      -0.526386       -14.3237
  65   2.0000      -0.513860       -13.9828
  66   2.0000      -0.502514       -13.6741
  67   2.0000      -0.500707       -13.6249
  68   2.0000      -0.479032       -13.0351
  69   2.0000      -0.465264       -12.6605
  70   2.0000      -0.453660       -12.3447
  71   2.0000      -0.445150       -12.1132
  72   2.0000      -0.355069        -9.6619
  73   2.0000      -0.351278        -9.5588
  74   2.0000      -0.328890        -8.9496
  75   2.0000      -0.323557        -8.8044
  76   2.0000      -0.316722        -8.6184
  77   0.0000       0.074377         2.0239
  78   0.0000       0.105184         2.8622
  79   0.0000       0.124131         3.3778
  80   0.0000       0.131324         3.5735
  81   0.0000       0.137175         3.7327

MULLIKEN ATOMIC CHARGES
-----------------------
   0 C :   -0.318663
   1 C :    0.025413
   2 O :   -0.370137
   3 C :    0.466790
   4 O :   -0.431782
   5 C :   -0.229647
   6 C :    0.154633
   7 C :   -0.271379
   8 N :   -0.122546
   9 C :    0.211881
  10 S :   -0.439200
  11 N :   -0.204943
  12 C :    0.060413
  13 C :    0.045737
  14 C :   -0.183462
  15 C :   -0.133072
  16 C :   -0.277251
  17 C :    0.306449
  18 O :   -0.358228
  19 C :   -0.246830
  20 H :    0.110233
  21 H :    0.103261
  22 H :    0.115342
  23 H :    0.113777
  24 H :    0.118852
  25 H :    0.131916
  26 H :    0.095367
  27 H :    0.131665
  28 H :    0.197752
  29 H :    0.194519
  30 H :    0.151185
  31 H :    0.152633
  32 H :    0.160680
  33 H :    0.131194
  34 H :    0.241012
  35 H :    0.166437
Sum of atomic charges:    0.0000000

LOEWDIN ATOMIC CHARGES
----------------------
   0 C :    0.105608
   1 C :   -0.016571
   2 O :    0.299991
   3 C :   -0.415458
   4 O :    0.099129
   5 C :   -0.095060
   6 C :   -0.058430
   7 C :    0.131698
   8 N :    0.406774
   9 C :   -0.456266
  10 S :   -0.034819
  11 N :    0.396601
  12 C :   -0.051896
  13 C :   -0.039075
  14 C :    0.013729
  15 C :    0.039086
  16 C :   -0.002536
  17 C :   -0.190472
  18 O :    0.396279
  19 C :    0.031711
  20 H :   -0.026528
  21 H :   -0.026847
  22 H :   -0.026647
  23 H :   -0.024878
  24 H :   -0.028157
  25 H :   -0.003582
  26 H :   -0.023334
  27 H :   -0.004849
  28 H :   -0.057473
  29 H :   -0.064674
  30 H :   -0.009881
  31 H :   -0.029612
  32 H :   -0.020955
  33 H :   -0.035288
  34 H :   -0.153495
  35 H :   -0.023823

  Mayer bond orders larger than 0.100000
B(  0-C ,  1-C ) :   0.9571 B(  0-C , 20-H ) :   0.9694 B(  0-C , 21-H ) :   0.9783
B(  0-C , 22-H ) :   0.9747 B(  1-C ,  2-O ) :   0.8884 B(  1-C , 23-H ) :   0.9837
B(  1-C , 24-H ) :   0.9838 B(  2-O ,  3-C ) :   1.1481 B(  3-C ,  4-O ) :   1.9768
B(  3-C ,  5-C ) :   1.0625 B(  5-C ,  6-C ) :   1.6538 B(  5-C , 12-C ) :   0.9717
B(  6-C ,  7-C ) :   0.9663 B(  6-C ,  8-N ) :   1.1634 B(  7-C , 25-H ) :   0.9600
B(  7-C , 26-H ) :   0.9903 B(  7-C , 27-H ) :   0.9606 B(  8-N ,  9-C ) :   1.1823
B(  8-N , 28-H ) :   0.9477 B(  9-C , 10-S ) :   1.6079 B(  9-C , 11-N ) :   1.3057
B( 11-N , 12-C ) :   0.9833 B( 11-N , 29-H ) :   0.9521 B( 12-C , 13-C ) :   0.9357
B( 12-C , 30-H ) :   1.0021 B( 13-C , 14-C ) :   1.3565 B( 13-C , 19-C ) :   1.3855
B( 14-C , 15-C ) :   1.3894 B( 14-C , 31-H ) :   0.9713 B( 15-C , 16-C ) :   1.3598
B( 15-C , 32-H ) :   0.9716 B( 16-C , 17-C ) :   1.3318 B( 16-C , 33-H ) :   0.9852
B( 17-C , 18-O ) :   1.1119 B( 17-C , 19-C ) :   1.3720 B( 18-O , 34-H ) :   0.9795
B( 19-C , 35-H ) :   0.9569

MP2 TOTAL ENERGY:    -1274.348844276 Eh
FINAL SINGLE POINT ENERGY     -1274.348844275664

DIPOLE MOMENT
-------------
                                X             Y             Z
Electronic contribution:      9.57579      10.06682       6.34964
Nuclear contribution   :    -10.49199     -11.79525      -6.59773
                        -----------------------------------------
Total Dipole Moment    :     -0.91620      -1.72843      -0.24809
                        -----------------------------------------
Magnitude (a.u.)       :      1.97191
Magnitude (Debye)      :      5.01220

Rotational constants in cm-1:     0.012466     0.008890     0.006434
Rotational constants in MHz :   373.734414   266.502812   192.879358

                             ****ORCA TERMINATED NORMALLY****
TOTAL RUN TIME: 0 days 2 hours 5 minutes 7 seconds 721 msec
