                         Program Version 4.2.0 -  RELEASE  -
|  1> ! ri-mp2 cc-pvtz cc-pvtz/c TightSCF  NoKeepInts
|  2>
|  3> %scf
|  4>   MaxCore 4096
|  5> end
|  6> *xyz  0  1
|  7>     C       14.6777067   16.1364532   16.7064474
|  8>     C       15.5872437   14.9657927   17.1226840
|  9>     O       16.8048862   14.9078016   16.3466352
| 10>     C       17.8891401   15.7494837   16.4171297
| 11>     O       18.9612900   15.3832322   15.9746234
| 12>     C       17.8357740   16.8682789   17.3990143
| 13>     C       17.3729479   18.0877160   17.0434087
| 14>     C       16.8138571   18.4878382   15.6945553
| 15>     N       17.4674587   19.1579773   17.9347780
| 16>     C       18.1134676   19.1104403   19.1425280
| 17>     S       18.2122691   20.4341381   20.1284914
| 18>     N       18.6770354   17.9083997   19.4945445
| 19>     C       18.5746142   16.6534516   18.7220895
| 20>     C       17.9615659   15.5283573   19.5493792
| 21>     C       18.4177424   14.2083343   19.3774728
| 22>     C       17.8531255   13.1533453   20.1130428
| 23>     C       16.8224436   13.4187222   21.0303398
| 24>     C       16.3626672   14.7309403   21.2037321
| 25>     O       15.3588437   14.9885754   22.0788847
| 26>     C       16.9240132   15.7797301   20.4679947
| 27>     H       14.9395707   17.0558025   17.2385305
| 28>     H       13.6365896   15.9062950   16.9643395
| 29>     H       14.7236821   16.3083967   15.6241419
| 30>     H       15.7933612   15.0049666   18.1965923
| 31>     H       15.0372238   14.0335024   16.9401385
| 32>     H       16.7300365   17.6388964   15.0054690
| 33>     H       17.4678546   19.2249584   15.2113259
| 34>     H       15.8165534   18.9338317   15.7924207
| 35>     H       17.0857268   20.0559436   17.6817765
| 36>     H       19.1383107   17.9015541   20.3956619
| 37>     H       19.5997418   16.3459144   18.4665093
| 38>     H       19.2071289   13.9976967   18.6583267
| 39>     H       18.2137189   12.1361628   19.9677328
| 40>     H       16.3833284   12.6060282   21.5998419
| 41>     H       15.1437259   14.1578642   22.5297511
| 42>     H       16.5423544   16.7851778   20.6136660
| 43> *
| 44>
| 45>                          ****END OF INPUT****

CARTESIAN COORDINATES (ANGSTROEM)
---------------------------------
  C     14.677707   16.136453   16.706447
  C     15.587244   14.965793   17.122684
  O     16.804886   14.907802   16.346635
  C     17.889140   15.749484   16.417130
  O     18.961290   15.383232   15.974623
  C     17.835774   16.868279   17.399014
  C     17.372948   18.087716   17.043409
  C     16.813857   18.487838   15.694555
  N     17.467459   19.157977   17.934778
  C     18.113468   19.110440   19.142528
  S     18.212269   20.434138   20.128491
  N     18.677035   17.908400   19.494544
  C     18.574614   16.653452   18.722089
  C     17.961566   15.528357   19.549379
  C     18.417742   14.208334   19.377473
  C     17.853126   13.153345   20.113043
  C     16.822444   13.418722   21.030340
  C     16.362667   14.730940   21.203732
  O     15.358844   14.988575   22.078885
  C     16.924013   15.779730   20.467995
  H     14.939571   17.055802   17.238530
  H     13.636590   15.906295   16.964340
  H     14.723682   16.308397   15.624142
  H     15.793361   15.004967   18.196592
  H     15.037224   14.033502   16.940138
  H     16.730037   17.638896   15.005469
  H     17.467855   19.224958   15.211326
  H     15.816553   18.933832   15.792421
  H     17.085727   20.055944   17.681777
  H     19.138311   17.901554   20.395662
  H     19.599742   16.345914   18.466509
  H     19.207129   13.997697   18.658327
  H     18.213719   12.136163   19.967733
  H     16.383328   12.606028   21.599842
  H     15.143726   14.157864   22.529751
  H     16.542354   16.785178   20.613666

 Total Charge           Charge          ....    0
 Multiplicity           Mult            ....    1
 Number of Electrons    NEL             ....  154
 Basis Dimension        Dim             ....  828

ORBITAL ENERGIES
----------------

  NO   OCC          E(Eh)            E(eV)
   0   2.0000     -91.889531     -2500.4413
   1   2.0000     -20.602931      -560.6343
   2   2.0000     -20.598037      -560.5011
   3   2.0000     -20.551637      -559.2385
   4   2.0000     -15.624807      -425.1726
   5   2.0000     -15.612367      -424.8341
   6   2.0000     -11.398848      -310.1784
   7   2.0000     -11.386514      -309.8428
   8   2.0000     -11.325508      -308.1827
   9   2.0000     -11.320855      -308.0561
  10   2.0000     -11.318370      -307.9885
  11   2.0000     -11.302569      -307.5585
  12   2.0000     -11.268143      -306.6218
  13   2.0000     -11.265925      -306.5614
  14   2.0000     -11.263847      -306.5048
  15   2.0000     -11.261476      -306.4403
  16   2.0000     -11.249854      -306.1241
  17   2.0000     -11.245344      -306.0014
  18   2.0000     -11.243327      -305.9465
  19   2.0000     -11.235409      -305.7310
  20   2.0000      -8.894653      -242.0358
  21   2.0000      -6.576246      -178.9488
  22   2.0000      -6.574215      -178.8935
  23   2.0000      -6.573645      -178.8780
  24   2.0000      -1.445675       -39.3388
  25   2.0000      -1.422747       -38.7149
  26   2.0000      -1.358321       -36.9618
  27   2.0000      -1.339332       -36.4451
  28   2.0000      -1.240066       -33.7439
  29   2.0000      -1.164689       -31.6928
  30   2.0000      -1.126073       -30.6420
  31   2.0000      -1.050943       -28.5976
  32   2.0000      -1.039566       -28.2880
  33   2.0000      -1.022700       -27.8291
  34   2.0000      -1.005375       -27.3576
  35   2.0000      -0.990260       -26.9463
  36   2.0000      -0.928957       -25.2782
  37   2.0000      -0.896937       -24.4069
  38   2.0000      -0.852814       -23.2062
  39   2.0000      -0.843002       -22.9392
  40   2.0000      -0.839840       -22.8532
  41   2.0000      -0.834179       -22.6992
  42   2.0000      -0.753308       -20.4985
  43   2.0000      -0.736122       -20.0309
  44   2.0000      -0.729074       -19.8391
  45   2.0000      -0.700394       -19.0587
  46   2.0000      -0.691165       -18.8076
  47   2.0000      -0.679776       -18.4977
  48   2.0000      -0.677121       -18.4254
  49   2.0000      -0.665287       -18.1034
  50   2.0000      -0.655257       -17.8304
  51   2.0000      -0.640666       -17.4334
  52   2.0000      -0.640334       -17.4244
  53   2.0000      -0.620051       -16.8724
  54   2.0000      -0.611484       -16.6393
  55   2.0000      -0.609059       -16.5733
  56   2.0000      -0.606147       -16.4941
  57   2.0000      -0.586746       -15.9662
  58   2.0000      -0.581137       -15.8135
  59   2.0000      -0.577177       -15.7058
  60   2.0000      -0.567553       -15.4439
  61   2.0000      -0.557088       -15.1591
  62   2.0000      -0.538574       -14.6553
  63   2.0000      -0.537070       -14.6144
  64   2.0000      -0.524727       -14.2785
  65   2.0000      -0.515826       -14.0363
  66   2.0000      -0.504500       -13.7282
  67   2.0000      -0.500168       -13.6103
  68   2.0000      -0.489787       -13.3278
  69   2.0000      -0.466731       -12.7004
  70   2.0000      -0.452734       -12.3195
  71   2.0000      -0.450469       -12.2579
  72   2.0000      -0.356222        -9.6933
  73   2.0000      -0.354523        -9.6471
  74   2.0000      -0.329754        -8.9731
  75   2.0000      -0.328452        -8.9376
  76   2.0000      -0.318644        -8.6707
  77   0.0000       0.092584         2.5193
  78   0.0000       0.102573         2.7912
  79   0.0000       0.117212         3.1895
  80   0.0000       0.126053         3.4301
  81   0.0000       0.127520         3.4700

MULLIKEN ATOMIC CHARGES
-----------------------
   0 C :   -0.325773
   1 C :    0.039581
   2 O :   -0.322391
   3 C :    0.389851
   4 O :   -0.376863
   5 C :   -0.160243
   6 C :    0.112240
   7 C :   -0.326516
   8 N :   -0.139131
   9 C :    0.211177
  10 S :   -0.443857
  11 N :   -0.230105
  12 C :    0.085021
  13 C :   -0.002944
  14 C :   -0.200123
  15 C :   -0.137818
  16 C :   -0.270197
  17 C :    0.309551
  18 O :   -0.355994
  19 C :   -0.254127
  20 H :    0.099215
  21 H :    0.119996
  22 H :    0.106016
  23 H :    0.105202
  24 H :    0.123945
  25 H :    0.119603
  26 H :    0.148934
  27 H :    0.120367
  28 H :    0.196697
  29 H :    0.203650
  30 H :    0.165812
  31 H :    0.168333
  32 H :    0.165698
  33 H :    0.134438
  34 H :    0.241741
  35 H :    0.179012
Sum of atomic charges:   -0.0000000

LOEWDIN ATOMIC CHARGES
----------------------
   0 C :    0.103061
   1 C :   -0.015989
   2 O :    0.300868
   3 C :   -0.418188
   4 O :    0.125942
   5 C :   -0.079580
   6 C :   -0.106529
   7 C :    0.125153
   8 N :    0.401607
   9 C :   -0.455120
  10 S :   -0.039415
  11 N :    0.397609
  12 C :   -0.044321
  13 C :   -0.045045
  14 C :    0.020727
  15 C :    0.046648
  16 C :   -0.000004
  17 C :   -0.193609
  18 O :    0.396652
  19 C :    0.024955
  20 H :   -0.033733
  21 H :   -0.022217
  22 H :   -0.027440
  23 H :   -0.033587
  24 H :   -0.019206
  25 H :   -0.010178
  26 H :   -0.008742
  27 H :   -0.016792
  28 H :   -0.057709
  29 H :   -0.064189
  30 H :   -0.002692
  31 H :   -0.021450
  32 H :   -0.017352
  33 H :   -0.033903
  34 H :   -0.152347
  35 H :   -0.023886

  Mayer bond orders larger than 0.100000
B(  0-C ,  1-C ) :   0.9524 B(  0-C , 20-H ) :   0.9778 B(  0-C , 21-H ) :   0.9789
B(  0-C , 22-H ) :   0.9744 B(  1-C ,  2-O ) :   0.9006 B(  1-C , 23-H ) :   0.9628
B(  1-C , 24-H ) :   0.9865 B(  2-O ,  3-C ) :   1.1823 B(  3-C ,  4-O ) :   2.1049
B(  3-C ,  5-C ) :   0.8919 B(  5-C ,  6-C ) :   1.7285 B(  5-C , 12-C ) :   0.9500
B(  6-C ,  7-C ) :   0.9530 B(  6-C ,  8-N ) :   1.0942 B(  7-C , 25-H ) :   0.9809
B(  7-C , 26-H ) :   0.9666 B(  7-C , 27-H ) :   0.9666 B(  8-N ,  9-C ) :   1.2051
B(  8-N , 28-H ) :   0.9519 B(  9-C , 10-S ) :   1.6059 B(  9-C , 11-N ) :   1.2844
B( 11-N , 12-C ) :   0.9888 B( 11-N , 29-H ) :   0.9455 B( 12-C , 13-C ) :   0.9517
B( 12-C , 30-H ) :   0.9960 B( 13-C , 14-C ) :   1.3917 B( 13-C , 19-C ) :   1.3412
B( 14-C , 15-C ) :   1.3979 B( 14-C , 31-H ) :   0.9630 B( 15-C , 16-C ) :   1.3609
B( 15-C , 32-H ) :   0.9690 B( 16-C , 17-C ) :   1.3297 B( 16-C , 33-H ) :   0.9839
B( 17-C , 18-O ) :   1.1112 B( 17-C , 19-C ) :   1.3654 B( 18-O , 34-H ) :   0.9787
B( 19-C , 35-H ) :   0.9586

MP2 TOTAL ENERGY:    -1274.327346301 Eh
FINAL SINGLE POINT ENERGY     -1274.327346301265

DIPOLE MOMENT
-------------
                                X             Y             Z
Electronic contribution:      9.91941       4.99080       7.10219
Nuclear contribution   :    -11.44676      -6.31641      -7.29466
                        -----------------------------------------
Total Dipole Moment    :     -1.52735      -1.32561      -0.19247
                        -----------------------------------------
Magnitude (a.u.)       :      2.03152
Magnitude (Debye)      :      5.16372

Rotational constants in cm-1:     0.012044     0.009257     0.006752
Rotational constants in MHz :   361.071401   277.529740   202.432348

                             ****ORCA TERMINATED NORMALLY****
TOTAL RUN TIME: 0 days 1 hours 53 minutes 29 seconds 420 msec
