                         Program Version 4.2.0 -  RELEASE  -
|  1> ! ri-mp2 cc-pvtz cc-pvtz/c TightSCF  NoKeepInts
|  2>
|  3> %scf
|  4>   MaxCore 4096
|  5> end
|  6> *xyz  0  1
|  7>     C       15.1172472   15.1152749   17.5117668
|  8>     C       15.5066832   15.5111167   16.0762832
|  9>     O       16.8830449   15.1644005   15.8043447
| 10>     C       18.0080600   15.6067397   16.4612448
| 11>     O       19.0000912   14.9016194   16.4802653
| 12>     C       17.9029412   16.8016169   17.3588331
| 13>     C       17.4344587   18.0039550   16.9425600
| 14>     C       16.9991032   18.3952349   15.5452498
| 15>     N       17.4762992   19.1045729   17.8015229
| 16>     C       18.1232807   19.1293159   19.0084376
| 17>     S       18.2091298   20.5056099   19.9207502
| 18>     N       18.7057314   17.9559831   19.4166051
| 19>     C       18.5643051   16.6529154   18.7368256
| 20>     C       17.8451949   15.6360259   19.6230648
| 21>     C       18.2246483   14.2810601   19.5861028
| 22>     C       17.5715768   13.3288066   20.3858299
| 23>     C       16.5292406   13.7324556   21.2365596
| 24>     C       16.1495879   15.0801751   21.2824886
| 25>     O       15.1382236   15.4725752   22.0971225
| 26>     C       16.8016937   16.0265811   20.4854843
| 27>     H       15.4013039   15.8984037   18.2203792
| 28>     H       15.5966816   14.1734577   17.8091667
| 29>     H       14.0312793   14.9835340   17.5895514
| 30>     H       14.8757264   14.9423612   15.3808380
| 31>     H       15.2906718   16.5685605   15.9093097
| 32>     H       17.1481675   17.5899307   14.8160605
| 33>     H       17.5886770   19.2479145   15.1840891
| 34>     H       15.9429424   18.6900250   15.5221208
| 35>     H       17.0804409   19.9836019   17.5072560
| 36>     H       19.1696192   17.9994099   20.3153190
| 37>     H       19.5812976   16.2688739   18.5670268
| 38>     H       19.0271118   13.9610916   18.9246573
| 39>     H       17.8739324   12.2838352   20.3409998
| 40>     H       16.0208276   12.9995779   21.8543193
| 41>     H       14.8465806   14.6935359   22.5943788
| 42>     H       16.4811985   17.0618515   20.5371862
| 43> *
| 44>
| 45>                          ****END OF INPUT****

CARTESIAN COORDINATES (ANGSTROEM)
---------------------------------
  C     15.117247   15.115275   17.511767
  C     15.506683   15.511117   16.076283
  O     16.883045   15.164400   15.804345
  C     18.008060   15.606740   16.461245
  O     19.000091   14.901619   16.480265
  C     17.902941   16.801617   17.358833
  C     17.434459   18.003955   16.942560
  C     16.999103   18.395235   15.545250
  N     17.476299   19.104573   17.801523
  C     18.123281   19.129316   19.008438
  S     18.209130   20.505610   19.920750
  N     18.705731   17.955983   19.416605
  C     18.564305   16.652915   18.736826
  C     17.845195   15.636026   19.623065
  C     18.224648   14.281060   19.586103
  C     17.571577   13.328807   20.385830
  C     16.529241   13.732456   21.236560
  C     16.149588   15.080175   21.282489
  O     15.138224   15.472575   22.097123
  C     16.801694   16.026581   20.485484
  H     15.401304   15.898404   18.220379
  H     15.596682   14.173458   17.809167
  H     14.031279   14.983534   17.589551
  H     14.875726   14.942361   15.380838
  H     15.290672   16.568561   15.909310
  H     17.148167   17.589931   14.816061
  H     17.588677   19.247915   15.184089
  H     15.942942   18.690025   15.522121
  H     17.080441   19.983602   17.507256
  H     19.169619   17.999410   20.315319
  H     19.581298   16.268874   18.567027
  H     19.027112   13.961092   18.924657
  H     17.873932   12.283835   20.341000
  H     16.020828   12.999578   21.854319
  H     14.846581   14.693536   22.594379
  H     16.481199   17.061851   20.537186

 Total Charge           Charge          ....    0
 Multiplicity           Mult            ....    1
 Number of Electrons    NEL             ....  154
 Basis Dimension        Dim             ....  828

ORBITAL ENERGIES
----------------

  NO   OCC          E(Eh)            E(eV)
   0   2.0000     -91.891087     -2500.4836
   1   2.0000     -20.599815      -560.5495
   2   2.0000     -20.597592      -560.4890
   3   2.0000     -20.549248      -559.1735
   4   2.0000     -15.629021      -425.2873
   5   2.0000     -15.611445      -424.8090
   6   2.0000     -11.400821      -310.2321
   7   2.0000     -11.387289      -309.8639
   8   2.0000     -11.335216      -308.4469
   9   2.0000     -11.314311      -307.8781
  10   2.0000     -11.314110      -307.8726
  11   2.0000     -11.307701      -307.6982
  12   2.0000     -11.270306      -306.6806
  13   2.0000     -11.269152      -306.6492
  14   2.0000     -11.262042      -306.4557
  15   2.0000     -11.254537      -306.2515
  16   2.0000     -11.243759      -305.9582
  17   2.0000     -11.239433      -305.8405
  18   2.0000     -11.235703      -305.7390
  19   2.0000     -11.227002      -305.5023
  20   2.0000      -8.896183      -242.0775
  21   2.0000      -6.577770      -178.9902
  22   2.0000      -6.575745      -178.9351
  23   2.0000      -6.575167      -178.9194
  24   2.0000      -1.446081       -39.3499
  25   2.0000      -1.417397       -38.5693
  26   2.0000      -1.358611       -36.9697
  27   2.0000      -1.342474       -36.5306
  28   2.0000      -1.241241       -33.7759
  29   2.0000      -1.158778       -31.5319
  30   2.0000      -1.125332       -30.6218
  31   2.0000      -1.047535       -28.5049
  32   2.0000      -1.037903       -28.2428
  33   2.0000      -1.017446       -27.6861
  34   2.0000      -1.005956       -27.3735
  35   2.0000      -0.990244       -26.9459
  36   2.0000      -0.928043       -25.2533
  37   2.0000      -0.895476       -24.3671
  38   2.0000      -0.855764       -23.2865
  39   2.0000      -0.841256       -22.8917
  40   2.0000      -0.834297       -22.7024
  41   2.0000      -0.830407       -22.5965
  42   2.0000      -0.747182       -20.3319
  43   2.0000      -0.740629       -20.1535
  44   2.0000      -0.730339       -19.8735
  45   2.0000      -0.695430       -18.9236
  46   2.0000      -0.687502       -18.7079
  47   2.0000      -0.680646       -18.5213
  48   2.0000      -0.675570       -18.3832
  49   2.0000      -0.661687       -18.0054
  50   2.0000      -0.654186       -17.8013
  51   2.0000      -0.648956       -17.6590
  52   2.0000      -0.639207       -17.3937
  53   2.0000      -0.622759       -16.9461
  54   2.0000      -0.610713       -16.6183
  55   2.0000      -0.605720       -16.4825
  56   2.0000      -0.601524       -16.3683
  57   2.0000      -0.589151       -16.0316
  58   2.0000      -0.576947       -15.6995
  59   2.0000      -0.567288       -15.4367
  60   2.0000      -0.565991       -15.4014
  61   2.0000      -0.552391       -15.0313
  62   2.0000      -0.539105       -14.6698
  63   2.0000      -0.535782       -14.5794
  64   2.0000      -0.519794       -14.1443
  65   2.0000      -0.512919       -13.9572
  66   2.0000      -0.501683       -13.6515
  67   2.0000      -0.500647       -13.6233
  68   2.0000      -0.482373       -13.1260
  69   2.0000      -0.468531       -12.7494
  70   2.0000      -0.456442       -12.4204
  71   2.0000      -0.449993       -12.2449
  72   2.0000      -0.359345        -9.7783
  73   2.0000      -0.348369        -9.4796
  74   2.0000      -0.330630        -8.9969
  75   2.0000      -0.323041        -8.7904
  76   2.0000      -0.319731        -8.7003
  77   0.0000       0.080770         2.1979
  78   0.0000       0.106898         2.9088
  79   0.0000       0.113760         3.0956
  80   0.0000       0.129639         3.5277
  81   0.0000       0.131150         3.5688

MULLIKEN ATOMIC CHARGES
-----------------------
   0 C :   -0.323398
   1 C :    0.024242
   2 O :   -0.326126
   3 C :    0.430124
   4 O :   -0.386608
   5 C :   -0.247310
   6 C :    0.171341
   7 C :   -0.330356
   8 N :   -0.137943
   9 C :    0.201488
  10 S :   -0.439505
  11 N :   -0.226678
  12 C :    0.094191
  13 C :    0.021392
  14 C :   -0.221096
  15 C :   -0.137444
  16 C :   -0.274684
  17 C :    0.323469
  18 O :   -0.357153
  19 C :   -0.273326
  20 H :    0.107624
  21 H :    0.125080
  22 H :    0.111777
  23 H :    0.127338
  24 H :    0.086933
  25 H :    0.131906
  26 H :    0.141614
  27 H :    0.119867
  28 H :    0.196482
  29 H :    0.202842
  30 H :    0.166868
  31 H :    0.178795
  32 H :    0.165049
  33 H :    0.131806
  34 H :    0.240947
  35 H :    0.180451
Sum of atomic charges:   -0.0000000

LOEWDIN ATOMIC CHARGES
----------------------
   0 C :    0.105954
   1 C :   -0.021298
   2 O :    0.298637
   3 C :   -0.413730
   4 O :    0.122056
   5 C :   -0.080061
   6 C :   -0.094663
   7 C :    0.121599
   8 N :    0.402863
   9 C :   -0.458861
  10 S :   -0.036492
  11 N :    0.398094
  12 C :   -0.042361
  13 C :   -0.041867
  14 C :    0.019953
  15 C :    0.043084
  16 C :   -0.001374
  17 C :   -0.192531
  18 O :    0.395444
  19 C :    0.027171
  20 H :   -0.034774
  21 H :   -0.018928
  22 H :   -0.025425
  23 H :   -0.019635
  24 H :   -0.039533
  25 H :   -0.008003
  26 H :   -0.008558
  27 H :   -0.019027
  28 H :   -0.056970
  29 H :   -0.063119
  30 H :   -0.002003
  31 H :   -0.022499
  32 H :   -0.018812
  33 H :   -0.035056
  34 H :   -0.153487
  35 H :   -0.025789

  Mayer bond orders larger than 0.100000
B(  0-C ,  1-C ) :   0.9557 B(  0-C , 20-H ) :   0.9725 B(  0-C , 21-H ) :   0.9684
B(  0-C , 22-H ) :   0.9780 B(  1-C ,  2-O ) :   0.9019 B(  1-C , 23-H ) :   0.9839
B(  1-C , 24-H ) :   0.9723 B(  2-O ,  3-C ) :   1.1798 B(  3-C ,  4-O ) :   2.0769
B(  3-C ,  5-C ) :   0.9337 B(  5-C ,  6-C ) :   1.6815 B(  5-C , 12-C ) :   0.9446
B(  6-C ,  7-C ) :   0.9422 B(  6-C ,  8-N ) :   1.1154 B(  7-C , 25-H ) :   0.9787
B(  7-C , 26-H ) :   0.9684 B(  7-C , 27-H ) :   0.9668 B(  8-N ,  9-C ) :   1.1945
B(  8-N , 28-H ) :   0.9523 B(  9-C , 10-S ) :   1.6095 B(  9-C , 11-N ) :   1.2908
B( 11-N , 12-C ) :   0.9863 B( 11-N , 29-H ) :   0.9478 B( 12-C , 13-C ) :   0.9554
B( 12-C , 30-H ) :   0.9945 B( 13-C , 14-C ) :   1.3874 B( 13-C , 19-C ) :   1.3363
B( 14-C , 15-C ) :   1.4015 B( 14-C , 31-H ) :   0.9569 B( 15-C , 16-C ) :   1.3579
B( 15-C , 32-H ) :   0.9697 B( 16-C , 17-C ) :   1.3316 B( 16-C , 33-H ) :   0.9847
B( 17-C , 18-O ) :   1.1098 B( 17-C , 19-C ) :   1.3640 B( 18-O , 34-H ) :   0.9797
B( 19-C , 35-H ) :   0.9580

MP2 TOTAL ENERGY:    -1274.332378962 Eh
FINAL SINGLE POINT ENERGY     -1274.332378961588

DIPOLE MOMENT
-------------
                                X             Y             Z
Electronic contribution:      9.13578       6.63968       6.15938
Nuclear contribution   :    -10.67898      -7.56453      -6.76998
                        -----------------------------------------
Total Dipole Moment    :     -1.54320      -0.92485      -0.61059
                        -----------------------------------------
Magnitude (a.u.)       :      1.89990
Magnitude (Debye)      :      4.82917

Rotational constants in cm-1:     0.011708     0.009602     0.006681
Rotational constants in MHz :   350.986861   287.868042   200.281040

                             ****ORCA TERMINATED NORMALLY****
TOTAL RUN TIME: 0 days 1 hours 45 minutes 58 seconds 196 msec
