                         Program Version 4.2.0 -  RELEASE  -
|  1> ! ri-mp2 cc-pvtz cc-pvtz/c TightSCF  NoKeepInts
|  2>
|  3> %scf
|  4>   MaxCore 4096
|  5> end
|  6> *xyz  0  1
|  7>     C       14.7095687   14.4833257   17.3167126
|  8>     C       15.5992756   15.5451723   16.6506142
|  9>     O       16.9203363   14.9830405   16.5582480
| 10>     C       18.0710986   15.7235738   16.4821720
| 11>     O       19.1184770   15.1341684   16.2926920
| 12>     C       18.0722478   16.9210631   17.3699625
| 13>     C       17.5848310   18.1135063   16.9619064
| 14>     C       16.9782089   18.4254359   15.6109781
| 15>     N       17.6556149   19.2203155   17.8102561
| 16>     C       18.2862655   19.2270419   19.0279600
| 17>     S       18.3754666   20.5968320   19.9497958
| 18>     N       18.8335134   18.0384739   19.4480734
| 19>     C       18.7112002   16.7448637   18.7451957
| 20>     C       17.9317518   15.7290198   19.5742243
| 21>     C       18.3757228   14.3965594   19.6544275
| 22>     C       17.6557711   13.4451880   20.3960282
| 23>     C       16.4788187   13.8276332   21.0616514
| 24>     C       16.0279870   15.1516910   20.9764959
| 25>     O       14.8822092   15.5200993   21.6026033
| 26>     C       16.7455804   16.0967401   20.2365126
| 27>     H       15.1053173   14.2125930   18.3034273
| 28>     H       14.6679549   13.5747210   16.7031817
| 29>     H       13.6877348   14.8593454   17.4472642
| 30>     H       15.2177117   15.8065217   15.6551348
| 31>     H       15.5772906   16.4366381   17.2883202
| 32>     H       17.1922512   17.6459551   14.8693347
| 33>     H       17.3832969   19.3619005   15.2062465
| 34>     H       15.8890902   18.5335501   15.6834686
| 35>     H       17.2711761   20.1047641   17.5167977
| 36>     H       19.2728170   18.0692808   20.3594952
| 37>     H       19.7267495   16.3514583   18.5898901
| 38>     H       19.2751559   14.0934882   19.1226578
| 39>     H       18.0076347   12.4161189   20.4449916
| 40>     H       15.9182116   13.0945333   21.6320979
| 41>     H       14.5657555   14.7526784   22.1029708
| 42>     H       16.3749062   17.1147092   20.1822107
| 43> *
| 44>
| 45>                          ****END OF INPUT****

CARTESIAN COORDINATES (ANGSTROEM)
---------------------------------
  C     14.709569   14.483326   17.316713
  C     15.599276   15.545172   16.650614
  O     16.920336   14.983040   16.558248
  C     18.071099   15.723574   16.482172
  O     19.118477   15.134168   16.292692
  C     18.072248   16.921063   17.369962
  C     17.584831   18.113506   16.961906
  C     16.978209   18.425436   15.610978
  N     17.655615   19.220315   17.810256
  C     18.286265   19.227042   19.027960
  S     18.375467   20.596832   19.949796
  N     18.833513   18.038474   19.448073
  C     18.711200   16.744864   18.745196
  C     17.931752   15.729020   19.574224
  C     18.375723   14.396559   19.654427
  C     17.655771   13.445188   20.396028
  C     16.478819   13.827633   21.061651
  C     16.027987   15.151691   20.976496
  O     14.882209   15.520099   21.602603
  C     16.745580   16.096740   20.236513
  H     15.105317   14.212593   18.303427
  H     14.667955   13.574721   16.703182
  H     13.687735   14.859345   17.447264
  H     15.217712   15.806522   15.655135
  H     15.577291   16.436638   17.288320
  H     17.192251   17.645955   14.869335
  H     17.383297   19.361901   15.206247
  H     15.889090   18.533550   15.683469
  H     17.271176   20.104764   17.516798
  H     19.272817   18.069281   20.359495
  H     19.726750   16.351458   18.589890
  H     19.275156   14.093488   19.122658
  H     18.007635   12.416119   20.444992
  H     15.918212   13.094533   21.632098
  H     14.565755   14.752678   22.102971
  H     16.374906   17.114709   20.182211

 Total Charge           Charge          ....    0
 Multiplicity           Mult            ....    1
 Number of Electrons    NEL             ....  154
 Basis Dimension        Dim             ....  828

ORBITAL ENERGIES
----------------

  NO   OCC          E(Eh)            E(eV)
   0   2.0000     -91.888599     -2500.4159
   1   2.0000     -20.602992      -560.6359
   2   2.0000     -20.599563      -560.5426
   3   2.0000     -20.554361      -559.3126
   4   2.0000     -15.624411      -425.1618
   5   2.0000     -15.611145      -424.8009
   6   2.0000     -11.396386      -310.1114
   7   2.0000     -11.385610      -309.8182
   8   2.0000     -11.323992      -308.1415
   9   2.0000     -11.316180      -307.9289
  10   2.0000     -11.316011      -307.9243
  11   2.0000     -11.303705      -307.5894
  12   2.0000     -11.270431      -306.6840
  13   2.0000     -11.264128      -306.5125
  14   2.0000     -11.263215      -306.4877
  15   2.0000     -11.256363      -306.3012
  16   2.0000     -11.245349      -306.0015
  17   2.0000     -11.241584      -305.8990
  18   2.0000     -11.238876      -305.8254
  19   2.0000     -11.229299      -305.5648
  20   2.0000      -8.893732      -242.0108
  21   2.0000      -6.575326      -178.9237
  22   2.0000      -6.573294      -178.8684
  23   2.0000      -6.572726      -178.8530
  24   2.0000      -1.452968       -39.5373
  25   2.0000      -1.419361       -38.6228
  26   2.0000      -1.361590       -37.0507
  27   2.0000      -1.338388       -36.4194
  28   2.0000      -1.238704       -33.7068
  29   2.0000      -1.160709       -31.5845
  30   2.0000      -1.125193       -30.6180
  31   2.0000      -1.048837       -28.5403
  32   2.0000      -1.039750       -28.2930
  33   2.0000      -1.018268       -27.7085
  34   2.0000      -1.004663       -27.3383
  35   2.0000      -0.988437       -26.8967
  36   2.0000      -0.927507       -25.2387
  37   2.0000      -0.881628       -23.9903
  38   2.0000      -0.854035       -23.2395
  39   2.0000      -0.840914       -22.8824
  40   2.0000      -0.836578       -22.7644
  41   2.0000      -0.836014       -22.7491
  42   2.0000      -0.758336       -20.6354
  43   2.0000      -0.738486       -20.0952
  44   2.0000      -0.731094       -19.8941
  45   2.0000      -0.697976       -18.9929
  46   2.0000      -0.689718       -18.7682
  47   2.0000      -0.683394       -18.5961
  48   2.0000      -0.676797       -18.4166
  49   2.0000      -0.661347       -17.9962
  50   2.0000      -0.655815       -17.8456
  51   2.0000      -0.646676       -17.5969
  52   2.0000      -0.639249       -17.3948
  53   2.0000      -0.611913       -16.6510
  54   2.0000      -0.609822       -16.5941
  55   2.0000      -0.606207       -16.4957
  56   2.0000      -0.601576       -16.3697
  57   2.0000      -0.586744       -15.9661
  58   2.0000      -0.577812       -15.7231
  59   2.0000      -0.567326       -15.4377
  60   2.0000      -0.560528       -15.2527
  61   2.0000      -0.554592       -15.0912
  62   2.0000      -0.545261       -14.8373
  63   2.0000      -0.530356       -14.4317
  64   2.0000      -0.520282       -14.1576
  65   2.0000      -0.513924       -13.9846
  66   2.0000      -0.502827       -13.6826
  67   2.0000      -0.501786       -13.6543
  68   2.0000      -0.488823       -13.3016
  69   2.0000      -0.469039       -12.7632
  70   2.0000      -0.455224       -12.3873
  71   2.0000      -0.451683       -12.2909
  72   2.0000      -0.355731        -9.6799
  73   2.0000      -0.351404        -9.5622
  74   2.0000      -0.328447        -8.9375
  75   2.0000      -0.323818        -8.8115
  76   2.0000      -0.316798        -8.6205
  77   0.0000       0.090244         2.4557
  78   0.0000       0.102432         2.7873
  79   0.0000       0.107489         2.9249
  80   0.0000       0.127336         3.4650
  81   0.0000       0.129991         3.5372

MULLIKEN ATOMIC CHARGES
-----------------------
   0 C :   -0.265301
   1 C :    0.005907
   2 O :   -0.303618
   3 C :    0.381942
   4 O :   -0.370786
   5 C :   -0.146891
   6 C :    0.112271
   7 C :   -0.320593
   8 N :   -0.135665
   9 C :    0.206319
  10 S :   -0.443522
  11 N :   -0.214012
  12 C :    0.053286
  13 C :    0.034449
  14 C :   -0.187986
  15 C :   -0.127927
  16 C :   -0.278366
  17 C :    0.297573
  18 O :   -0.361559
  19 C :   -0.258627
  20 H :    0.114037
  21 H :    0.104251
  22 H :    0.088286
  23 H :    0.108971
  24 H :    0.092539
  25 H :    0.120740
  26 H :    0.133511
  27 H :    0.123416
  28 H :    0.195356
  29 H :    0.198333
  30 H :    0.166194
  31 H :    0.162898
  32 H :    0.162948
  33 H :    0.132862
  34 H :    0.241737
  35 H :    0.177028
Sum of atomic charges:   -0.0000000

LOEWDIN ATOMIC CHARGES
----------------------
   0 C :    0.112546
   1 C :   -0.028169
   2 O :    0.321958
   3 C :   -0.422102
   4 O :    0.133472
   5 C :   -0.080173
   6 C :   -0.112603
   7 C :    0.124248
   8 N :    0.399668
   9 C :   -0.455276
  10 S :   -0.040039
  11 N :    0.397541
  12 C :   -0.042515
  13 C :   -0.040487
  14 C :    0.024559
  15 C :    0.046065
  16 C :   -0.001364
  17 C :   -0.194292
  18 O :    0.395113
  19 C :    0.027288
  20 H :   -0.022205
  21 H :   -0.026112
  22 H :   -0.025700
  23 H :   -0.036094
  24 H :   -0.039270
  25 H :   -0.010013
  26 H :   -0.010431
  27 H :   -0.016508
  28 H :   -0.059284
  29 H :   -0.063718
  30 H :   -0.002193
  31 H :   -0.022523
  32 H :   -0.018619
  33 H :   -0.035048
  34 H :   -0.153047
  35 H :   -0.024673

  Mayer bond orders larger than 0.100000
B(  0-C ,  1-C ) :   0.9801 B(  0-C , 20-H ) :   0.9717 B(  0-C , 21-H ) :   0.9815
B(  0-C , 22-H ) :   0.9759 B(  1-C ,  2-O ) :   0.9224 B(  1-C , 23-H ) :   0.9761
B(  1-C , 24-H ) :   0.9619 B(  2-O ,  3-C ) :   1.1384 B(  3-C ,  4-O ) :   2.0987
B(  3-C ,  5-C ) :   0.9226 B(  5-C ,  6-C ) :   1.7047 B(  5-C , 12-C ) :   0.9655
B(  6-C ,  7-C ) :   0.9424 B(  6-C ,  8-N ) :   1.1055 B(  7-C , 25-H ) :   0.9819
B(  7-C , 26-H ) :   0.9740 B(  7-C , 27-H ) :   0.9650 B(  8-N ,  9-C ) :   1.1993
B(  8-N , 28-H ) :   0.9532 B(  9-C , 10-S ) :   1.6082 B(  9-C , 11-N ) :   1.2852
B( 11-N , 12-C ) :   0.9968 B( 11-N , 29-H ) :   0.9486 B( 12-C , 13-C ) :   0.9469
B( 12-C , 30-H ) :   0.9972 B( 13-C , 14-C ) :   1.3852 B( 13-C , 19-C ) :   1.3472
B( 14-C , 15-C ) :   1.3977 B( 14-C , 31-H ) :   0.9636 B( 15-C , 16-C ) :   1.3597
B( 15-C , 32-H ) :   0.9705 B( 16-C , 17-C ) :   1.3309 B( 16-C , 33-H ) :   0.9852
B( 17-C , 18-O ) :   1.1054 B( 17-C , 19-C ) :   1.3721 B( 18-O , 34-H ) :   0.9791
B( 19-C , 35-H ) :   0.9561

MP2 TOTAL ENERGY:    -1274.324906781 Eh
FINAL SINGLE POINT ENERGY     -1274.324906781242

DIPOLE MOMENT
-------------
                                X             Y             Z
Electronic contribution:     10.51552       8.00478       6.16084
Nuclear contribution   :    -12.10456      -9.07963      -6.76595
                        -----------------------------------------
Total Dipole Moment    :     -1.58904      -1.07485      -0.60511
                        -----------------------------------------
Magnitude (a.u.)       :      2.01159
Magnitude (Debye)      :      5.11306

Rotational constants in cm-1:     0.012585     0.009060     0.006903
Rotational constants in MHz :   377.303557   271.626691   206.934455

                             ****ORCA TERMINATED NORMALLY****
TOTAL RUN TIME: 0 days 1 hours 47 minutes 36 seconds 219 msec
