                         Program Version 4.2.0 -  RELEASE  -
|  1> ! ri-mp2 cc-pvtz cc-pvtz/c TightSCF  NoKeepInts
|  2>
|  3> %scf
|  4>   MaxCore 4096
|  5> end
|  6> *xyz  0  1
|  7>     C       15.0851097   14.8137371   16.9483974
|  8>     C       16.3986172   14.0411851   16.6813703
|  9>     O       17.5449330   14.8901580   16.4191531
| 10>     C       17.4191412   16.2189881   16.1303259
| 11>     O       16.8317629   16.5834501   15.1270122
| 12>     C       17.7640832   17.1171900   17.2885225
| 13>     C       17.4607984   18.4407886   17.2965406
| 14>     C       16.6834466   19.2127468   16.2519856
| 15>     N       17.9233764   19.2578808   18.3329419
| 16>     C       18.8459731   18.8766316   19.2708885
| 17>     S       19.4788152   19.9452078   20.3631778
| 18>     N       19.2275204   17.5590746   19.2494997
| 19>     C       18.5713934   16.5088179   18.4493234
| 20>     C       17.7329725   15.6308211   19.3729952
| 21>     C       18.1143540   14.2997230   19.6265711
| 22>     C       17.3517489   13.4878376   20.4829888
| 23>     C       16.2029068   14.0133360   21.0983263
| 24>     C       15.8296924   15.3433436   20.8618120
| 25>     O       14.7228326   15.8550828   21.4561937
| 26>     C       16.5910634   16.1489576   20.0097153
| 27>     H       15.2039510   15.5503553   17.7497199
| 28>     H       14.2950776   14.1164216   17.2518283
| 29>     H       14.7379035   15.3306224   16.0449929
| 30>     H       16.6178266   13.3917983   17.5377778
| 31>     H       16.2400489   13.3883581   15.8132101
| 32>     H       17.2158399   19.2052031   15.2921873
| 33>     H       16.5137905   20.2595272   16.5298601
| 34>     H       15.7010377   18.7532997   16.0840241
| 35>     H       17.6631916   20.2310816   18.3528357
| 36>     H       19.8892668   17.3005507   19.9700311
| 37>     H       19.3635838   15.8866148   18.0094187
| 38>     H       19.0019131   13.8901840   19.1512033
| 39>     H       17.6529781   12.4583192   20.6696851
| 40>     H       15.6107070   13.3904934   21.7608600
| 41>     H       14.3690535   15.1757705   22.0499752
| 42>     H       16.2902890   17.1784422   19.8486492
| 43> *
| 44>
| 45>                          ****END OF INPUT****

CARTESIAN COORDINATES (ANGSTROEM)
---------------------------------
  C     15.085110   14.813737   16.948397
  C     16.398617   14.041185   16.681370
  O     17.544933   14.890158   16.419153
  C     17.419141   16.218988   16.130326
  O     16.831763   16.583450   15.127012
  C     17.764083   17.117190   17.288522
  C     17.460798   18.440789   17.296541
  C     16.683447   19.212747   16.251986
  N     17.923376   19.257881   18.332942
  C     18.845973   18.876632   19.270889
  S     19.478815   19.945208   20.363178
  N     19.227520   17.559075   19.249500
  C     18.571393   16.508818   18.449323
  C     17.732972   15.630821   19.372995
  C     18.114354   14.299723   19.626571
  C     17.351749   13.487838   20.482989
  C     16.202907   14.013336   21.098326
  C     15.829692   15.343344   20.861812
  O     14.722833   15.855083   21.456194
  C     16.591063   16.148958   20.009715
  H     15.203951   15.550355   17.749720
  H     14.295078   14.116422   17.251828
  H     14.737903   15.330622   16.044993
  H     16.617827   13.391798   17.537778
  H     16.240049   13.388358   15.813210
  H     17.215840   19.205203   15.292187
  H     16.513790   20.259527   16.529860
  H     15.701038   18.753300   16.084024
  H     17.663192   20.231082   18.352836
  H     19.889267   17.300551   19.970031
  H     19.363584   15.886615   18.009419
  H     19.001913   13.890184   19.151203
  H     17.652978   12.458319   20.669685
  H     15.610707   13.390493   21.760860
  H     14.369053   15.175771   22.049975
  H     16.290289   17.178442   19.848649

 Total Charge           Charge          ....    0
 Multiplicity           Mult            ....    1
 Number of Electrons    NEL             ....  154
 Basis Dimension        Dim             ....  828

ORBITAL ENERGIES
----------------

  NO   OCC          E(Eh)            E(eV)
   0   2.0000     -91.890758     -2500.4746
   1   2.0000     -20.601077      -560.5838
   2   2.0000     -20.581153      -560.0416
   3   2.0000     -20.546176      -559.0899
   4   2.0000     -15.631085      -425.3435
   5   2.0000     -15.609585      -424.7584
   6   2.0000     -11.393650      -310.0370
   7   2.0000     -11.385398      -309.8124
   8   2.0000     -11.337319      -308.5041
   9   2.0000     -11.318476      -307.9914
  10   2.0000     -11.311659      -307.8059
  11   2.0000     -11.298744      -307.4545
  12   2.0000     -11.263653      -306.4996
  13   2.0000     -11.259932      -306.3983
  14   2.0000     -11.259434      -306.3848
  15   2.0000     -11.253436      -306.2216
  16   2.0000     -11.247920      -306.0715
  17   2.0000     -11.242588      -305.9264
  18   2.0000     -11.242463      -305.9230
  19   2.0000     -11.224354      -305.4302
  20   2.0000      -8.895788      -242.0667
  21   2.0000      -6.577354      -178.9789
  22   2.0000      -6.575359      -178.9246
  23   2.0000      -6.574764      -178.9084
  24   2.0000      -1.443063       -39.2677
  25   2.0000      -1.420767       -38.6610
  26   2.0000      -1.349831       -36.7308
  27   2.0000      -1.342133       -36.5213
  28   2.0000      -1.240483       -33.7553
  29   2.0000      -1.161558       -31.6076
  30   2.0000      -1.121291       -30.5119
  31   2.0000      -1.045734       -28.4559
  32   2.0000      -1.030766       -28.0486
  33   2.0000      -1.020036       -27.7566
  34   2.0000      -0.998687       -27.1757
  35   2.0000      -0.986477       -26.8434
  36   2.0000      -0.925169       -25.1751
  37   2.0000      -0.896419       -24.3928
  38   2.0000      -0.848917       -23.1002
  39   2.0000      -0.843037       -22.9402
  40   2.0000      -0.838559       -22.8184
  41   2.0000      -0.818976       -22.2855
  42   2.0000      -0.744691       -20.2641
  43   2.0000      -0.734682       -19.9917
  44   2.0000      -0.720611       -19.6088
  45   2.0000      -0.700127       -19.0514
  46   2.0000      -0.691402       -18.8140
  47   2.0000      -0.672626       -18.3031
  48   2.0000      -0.671097       -18.2615
  49   2.0000      -0.660252       -17.9664
  50   2.0000      -0.653734       -17.7890
  51   2.0000      -0.644606       -17.5406
  52   2.0000      -0.636337       -17.3156
  53   2.0000      -0.626615       -17.0511
  54   2.0000      -0.611485       -16.6394
  55   2.0000      -0.603579       -16.4242
  56   2.0000      -0.601085       -16.3563
  57   2.0000      -0.581239       -15.8163
  58   2.0000      -0.572162       -15.5693
  59   2.0000      -0.566101       -15.4044
  60   2.0000      -0.545629       -14.8473
  61   2.0000      -0.544176       -14.8078
  62   2.0000      -0.534614       -14.5476
  63   2.0000      -0.529086       -14.3972
  64   2.0000      -0.528330       -14.3766
  65   2.0000      -0.515890       -14.0381
  66   2.0000      -0.504448       -13.7267
  67   2.0000      -0.495016       -13.4701
  68   2.0000      -0.484697       -13.1893
  69   2.0000      -0.463490       -12.6122
  70   2.0000      -0.454959       -12.3801
  71   2.0000      -0.442451       -12.0397
  72   2.0000      -0.356620        -9.7041
  73   2.0000      -0.353221        -9.6116
  74   2.0000      -0.330341        -8.9890
  75   2.0000      -0.326083        -8.8732
  76   2.0000      -0.317843        -8.6490
  77   0.0000       0.069316         1.8862
  78   0.0000       0.101604         2.7648
  79   0.0000       0.121597         3.3088
  80   0.0000       0.128811         3.5051
  81   0.0000       0.133558         3.6343

MULLIKEN ATOMIC CHARGES
-----------------------
   0 C :   -0.335330
   1 C :    0.039485
   2 O :   -0.400255
   3 C :    0.522695
   4 O :   -0.416558
   5 C :   -0.273628
   6 C :    0.156117
   7 C :   -0.271605
   8 N :   -0.123890
   9 C :    0.208055
  10 S :   -0.435732
  11 N :   -0.198531
  12 C :    0.050047
  13 C :    0.080765
  14 C :   -0.204342
  15 C :   -0.125642
  16 C :   -0.277050
  17 C :    0.326459
  18 O :   -0.358139
  19 C :   -0.304912
  20 H :    0.105556
  21 H :    0.108400
  22 H :    0.125576
  23 H :    0.111684
  24 H :    0.119123
  25 H :    0.135718
  26 H :    0.094860
  27 H :    0.128856
  28 H :    0.198309
  29 H :    0.192865
  30 H :    0.151627
  31 H :    0.154955
  32 H :    0.166236
  33 H :    0.133402
  34 H :    0.241497
  35 H :    0.173327
Sum of atomic charges:   -0.0000000

LOEWDIN ATOMIC CHARGES
----------------------
   0 C :    0.106177
   1 C :   -0.008432
   2 O :    0.279746
   3 C :   -0.420940
   4 O :    0.116332
   5 C :   -0.098988
   6 C :   -0.059091
   7 C :    0.131235
   8 N :    0.406851
   9 C :   -0.457360
  10 S :   -0.032505
  11 N :    0.396548
  12 C :   -0.052676
  13 C :   -0.038144
  14 C :    0.016824
  15 C :    0.039923
  16 C :   -0.001665
  17 C :   -0.189992
  18 O :    0.396411
  19 C :    0.033174
  20 H :   -0.033317
  21 H :   -0.023090
  22 H :   -0.026465
  23 H :   -0.029613
  24 H :   -0.028134
  25 H :   -0.002910
  26 H :   -0.023260
  27 H :   -0.005796
  28 H :   -0.057512
  29 H :   -0.064999
  30 H :   -0.007168
  31 H :   -0.028591
  32 H :   -0.020414
  33 H :   -0.034613
  34 H :   -0.152855
  35 H :   -0.024685

  Mayer bond orders larger than 0.100000
B(  0-C ,  1-C ) :   0.9578 B(  0-C , 20-H ) :   0.9709 B(  0-C , 21-H ) :   0.9765
B(  0-C , 22-H ) :   0.9720 B(  1-C ,  2-O ) :   0.8814 B(  1-C , 23-H ) :   0.9738
B(  1-C , 24-H ) :   0.9862 B(  2-O ,  3-C ) :   1.0992 B(  3-C ,  4-O ) :   2.0050
B(  3-C ,  5-C ) :   1.0600 B(  5-C ,  6-C ) :   1.6513 B(  5-C , 12-C ) :   0.9704
B(  6-C ,  7-C ) :   0.9686 B(  6-C ,  8-N ) :   1.1555 B(  7-C , 25-H ) :   0.9575
B(  7-C , 26-H ) :   0.9891 B(  7-C , 27-H ) :   0.9636 B(  8-N ,  9-C ) :   1.1788
B(  8-N , 28-H ) :   0.9482 B(  9-C , 10-S ) :   1.6145 B(  9-C , 11-N ) :   1.3023
B( 11-N , 12-C ) :   0.9811 B( 11-N , 29-H ) :   0.9534 B( 12-C , 13-C ) :   0.9404
B( 12-C , 30-H ) :   1.0026 B( 13-C , 14-C ) :   1.3468 B( 13-C , 19-C ) :   1.3637
B( 14-C , 15-C ) :   1.3825 B( 14-C , 31-H ) :   0.9735 B( 15-C , 16-C ) :   1.3643
B( 15-C , 32-H ) :   0.9691 B( 16-C , 17-C ) :   1.3290 B( 16-C , 33-H ) :   0.9836
B( 17-C , 18-O ) :   1.1121 B( 17-C , 19-C ) :   1.3671 B( 18-O , 34-H ) :   0.9795
B( 19-C , 35-H ) :   0.9586

MP2 TOTAL ENERGY:    -1274.330874103 Eh
FINAL SINGLE POINT ENERGY     -1274.330874102539

DIPOLE MOMENT
-------------
                                X             Y             Z
Electronic contribution:     10.04926       8.44813       5.59126
Nuclear contribution   :    -11.13672     -10.05341      -5.44218
                        -----------------------------------------
Total Dipole Moment    :     -1.08746      -1.60529       0.14908
                        -----------------------------------------
Magnitude (a.u.)       :      1.94467
Magnitude (Debye)      :      4.94295

Rotational constants in cm-1:     0.012172     0.009478     0.006667
Rotational constants in MHz :   364.904324   284.150633   199.868011

                             ****ORCA TERMINATED NORMALLY****
TOTAL RUN TIME: 0 days 2 hours 20 minutes 28 seconds 131 msec
