                         Program Version 4.2.0 -  RELEASE  -
|  1> ! ri-mp2 cc-pvtz cc-pvtz/c TightSCF  NoKeepInts
|  2>
|  3> %scf
|  4>   MaxCore 4096
|  5> end
|  6> *xyz  0  1
|  7>     C       15.1670208   15.3807003   17.4865846
|  8>     C       15.5254946   15.3908649   15.9861174
|  9>     O       16.9382630   15.2001319   15.7212338
| 10>     C       18.0212827   15.5771892   16.4813687
| 11>     O       18.9930909   14.8457938   16.5343476
| 12>     C       17.9178134   16.7798793   17.3714484
| 13>     C       17.3904929   17.9663192   16.9784174
| 14>     C       16.8625596   18.3442875   15.6108980
| 15>     N       17.4210151   19.0631553   17.8433224
| 16>     C       18.1052708   19.1052524   19.0290101
| 17>     S       18.1754527   20.4806840   19.9440170
| 18>     N       18.7333677   17.9483995   19.4155272
| 19>     C       18.6023970   16.6434659   18.7380189
| 20>     C       17.8911456   15.6274992   19.6297536
| 21>     C       18.3297578   14.2906771   19.6621624
| 22>     C       17.6784815   13.3401282   20.4655251
| 23>     C       16.5773460   13.7275672   21.2472503
| 24>     C       16.1365404   15.0572039   21.2202766
| 25>     O       15.0674090   15.4329552   21.9661256
| 26>     C       16.7869042   16.0016598   20.4197712
| 27>     H       15.7039173   14.5807599   18.0122687
| 28>     H       14.0935016   15.1947474   17.6124588
| 29>     H       15.3822713   16.3391624   17.9693291
| 30>     H       14.9810709   14.5744939   15.4937012
| 31>     H       15.1651291   16.3203099   15.5338728
| 32>     H       17.1139173   17.6011920   14.8449988
| 33>     H       17.3043239   19.2901979   15.2718446
| 34>     H       15.7741619   18.4750664   15.6269148
| 35>     H       16.9845888   19.9287901   17.5674857
| 36>     H       19.2198108   18.0019236   20.3016122
| 37>     H       19.6210541   16.2684899   18.5587655
| 38>     H       19.1748855   13.9833715   19.0495363
| 39>     H       18.0265674   12.3085768   20.4755127
| 40>     H       16.0700436   12.9956735   21.8670802
| 41>     H       14.7885759   14.6620956   22.4831037
| 42>     H       16.4220751   17.0233353   20.4143386
| 43> *
| 44>
| 45>                          ****END OF INPUT****

CARTESIAN COORDINATES (ANGSTROEM)
---------------------------------
  C     15.167021   15.380700   17.486585
  C     15.525495   15.390865   15.986117
  O     16.938263   15.200132   15.721234
  C     18.021283   15.577189   16.481369
  O     18.993091   14.845794   16.534348
  C     17.917813   16.779879   17.371448
  C     17.390493   17.966319   16.978417
  C     16.862560   18.344287   15.610898
  N     17.421015   19.063155   17.843322
  C     18.105271   19.105252   19.029010
  S     18.175453   20.480684   19.944017
  N     18.733368   17.948400   19.415527
  C     18.602397   16.643466   18.738019
  C     17.891146   15.627499   19.629754
  C     18.329758   14.290677   19.662162
  C     17.678482   13.340128   20.465525
  C     16.577346   13.727567   21.247250
  C     16.136540   15.057204   21.220277
  O     15.067409   15.432955   21.966126
  C     16.786904   16.001660   20.419771
  H     15.703917   14.580760   18.012269
  H     14.093502   15.194747   17.612459
  H     15.382271   16.339162   17.969329
  H     14.981071   14.574494   15.493701
  H     15.165129   16.320310   15.533873
  H     17.113917   17.601192   14.844999
  H     17.304324   19.290198   15.271845
  H     15.774162   18.475066   15.626915
  H     16.984589   19.928790   17.567486
  H     19.219811   18.001924   20.301612
  H     19.621054   16.268490   18.558765
  H     19.174885   13.983372   19.049536
  H     18.026567   12.308577   20.475513
  H     16.070044   12.995673   21.867080
  H     14.788576   14.662096   22.483104
  H     16.422075   17.023335   20.414339

 Total Charge           Charge          ....    0
 Multiplicity           Mult            ....    1
 Number of Electrons    NEL             ....  154
 Basis Dimension        Dim             ....  828

ORBITAL ENERGIES
----------------

  NO   OCC          E(Eh)            E(eV)
   0   2.0000     -91.891017     -2500.4817
   1   2.0000     -20.597438      -560.4848
   2   2.0000     -20.596589      -560.4617
   3   2.0000     -20.548100      -559.1422
   4   2.0000     -15.629645      -425.3043
   5   2.0000     -15.610897      -424.7941
   6   2.0000     -11.400079      -310.2119
   7   2.0000     -11.386974      -309.8553
   8   2.0000     -11.335324      -308.4498
   9   2.0000     -11.313892      -307.8667
  10   2.0000     -11.312296      -307.8232
  11   2.0000     -11.310466      -307.7734
  12   2.0000     -11.268646      -306.6354
  13   2.0000     -11.267568      -306.6061
  14   2.0000     -11.260762      -306.4209
  15   2.0000     -11.254231      -306.2432
  16   2.0000     -11.243779      -305.9588
  17   2.0000     -11.239195      -305.8340
  18   2.0000     -11.235823      -305.7423
  19   2.0000     -11.232159      -305.6426
  20   2.0000      -8.896109      -242.0754
  21   2.0000      -6.577694      -178.9881
  22   2.0000      -6.575672      -178.9331
  23   2.0000      -6.575091      -178.9173
  24   2.0000      -1.443456       -39.2784
  25   2.0000      -1.417258       -38.5655
  26   2.0000      -1.356122       -36.9019
  27   2.0000      -1.342576       -36.5333
  28   2.0000      -1.240997       -33.7693
  29   2.0000      -1.158600       -31.5271
  30   2.0000      -1.124560       -30.6008
  31   2.0000      -1.046965       -28.4894
  32   2.0000      -1.038866       -28.2690
  33   2.0000      -1.016828       -27.6693
  34   2.0000      -1.005931       -27.3728
  35   2.0000      -0.989910       -26.9368
  36   2.0000      -0.927934       -25.2504
  37   2.0000      -0.899292       -24.4710
  38   2.0000      -0.855032       -23.2666
  39   2.0000      -0.840969       -22.8839
  40   2.0000      -0.834289       -22.7022
  41   2.0000      -0.827691       -22.5226
  42   2.0000      -0.745082       -20.2747
  43   2.0000      -0.736409       -20.0387
  44   2.0000      -0.730377       -19.8746
  45   2.0000      -0.695176       -18.9167
  46   2.0000      -0.686647       -18.6846
  47   2.0000      -0.680276       -18.5112
  48   2.0000      -0.674950       -18.3663
  49   2.0000      -0.659432       -17.9441
  50   2.0000      -0.658480       -17.9182
  51   2.0000      -0.651612       -17.7313
  52   2.0000      -0.640555       -17.4304
  53   2.0000      -0.621150       -16.9023
  54   2.0000      -0.609538       -16.5864
  55   2.0000      -0.605502       -16.4765
  56   2.0000      -0.601781       -16.3753
  57   2.0000      -0.588414       -16.0115
  58   2.0000      -0.576480       -15.6868
  59   2.0000      -0.566524       -15.4159
  60   2.0000      -0.565500       -15.3880
  61   2.0000      -0.553522       -15.0621
  62   2.0000      -0.541858       -14.7447
  63   2.0000      -0.533527       -14.5180
  64   2.0000      -0.521920       -14.2022
  65   2.0000      -0.513162       -13.9639
  66   2.0000      -0.501027       -13.6336
  67   2.0000      -0.496018       -13.4973
  68   2.0000      -0.483214       -13.1489
  69   2.0000      -0.470039       -12.7904
  70   2.0000      -0.456455       -12.4208
  71   2.0000      -0.448988       -12.2176
  72   2.0000      -0.357784        -9.7358
  73   2.0000      -0.348407        -9.4806
  74   2.0000      -0.330479        -8.9928
  75   2.0000      -0.322705        -8.7813
  76   2.0000      -0.319367        -8.6904
  77   0.0000       0.077885         2.1194
  78   0.0000       0.107786         2.9330
  79   0.0000       0.114539         3.1168
  80   0.0000       0.130950         3.5633
  81   0.0000       0.132348         3.6014

MULLIKEN ATOMIC CHARGES
-----------------------
   0 C :   -0.340654
   1 C :    0.032430
   2 O :   -0.335833
   3 C :    0.437526
   4 O :   -0.387004
   5 C :   -0.230998
   6 C :    0.166008
   7 C :   -0.342592
   8 N :   -0.134871
   9 C :    0.196126
  10 S :   -0.438565
  11 N :   -0.216417
  12 C :    0.073378
  13 C :    0.023139
  14 C :   -0.205499
  15 C :   -0.134643
  16 C :   -0.278844
  17 C :    0.319511
  18 O :   -0.358670
  19 C :   -0.272536
  20 H :    0.131004
  21 H :    0.119415
  22 H :    0.111101
  23 H :    0.130804
  24 H :    0.086626
  25 H :    0.139489
  26 H :    0.137261
  27 H :    0.121172
  28 H :    0.197584
  29 H :    0.199949
  30 H :    0.165495
  31 H :    0.175150
  32 H :    0.163753
  33 H :    0.131804
  34 H :    0.241012
  35 H :    0.177388
Sum of atomic charges:   -0.0000000

LOEWDIN ATOMIC CHARGES
----------------------
   0 C :    0.103652
   1 C :   -0.016421
   2 O :    0.291015
   3 C :   -0.415152
   4 O :    0.122052
   5 C :   -0.082396
   6 C :   -0.088678
   7 C :    0.123829
   8 N :    0.403445
   9 C :   -0.459594
  10 S :   -0.035984
  11 N :    0.398184
  12 C :   -0.043543
  13 C :   -0.043220
  14 C :    0.019719
  15 C :    0.042232
  16 C :   -0.001663
  17 C :   -0.193670
  18 O :    0.394953
  19 C :    0.029141
  20 H :   -0.018337
  21 H :   -0.022914
  22 H :   -0.035305
  23 H :   -0.018807
  24 H :   -0.038935
  25 H :   -0.007353
  26 H :   -0.009847
  27 H :   -0.018915
  28 H :   -0.056927
  29 H :   -0.063024
  30 H :   -0.002129
  31 H :   -0.022147
  32 H :   -0.018937
  33 H :   -0.035053
  34 H :   -0.153626
  35 H :   -0.025644

  Mayer bond orders larger than 0.100000
B(  0-C ,  1-C ) :   0.9572 B(  0-C , 20-H ) :   0.9668 B(  0-C , 21-H ) :   0.9765
B(  0-C , 22-H ) :   0.9719 B(  1-C ,  2-O ) :   0.9030 B(  1-C , 23-H ) :   0.9813
B(  1-C , 24-H ) :   0.9735 B(  2-O ,  3-C ) :   1.1752 B(  3-C ,  4-O ) :   2.0742
B(  3-C ,  5-C ) :   0.9376 B(  5-C ,  6-C ) :   1.6821 B(  5-C , 12-C ) :   0.9572
B(  6-C ,  7-C ) :   0.9438 B(  6-C ,  8-N ) :   1.1152 B(  7-C , 25-H ) :   0.9765
B(  7-C , 26-H ) :   0.9729 B(  7-C , 27-H ) :   0.9653 B(  8-N ,  9-C ) :   1.1902
B(  8-N , 28-H ) :   0.9516 B(  9-C , 10-S ) :   1.6123 B(  9-C , 11-N ) :   1.2920
B( 11-N , 12-C ) :   0.9896 B( 11-N , 29-H ) :   0.9495 B( 12-C , 13-C ) :   0.9480
B( 12-C , 30-H ) :   0.9966 B( 13-C , 14-C ) :   1.3909 B( 13-C , 19-C ) :   1.3404
B( 14-C , 15-C ) :   1.3984 B( 14-C , 31-H ) :   0.9576 B( 15-C , 16-C ) :   1.3597
B( 15-C , 32-H ) :   0.9704 B( 16-C , 17-C ) :   1.3304 B( 16-C , 33-H ) :   0.9848
B( 17-C , 18-O ) :   1.1098 B( 17-C , 19-C ) :   1.3702 B( 18-O , 34-H ) :   0.9797
B( 19-C , 35-H ) :   0.9569

MP2 TOTAL ENERGY:    -1274.330984239 Eh
FINAL SINGLE POINT ENERGY     -1274.330984238595

DIPOLE MOMENT
-------------
                                X             Y             Z
Electronic contribution:      9.24875       6.24804       6.17921
Nuclear contribution   :    -10.83267      -7.21781      -6.75285
                        -----------------------------------------
Total Dipole Moment    :     -1.58392      -0.96977      -0.57365
                        -----------------------------------------
Magnitude (a.u.)       :      1.94379
Magnitude (Debye)      :      4.94072

Rotational constants in cm-1:     0.011604     0.009697     0.006799
Rotational constants in MHz :   347.889791   290.705629   203.825941

                             ****ORCA TERMINATED NORMALLY****
TOTAL RUN TIME: 0 days 2 hours 25 minutes 51 seconds 922 msec
