                         Program Version 4.2.0 -  RELEASE  -
|  1> ! ri-mp2 cc-pvtz cc-pvtz/c TightSCF  NoKeepInts
|  2>
|  3> %scf
|  4>   MaxCore 4096
|  5> end
|  6> *xyz  0  1
|  7>     C       14.4840679   16.0646585   16.5614171
|  8>     C       15.5801188   15.0939913   17.0364764
|  9>     O       16.7199612   15.1160619   16.1486391
| 10>     C       17.9144662   15.7296550   16.4374628
| 11>     O       18.9571753   15.1422391   16.2166486
| 12>     C       17.8692291   16.8606546   17.4094976
| 13>     C       17.3005363   18.0470667   17.0962293
| 14>     C       16.6898874   18.4395147   15.7672604
| 15>     N       17.3749636   19.1131315   17.9949680
| 16>     C       18.0965127   19.1011197   19.1603183
| 17>     S       18.1821921   20.4284020   20.1425925
| 18>     N       18.7491971   17.9331129   19.4706837
| 19>     C       18.6517002   16.6705052   18.7106266
| 20>     C       18.0583316   15.5479139   19.5573432
| 21>     C       18.5479990   14.2356537   19.4235009
| 22>     C       17.9972824   13.1843525   20.1747541
| 23>     C       16.9452779   13.4451917   21.0687718
| 24>     C       16.4508720   14.7492879   21.2031335
| 25>     O       15.4261920   15.0024596   22.0552051
| 26>     C       16.9993733   15.7941504   20.4524058
| 27>     H       14.6586232   17.0764369   16.9389455
| 28>     H       13.5079783   15.7422857   16.9444711
| 29>     H       14.4254746   16.0893848   15.4660143
| 30>     H       15.8541903   15.2954520   18.0774391
| 31>     H       15.1618031   14.0793527   17.0091802
| 32>     H       16.5069947   17.5773863   15.1153088
| 33>     H       17.3641082   19.1128140   15.2226718
| 34>     H       15.7339150   18.9602188   15.9012344
| 35>     H       16.9284202   19.9887411   17.7714358
| 36>     H       19.2638124   17.9507200   20.3422811
| 37>     H       19.6747725   16.3731191   18.4357720
| 38>     H       19.3530940   14.0274429   18.7212743
| 39>     H       18.3845603   12.1733352   20.0583688
| 40>     H       16.5163106   12.6352490   21.6497197
| 41>     H       15.2248879   14.1774875   22.5226421
| 42>     H       16.5927183   16.7934512   20.5693062
| 43> *
| 44>
| 45>                          ****END OF INPUT****

CARTESIAN COORDINATES (ANGSTROEM)
---------------------------------
  C     14.484068   16.064659   16.561417
  C     15.580119   15.093991   17.036476
  O     16.719961   15.116062   16.148639
  C     17.914466   15.729655   16.437463
  O     18.957175   15.142239   16.216649
  C     17.869229   16.860655   17.409498
  C     17.300536   18.047067   17.096229
  C     16.689887   18.439515   15.767260
  N     17.374964   19.113131   17.994968
  C     18.096513   19.101120   19.160318
  S     18.182192   20.428402   20.142592
  N     18.749197   17.933113   19.470684
  C     18.651700   16.670505   18.710627
  C     18.058332   15.547914   19.557343
  C     18.547999   14.235654   19.423501
  C     17.997282   13.184352   20.174754
  C     16.945278   13.445192   21.068772
  C     16.450872   14.749288   21.203133
  O     15.426192   15.002460   22.055205
  C     16.999373   15.794150   20.452406
  H     14.658623   17.076437   16.938945
  H     13.507978   15.742286   16.944471
  H     14.425475   16.089385   15.466014
  H     15.854190   15.295452   18.077439
  H     15.161803   14.079353   17.009180
  H     16.506995   17.577386   15.115309
  H     17.364108   19.112814   15.222672
  H     15.733915   18.960219   15.901234
  H     16.928420   19.988741   17.771436
  H     19.263812   17.950720   20.342281
  H     19.674772   16.373119   18.435772
  H     19.353094   14.027443   18.721274
  H     18.384560   12.173335   20.058369
  H     16.516311   12.635249   21.649720
  H     15.224888   14.177487   22.522642
  H     16.592718   16.793451   20.569306

 Total Charge           Charge          ....    0
 Multiplicity           Mult            ....    1
 Number of Electrons    NEL             ....  154
 Basis Dimension        Dim             ....  828

ORBITAL ENERGIES
----------------

  NO   OCC          E(Eh)            E(eV)
   0   2.0000     -91.890698     -2500.4730
   1   2.0000     -20.601220      -560.5877
   2   2.0000     -20.594150      -560.3953
   3   2.0000     -20.552403      -559.2593
   4   2.0000     -15.627326      -425.2412
   5   2.0000     -15.612324      -424.8329
   6   2.0000     -11.397747      -310.1485
   7   2.0000     -11.387403      -309.8670
   8   2.0000     -11.330283      -308.3127
   9   2.0000     -11.318739      -307.9986
  10   2.0000     -11.316161      -307.9284
  11   2.0000     -11.301982      -307.5426
  12   2.0000     -11.266096      -306.5661
  13   2.0000     -11.265717      -306.5557
  14   2.0000     -11.264826      -306.5315
  15   2.0000     -11.258921      -306.3708
  16   2.0000     -11.247711      -306.0658
  17   2.0000     -11.243563      -305.9529
  18   2.0000     -11.240529      -305.8704
  19   2.0000     -11.235034      -305.7208
  20   2.0000      -8.895804      -242.0671
  21   2.0000      -6.577391      -178.9799
  22   2.0000      -6.575366      -178.9248
  23   2.0000      -6.574789      -178.9091
  24   2.0000      -1.446126       -39.3511
  25   2.0000      -1.421041       -38.6685
  26   2.0000      -1.357852       -36.9490
  27   2.0000      -1.340896       -36.4876
  28   2.0000      -1.240753       -33.7626
  29   2.0000      -1.162799       -31.6414
  30   2.0000      -1.126182       -30.6450
  31   2.0000      -1.049761       -28.5654
  32   2.0000      -1.039232       -28.2789
  33   2.0000      -1.020575       -27.7713
  34   2.0000      -1.004966       -27.3465
  35   2.0000      -0.990570       -26.9548
  36   2.0000      -0.928527       -25.2665
  37   2.0000      -0.890439       -24.2301
  38   2.0000      -0.853303       -23.2196
  39   2.0000      -0.842663       -22.9300
  40   2.0000      -0.838220       -22.8091
  41   2.0000      -0.835541       -22.7362
  42   2.0000      -0.755860       -20.5680
  43   2.0000      -0.735708       -20.0196
  44   2.0000      -0.732470       -19.9315
  45   2.0000      -0.698858       -19.0169
  46   2.0000      -0.689790       -18.7701
  47   2.0000      -0.680259       -18.5108
  48   2.0000      -0.676652       -18.4126
  49   2.0000      -0.664781       -18.0896
  50   2.0000      -0.654503       -17.8099
  51   2.0000      -0.639913       -17.4129
  52   2.0000      -0.632181       -17.2025
  53   2.0000      -0.622195       -16.9308
  54   2.0000      -0.610464       -16.6116
  55   2.0000      -0.608049       -16.5459
  56   2.0000      -0.604711       -16.4550
  57   2.0000      -0.586300       -15.9540
  58   2.0000      -0.579417       -15.7667
  59   2.0000      -0.577061       -15.7026
  60   2.0000      -0.566805       -15.4236
  61   2.0000      -0.559087       -15.2135
  62   2.0000      -0.539873       -14.6907
  63   2.0000      -0.533793       -14.5253
  64   2.0000      -0.523854       -14.2548
  65   2.0000      -0.515753       -14.0343
  66   2.0000      -0.503551       -13.7023
  67   2.0000      -0.495075       -13.4717
  68   2.0000      -0.488953       -13.3051
  69   2.0000      -0.469517       -12.7762
  70   2.0000      -0.455214       -12.3870
  71   2.0000      -0.449648       -12.2355
  72   2.0000      -0.357984        -9.7412
  73   2.0000      -0.352968        -9.6048
  74   2.0000      -0.330350        -8.9893
  75   2.0000      -0.326550        -8.8859
  76   2.0000      -0.319916        -8.7054
  77   0.0000       0.085591         2.3291
  78   0.0000       0.102439         2.7875
  79   0.0000       0.116661         3.1745
  80   0.0000       0.126397         3.4394
  81   0.0000       0.128826         3.5055

MULLIKEN ATOMIC CHARGES
-----------------------
   0 C :   -0.311072
   1 C :    0.028653
   2 O :   -0.332221
   3 C :    0.406910
   4 O :   -0.375811
   5 C :   -0.190219
   6 C :    0.128029
   7 C :   -0.329381
   8 N :   -0.135979
   9 C :    0.203839
  10 S :   -0.440092
  11 N :   -0.224191
  12 C :    0.087104
  13 C :    0.005396
  14 C :   -0.202430
  15 C :   -0.135579
  16 C :   -0.272490
  17 C :    0.315314
  18 O :   -0.356233
  19 C :   -0.265580
  20 H :    0.089943
  21 H :    0.118343
  22 H :    0.109106
  23 H :    0.105715
  24 H :    0.124033
  25 H :    0.126217
  26 H :    0.151126
  27 H :    0.114638
  28 H :    0.196683
  29 H :    0.201584
  30 H :    0.165206
  31 H :    0.174314
  32 H :    0.165197
  33 H :    0.133530
  34 H :    0.241537
  35 H :    0.178858
Sum of atomic charges:   -0.0000000

LOEWDIN ATOMIC CHARGES
----------------------
   0 C :    0.104057
   1 C :   -0.014592
   2 O :    0.293677
   3 C :   -0.415977
   4 O :    0.127640
   5 C :   -0.083160
   6 C :   -0.099278
   7 C :    0.124273
   8 N :    0.402595
   9 C :   -0.456045
  10 S :   -0.036991
  11 N :    0.397325
  12 C :   -0.043650
  13 C :   -0.045052
  14 C :    0.020602
  15 C :    0.045999
  16 C :   -0.000065
  17 C :   -0.193770
  18 O :    0.395816
  19 C :    0.024688
  20 H :   -0.034458
  21 H :   -0.022108
  22 H :   -0.025184
  23 H :   -0.033887
  24 H :   -0.021403
  25 H :   -0.010201
  26 H :   -0.008556
  27 H :   -0.018105
  28 H :   -0.057588
  29 H :   -0.063829
  30 H :   -0.002405
  31 H :   -0.021352
  32 H :   -0.017791
  33 H :   -0.034300
  34 H :   -0.152671
  35 H :   -0.024256

  Mayer bond orders larger than 0.100000
B(  0-C ,  1-C ) :   0.9601 B(  0-C , 20-H ) :   0.9763 B(  0-C , 21-H ) :   0.9798
B(  0-C , 22-H ) :   0.9746 B(  1-C ,  2-O ) :   0.8960 B(  1-C , 23-H ) :   0.9605
B(  1-C , 24-H ) :   0.9878 B(  2-O ,  3-C ) :   1.1732 B(  3-C ,  4-O ) :   2.0969
B(  3-C ,  5-C ) :   0.9138 B(  5-C ,  6-C ) :   1.6911 B(  5-C , 12-C ) :   0.9485
B(  6-C ,  7-C ) :   0.9539 B(  6-C ,  8-N ) :   1.1068 B(  7-C , 25-H ) :   0.9771
B(  7-C , 26-H ) :   0.9637 B(  7-C , 27-H ) :   0.9704 B(  8-N ,  9-C ) :   1.1981
B(  8-N , 28-H ) :   0.9513 B(  9-C , 10-S ) :   1.6107 B(  9-C , 11-N ) :   1.2869
B( 11-N , 12-C ) :   0.9920 B( 11-N , 29-H ) :   0.9475 B( 12-C , 13-C ) :   0.9524
B( 12-C , 30-H ) :   0.9969 B( 13-C , 14-C ) :   1.3913 B( 13-C , 19-C ) :   1.3375
B( 14-C , 15-C ) :   1.3991 B( 14-C , 31-H ) :   0.9588 B( 15-C , 16-C ) :   1.3624
B( 15-C , 32-H ) :   0.9694 B( 16-C , 17-C ) :   1.3299 B( 16-C , 33-H ) :   0.9840
B( 17-C , 18-O ) :   1.1110 B( 17-C , 19-C ) :   1.3667 B( 18-O , 34-H ) :   0.9791
B( 19-C , 35-H ) :   0.9593

MP2 TOTAL ENERGY:    -1274.328353465 Eh
FINAL SINGLE POINT ENERGY     -1274.328353464789

DIPOLE MOMENT
-------------
                                X             Y             Z
Electronic contribution:     10.45866       5.18692       7.25830
Nuclear contribution   :    -11.87090      -6.36512      -7.52783
                        -----------------------------------------
Total Dipole Moment    :     -1.41224      -1.17820      -0.26953
                        -----------------------------------------
Magnitude (a.u.)       :      1.85883
Magnitude (Debye)      :      4.72476

Rotational constants in cm-1:     0.011661     0.009322     0.006839
Rotational constants in MHz :   349.593702   279.481461   205.015630

                             ****ORCA TERMINATED NORMALLY****
TOTAL RUN TIME: 0 days 1 hours 46 minutes 28 seconds 700 msec
