                         Program Version 4.2.0 -  RELEASE  -
|  1> ! ri-mp2 cc-pvtz cc-pvtz/c TightSCF  NoKeepInts
|  2>
|  3> %scf
|  4>   MaxCore 4096
|  5> end
|  6> *xyz  0  1
|  7>     C       15.1532185   14.6181810   17.1928729
|  8>     C       15.6335915   14.8730786   15.7479315
|  9>     O       16.5565036   15.9796107   15.7218433
| 10>     C       17.7176012   15.9052550   16.4355645
| 11>     O       18.3240182   14.8530375   16.5532113
| 12>     C       17.8885597   17.0335717   17.4099410
| 13>     C       17.3774162   18.2797963   17.2385706
| 14>     C       16.5815093   18.8012318   16.0600076
| 15>     N       17.6357163   19.2731498   18.1885456
| 16>     C       18.5000332   19.1420530   19.2435035
| 17>     S       18.8408123   20.4070060   20.2530892
| 18>     N       19.0689186   17.9058337   19.4185626
| 19>     C       18.7028906   16.6933409   18.6624787
| 20>     C       17.9403789   15.7179943   19.5548958
| 21>     C       18.3946694   14.3963764   19.7184641
| 22>     C       17.6853764   13.4896476   20.5238207
| 23>     C       16.5100391   13.9066835   21.1713640
| 24>     C       16.0526396   15.2213236   21.0088554
| 25>     O       14.9125249   15.6243608   21.6242250
| 26>     C       16.7612166   16.1217969   20.2075575
| 27>     H       15.9655193   14.2265614   17.8180212
| 28>     H       14.3434867   13.8788415   17.2005180
| 29>     H       14.7770997   15.5419093   17.6498708
| 30>     H       16.1121656   13.9677604   15.3500418
| 31>     H       14.7696448   15.1078876   15.1132200
| 32>     H       15.5548085   18.4153239   16.0857811
| 33>     H       17.0353884   18.4873407   15.1116848
| 34>     H       16.5255844   19.8964115   16.0405369
| 35>     H       17.2285437   20.1879251   18.0767911
| 36>     H       19.6787371   17.8275770   20.2222667
| 37>     H       19.6343192   16.2084249   18.3361345
| 38>     H       19.2918345   14.0654685   19.2009213
| 39>     H       18.0439918   12.4680628   20.6364763
| 40>     H       15.9574553   13.2085624   21.7912537
| 41>     H       14.6005037   14.8858173   22.1684399
| 42>     H       16.3902834   17.1347964   20.0967370
| 43> *
| 44>
| 45>                          ****END OF INPUT****

CARTESIAN COORDINATES (ANGSTROEM)
---------------------------------
  C     15.153218   14.618181   17.192873
  C     15.633591   14.873079   15.747931
  O     16.556504   15.979611   15.721843
  C     17.717601   15.905255   16.435565
  O     18.324018   14.853037   16.553211
  C     17.888560   17.033572   17.409941
  C     17.377416   18.279796   17.238571
  C     16.581509   18.801232   16.060008
  N     17.635716   19.273150   18.188546
  C     18.500033   19.142053   19.243503
  S     18.840812   20.407006   20.253089
  N     19.068919   17.905834   19.418563
  C     18.702891   16.693341   18.662479
  C     17.940379   15.717994   19.554896
  C     18.394669   14.396376   19.718464
  C     17.685376   13.489648   20.523821
  C     16.510039   13.906683   21.171364
  C     16.052640   15.221324   21.008855
  O     14.912525   15.624361   21.624225
  C     16.761217   16.121797   20.207557
  H     15.965519   14.226561   17.818021
  H     14.343487   13.878842   17.200518
  H     14.777100   15.541909   17.649871
  H     16.112166   13.967760   15.350042
  H     14.769645   15.107888   15.113220
  H     15.554809   18.415324   16.085781
  H     17.035388   18.487341   15.111685
  H     16.525584   19.896411   16.040537
  H     17.228544   20.187925   18.076791
  H     19.678737   17.827577   20.222267
  H     19.634319   16.208425   18.336135
  H     19.291835   14.065468   19.200921
  H     18.043992   12.468063   20.636476
  H     15.957455   13.208562   21.791254
  H     14.600504   14.885817   22.168440
  H     16.390283   17.134796   20.096737

 Total Charge           Charge          ....    0
 Multiplicity           Mult            ....    1
 Number of Electrons    NEL             ....  154
 Basis Dimension        Dim             ....  828

ORBITAL ENERGIES
----------------

  NO   OCC          E(Eh)            E(eV)
   0   2.0000     -91.888801     -2500.4214
   1   2.0000     -20.594913      -560.4161
   2   2.0000     -20.591137      -560.3133
   3   2.0000     -20.550051      -559.1953
   4   2.0000     -15.628813      -425.2816
   5   2.0000     -15.607904      -424.7127
   6   2.0000     -11.395322      -310.0825
   7   2.0000     -11.383987      -309.7740
   8   2.0000     -11.335168      -308.4456
   9   2.0000     -11.310820      -307.7830
  10   2.0000     -11.307655      -307.6969
  11   2.0000     -11.299580      -307.4772
  12   2.0000     -11.260418      -306.4116
  13   2.0000     -11.259380      -306.3833
  14   2.0000     -11.256261      -306.2984
  15   2.0000     -11.251291      -306.1632
  16   2.0000     -11.240910      -305.8807
  17   2.0000     -11.236305      -305.7554
  18   2.0000     -11.233932      -305.6908
  19   2.0000     -11.223618      -305.4102
  20   2.0000      -8.893864      -242.0144
  21   2.0000      -6.575441      -178.9269
  22   2.0000      -6.573434      -178.8722
  23   2.0000      -6.572848      -178.8563
  24   2.0000      -1.451348       -39.4932
  25   2.0000      -1.414672       -38.4952
  26   2.0000      -1.355409       -36.8826
  27   2.0000      -1.339877       -36.4599
  28   2.0000      -1.237855       -33.6837
  29   2.0000      -1.155336       -31.4383
  30   2.0000      -1.120825       -30.4992
  31   2.0000      -1.043453       -28.3938
  32   2.0000      -1.030816       -28.0499
  33   2.0000      -1.012666       -27.5560
  34   2.0000      -0.999073       -27.1861
  35   2.0000      -0.984723       -26.7957
  36   2.0000      -0.923237       -25.1226
  37   2.0000      -0.893566       -24.3152
  38   2.0000      -0.848159       -23.0796
  39   2.0000      -0.837474       -22.7888
  40   2.0000      -0.831224       -22.6188
  41   2.0000      -0.815198       -22.1827
  42   2.0000      -0.749457       -20.3938
  43   2.0000      -0.735060       -20.0020
  44   2.0000      -0.727292       -19.7906
  45   2.0000      -0.693240       -18.8640
  46   2.0000      -0.686263       -18.6742
  47   2.0000      -0.677533       -18.4366
  48   2.0000      -0.672143       -18.2899
  49   2.0000      -0.658317       -17.9137
  50   2.0000      -0.653837       -17.7918
  51   2.0000      -0.645457       -17.5638
  52   2.0000      -0.634420       -17.2635
  53   2.0000      -0.612742       -16.6736
  54   2.0000      -0.602514       -16.3952
  55   2.0000      -0.601996       -16.3812
  56   2.0000      -0.598668       -16.2906
  57   2.0000      -0.579519       -15.7695
  58   2.0000      -0.575705       -15.6657
  59   2.0000      -0.563175       -15.3248
  60   2.0000      -0.552956       -15.0467
  61   2.0000      -0.548008       -14.9121
  62   2.0000      -0.534490       -14.5442
  63   2.0000      -0.531819       -14.4715
  64   2.0000      -0.520292       -14.1579
  65   2.0000      -0.510805       -13.8997
  66   2.0000      -0.498836       -13.5740
  67   2.0000      -0.492015       -13.3884
  68   2.0000      -0.481714       -13.1081
  69   2.0000      -0.464124       -12.6295
  70   2.0000      -0.458890       -12.4870
  71   2.0000      -0.448978       -12.2173
  72   2.0000      -0.354454        -9.6452
  73   2.0000      -0.346959        -9.4412
  74   2.0000      -0.328014        -8.9257
  75   2.0000      -0.318437        -8.6651
  76   2.0000      -0.315761        -8.5923
  77   0.0000       0.072794         1.9808
  78   0.0000       0.107697         2.9306
  79   0.0000       0.119157         3.2424
  80   0.0000       0.132819         3.6142
  81   0.0000       0.141597         3.8531

MULLIKEN ATOMIC CHARGES
-----------------------
   0 C :   -0.326288
   1 C :    0.042924
   2 O :   -0.373524
   3 C :    0.441295
   4 O :   -0.414785
   5 C :   -0.174239
   6 C :    0.141850
   7 C :   -0.281796
   8 N :   -0.123967
   9 C :    0.202758
  10 S :   -0.439100
  11 N :   -0.199561
  12 C :    0.050905
  13 C :    0.035167
  14 C :   -0.157707
  15 C :   -0.134665
  16 C :   -0.278531
  17 C :    0.313639
  18 O :   -0.360909
  19 C :   -0.270019
  20 H :    0.127993
  21 H :    0.107357
  22 H :    0.101031
  23 H :    0.108668
  24 H :    0.107225
  25 H :    0.124237
  26 H :    0.126762
  27 H :    0.102759
  28 H :    0.197202
  29 H :    0.193838
  30 H :    0.153806
  31 H :    0.155477
  32 H :    0.160628
  33 H :    0.130259
  34 H :    0.240787
  35 H :    0.168522
Sum of atomic charges:   -0.0000000

LOEWDIN ATOMIC CHARGES
----------------------
   0 C :    0.105330
   1 C :   -0.017616
   2 O :    0.293252
   3 C :   -0.415503
   4 O :    0.114836
   5 C :   -0.092566
   6 C :   -0.069826
   7 C :    0.125837
   8 N :    0.404652
   9 C :   -0.458111
  10 S :   -0.035816
  11 N :    0.397622
  12 C :   -0.045565
  13 C :   -0.041182
  14 C :    0.020832
  15 C :    0.040650
  16 C :   -0.002154
  17 C :   -0.192909
  18 O :    0.393911
  19 C :    0.031038
  20 H :   -0.022326
  21 H :   -0.025870
  22 H :   -0.029426
  23 H :   -0.027731
  24 H :   -0.025249
  25 H :   -0.010425
  26 H :   -0.007549
  27 H :   -0.020356
  28 H :   -0.058825
  29 H :   -0.063872
  30 H :   -0.004604
  31 H :   -0.024866
  32 H :   -0.020571
  33 H :   -0.035767
  34 H :   -0.154226
  35 H :   -0.025051

  Mayer bond orders larger than 0.100000
B(  0-C ,  1-C ) :   0.9596 B(  0-C , 20-H ) :   0.9673 B(  0-C , 21-H ) :   0.9769
B(  0-C , 22-H ) :   0.9737 B(  1-C ,  2-O ) :   0.8941 B(  1-C , 23-H ) :   0.9820
B(  1-C , 24-H ) :   0.9842 B(  2-O ,  3-C ) :   1.1026 B(  3-C ,  4-O ) :   2.0066
B(  3-C ,  5-C ) :   1.0401 B(  5-C ,  6-C ) :   1.6576 B(  5-C , 12-C ) :   0.9658
B(  6-C ,  7-C ) :   0.9543 B(  6-C ,  8-N ) :   1.1421 B(  7-C , 25-H ) :   0.9633
B(  7-C , 26-H ) :   0.9678 B(  7-C , 27-H ) :   0.9898 B(  8-N ,  9-C ) :   1.1817
B(  8-N , 28-H ) :   0.9492 B(  9-C , 10-S ) :   1.6112 B(  9-C , 11-N ) :   1.3020
B( 11-N , 12-C ) :   0.9916 B( 11-N , 29-H ) :   0.9520 B( 12-C , 13-C ) :   0.9430
B( 12-C , 30-H ) :   0.9990 B( 13-C , 14-C ) :   1.3793 B( 13-C , 19-C ) :   1.3669
B( 14-C , 15-C ) :   1.3930 B( 14-C , 31-H ) :   0.9644 B( 15-C , 16-C ) :   1.3621
B( 15-C , 32-H ) :   0.9714 B( 16-C , 17-C ) :   1.3322 B( 16-C , 33-H ) :   0.9851
B( 17-C , 18-O ) :   1.1078 B( 17-C , 19-C ) :   1.3733 B( 18-O , 34-H ) :   0.9802
B( 19-C , 35-H ) :   0.9580

MP2 TOTAL ENERGY:    -1274.337719105 Eh
FINAL SINGLE POINT ENERGY     -1274.337719104543

DIPOLE MOMENT
-------------
                                X             Y             Z
Electronic contribution:      9.85301       9.14953       6.51433
Nuclear contribution   :    -11.23649     -10.40981      -7.32994
                        -----------------------------------------
Total Dipole Moment    :     -1.38348      -1.26028      -0.81561
                        -----------------------------------------
Magnitude (a.u.)       :      2.04146
Magnitude (Debye)      :      5.18897

Rotational constants in cm-1:     0.011872     0.009415     0.006648
Rotational constants in MHz :   355.903261   282.245222   199.298243

                             ****ORCA TERMINATED NORMALLY****
TOTAL RUN TIME: 0 days 1 hours 50 minutes 12 seconds 103 msec
