                         Program Version 4.2.0 -  RELEASE  -
|  1> ! ri-mp2 cc-pvtz cc-pvtz/c TightSCF  NoKeepInts
|  2>
|  3> %scf
|  4>   MaxCore 4096
|  5> end
|  6> *xyz  0  1
|  7>     C       14.9670419   16.1025000   17.3019697
|  8>     C       15.5229011   14.9768063   16.4070676
|  9>     O       16.9644055   14.8394360   16.2650880
| 10>     C       18.0505038   15.6531177   16.5054779
| 11>     O       19.1605166   15.1780357   16.3525911
| 12>     C       17.8965070   16.8249130   17.4089145
| 13>     C       17.4574970   18.0129756   16.9377890
| 14>     C       17.0288058   18.3113113   15.5162741
| 15>     N       17.4612124   19.1369939   17.7659526
| 16>     C       17.9761781   19.1662088   19.0358916
| 17>     S       17.9636821   20.5468253   19.9459182
| 18>     N       18.5080420   17.9939083   19.5153318
| 19>     C       18.5102223   16.6973335   18.8068705
| 20>     C       17.8624653   15.5859961   19.6333683
| 21>     C       18.3184676   14.2612605   19.4972723
| 22>     C       17.7380336   13.2201689   20.2402025
| 23>     C       16.6915021   13.5031223   21.1334167
| 24>     C       16.2344398   14.8196503   21.2764863
| 25>     O       15.2187975   15.0957332   22.1325451
| 26>     C       16.8142775   15.8547396   20.5358146
| 27>     H       15.4712349   16.1416230   18.2699973
| 28>     H       13.9067824   15.9096461   17.5067340
| 29>     H       15.0127107   17.0791235   16.8145824
| 30>     H       15.1411252   14.0216968   16.7911391
| 31>     H       15.0889753   15.1004063   15.4064177
| 32>     H       16.7175703   17.4087497   14.9770724
| 33>     H       17.8591692   18.7569337   14.9535222
| 34>     H       16.1864044   19.0134210   15.4875394
| 35>     H       17.1049277   20.0150755   17.4228097
| 36>     H       18.8729510   18.0444445   20.4581738
| 37>     H       19.5632161   16.4118744   18.6641586
| 38>     H       19.1242152   14.0351743   18.8015893
| 39>     H       18.0994991   12.2003846   20.1188096
| 40>     H       16.2393582   12.7015105   21.7080329
| 41>     H       14.9806280   14.2683120   22.5774035
| 42>     H       16.4327335   16.8625879   20.6617757
| 43> *
| 44>
| 45>                          ****END OF INPUT****

CARTESIAN COORDINATES (ANGSTROEM)
---------------------------------
  C     14.967042   16.102500   17.301970
  C     15.522901   14.976806   16.407068
  O     16.964406   14.839436   16.265088
  C     18.050504   15.653118   16.505478
  O     19.160517   15.178036   16.352591
  C     17.896507   16.824913   17.408915
  C     17.457497   18.012976   16.937789
  C     17.028806   18.311311   15.516274
  N     17.461212   19.136994   17.765953
  C     17.976178   19.166209   19.035892
  S     17.963682   20.546825   19.945918
  N     18.508042   17.993908   19.515332
  C     18.510222   16.697333   18.806870
  C     17.862465   15.585996   19.633368
  C     18.318468   14.261260   19.497272
  C     17.738034   13.220169   20.240202
  C     16.691502   13.503122   21.133417
  C     16.234440   14.819650   21.276486
  O     15.218798   15.095733   22.132545
  C     16.814277   15.854740   20.535815
  H     15.471235   16.141623   18.269997
  H     13.906782   15.909646   17.506734
  H     15.012711   17.079124   16.814582
  H     15.141125   14.021697   16.791139
  H     15.088975   15.100406   15.406418
  H     16.717570   17.408750   14.977072
  H     17.859169   18.756934   14.953522
  H     16.186404   19.013421   15.487539
  H     17.104928   20.015075   17.422810
  H     18.872951   18.044445   20.458174
  H     19.563216   16.411874   18.664159
  H     19.124215   14.035174   18.801589
  H     18.099499   12.200385   20.118810
  H     16.239358   12.701510   21.708033
  H     14.980628   14.268312   22.577403
  H     16.432734   16.862588   20.661776

 Total Charge           Charge          ....    0
 Multiplicity           Mult            ....    1
 Number of Electrons    NEL             ....  154
 Basis Dimension        Dim             ....  828

ORBITAL ENERGIES
----------------

  NO   OCC          E(Eh)            E(eV)
   0   2.0000     -91.889205     -2500.4324
   1   2.0000     -20.598924      -560.5252
   2   2.0000     -20.597757      -560.4935
   3   2.0000     -20.548938      -559.1650
   4   2.0000     -15.625310      -425.1863
   5   2.0000     -15.611354      -424.8065
   6   2.0000     -11.400524      -310.2240
   7   2.0000     -11.386153      -309.8330
   8   2.0000     -11.324707      -308.1610
   9   2.0000     -11.315847      -307.9199
  10   2.0000     -11.315839      -307.9196
  11   2.0000     -11.312918      -307.8401
  12   2.0000     -11.269383      -306.6555
  13   2.0000     -11.264717      -306.5285
  14   2.0000     -11.262134      -306.4583
  15   2.0000     -11.255936      -306.2896
  16   2.0000     -11.244710      -305.9841
  17   2.0000     -11.241287      -305.8910
  18   2.0000     -11.237478      -305.7873
  19   2.0000     -11.235949      -305.7457
  20   2.0000      -8.894325      -242.0269
  21   2.0000      -6.575918      -178.9398
  22   2.0000      -6.573888      -178.8846
  23   2.0000      -6.573317      -178.8691
  24   2.0000      -1.442495       -39.2523
  25   2.0000      -1.418722       -38.6054
  26   2.0000      -1.353793       -36.8386
  27   2.0000      -1.338636       -36.4261
  28   2.0000      -1.238954       -33.7137
  29   2.0000      -1.159915       -31.5629
  30   2.0000      -1.124800       -30.6074
  31   2.0000      -1.048202       -28.5230
  32   2.0000      -1.042409       -28.3654
  33   2.0000      -1.018581       -27.7170
  34   2.0000      -1.004601       -27.3366
  35   2.0000      -0.990041       -26.9404
  36   2.0000      -0.927454       -25.2373
  37   2.0000      -0.903376       -24.5821
  38   2.0000      -0.852517       -23.1982
  39   2.0000      -0.840172       -22.8622
  40   2.0000      -0.835001       -22.7215
  41   2.0000      -0.828885       -22.5551
  42   2.0000      -0.745502       -20.2861
  43   2.0000      -0.733207       -19.9516
  44   2.0000      -0.730669       -19.8825
  45   2.0000      -0.695875       -18.9357
  46   2.0000      -0.685232       -18.6461
  47   2.0000      -0.676322       -18.4037
  48   2.0000      -0.674566       -18.3559
  49   2.0000      -0.664003       -18.0684
  50   2.0000      -0.657296       -17.8859
  51   2.0000      -0.652821       -17.7642
  52   2.0000      -0.638456       -17.3733
  53   2.0000      -0.612611       -16.6700
  54   2.0000      -0.607127       -16.5208
  55   2.0000      -0.603239       -16.4150
  56   2.0000      -0.600250       -16.3336
  57   2.0000      -0.595307       -16.1991
  58   2.0000      -0.584661       -15.9094
  59   2.0000      -0.575698       -15.6656
  60   2.0000      -0.566349       -15.4111
  61   2.0000      -0.558561       -15.1992
  62   2.0000      -0.543413       -14.7870
  63   2.0000      -0.530471       -14.4349
  64   2.0000      -0.515901       -14.0384
  65   2.0000      -0.513427       -13.9710
  66   2.0000      -0.501801       -13.6547
  67   2.0000      -0.499887       -13.6026
  68   2.0000      -0.485906       -13.2222
  69   2.0000      -0.466403       -12.6915
  70   2.0000      -0.452891       -12.3238
  71   2.0000      -0.448953       -12.2166
  72   2.0000      -0.354553        -9.6479
  73   2.0000      -0.348497        -9.4831
  74   2.0000      -0.328953        -8.9513
  75   2.0000      -0.323320        -8.7980
  76   2.0000      -0.317789        -8.6475
  77   0.0000       0.092978         2.5301
  78   0.0000       0.106660         2.9024
  79   0.0000       0.111568         3.0359
  80   0.0000       0.126924         3.4538
  81   0.0000       0.130383         3.5479

MULLIKEN ATOMIC CHARGES
-----------------------
   0 C :   -0.344371
   1 C :    0.044207
   2 O :   -0.333747
   3 C :    0.388886
   4 O :   -0.379516
   5 C :   -0.192540
   6 C :    0.150151
   7 C :   -0.315142
   8 N :   -0.142177
   9 C :    0.214678
  10 S :   -0.444420
  11 N :   -0.238860
  12 C :    0.115583
  13 C :    0.012787
  14 C :   -0.218059
  15 C :   -0.134284
  16 C :   -0.275421
  17 C :    0.326808
  18 O :   -0.356712
  19 C :   -0.286420
  20 H :    0.130134
  21 H :    0.126402
  22 H :    0.096603
  23 H :    0.119748
  24 H :    0.100697
  25 H :    0.113486
  26 H :    0.152018
  27 H :    0.108123
  28 H :    0.195267
  29 H :    0.205696
  30 H :    0.166414
  31 H :    0.173215
  32 H :    0.164563
  33 H :    0.131775
  34 H :    0.241175
  35 H :    0.183253
Sum of atomic charges:   -0.0000000

LOEWDIN ATOMIC CHARGES
----------------------
   0 C :    0.105369
   1 C :   -0.014386
   2 O :    0.295661
   3 C :   -0.419135
   4 O :    0.125413
   5 C :   -0.080483
   6 C :   -0.105955
   7 C :    0.123788
   8 N :    0.402122
   9 C :   -0.454237
  10 S :   -0.039739
  11 N :    0.398247
  12 C :   -0.041747
  13 C :   -0.041547
  14 C :    0.023039
  15 C :    0.045191
  16 C :   -0.001385
  17 C :   -0.193376
  18 O :    0.395180
  19 C :    0.023958
  20 H :   -0.029157
  21 H :   -0.019427
  22 H :   -0.033753
  23 H :   -0.017969
  24 H :   -0.029827
  25 H :   -0.011496
  26 H :   -0.006370
  27 H :   -0.017648
  28 H :   -0.059327
  29 H :   -0.064299
  30 H :   -0.002936
  31 H :   -0.021259
  32 H :   -0.018215
  33 H :   -0.035027
  34 H :   -0.153279
  35 H :   -0.025987

  Mayer bond orders larger than 0.100000
B(  0-C ,  1-C ) :   0.9568 B(  0-C , 20-H ) :   0.9656 B(  0-C , 21-H ) :   0.9786
B(  0-C , 22-H ) :   0.9753 B(  1-C ,  2-O ) :   0.9149 B(  1-C , 23-H ) :   0.9783
B(  1-C , 24-H ) :   0.9796 B(  2-O ,  3-C ) :   1.1492 B(  3-C ,  4-O ) :   2.0839
B(  3-C ,  5-C ) :   0.9298 B(  5-C ,  6-C ) :   1.6975 B(  5-C , 12-C ) :   0.9418
B(  6-C ,  7-C ) :   0.9433 B(  6-C ,  8-N ) :   1.1097 B(  7-C , 25-H ) :   0.9812
B(  7-C , 26-H ) :   0.9638 B(  7-C , 27-H ) :   0.9748 B(  8-N ,  9-C ) :   1.2034
B(  8-N , 28-H ) :   0.9518 B(  9-C , 10-S ) :   1.6021 B(  9-C , 11-N ) :   1.2878
B( 11-N , 12-C ) :   0.9852 B( 11-N , 29-H ) :   0.9444 B( 12-C , 13-C ) :   0.9607
B( 12-C , 30-H ) :   0.9935 B( 13-C , 14-C ) :   1.3904 B( 13-C , 19-C ) :   1.3348
B( 14-C , 15-C ) :   1.4050 B( 14-C , 31-H ) :   0.9596 B( 15-C , 16-C ) :   1.3557
B( 15-C , 32-H ) :   0.9695 B( 16-C , 17-C ) :   1.3345 B( 16-C , 33-H ) :   0.9848
B( 17-C , 18-O ) :   1.1077 B( 17-C , 19-C ) :   1.3641 B( 18-O , 34-H ) :   0.9795
B( 19-C , 35-H ) :   0.9569

MP2 TOTAL ENERGY:    -1274.315861158 Eh
FINAL SINGLE POINT ENERGY     -1274.315861157514

DIPOLE MOMENT
-------------
                                X             Y             Z
Electronic contribution:      9.11918       5.36566       6.89583
Nuclear contribution   :    -10.69252      -6.59402      -7.55415
                        -----------------------------------------
Total Dipole Moment    :     -1.57334      -1.22836      -0.65832
                        -----------------------------------------
Magnitude (a.u.)       :      2.10182
Magnitude (Debye)      :      5.34240

Rotational constants in cm-1:     0.012079     0.009286     0.006694
Rotational constants in MHz :   362.111197   278.386065   200.693141

                             ****ORCA TERMINATED NORMALLY****
TOTAL RUN TIME: 0 days 2 hours 29 minutes 44 seconds 640 msec
