                         Program Version 5.0.0 -  RELEASE  -
|  1> ! ri-mp2 cc-pvtz cc-pvtz/c TightSCF NoKeepInts
|  2>
|  3> %scf
|  4>   MaxCore 4096
|  5> end
|  6> *xyz  0  1
|  7>     C       15.0618415   14.4995895   17.0854812
|  8>     C       15.6398831   14.8457702   15.6973304
|  9>     O       16.4708389   16.0160542   15.8128344
| 10>     C       17.6589313   15.9281215   16.4801107
| 11>     O       18.2737154   14.8772779   16.5652874
| 12>     C       17.8820293   17.0603572   17.4376547
| 13>     C       17.3918427   18.3151878   17.2705623
| 14>     C       16.5813847   18.8446943   16.1057164
| 15>     N       17.6867807   19.3070116   18.2112668
| 16>     C       18.5552488   19.1585558   19.2605382
| 17>     S       18.9298347   20.4173015   20.2659725
| 18>     N       19.0986133   17.9106473   19.4343489
| 19>     C       18.7123116   16.7064347   18.6751173
| 20>     C       17.9523261   15.7306891   19.5693682
| 21>     C       18.4046238   14.4078987   19.7287192
| 22>     C       17.6955480   13.5006413   20.5336783
| 23>     C       16.5223364   13.9182900   21.1846924
| 24>     C       16.0666086   15.2339737   21.0257517
| 25>     O       14.9287556   15.6376529   21.6449561
| 26>     C       16.7749441   16.1349130   20.2247598
| 27>     H       15.8544167   14.1833825   17.7759476
| 28>     H       14.3403014   13.6778094   17.0052378
| 29>     H       14.5486826   15.3654885   17.5218673
| 30>     H       16.2119259   13.9966907   15.2984977
| 31>     H       14.8139401   15.0550896   15.0056692
| 32>     H       15.5453648   18.4878744   16.1622122
| 33>     H       17.0019473   18.5066438   15.1504182
| 34>     H       16.5557657   19.9407054   16.0741006
| 35>     H       17.2977541   20.2298782   18.1015212
| 36>     H       19.7108432   17.8205224   20.2349510
| 37>     H       19.6348258   16.2163132   18.3317339
| 38>     H       19.2998721   14.0765536   19.2082563
| 39>     H       18.0525577   12.4781823   20.6433011
| 40>     H       15.9699859   13.2198370   21.8043972
| 41>     H       14.6149952   14.8972607   22.1855919
| 42>     H       16.4054228   17.1487059   20.1161504
| 43> *
| 44>
| 45>                          ****END OF INPUT****

CARTESIAN COORDINATES (ANGSTROEM)
---------------------------------
  C     15.061841   14.499590   17.085481
  C     15.639883   14.845770   15.697330
  O     16.470839   16.016054   15.812834
  C     17.658931   15.928121   16.480111
  O     18.273715   14.877278   16.565287
  C     17.882029   17.060357   17.437655
  C     17.391843   18.315188   17.270562
  C     16.581385   18.844694   16.105716
  N     17.686781   19.307012   18.211267
  C     18.555249   19.158556   19.260538
  S     18.929835   20.417302   20.265973
  N     19.098613   17.910647   19.434349
  C     18.712312   16.706435   18.675117
  C     17.952326   15.730689   19.569368
  C     18.404624   14.407899   19.728719
  C     17.695548   13.500641   20.533678
  C     16.522336   13.918290   21.184692
  C     16.066609   15.233974   21.025752
  O     14.928756   15.637653   21.644956
  C     16.774944   16.134913   20.224760
  H     15.854417   14.183382   17.775948
  H     14.340301   13.677809   17.005238
  H     14.548683   15.365488   17.521867
  H     16.211926   13.996691   15.298498
  H     14.813940   15.055090   15.005669
  H     15.545365   18.487874   16.162212
  H     17.001947   18.506644   15.150418
  H     16.555766   19.940705   16.074101
  H     17.297754   20.229878   18.101521
  H     19.710843   17.820522   20.234951
  H     19.634826   16.216313   18.331734
  H     19.299872   14.076554   19.208256
  H     18.052558   12.478182   20.643301
  H     15.969986   13.219837   21.804397
  H     14.614995   14.897261   22.185592
  H     16.405423   17.148706   20.116150

 Total Charge           Charge          ....    0
 Multiplicity           Mult            ....    1
 Number of Electrons    NEL             ....  154
 Basis Dimension        Dim             ....  828

ORBITAL ENERGIES
----------------

  NO   OCC          E(Eh)            E(eV)
   0   2.0000     -91.888283     -2500.4073
   1   2.0000     -20.595498      -560.4320
   2   2.0000     -20.594515      -560.4052
   3   2.0000     -20.549195      -559.1720
   4   2.0000     -15.628024      -425.2602
   5   2.0000     -15.607615      -424.7048
   6   2.0000     -11.395555      -310.0888
   7   2.0000     -11.383599      -309.7635
   8   2.0000     -11.334151      -308.4179
   9   2.0000     -11.310499      -307.7743
  10   2.0000     -11.307426      -307.6907
  11   2.0000     -11.298439      -307.4462
  12   2.0000     -11.259831      -306.3956
  13   2.0000     -11.258959      -306.3719
  14   2.0000     -11.256002      -306.2914
  15   2.0000     -11.250923      -306.1532
  16   2.0000     -11.240532      -305.8704
  17   2.0000     -11.236094      -305.7497
  18   2.0000     -11.233690      -305.6842
  19   2.0000     -11.223788      -305.4148
  20   2.0000      -8.893353      -242.0004
  21   2.0000      -6.574932      -178.9130
  22   2.0000      -6.572923      -178.8583
  23   2.0000      -6.572339      -178.8424
  24   2.0000      -1.452573       -39.5265
  25   2.0000      -1.414270       -38.4843
  26   2.0000      -1.356371       -36.9087
  27   2.0000      -1.339187       -36.4411
  28   2.0000      -1.237348       -33.6700
  29   2.0000      -1.155078       -31.4313
  30   2.0000      -1.120703       -30.4959
  31   2.0000      -1.043305       -28.3898
  32   2.0000      -1.031596       -28.0712
  33   2.0000      -1.012278       -27.5455
  34   2.0000      -0.998491       -27.1703
  35   2.0000      -0.984045       -26.7772
  36   2.0000      -0.922760       -25.1096
  37   2.0000      -0.892940       -24.2981
  38   2.0000      -0.847612       -23.0647
  39   2.0000      -0.836827       -22.7712
  40   2.0000      -0.830856       -22.6087
  41   2.0000      -0.814734       -22.1700
  42   2.0000      -0.751457       -20.4482
  43   2.0000      -0.735911       -20.0252
  44   2.0000      -0.726945       -19.7812
  45   2.0000      -0.692888       -18.8545
  46   2.0000      -0.685853       -18.6630
  47   2.0000      -0.678231       -18.4556
  48   2.0000      -0.672391       -18.2967
  49   2.0000      -0.658408       -17.9162
  50   2.0000      -0.652426       -17.7534
  51   2.0000      -0.645220       -17.5573
  52   2.0000      -0.633654       -17.2426
  53   2.0000      -0.610136       -16.6026
  54   2.0000      -0.601873       -16.3778
  55   2.0000      -0.601664       -16.3721
  56   2.0000      -0.598156       -16.2767
  57   2.0000      -0.579370       -15.7655
  58   2.0000      -0.575583       -15.6624
  59   2.0000      -0.563196       -15.3253
  60   2.0000      -0.554352       -15.0847
  61   2.0000      -0.549143       -14.9429
  62   2.0000      -0.533743       -14.5239
  63   2.0000      -0.531558       -14.4644
  64   2.0000      -0.519749       -14.1431
  65   2.0000      -0.510259       -13.8848
  66   2.0000      -0.498326       -13.5601
  67   2.0000      -0.492606       -13.4045
  68   2.0000      -0.482224       -13.1220
  69   2.0000      -0.464322       -12.6349
  70   2.0000      -0.459778       -12.5112
  71   2.0000      -0.449633       -12.2351
  72   2.0000      -0.353866        -9.6292
  73   2.0000      -0.346743        -9.4353
  74   2.0000      -0.327554        -8.9132
  75   2.0000      -0.317927        -8.6512
  76   2.0000      -0.315276        -8.5791
  77   0.0000       0.074760         2.0343
  78   0.0000       0.108392         2.9495
  79   0.0000       0.119563         3.2535
  80   0.0000       0.133180         3.6240
  81   0.0000       0.143240         3.8978

MULLIKEN ATOMIC CHARGES
-----------------------
   0 C :   -0.310890
   1 C :    0.036573
   2 O :   -0.364837
   3 C :    0.428569
   4 O :   -0.417259
   5 C :   -0.163514
   6 C :    0.140408
   7 C :   -0.282829
   8 N :   -0.124417
   9 C :    0.205205
  10 S :   -0.440199
  11 N :   -0.200875
  12 C :    0.054341
  13 C :    0.033679
  14 C :   -0.156422
  15 C :   -0.134773
  16 C :   -0.279241
  17 C :    0.311492
  18 O :   -0.360128
  19 C :   -0.266885
  20 H :    0.125215
  21 H :    0.102053
  22 H :    0.097743
  23 H :    0.109836
  24 H :    0.106308
  25 H :    0.126234
  26 H :    0.125231
  27 H :    0.102046
  28 H :    0.197022
  29 H :    0.194209
  30 H :    0.153510
  31 H :    0.154489
  32 H :    0.160300
  33 H :    0.129954
  34 H :    0.240632
  35 H :    0.167220
Sum of atomic charges:    0.0000000

LOEWDIN ATOMIC CHARGES
----------------------
   0 C :    0.105732
   1 C :   -0.018114
   2 O :    0.298248
   3 C :   -0.414363
   4 O :    0.111619
   5 C :   -0.091686
   6 C :   -0.070824
   7 C :    0.125815
   8 N :    0.404335
   9 C :   -0.457507
  10 S :   -0.036567
  11 N :    0.397524
  12 C :   -0.045494
  13 C :   -0.041033
  14 C :    0.021093
  15 C :    0.040602
  16 C :   -0.002239
  17 C :   -0.192882
  18 O :    0.393814
  19 C :    0.030457
  20 H :   -0.022353
  21 H :   -0.026513
  22 H :   -0.028885
  23 H :   -0.027976
  24 H :   -0.025930
  25 H :   -0.010092
  26 H :   -0.008087
  27 H :   -0.020344
  28 H :   -0.058906
  29 H :   -0.063909
  30 H :   -0.004980
  31 H :   -0.025011
  32 H :   -0.020677
  33 H :   -0.035845
  34 H :   -0.154354
  35 H :   -0.024668

  Mayer bond orders larger than 0.100000
B(  0-C ,  1-C ) :   0.9614 B(  0-C , 20-H ) :   0.9683 B(  0-C , 21-H ) :   0.9769
B(  0-C , 22-H ) :   0.9757 B(  1-C ,  2-O ) :   0.8935 B(  1-C , 23-H ) :   0.9794
B(  1-C , 24-H ) :   0.9844 B(  2-O ,  3-C ) :   1.1194 B(  3-C ,  4-O ) :   2.0015
B(  3-C ,  5-C ) :   1.0360 B(  5-C ,  6-C ) :   1.6582 B(  5-C , 12-C ) :   0.9659
B(  6-C ,  7-C ) :   0.9538 B(  6-C ,  8-N ) :   1.1423 B(  7-C , 25-H ) :   0.9628
B(  7-C , 26-H ) :   0.9685 B(  7-C , 27-H ) :   0.9894 B(  8-N ,  9-C ) :   1.1829
B(  8-N , 28-H ) :   0.9494 B(  9-C , 10-S ) :   1.6097 B(  9-C , 11-N ) :   1.3019
B( 11-N , 12-C ) :   0.9928 B( 11-N , 29-H ) :   0.9517 B( 12-C , 13-C ) :   0.9420
B( 12-C , 30-H ) :   0.9990 B( 13-C , 14-C ) :   1.3782 B( 13-C , 19-C ) :   1.3717
B( 14-C , 15-C ) :   1.3931 B( 14-C , 31-H ) :   0.9648 B( 15-C , 16-C ) :   1.3620
B( 15-C , 32-H ) :   0.9715 B( 16-C , 17-C ) :   1.3319 B( 16-C , 33-H ) :   0.9853
B( 17-C , 18-O ) :   1.1080 B( 17-C , 19-C ) :   1.3752 B( 18-O , 34-H ) :   0.9803
B( 19-C , 35-H ) :   0.9577

MP2 TOTAL ENERGY:    -1274.341577470 Eh
FINAL SINGLE POINT ENERGY     -1274.341577470091

DIPOLE MOMENT
-------------
                                X             Y             Z
Electronic contribution:     10.00669       9.45791       6.90084
Nuclear contribution   :    -11.39228     -10.75102      -7.79032
                        -----------------------------------------
Total Dipole Moment    :     -1.38559      -1.29311      -0.88948
                        -----------------------------------------
Magnitude (a.u.)       :      2.09360
Magnitude (Debye)      :      5.32151

Rotational constants in cm-1:     0.011891     0.009261     0.006563
Rotational constants in MHz :   356.493496   277.637439   196.752962

                             ****ORCA TERMINATED NORMALLY****
TOTAL RUN TIME: 0 days 1 hours 51 minutes 10 seconds 569 msec
