                         Program Version 4.2.0 -  RELEASE  -
|  1> ! ri-mp2 cc-pvtz cc-pvtz/c TightSCF  NoKeepInts
|  2>
|  3> %scf
|  4>   MaxCore 4096
|  5> end
|  6> *xyz  0  1
|  7>     C       14.2033153   15.6150203   16.1968610
|  8>     C       15.4509153   15.3172944   17.0475012
|  9>     O       16.5851620   15.2343982   16.1589435
| 10>     C       17.8397594   15.6513375   16.5234794
| 11>     O       18.7935990   14.9116672   16.3660231
| 12>     C       17.9236701   16.8459324   17.4203219
| 13>     C       17.3115922   18.0246446   17.1568193
| 14>     C       16.5027366   18.3877075   15.9317636
| 15>     N       17.4735147   19.1025985   18.0302121
| 16>     C       18.3072350   19.1081227   19.1181043
| 17>     S       18.4902702   20.4510866   20.0651061
| 18>     N       18.9790691   17.9407028   19.3853088
| 19>     C       18.7937244   16.6662736   18.6637015
| 20>     C       18.1921339   15.5988099   19.5725853
| 21>     C       18.7339967   14.3008484   19.5962901
| 22>     C       18.1667705   13.3026274   20.4057557
| 23>     C       17.0445961   13.6025831   21.1965255
| 24>     C       16.4972302   14.8921703   21.1703789
| 25>     O       15.4044668   15.1818881   21.9202087
| 26>     C       17.0635816   15.8839601   20.3634331
| 27>     H       13.3165023   15.7068124   16.8358263
| 28>     H       14.0257235   14.7996532   15.4842763
| 29>     H       14.3148160   16.5441121   15.6284400
| 30>     H       15.5590663   16.1116823   17.7949950
| 31>     H       15.3298109   14.3674973   17.5853561
| 32>     H       16.5552714   17.6183378   15.1521947
| 33>     H       16.8759979   19.3150817   15.4789289
| 34>     H       15.4480904   18.5411684   16.1889408
| 35>     H       17.0003756   19.9729954   17.8437617
| 36>     H       19.5703092   17.9669802   20.2065692
| 37>     H       19.7846126   16.3208017   18.3333297
| 38>     H       19.5893270   14.0600574   18.9683901
| 39>     H       18.5932960   12.3008619   20.4108587
| 40>     H       16.6016833   12.8329165   21.8200942
| 41>     H       15.2020938   14.3981547   22.4536647
| 42>     H       16.6226846   16.8752135   20.3590501
| 43> *
| 44>
| 45>                          ****END OF INPUT****

CARTESIAN COORDINATES (ANGSTROEM)
---------------------------------
  C     14.203315   15.615020   16.196861
  C     15.450915   15.317294   17.047501
  O     16.585162   15.234398   16.158943
  C     17.839759   15.651337   16.523479
  O     18.793599   14.911667   16.366023
  C     17.923670   16.845932   17.420322
  C     17.311592   18.024645   17.156819
  C     16.502737   18.387708   15.931764
  N     17.473515   19.102598   18.030212
  C     18.307235   19.108123   19.118104
  S     18.490270   20.451087   20.065106
  N     18.979069   17.940703   19.385309
  C     18.793724   16.666274   18.663701
  C     18.192134   15.598810   19.572585
  C     18.733997   14.300848   19.596290
  C     18.166770   13.302627   20.405756
  C     17.044596   13.602583   21.196525
  C     16.497230   14.892170   21.170379
  O     15.404467   15.181888   21.920209
  C     17.063582   15.883960   20.363433
  H     13.316502   15.706812   16.835826
  H     14.025723   14.799653   15.484276
  H     14.314816   16.544112   15.628440
  H     15.559066   16.111682   17.794995
  H     15.329811   14.367497   17.585356
  H     16.555271   17.618338   15.152195
  H     16.875998   19.315082   15.478929
  H     15.448090   18.541168   16.188941
  H     17.000376   19.972995   17.843762
  H     19.570309   17.966980   20.206569
  H     19.784613   16.320802   18.333330
  H     19.589327   14.060057   18.968390
  H     18.593296   12.300862   20.410859
  H     16.601683   12.832916   21.820094
  H     15.202094   14.398155   22.453665
  H     16.622685   16.875214   20.359050

 Total Charge           Charge          ....    0
 Multiplicity           Mult            ....    1
 Number of Electrons    NEL             ....  154
 Basis Dimension        Dim             ....  828

ORBITAL ENERGIES
----------------

  NO   OCC          E(Eh)            E(eV)
   0   2.0000     -91.890745     -2500.4743
   1   2.0000     -20.599674      -560.5456
   2   2.0000     -20.595864      -560.4419
   3   2.0000     -20.551561      -559.2364
   4   2.0000     -15.628854      -425.2827
   5   2.0000     -15.611473      -424.8098
   6   2.0000     -11.396915      -310.1258
   7   2.0000     -11.387208      -309.8617
   8   2.0000     -11.332890      -308.3836
   9   2.0000     -11.316235      -307.9304
  10   2.0000     -11.313065      -307.8442
  11   2.0000     -11.303681      -307.5888
  12   2.0000     -11.267071      -306.5926
  13   2.0000     -11.264764      -306.5298
  14   2.0000     -11.262403      -306.4656
  15   2.0000     -11.256053      -306.2928
  16   2.0000     -11.245689      -306.0108
  17   2.0000     -11.241976      -305.9097
  18   2.0000     -11.238695      -305.8204
  19   2.0000     -11.235763      -305.7407
  20   2.0000      -8.895845      -242.0683
  21   2.0000      -6.577428      -178.9809
  22   2.0000      -6.575408      -178.9260
  23   2.0000      -6.574828      -178.9102
  24   2.0000      -1.447644       -39.3924
  25   2.0000      -1.419469       -38.6257
  26   2.0000      -1.358979       -36.9797
  27   2.0000      -1.341657       -36.5083
  28   2.0000      -1.240662       -33.7601
  29   2.0000      -1.160938       -31.5907
  30   2.0000      -1.125483       -30.6260
  31   2.0000      -1.048415       -28.5288
  32   2.0000      -1.040691       -28.3186
  33   2.0000      -1.018261       -27.7083
  34   2.0000      -1.005140       -27.3512
  35   2.0000      -0.989620       -26.9289
  36   2.0000      -0.927563       -25.2403
  37   2.0000      -0.884157       -24.0591
  38   2.0000      -0.854225       -23.2446
  39   2.0000      -0.842886       -22.9361
  40   2.0000      -0.836633       -22.7659
  41   2.0000      -0.835839       -22.7443
  42   2.0000      -0.757982       -20.6257
  43   2.0000      -0.739294       -20.1172
  44   2.0000      -0.731919       -19.9165
  45   2.0000      -0.697526       -18.9807
  46   2.0000      -0.687987       -18.7211
  47   2.0000      -0.682480       -18.5712
  48   2.0000      -0.676731       -18.4148
  49   2.0000      -0.663175       -18.0459
  50   2.0000      -0.653003       -17.7691
  51   2.0000      -0.641298       -17.4506
  52   2.0000      -0.638666       -17.3790
  53   2.0000      -0.618935       -16.8421
  54   2.0000      -0.608692       -16.5634
  55   2.0000      -0.607966       -16.5436
  56   2.0000      -0.603270       -16.4158
  57   2.0000      -0.586220       -15.9519
  58   2.0000      -0.577969       -15.7273
  59   2.0000      -0.569318       -15.4919
  60   2.0000      -0.563220       -15.3260
  61   2.0000      -0.557188       -15.1619
  62   2.0000      -0.541445       -14.7335
  63   2.0000      -0.532541       -14.4912
  64   2.0000      -0.523982       -14.2583
  65   2.0000      -0.516280       -14.0487
  66   2.0000      -0.502511       -13.6740
  67   2.0000      -0.497612       -13.5407
  68   2.0000      -0.488704       -13.2983
  69   2.0000      -0.469702       -12.7812
  70   2.0000      -0.459785       -12.5114
  71   2.0000      -0.449459       -12.2304
  72   2.0000      -0.357583        -9.7303
  73   2.0000      -0.351700        -9.5703
  74   2.0000      -0.330268        -8.9871
  75   2.0000      -0.323886        -8.8134
  76   2.0000      -0.319140        -8.6842
  77   0.0000       0.078998         2.1497
  78   0.0000       0.104080         2.8322
  79   0.0000       0.115965         3.1556
  80   0.0000       0.129339         3.5195
  81   0.0000       0.133215         3.6250

MULLIKEN ATOMIC CHARGES
-----------------------
   0 C :   -0.271583
   1 C :    0.014023
   2 O :   -0.336013
   3 C :    0.425517
   4 O :   -0.380549
   5 C :   -0.212061
   6 C :    0.148046
   7 C :   -0.339254
   8 N :   -0.133173
   9 C :    0.199817
  10 S :   -0.439209
  11 N :   -0.207623
  12 C :    0.066230
  13 C :    0.037018
  14 C :   -0.186637
  15 C :   -0.130036
  16 C :   -0.278506
  17 C :    0.317441
  18 O :   -0.357900
  19 C :   -0.294120
  20 H :    0.096171
  21 H :    0.109986
  22 H :    0.091321
  23 H :    0.098397
  24 H :    0.126759
  25 H :    0.135052
  26 H :    0.142745
  27 H :    0.122008
  28 H :    0.197273
  29 H :    0.196862
  30 H :    0.162655
  31 H :    0.165938
  32 H :    0.163353
  33 H :    0.132126
  34 H :    0.241841
  35 H :    0.176086
Sum of atomic charges:   -0.0000000

LOEWDIN ATOMIC CHARGES
----------------------
   0 C :    0.107560
   1 C :   -0.016033
   2 O :    0.297817
   3 C :   -0.415525
   4 O :    0.127820
   5 C :   -0.087019
   6 C :   -0.093649
   7 C :    0.125666
   8 N :    0.402816
   9 C :   -0.457159
  10 S :   -0.036140
  11 N :    0.397245
  12 C :   -0.045413
  13 C :   -0.044007
  14 C :    0.022636
  15 C :    0.044855
  16 C :   -0.000432
  17 C :   -0.194445
  18 O :    0.393956
  19 C :    0.027430
  20 H :   -0.023907
  21 H :   -0.023830
  22 H :   -0.032827
  23 H :   -0.039793
  24 H :   -0.024543
  25 H :   -0.008868
  26 H :   -0.010353
  27 H :   -0.017033
  28 H :   -0.056963
  29 H :   -0.063443
  30 H :   -0.002857
  31 H :   -0.022100
  32 H :   -0.018745
  33 H :   -0.034701
  34 H :   -0.152941
  35 H :   -0.025076

  Mayer bond orders larger than 0.100000
B(  0-C ,  1-C ) :   0.9738 B(  0-C , 20-H ) :   0.9758 B(  0-C , 21-H ) :   0.9796
B(  0-C , 22-H ) :   0.9787 B(  1-C ,  2-O ) :   0.8988 B(  1-C , 23-H ) :   0.9616
B(  1-C , 24-H ) :   0.9798 B(  2-O ,  3-C ) :   1.1645 B(  3-C ,  4-O ) :   2.0947
B(  3-C ,  5-C ) :   0.9405 B(  5-C ,  6-C ) :   1.6744 B(  5-C , 12-C ) :   0.9595
B(  6-C ,  7-C ) :   0.9434 B(  6-C ,  8-N ) :   1.1240 B(  7-C , 25-H ) :   0.9773
B(  7-C , 26-H ) :   0.9726 B(  7-C , 27-H ) :   0.9648 B(  8-N ,  9-C ) :   1.1900
B(  8-N , 28-H ) :   0.9515 B(  9-C , 10-S ) :   1.6137 B(  9-C , 11-N ) :   1.2919
B( 11-N , 12-C ) :   0.9991 B( 11-N , 29-H ) :   0.9502 B( 12-C , 13-C ) :   0.9409
B( 12-C , 30-H ) :   0.9979 B( 13-C , 14-C ) :   1.3864 B( 13-C , 19-C ) :   1.3471
B( 14-C , 15-C ) :   1.3957 B( 14-C , 31-H ) :   0.9609 B( 15-C , 16-C ) :   1.3644
B( 15-C , 32-H ) :   0.9701 B( 16-C , 17-C ) :   1.3285 B( 16-C , 33-H ) :   0.9845
B( 17-C , 18-O ) :   1.1113 B( 17-C , 19-C ) :   1.3707 B( 18-O , 34-H ) :   0.9792
B( 19-C , 35-H ) :   0.9567

MP2 TOTAL ENERGY:    -1274.333443786 Eh
FINAL SINGLE POINT ENERGY     -1274.333443786358

DIPOLE MOMENT
-------------
                                X             Y             Z
Electronic contribution:     11.82830       5.86577       7.51033
Nuclear contribution   :    -13.31464      -6.88382      -7.74842
                        -----------------------------------------
Total Dipole Moment    :     -1.48634      -1.01805      -0.23810
                        -----------------------------------------
Magnitude (a.u.)       :      1.81723
Magnitude (Debye)      :      4.61903

Rotational constants in cm-1:     0.011193     0.009326     0.006845
Rotational constants in MHz :   335.548121   279.575265   205.212818

                             ****ORCA TERMINATED NORMALLY****
TOTAL RUN TIME: 0 days 1 hours 47 minutes 13 seconds 866 msec
