                         Program Version 4.2.0 -  RELEASE  -
|  1> ! ri-mp2 cc-pvtz cc-pvtz/c TightSCF  NoKeepInts
|  2>
|  3> %scf
|  4>   MaxCore 4096
|  5> end
|  6> *xyz  0  1
|  7>     C       15.7777315   14.1876786   14.4903010
|  8>     C       15.0638795   14.8560513   15.6842553
|  9>     O       15.8850775   15.9114501   16.2220974
| 10>     C       17.0164817   15.6295718   16.9360540
| 11>     O       17.4176023   14.4902504   17.1097479
| 12>     C       17.5883911   16.8006344   17.6849638
| 13>     C       17.3053284   18.1062300   17.4325002
| 14>     C       16.3886642   18.6775182   16.3698169
| 15>     N       17.9549355   19.1101373   18.1589158
| 16>     C       18.9960098   18.9032046   19.0247467
| 17>     S       19.7994712   20.1602226   19.7389351
| 18>     N       19.3373869   17.5972235   19.2672008
| 19>     C       18.5699797   16.4267458   18.8022845
| 20>     C       17.8462195   15.7645694   19.9721185
| 21>     C       18.0302630   14.3954973   20.2403914
| 22>     C       17.3660603   13.7798602   21.3145240
| 23>     C       16.5092523   14.5391015   22.1293805
| 24>     C       16.3200308   15.9020618   21.8636782
| 25>     O       15.4886808   16.6366417   22.6451517
| 26>     C       16.9821867   16.5119084   20.7935682
| 27>     H       16.0720048   14.9373092   13.7456067
| 28>     H       15.1097093   13.4670862   14.0033315
| 29>     H       16.6757301   13.6451793   14.8097786
| 30>     H       14.1132981   15.2815034   15.3380631
| 31>     H       14.8402601   14.1095676   16.4587687
| 32>     H       15.3409551   18.4436586   16.5966104
| 33>     H       16.6242551   18.2564012   15.3845200
| 34>     H       16.4703270   19.7675562   16.2806516
| 35>     H       17.7184675   20.0755724   17.9949228
| 36>     H       20.0870856   17.4694552   19.9346611
| 37>     H       19.2879335   15.7034880   18.3892155
| 38>     H       18.6788683   13.8020507   19.6005711
| 39>     H       17.5123352   12.7185602   21.5068600
| 40>     H       15.9927910   14.0672382   22.9585152
| 41>     H       15.1554540   16.0521004   23.3422585
| 42>     H       16.8238926   17.5687144   20.6090336
| 43> *
| 44>
| 45>                          ****END OF INPUT****

CARTESIAN COORDINATES (ANGSTROEM)
---------------------------------
  C     15.777731   14.187679   14.490301
  C     15.063879   14.856051   15.684255
  O     15.885077   15.911450   16.222097
  C     17.016482   15.629572   16.936054
  O     17.417602   14.490250   17.109748
  C     17.588391   16.800634   17.684964
  C     17.305328   18.106230   17.432500
  C     16.388664   18.677518   16.369817
  N     17.954936   19.110137   18.158916
  C     18.996010   18.903205   19.024747
  S     19.799471   20.160223   19.738935
  N     19.337387   17.597223   19.267201
  C     18.569980   16.426746   18.802284
  C     17.846220   15.764569   19.972119
  C     18.030263   14.395497   20.240391
  C     17.366060   13.779860   21.314524
  C     16.509252   14.539101   22.129380
  C     16.320031   15.902062   21.863678
  O     15.488681   16.636642   22.645152
  C     16.982187   16.511908   20.793568
  H     16.072005   14.937309   13.745607
  H     15.109709   13.467086   14.003331
  H     16.675730   13.645179   14.809779
  H     14.113298   15.281503   15.338063
  H     14.840260   14.109568   16.458769
  H     15.340955   18.443659   16.596610
  H     16.624255   18.256401   15.384520
  H     16.470327   19.767556   16.280652
  H     17.718467   20.075572   17.994923
  H     20.087086   17.469455   19.934661
  H     19.287934   15.703488   18.389215
  H     18.678868   13.802051   19.600571
  H     17.512335   12.718560   21.506860
  H     15.992791   14.067238   22.958515
  H     15.155454   16.052100   23.342258
  H     16.823893   17.568714   20.609034

 Total Charge           Charge          ....    0
 Multiplicity           Mult            ....    1
 Number of Electrons    NEL             ....  154
 Basis Dimension        Dim             ....  828

ORBITAL ENERGIES
----------------

  NO   OCC          E(Eh)            E(eV)
   0   2.0000     -91.887836     -2500.3951
   1   2.0000     -20.603786      -560.6575
   2   2.0000     -20.590790      -560.3039
   3   2.0000     -20.545948      -559.0837
   4   2.0000     -15.628146      -425.2635
   5   2.0000     -15.606415      -424.6721
   6   2.0000     -11.397195      -310.1335
   7   2.0000     -11.382664      -309.7380
   8   2.0000     -11.336181      -308.4732
   9   2.0000     -11.306601      -307.6682
  10   2.0000     -11.305209      -307.6304
  11   2.0000     -11.302124      -307.5464
  12   2.0000     -11.260556      -306.4153
  13   2.0000     -11.258656      -306.3636
  14   2.0000     -11.252640      -306.1999
  15   2.0000     -11.246784      -306.0405
  16   2.0000     -11.236413      -305.7583
  17   2.0000     -11.232537      -305.6529
  18   2.0000     -11.229562      -305.5719
  19   2.0000     -11.225555      -305.4629
  20   2.0000      -8.892900      -241.9881
  21   2.0000      -6.574477      -178.9006
  22   2.0000      -6.572470      -178.8460
  23   2.0000      -6.571885      -178.8301
  24   2.0000      -1.453217       -39.5440
  25   2.0000      -1.410521       -38.3822
  26   2.0000      -1.357671       -36.9441
  27   2.0000      -1.339121       -36.4393
  28   2.0000      -1.236675       -33.6516
  29   2.0000      -1.151336       -31.3294
  30   2.0000      -1.119075       -30.4516
  31   2.0000      -1.041686       -28.3457
  32   2.0000      -1.034244       -28.1432
  33   2.0000      -1.008645       -27.4466
  34   2.0000      -0.996757       -27.1231
  35   2.0000      -0.982343       -26.7309
  36   2.0000      -0.920918       -25.0595
  37   2.0000      -0.894241       -24.3335
  38   2.0000      -0.847484       -23.0612
  39   2.0000      -0.834909       -22.7190
  40   2.0000      -0.827032       -22.5047
  41   2.0000      -0.817045       -22.2329
  42   2.0000      -0.752365       -20.4729
  43   2.0000      -0.733940       -19.9715
  44   2.0000      -0.724273       -19.7085
  45   2.0000      -0.690211       -18.7816
  46   2.0000      -0.684743       -18.6328
  47   2.0000      -0.679473       -18.4894
  48   2.0000      -0.670898       -18.2561
  49   2.0000      -0.660387       -17.9700
  50   2.0000      -0.646172       -17.5832
  51   2.0000      -0.641481       -17.4556
  52   2.0000      -0.630859       -17.1665
  53   2.0000      -0.611808       -16.6481
  54   2.0000      -0.599612       -16.3163
  55   2.0000      -0.598690       -16.2912
  56   2.0000      -0.593977       -16.1629
  57   2.0000      -0.585363       -15.9285
  58   2.0000      -0.572301       -15.5731
  59   2.0000      -0.566024       -15.4023
  60   2.0000      -0.560042       -15.2395
  61   2.0000      -0.545414       -14.8415
  62   2.0000      -0.535500       -14.5717
  63   2.0000      -0.524842       -14.2817
  64   2.0000      -0.516331       -14.0501
  65   2.0000      -0.510521       -13.8920
  66   2.0000      -0.500263       -13.6128
  67   2.0000      -0.494937       -13.4679
  68   2.0000      -0.479883       -13.0583
  69   2.0000      -0.462629       -12.5888
  70   2.0000      -0.456811       -12.4304
  71   2.0000      -0.453761       -12.3475
  72   2.0000      -0.353988        -9.6325
  73   2.0000      -0.343211        -9.3393
  74   2.0000      -0.326939        -8.8965
  75   2.0000      -0.315230        -8.5778
  76   2.0000      -0.313001        -8.5172
  77   0.0000       0.076438         2.0800
  78   0.0000       0.114264         3.1093
  79   0.0000       0.121270         3.2999
  80   0.0000       0.136613         3.7174
  81   0.0000       0.141026         3.8375

MULLIKEN ATOMIC CHARGES
-----------------------
   0 C :   -0.300914
   1 C :    0.038452
   2 O :   -0.345490
   3 C :    0.445292
   4 O :   -0.437559
   5 C :   -0.163538
   6 C :    0.145698
   7 C :   -0.285359
   8 N :   -0.120582
   9 C :    0.201084
  10 S :   -0.439497
  11 N :   -0.196001
  12 C :    0.032531
  13 C :    0.057878
  14 C :   -0.160492
  15 C :   -0.134038
  16 C :   -0.278780
  17 C :    0.311625
  18 O :   -0.359135
  19 C :   -0.271147
  20 H :    0.089883
  21 H :    0.096249
  22 H :    0.123612
  23 H :    0.106529
  24 H :    0.101523
  25 H :    0.129262
  26 H :    0.124787
  27 H :    0.101719
  28 H :    0.196667
  29 H :    0.193267
  30 H :    0.153196
  31 H :    0.152802
  32 H :    0.158654
  33 H :    0.127708
  34 H :    0.239904
  35 H :    0.164209
Sum of atomic charges:   -0.0000000

LOEWDIN ATOMIC CHARGES
----------------------
   0 C :    0.104551
   1 C :   -0.014980
   2 O :    0.303480
   3 C :   -0.412521
   4 O :    0.104738
   5 C :   -0.090168
   6 C :   -0.065359
   7 C :    0.124829
   8 N :    0.404813
   9 C :   -0.459044
  10 S :   -0.036128
  11 N :    0.397889
  12 C :   -0.046408
  13 C :   -0.038674
  14 C :    0.021925
  15 C :    0.040765
  16 C :   -0.002274
  17 C :   -0.192378
  18 O :    0.393017
  19 C :    0.028788
  20 H :   -0.031170
  21 H :   -0.027186
  22 H :   -0.025170
  23 H :   -0.025265
  24 H :   -0.026767
  25 H :   -0.009200
  26 H :   -0.009299
  27 H :   -0.021140
  28 H :   -0.059216
  29 H :   -0.063656
  30 H :   -0.005216
  31 H :   -0.025533
  32 H :   -0.021382
  33 H :   -0.036492
  34 H :   -0.155019
  35 H :   -0.025150

  Mayer bond orders larger than 0.100000
B(  0-C ,  1-C ) :   0.9656 B(  0-C , 20-H ) :   0.9766 B(  0-C , 21-H ) :   0.9769
B(  0-C , 22-H ) :   0.9723 B(  1-C ,  2-O ) :   0.9033 B(  1-C , 23-H ) :   0.9848
B(  1-C , 24-H ) :   0.9772 B(  2-O ,  3-C ) :   1.1576 B(  3-C ,  4-O ) :   1.9491
B(  3-C ,  5-C ) :   1.0697 B(  5-C ,  6-C ) :   1.6448 B(  5-C , 12-C ) :   0.9663
B(  6-C ,  7-C ) :   0.9550 B(  6-C ,  8-N ) :   1.1513 B(  7-C , 25-H ) :   0.9631
B(  7-C , 26-H ) :   0.9660 B(  7-C , 27-H ) :   0.9915 B(  8-N ,  9-C ) :   1.1777
B(  8-N , 28-H ) :   0.9489 B(  9-C , 10-S ) :   1.6106 B(  9-C , 11-N ) :   1.3043
B( 11-N , 12-C ) :   0.9941 B( 11-N , 29-H ) :   0.9520 B( 12-C , 13-C ) :   0.9472
B( 12-C , 30-H ) :   1.0002 B( 13-C , 14-C ) :   1.3747 B( 13-C , 19-C ) :   1.3702
B( 14-C , 15-C ) :   1.3947 B( 14-C , 31-H ) :   0.9654 B( 15-C , 16-C ) :   1.3626
B( 15-C , 32-H ) :   0.9715 B( 16-C , 17-C ) :   1.3315 B( 16-C , 33-H ) :   0.9861
B( 17-C , 18-O ) :   1.1079 B( 17-C , 19-C ) :   1.3794 B( 18-O , 34-H ) :   0.9807
B( 19-C , 35-H ) :   0.9584

MP2 TOTAL ENERGY:    -1274.347028647 Eh
FINAL SINGLE POINT ENERGY     -1274.347028646783

DIPOLE MOMENT
-------------
                                X             Y             Z
Electronic contribution:      9.55496       9.31779      12.15413
Nuclear contribution   :    -11.22583     -10.42844     -13.09697
                        -----------------------------------------
Total Dipole Moment    :     -1.67086      -1.11064      -0.94284
                        -----------------------------------------
Magnitude (a.u.)       :      2.21681
Magnitude (Debye)      :      5.63469

Rotational constants in cm-1:     0.010560     0.008798     0.005754
Rotational constants in MHz :   316.590424   263.755340   172.495406

                             ****ORCA TERMINATED NORMALLY****
TOTAL RUN TIME: 0 days 1 hours 37 minutes 42 seconds 534 msec
