                         Program Version 5.0.0 -  RELEASE  -
|  1> ! ri-mp2 cc-pvtz cc-pvtz/c TightSCF NoKeepInts
|  2>
|  3> %scf
|  4>   MaxCore 4096
|  5> end
|  6> *xyz  0  1
|  7>     C       14.7439188   15.7586406   17.2370136
|  8>     C       15.8145726   14.8253241   16.6415571
|  9>     O       16.7300752   15.5816969   15.8231894
| 10>     C       17.9679413   15.8507615   16.3332394
| 11>     O       18.7841019   14.9498875   16.4162615
| 12>     C       17.9474131   16.9561719   17.3414684
| 13>     C       17.3248916   18.1375219   17.1146930
| 14>     C       16.6023318   18.5577869   15.8521066
| 15>     N       17.3876291   19.1518116   18.0737633
| 16>     C       18.1659845   19.1105062   19.2013387
| 17>     S       18.2668634   20.3964894   20.2360147
| 18>     N       18.8564399   17.9455886   19.4301528
| 19>     C       18.7091535   16.7037723   18.6454198
| 20>     C       18.0236008   15.6162527   19.4691506
| 21>     C       18.5537519   14.3134615   19.5073243
| 22>     C       17.9130717   13.2993255   20.2384282
| 23>     C       16.7295727   13.5883649   20.9384376
| 24>     C       16.1970352   14.8838894   20.9029173
| 25>     O       15.0476192   15.1642556   21.5667473
| 26>     C       16.8378346   15.8913298   20.1753020
| 27>     H       15.1870684   16.5039149   17.9056636
| 28>     H       14.0199767   15.1775476   17.8213519
| 29>     H       14.1972340   16.2785399   16.4411995
| 30>     H       16.3457036   14.2931603   17.4435622
| 31>     H       15.3174672   14.0722124   16.0167116
| 32>     H       15.5482062   18.2598645   15.8855893
| 33>     H       17.0504230   18.0978846   14.9624940
| 34>     H       16.6408534   19.6434007   15.6992006
| 35>     H       16.8927534   20.0163151   17.9207895
| 36>     H       19.4034030   17.9349356   20.2816655
| 37>     H       19.7177594   16.3523042   18.3830602
| 38>     H       19.4583222   14.0816654   18.9492893
| 39>     H       18.3317474   12.2944296   20.2539646
| 40>     H       16.2297659   12.8070077   21.5014498
| 41>     H       14.7958699   14.3693720   22.0608859
| 42>     H       16.4066435   16.8866068   20.1625967
| 43> *
| 44>
| 45>                          ****END OF INPUT****

CARTESIAN COORDINATES (ANGSTROEM)
---------------------------------
  C     14.743919   15.758641   17.237014
  C     15.814573   14.825324   16.641557
  O     16.730075   15.581697   15.823189
  C     17.967941   15.850762   16.333239
  O     18.784102   14.949887   16.416262
  C     17.947413   16.956172   17.341468
  C     17.324892   18.137522   17.114693
  C     16.602332   18.557787   15.852107
  N     17.387629   19.151812   18.073763
  C     18.165985   19.110506   19.201339
  S     18.266863   20.396489   20.236015
  N     18.856440   17.945589   19.430153
  C     18.709153   16.703772   18.645420
  C     18.023601   15.616253   19.469151
  C     18.553752   14.313462   19.507324
  C     17.913072   13.299325   20.238428
  C     16.729573   13.588365   20.938438
  C     16.197035   14.883889   20.902917
  O     15.047619   15.164256   21.566747
  C     16.837835   15.891330   20.175302
  H     15.187068   16.503915   17.905664
  H     14.019977   15.177548   17.821352
  H     14.197234   16.278540   16.441199
  H     16.345704   14.293160   17.443562
  H     15.317467   14.072212   16.016712
  H     15.548206   18.259864   15.885589
  H     17.050423   18.097885   14.962494
  H     16.640853   19.643401   15.699201
  H     16.892753   20.016315   17.920790
  H     19.403403   17.934936   20.281665
  H     19.717759   16.352304   18.383060
  H     19.458322   14.081665   18.949289
  H     18.331747   12.294430   20.253965
  H     16.229766   12.807008   21.501450
  H     14.795870   14.369372   22.060886
  H     16.406644   16.886607   20.162597

 Total Charge           Charge          ....    0
 Multiplicity           Mult            ....    1
 Number of Electrons    NEL             ....  154
 Basis Dimension        Dim             ....  828

ORBITAL ENERGIES
----------------

  NO   OCC          E(Eh)            E(eV)
   0   2.0000     -91.890725     -2500.4738
   1   2.0000     -20.598985      -560.5269
   2   2.0000     -20.578500      -559.9694
   3   2.0000     -20.557746      -559.4047
   4   2.0000     -15.629776      -425.3078
   5   2.0000     -15.610632      -424.7869
   6   2.0000     -11.394176      -310.0513
   7   2.0000     -11.386557      -309.8440
   8   2.0000     -11.333005      -308.3868
   9   2.0000     -11.315432      -307.9086
  10   2.0000     -11.312056      -307.8167
  11   2.0000     -11.299836      -307.4842
  12   2.0000     -11.261968      -306.4537
  13   2.0000     -11.261324      -306.4362
  14   2.0000     -11.260780      -306.4214
  15   2.0000     -11.255453      -306.2764
  16   2.0000     -11.245328      -306.0009
  17   2.0000     -11.241101      -305.8859
  18   2.0000     -11.237772      -305.7953
  19   2.0000     -11.228770      -305.5504
  20   2.0000      -8.895795      -242.0669
  21   2.0000      -6.577372      -178.9794
  22   2.0000      -6.575362      -178.9247
  23   2.0000      -6.574775      -178.9087
  24   2.0000      -1.450144       -39.4604
  25   2.0000      -1.418760       -38.6064
  26   2.0000      -1.354845       -36.8672
  27   2.0000      -1.341255       -36.4974
  28   2.0000      -1.239829       -33.7375
  29   2.0000      -1.159619       -31.5548
  30   2.0000      -1.123582       -30.5742
  31   2.0000      -1.046980       -28.4898
  32   2.0000      -1.032867       -28.1057
  33   2.0000      -1.017204       -27.6795
  34   2.0000      -1.001851       -27.2617
  35   2.0000      -0.988673       -26.9032
  36   2.0000      -0.926216       -25.2036
  37   2.0000      -0.885603       -24.0985
  38   2.0000      -0.850176       -23.1345
  39   2.0000      -0.841121       -22.8881
  40   2.0000      -0.835836       -22.7443
  41   2.0000      -0.826867       -22.5002
  42   2.0000      -0.755236       -20.5510
  43   2.0000      -0.735786       -20.0218
  44   2.0000      -0.730268       -19.8716
  45   2.0000      -0.697432       -18.9781
  46   2.0000      -0.687623       -18.7112
  47   2.0000      -0.679250       -18.4833
  48   2.0000      -0.675359       -18.3774
  49   2.0000      -0.659484       -17.9455
  50   2.0000      -0.655394       -17.8342
  51   2.0000      -0.645460       -17.5639
  52   2.0000      -0.638118       -17.3641
  53   2.0000      -0.609231       -16.5780
  54   2.0000      -0.606369       -16.5001
  55   2.0000      -0.602967       -16.4076
  56   2.0000      -0.595515       -16.2048
  57   2.0000      -0.583462       -15.8768
  58   2.0000      -0.578000       -15.7282
  59   2.0000      -0.574735       -15.6393
  60   2.0000      -0.564047       -15.3485
  61   2.0000      -0.552608       -15.0372
  62   2.0000      -0.543544       -14.7906
  63   2.0000      -0.524462       -14.2713
  64   2.0000      -0.517177       -14.0731
  65   2.0000      -0.510708       -13.8971
  66   2.0000      -0.503109       -13.6903
  67   2.0000      -0.498537       -13.5659
  68   2.0000      -0.484009       -13.1706
  69   2.0000      -0.466620       -12.6974
  70   2.0000      -0.454733       -12.3739
  71   2.0000      -0.452184       -12.3046
  72   2.0000      -0.355612        -9.6767
  73   2.0000      -0.351071        -9.5531
  74   2.0000      -0.330029        -8.9805
  75   2.0000      -0.323072        -8.7912
  76   2.0000      -0.318187        -8.6583
  77   0.0000       0.069631         1.8948
  78   0.0000       0.101993         2.7754
  79   0.0000       0.119183         3.2431
  80   0.0000       0.128478         3.4961
  81   0.0000       0.132928         3.6172

MULLIKEN ATOMIC CHARGES
-----------------------
   0 C :   -0.327431
   1 C :    0.039303
   2 O :   -0.380691
   3 C :    0.454955
   4 O :   -0.385317
   5 C :   -0.196137
   6 C :    0.124018
   7 C :   -0.283721
   8 N :   -0.124731
   9 C :    0.193385
  10 S :   -0.436881
  11 N :   -0.205878
  12 C :    0.060150
  13 C :    0.028642
  14 C :   -0.177053
  15 C :   -0.134250
  16 C :   -0.279257
  17 C :    0.320561
  18 O :   -0.359857
  19 C :   -0.289254
  20 H :    0.103148
  21 H :    0.122490
  22 H :    0.107153
  23 H :    0.104868
  24 H :    0.120811
  25 H :    0.125721
  26 H :    0.125248
  27 H :    0.112513
  28 H :    0.198179
  29 H :    0.195437
  30 H :    0.160376
  31 H :    0.164786
  32 H :    0.163236
  33 H :    0.132743
  34 H :    0.241365
  35 H :    0.181369
Sum of atomic charges:    0.0000000

LOEWDIN ATOMIC CHARGES
----------------------
   0 C :    0.103143
   1 C :   -0.009259
   2 O :    0.277255
   3 C :   -0.419947
   4 O :    0.137165
   5 C :   -0.093003
   6 C :   -0.079983
   7 C :    0.128568
   8 N :    0.404476
   9 C :   -0.457776
  10 S :   -0.034774
  11 N :    0.397016
  12 C :   -0.044656
  13 C :   -0.043621
  14 C :    0.020435
  15 C :    0.041446
  16 C :   -0.001885
  17 C :   -0.194121
  18 O :    0.394780
  19 C :    0.030232
  20 H :   -0.035181
  21 H :   -0.021680
  22 H :   -0.031923
  23 H :   -0.025456
  24 H :   -0.023491
  25 H :   -0.012275
  26 H :   -0.007452
  27 H :   -0.017114
  28 H :   -0.057910
  29 H :   -0.063903
  30 H :   -0.003582
  31 H :   -0.023204
  32 H :   -0.019370
  33 H :   -0.034860
  34 H :   -0.153286
  35 H :   -0.024803

  Mayer bond orders larger than 0.100000
B(  0-C ,  1-C ) :   0.9646 B(  0-C , 20-H ) :   0.9728 B(  0-C , 21-H ) :   0.9772
B(  0-C , 22-H ) :   0.9767 B(  1-C ,  2-O ) :   0.8842 B(  1-C , 23-H ) :   0.9683
B(  1-C , 24-H ) :   0.9851 B(  2-O ,  3-C ) :   1.0956 B(  3-C ,  4-O ) :   2.0568
B(  3-C ,  5-C ) :   0.9869 B(  5-C ,  6-C ) :   1.6775 B(  5-C , 12-C ) :   0.9562
B(  6-C ,  7-C ) :   0.9562 B(  6-C ,  8-N ) :   1.1264 B(  7-C , 25-H ) :   0.9614
B(  7-C , 26-H ) :   0.9713 B(  7-C , 27-H ) :   0.9848 B(  8-N ,  9-C ) :   1.1858
B(  8-N , 28-H ) :   0.9502 B(  9-C , 10-S ) :   1.6162 B(  9-C , 11-N ) :   1.2925
B( 11-N , 12-C ) :   0.9905 B( 11-N , 29-H ) :   0.9512 B( 12-C , 13-C ) :   0.9461
B( 12-C , 30-H ) :   0.9979 B( 13-C , 14-C ) :   1.3839 B( 13-C , 19-C ) :   1.3455
B( 14-C , 15-C ) :   1.3974 B( 14-C , 31-H ) :   0.9610 B( 15-C , 16-C ) :   1.3617
B( 15-C , 32-H ) :   0.9705 B( 16-C , 17-C ) :   1.3313 B( 16-C , 33-H ) :   0.9841
B( 17-C , 18-O ) :   1.1081 B( 17-C , 19-C ) :   1.3699 B( 18-O , 34-H ) :   0.9796
B( 19-C , 35-H ) :   0.9529

MP2 TOTAL ENERGY:    -1274.320031394 Eh
FINAL SINGLE POINT ENERGY     -1274.320031394018

DIPOLE MOMENT
-------------
                                X             Y             Z
Electronic contribution:     10.09010       6.67222       5.63025
Nuclear contribution   :    -11.28033      -7.89870      -6.09467
                        -----------------------------------------
Total Dipole Moment    :     -1.19023      -1.22647      -0.46442
                        -----------------------------------------
Magnitude (a.u.)       :      1.77104
Magnitude (Debye)      :      4.50162

Rotational constants in cm-1:     0.012222     0.009512     0.007119
Rotational constants in MHz :   366.401125   285.156291   213.428668

                             ****ORCA TERMINATED NORMALLY****
TOTAL RUN TIME: 0 days 2 hours 54 minutes 32 seconds 337 msec
