                         Program Version 4.2.0 -  RELEASE  -
|  1> ! ri-mp2 cc-pvtz cc-pvtz/c TightSCF  NoKeepInts
|  2>
|  3> %scf
|  4>   MaxCore 4096
|  5> end
|  6> *xyz  0  1
|  7>     C       14.9050217   14.0746499   16.1675167
|  8>     C       16.4373957   13.9702111   15.9958149
|  9>     O       17.1481527   15.0454621   16.6509814
| 10>     C       16.7742546   16.3628648   16.5923268
| 11>     O       15.9861058   16.7917240   15.7677057
| 12>     C       17.5974597   17.2270455   17.5081707
| 13>     C       17.5338145   18.5829753   17.4876656
| 14>     C       16.6775487   19.4486617   16.5881279
| 15>     N       18.3385299   19.3363003   18.3476952
| 16>     C       19.2828320   18.8193372   19.1936036
| 17>     S       20.2474797   19.7880400   20.1247659
| 18>     N       19.3888064   17.4526564   19.2310146
| 19>     C       18.5047854   16.5099432   18.5214458
| 20>     C       17.6941154   15.7005745   19.5296243
| 21>     C       17.9011318   14.3149119   19.6648594
| 22>     C       17.1511213   13.5667019   20.5878279
| 23>     C       16.1879353   14.2092939   21.3842702
| 24>     C       15.9821318   15.5897100   21.2550848
| 25>     O       15.0532767   16.2130838   22.0229451
| 26>     C       16.7298950   16.3316033   20.3355594
| 27>     H       14.6442166   14.3087861   17.2073496
| 28>     H       14.4307552   13.1212248   15.9058982
| 29>     H       14.4730422   14.8420414   15.5142278
| 30>     H       16.7843790   13.0146993   16.4094007
| 31>     H       16.6725033   13.9749411   14.9233250
| 32>     H       16.9116474   19.2580717   15.5329988
| 33>     H       16.8129013   20.5214376   16.7685529
| 34>     H       15.6138580   19.2204262   16.7332807
| 35>     H       18.2749362   20.3416617   18.3340027
| 36>     H       20.0661900   17.0998377   19.8947019
| 37>     H       19.1516011   15.8207077   17.9606844
| 38>     H       18.6412477   13.8149093   19.0459696
| 39>     H       17.3168327   12.4950904   20.6835066
| 40>     H       15.6062488   13.6358705   22.0984708
| 41>     H       14.6648064   15.5465788   22.6091546
| 42>     H       16.5600400   17.3999651   20.2554697
| 43> *
| 44>
| 45>                          ****END OF INPUT****

CARTESIAN COORDINATES (ANGSTROEM)
---------------------------------
  C     14.905022   14.074650   16.167517
  C     16.437396   13.970211   15.995815
  O     17.148153   15.045462   16.650981
  C     16.774255   16.362865   16.592327
  O     15.986106   16.791724   15.767706
  C     17.597460   17.227045   17.508171
  C     17.533814   18.582975   17.487666
  C     16.677549   19.448662   16.588128
  N     18.338530   19.336300   18.347695
  C     19.282832   18.819337   19.193604
  S     20.247480   19.788040   20.124766
  N     19.388806   17.452656   19.231015
  C     18.504785   16.509943   18.521446
  C     17.694115   15.700574   19.529624
  C     17.901132   14.314912   19.664859
  C     17.151121   13.566702   20.587828
  C     16.187935   14.209294   21.384270
  C     15.982132   15.589710   21.255085
  O     15.053277   16.213084   22.022945
  C     16.729895   16.331603   20.335559
  H     14.644217   14.308786   17.207350
  H     14.430755   13.121225   15.905898
  H     14.473042   14.842041   15.514228
  H     16.784379   13.014699   16.409401
  H     16.672503   13.974941   14.923325
  H     16.911647   19.258072   15.532999
  H     16.812901   20.521438   16.768553
  H     15.613858   19.220426   16.733281
  H     18.274936   20.341662   18.334003
  H     20.066190   17.099838   19.894702
  H     19.151601   15.820708   17.960684
  H     18.641248   13.814909   19.045970
  H     17.316833   12.495090   20.683507
  H     15.606249   13.635870   22.098471
  H     14.664806   15.546579   22.609155
  H     16.560040   17.399965   20.255470

 Total Charge           Charge          ....    0
 Multiplicity           Mult            ....    1
 Number of Electrons    NEL             ....  154
 Basis Dimension        Dim             ....  828

ORBITAL ENERGIES
----------------

  NO   OCC          E(Eh)            E(eV)
   0   2.0000     -91.888050     -2500.4010
   1   2.0000     -20.599319      -560.5360
   2   2.0000     -20.596269      -560.4530
   3   2.0000     -20.541166      -558.9535
   4   2.0000     -15.628060      -425.2611
   5   2.0000     -15.607398      -424.6989
   6   2.0000     -11.396283      -310.1086
   7   2.0000     -11.383154      -309.7514
   8   2.0000     -11.334979      -308.4405
   9   2.0000     -11.313388      -307.8529
  10   2.0000     -11.307557      -307.6943
  11   2.0000     -11.301570      -307.5314
  12   2.0000     -11.259126      -306.3764
  13   2.0000     -11.258355      -306.3554
  14   2.0000     -11.254802      -306.2587
  15   2.0000     -11.251317      -306.1639
  16   2.0000     -11.242820      -305.9327
  17   2.0000     -11.238197      -305.8069
  18   2.0000     -11.237895      -305.7987
  19   2.0000     -11.222628      -305.3832
  20   2.0000      -8.893123      -241.9942
  21   2.0000      -6.574701      -178.9067
  22   2.0000      -6.572694      -178.8521
  23   2.0000      -6.572109      -178.8362
  24   2.0000      -1.446868       -39.3713
  25   2.0000      -1.415939       -38.5296
  26   2.0000      -1.354054       -36.8457
  27   2.0000      -1.339115       -36.4392
  28   2.0000      -1.237617       -33.6773
  29   2.0000      -1.157219       -31.4895
  30   2.0000      -1.119474       -30.4624
  31   2.0000      -1.042135       -28.3579
  32   2.0000      -1.035623       -28.1807
  33   2.0000      -1.014648       -27.6100
  34   2.0000      -0.994690       -27.0669
  35   2.0000      -0.983235       -26.7552
  36   2.0000      -0.921738       -25.0818
  37   2.0000      -0.897597       -24.4249
  38   2.0000      -0.846454       -23.0332
  39   2.0000      -0.837335       -22.7850
  40   2.0000      -0.833704       -22.6862
  41   2.0000      -0.817149       -22.2358
  42   2.0000      -0.748145       -20.3581
  43   2.0000      -0.731355       -19.9012
  44   2.0000      -0.721234       -19.6258
  45   2.0000      -0.695262       -18.9190
  46   2.0000      -0.687722       -18.7139
  47   2.0000      -0.677805       -18.4440
  48   2.0000      -0.670554       -18.2467
  49   2.0000      -0.656851       -17.8738
  50   2.0000      -0.650529       -17.7018
  51   2.0000      -0.641490       -17.4558
  52   2.0000      -0.634078       -17.2541
  53   2.0000      -0.612350       -16.6629
  54   2.0000      -0.606096       -16.4927
  55   2.0000      -0.599628       -16.3167
  56   2.0000      -0.598212       -16.2782
  57   2.0000      -0.577026       -15.7017
  58   2.0000      -0.571316       -15.5463
  59   2.0000      -0.570008       -15.5107
  60   2.0000      -0.560113       -15.2415
  61   2.0000      -0.541502       -14.7350
  62   2.0000      -0.535323       -14.5669
  63   2.0000      -0.524908       -14.2835
  64   2.0000      -0.520222       -14.1559
  65   2.0000      -0.512995       -13.9593
  66   2.0000      -0.502451       -13.6724
  67   2.0000      -0.499150       -13.5826
  68   2.0000      -0.484584       -13.1862
  69   2.0000      -0.463033       -12.5998
  70   2.0000      -0.454966       -12.3803
  71   2.0000      -0.442736       -12.0474
  72   2.0000      -0.353180        -9.6105
  73   2.0000      -0.349029        -9.4976
  74   2.0000      -0.327517        -8.9122
  75   2.0000      -0.320943        -8.7333
  76   2.0000      -0.315285        -8.5793
  77   0.0000       0.077095         2.0979
  78   0.0000       0.106823         2.9068
  79   0.0000       0.125194         3.4067
  80   0.0000       0.133071         3.6211
  81   0.0000       0.137405         3.7390

MULLIKEN ATOMIC CHARGES
-----------------------
   0 C :   -0.310651
   1 C :    0.040715
   2 O :   -0.357464
   3 C :    0.470659
   4 O :   -0.435511
   5 C :   -0.217713
   6 C :    0.149310
   7 C :   -0.273720
   8 N :   -0.119357
   9 C :    0.211399
  10 S :   -0.441458
  11 N :   -0.205015
  12 C :    0.058402
  13 C :    0.061684
  14 C :   -0.185095
  15 C :   -0.130618
  16 C :   -0.278878
  17 C :    0.316721
  18 O :   -0.356538
  19 C :   -0.271215
  20 H :    0.101846
  21 H :    0.094949
  22 H :    0.127594
  23 H :    0.104786
  24 H :    0.100863
  25 H :    0.131594
  26 H :    0.094844
  27 H :    0.130536
  28 H :    0.196805
  29 H :    0.194843
  30 H :    0.150372
  31 H :    0.150051
  32 H :    0.159699
  33 H :    0.129777
  34 H :    0.240616
  35 H :    0.165166
Sum of atomic charges:   -0.0000000

LOEWDIN ATOMIC CHARGES
----------------------
   0 C :    0.104591
   1 C :   -0.011907
   2 O :    0.300438
   3 C :   -0.412218
   4 O :    0.101540
   5 C :   -0.093257
   6 C :   -0.059528
   7 C :    0.131020
   8 N :    0.406340
   9 C :   -0.456669
  10 S :   -0.036695
  11 N :    0.396580
  12 C :   -0.052628
  13 C :   -0.039310
  14 C :    0.014515
  15 C :    0.038873
  16 C :   -0.001651
  17 C :   -0.190060
  18 O :    0.395145
  19 C :    0.031121
  20 H :   -0.026527
  21 H :   -0.028106
  22 H :   -0.025848
  23 H :   -0.025476
  24 H :   -0.028583
  25 H :   -0.004044
  26 H :   -0.023611
  27 H :   -0.004971
  28 H :   -0.057752
  29 H :   -0.064584
  30 H :   -0.011928
  31 H :   -0.030164
  32 H :   -0.021549
  33 H :   -0.035584
  34 H :   -0.153970
  35 H :   -0.023544

  Mayer bond orders larger than 0.100000
B(  0-C ,  1-C ) :   0.9619 B(  0-C , 20-H ) :   0.9751 B(  0-C , 21-H ) :   0.9772
B(  0-C , 22-H ) :   0.9719 B(  1-C ,  2-O ) :   0.9029 B(  1-C , 23-H ) :   0.9838
B(  1-C , 24-H ) :   0.9830 B(  2-O ,  3-C ) :   1.1633 B(  3-C ,  4-O ) :   1.9633
B(  3-C ,  5-C ) :   1.0557 B(  5-C ,  6-C ) :   1.6547 B(  5-C , 12-C ) :   0.9710
B(  6-C ,  7-C ) :   0.9675 B(  6-C ,  8-N ) :   1.1642 B(  7-C , 25-H ) :   0.9600
B(  7-C , 26-H ) :   0.9904 B(  7-C , 27-H ) :   0.9611 B(  8-N ,  9-C ) :   1.1840
B(  8-N , 28-H ) :   0.9479 B(  9-C , 10-S ) :   1.6060 B(  9-C , 11-N ) :   1.3056
B( 11-N , 12-C ) :   0.9891 B( 11-N , 29-H ) :   0.9514 B( 12-C , 13-C ) :   0.9347
B( 12-C , 30-H ) :   1.0029 B( 13-C , 14-C ) :   1.3554 B( 13-C , 19-C ) :   1.3814
B( 14-C , 15-C ) :   1.3918 B( 14-C , 31-H ) :   0.9712 B( 15-C , 16-C ) :   1.3637
B( 15-C , 32-H ) :   0.9708 B( 16-C , 17-C ) :   1.3317 B( 16-C , 33-H ) :   0.9851
B( 17-C , 18-O ) :   1.1099 B( 17-C , 19-C ) :   1.3713 B( 18-O , 34-H ) :   0.9799
B( 19-C , 35-H ) :   0.9585

MP2 TOTAL ENERGY:    -1274.344725344 Eh
FINAL SINGLE POINT ENERGY     -1274.344725343549

DIPOLE MOMENT
-------------
                                X             Y             Z
Electronic contribution:     10.37606       9.89530       8.40578
Nuclear contribution   :    -11.44487     -11.66209      -8.83113
                        -----------------------------------------
Total Dipole Moment    :     -1.06881      -1.76679      -0.42535
                        -----------------------------------------
Magnitude (a.u.)       :      2.10828
Magnitude (Debye)      :      5.35881

Rotational constants in cm-1:     0.011727     0.008687     0.006150
Rotational constants in MHz :   351.580094   260.439745   184.372656

                             ****ORCA TERMINATED NORMALLY****
TOTAL RUN TIME: 0 days 2 hours 29 minutes 9 seconds 575 msec
