                         Program Version 5.0.0 -  RELEASE  -
|  1> ! ri-mp2 cc-pvtz cc-pvtz/c TightSCF NoKeepInts
|  2>
|  3> %scf
|  4>   MaxCore 4096
|  5> end
|  6> *xyz  0  1
|  7>     C       15.7592283   13.4833167   15.0846033
|  8>     C       15.2781774   14.6336134   15.9885301
|  9>     O       16.4078217   15.3675403   16.5072127
| 10>     C       16.1251125   16.4240106   17.3309793
| 11>     O       14.9990366   16.8631325   17.4904946
| 12>     C       17.3285390   17.2100170   17.7115354
| 13>     C       17.4448131   18.4911194   17.2920499
| 14>     C       16.5531421   19.1867953   16.2854998
| 15>     N       18.4729832   19.2977443   17.7812525
| 16>     C       19.3004688   18.9372194   18.8135787
| 17>     S       20.3320985   20.0201768   19.5211612
| 18>     N       19.1960528   17.6436921   19.2693483
| 19>     C       18.3469466   16.5929785   18.6748512
| 20>     C       17.7449919   15.7484928   19.7925371
| 21>     C       18.3158449   14.5018137   20.1122994
| 22>     C       17.8156323   13.7330510   21.1776237
| 23>     C       16.7310692   14.2124804   21.9302014
| 24>     C       16.1671019   15.4584282   21.6235061
| 25>     O       15.1235751   15.9244679   22.3533972
| 26>     C       16.6751261   16.2279486   20.5703886
| 27>     H       16.6973638   13.7335648   14.5719893
| 28>     H       15.0007448   13.2612261   14.3186022
| 29>     H       15.9201441   12.5792297   15.6842591
| 30>     H       14.6606757   15.3078543   15.3812466
| 31>     H       14.6561895   14.2477392   16.8075262
| 32>     H       16.2087882   18.4802195   15.5184782
| 33>     H       17.0804621   19.9967180   15.7621171
| 34>     H       15.6587462   19.5961389   16.7752081
| 35>     H       18.5405205   20.2599797   17.4835169
| 36>     H       19.7420453   17.4355855   20.0979687
| 37>     H       18.9958042   15.9446443   18.0712186
| 38>     H       19.1652409   14.1332151   19.5432601
| 39>     H       18.2720649   12.7750690   21.4230338
| 40>     H       16.3378494   13.6226894   22.7525840
| 41>     H       14.8568893   15.2196925   22.9623009
| 42>     H       16.2357091   17.2003949   20.3696398
| 43> *
| 44>
| 45>                          ****END OF INPUT****

CARTESIAN COORDINATES (ANGSTROEM)
---------------------------------
  C     15.759228   13.483317   15.084603
  C     15.278177   14.633613   15.988530
  O     16.407822   15.367540   16.507213
  C     16.125113   16.424011   17.330979
  O     14.999037   16.863132   17.490495
  C     17.328539   17.210017   17.711535
  C     17.444813   18.491119   17.292050
  C     16.553142   19.186795   16.285500
  N     18.472983   19.297744   17.781253
  C     19.300469   18.937219   18.813579
  S     20.332099   20.020177   19.521161
  N     19.196053   17.643692   19.269348
  C     18.346947   16.592979   18.674851
  C     17.744992   15.748493   19.792537
  C     18.315845   14.501814   20.112299
  C     17.815632   13.733051   21.177624
  C     16.731069   14.212480   21.930201
  C     16.167102   15.458428   21.623506
  O     15.123575   15.924468   22.353397
  C     16.675126   16.227949   20.570389
  H     16.697364   13.733565   14.571989
  H     15.000745   13.261226   14.318602
  H     15.920144   12.579230   15.684259
  H     14.660676   15.307854   15.381247
  H     14.656189   14.247739   16.807526
  H     16.208788   18.480219   15.518478
  H     17.080462   19.996718   15.762117
  H     15.658746   19.596139   16.775208
  H     18.540520   20.259980   17.483517
  H     19.742045   17.435585   20.097969
  H     18.995804   15.944644   18.071219
  H     19.165241   14.133215   19.543260
  H     18.272065   12.775069   21.423034
  H     16.337849   13.622689   22.752584
  H     14.856889   15.219693   22.962301
  H     16.235709   17.200395   20.369640

 Total Charge           Charge          ....    0
 Multiplicity           Mult            ....    1
 Number of Electrons    NEL             ....  154
 Basis Dimension        Dim             ....  828

ORBITAL ENERGIES
----------------

  NO   OCC          E(Eh)            E(eV)
   0   2.0000     -91.884328     -2500.2997
   1   2.0000     -20.608288      -560.7800
   2   2.0000     -20.596591      -560.4617
   3   2.0000     -20.551005      -559.2213
   4   2.0000     -15.620966      -425.0681
   5   2.0000     -15.605179      -424.6385
   6   2.0000     -11.393696      -310.0382
   7   2.0000     -11.380481      -309.6786
   8   2.0000     -11.321684      -308.0787
   9   2.0000     -11.315381      -307.9072
  10   2.0000     -11.310615      -307.7775
  11   2.0000     -11.296413      -307.3910
  12   2.0000     -11.264381      -306.5194
  13   2.0000     -11.257758      -306.3392
  14   2.0000     -11.253987      -306.2365
  15   2.0000     -11.253226      -306.2159
  16   2.0000     -11.246750      -306.0396
  17   2.0000     -11.243444      -305.9497
  18   2.0000     -11.241292      -305.8911
  19   2.0000     -11.233195      -305.6708
  20   2.0000      -8.889435      -241.8938
  21   2.0000      -6.571022      -178.8066
  22   2.0000      -6.569011      -178.7519
  23   2.0000      -6.568436      -178.7362
  24   2.0000      -1.454827       -39.5879
  25   2.0000      -1.416805       -38.5532
  26   2.0000      -1.359263       -36.9874
  27   2.0000      -1.333184       -36.2778
  28   2.0000      -1.233748       -33.5720
  29   2.0000      -1.159606       -31.5545
  30   2.0000      -1.119746       -30.4698
  31   2.0000      -1.044921       -28.4338
  32   2.0000      -1.039781       -28.2939
  33   2.0000      -1.016947       -27.6725
  34   2.0000      -0.996700       -27.1216
  35   2.0000      -0.982168       -26.7261
  36   2.0000      -0.921661       -25.0797
  37   2.0000      -0.886940       -24.1349
  38   2.0000      -0.843949       -22.9650
  39   2.0000      -0.836445       -22.7608
  40   2.0000      -0.834806       -22.7162
  41   2.0000      -0.818037       -22.2599
  42   2.0000      -0.762989       -20.7620
  43   2.0000      -0.732442       -19.9308
  44   2.0000      -0.724305       -19.7094
  45   2.0000      -0.696535       -18.9537
  46   2.0000      -0.685920       -18.6648
  47   2.0000      -0.680763       -18.5245
  48   2.0000      -0.676856       -18.4182
  49   2.0000      -0.666197       -18.1281
  50   2.0000      -0.651584       -17.7305
  51   2.0000      -0.646444       -17.5906
  52   2.0000      -0.631474       -17.1833
  53   2.0000      -0.608068       -16.5464
  54   2.0000      -0.601650       -16.3717
  55   2.0000      -0.598369       -16.2824
  56   2.0000      -0.588151       -16.0044
  57   2.0000      -0.577186       -15.7060
  58   2.0000      -0.573442       -15.6042
  59   2.0000      -0.570041       -15.5116
  60   2.0000      -0.564423       -15.3587
  61   2.0000      -0.553076       -15.0500
  62   2.0000      -0.539711       -14.6863
  63   2.0000      -0.526212       -14.3190
  64   2.0000      -0.515250       -14.0207
  65   2.0000      -0.508383       -13.8338
  66   2.0000      -0.506894       -13.7933
  67   2.0000      -0.497464       -13.5367
  68   2.0000      -0.489522       -13.3206
  69   2.0000      -0.460766       -12.5381
  70   2.0000      -0.459909       -12.5148
  71   2.0000      -0.455095       -12.3838
  72   2.0000      -0.353310        -9.6141
  73   2.0000      -0.347968        -9.4687
  74   2.0000      -0.326066        -8.8727
  75   2.0000      -0.322267        -8.7693
  76   2.0000      -0.312486        -8.5032
  77   0.0000       0.093358         2.5404
  78   0.0000       0.102982         2.8023
  79   0.0000       0.122450         3.3320
  80   0.0000       0.131769         3.5856
  81   0.0000       0.134935         3.6718

MULLIKEN ATOMIC CHARGES
-----------------------
   0 C :   -0.268787
   1 C :    0.053811
   2 O :   -0.334386
   3 C :    0.382831
   4 O :   -0.408218
   5 C :   -0.127352
   6 C :    0.138421
   7 C :   -0.285508
   8 N :   -0.135619
   9 C :    0.224008
  10 S :   -0.450591
  11 N :   -0.220192
  12 C :    0.100709
  13 C :   -0.046970
  14 C :   -0.188689
  15 C :   -0.131168
  16 C :   -0.268419
  17 C :    0.307000
  18 O :   -0.351915
  19 C :   -0.200882
  20 H :    0.100922
  21 H :    0.092839
  22 H :    0.095652
  23 H :    0.082633
  24 H :    0.091202
  25 H :    0.114996
  26 H :    0.098704
  27 H :    0.138454
  28 H :    0.195244
  29 H :    0.203346
  30 H :    0.142130
  31 H :    0.152780
  32 H :    0.160854
  33 H :    0.131655
  34 H :    0.239770
  35 H :    0.170734
Sum of atomic charges:    0.0000000

LOEWDIN ATOMIC CHARGES
----------------------
   0 C :    0.108655
   1 C :   -0.015889
   2 O :    0.293132
   3 C :   -0.415013
   4 O :    0.117622
   5 C :   -0.084334
   6 C :   -0.086158
   7 C :    0.128259
   8 N :    0.400979
   9 C :   -0.448387
  10 S :   -0.044153
  11 N :    0.391213
  12 C :   -0.050165
  13 C :   -0.044888
  14 C :    0.012018
  15 C :    0.041445
  16 C :    0.003871
  17 C :   -0.188159
  18 O :    0.398382
  19 C :    0.042339
  20 H :   -0.024903
  21 H :   -0.021910
  22 H :   -0.028677
  23 H :   -0.032527
  24 H :   -0.027749
  25 H :   -0.008328
  26 H :   -0.019295
  27 H :   -0.006218
  28 H :   -0.056992
  29 H :   -0.064716
  30 H :   -0.015492
  31 H :   -0.028802
  32 H :   -0.020052
  33 H :   -0.033423
  34 H :   -0.153827
  35 H :   -0.017856

  Mayer bond orders larger than 0.100000
B(  0-C ,  1-C ) :   0.9514 B(  0-C , 20-H ) :   0.9738 B(  0-C , 21-H ) :   0.9824
B(  0-C , 22-H ) :   0.9856 B(  1-C ,  2-O ) :   0.9114 B(  1-C , 23-H ) :   0.9825
B(  1-C , 24-H ) :   0.9794 B(  2-O ,  3-C ) :   1.2002 B(  3-C ,  4-O ) :   1.9998
B(  3-C ,  5-C ) :   0.9355 B(  5-C ,  6-C ) :   1.7218 B(  5-C , 12-C ) :   0.9632
B(  6-C ,  7-C ) :   0.9490 B(  6-C ,  8-N ) :   1.1324 B(  7-C , 25-H ) :   0.9754
B(  7-C , 26-H ) :   0.9855 B(  7-C , 27-H ) :   0.9623 B(  8-N ,  9-C ) :   1.2005
B(  8-N , 28-H ) :   0.9509 B(  9-C , 10-S ) :   1.5930 B(  9-C , 11-N ) :   1.3010
B( 11-N , 12-C ) :   0.9711 B( 11-N , 29-H ) :   0.9440 B( 12-C , 13-C ) :   0.9743
B( 12-C , 30-H ) :   0.9953 B( 13-C , 14-C ) :   1.3652 B( 13-C , 19-C ) :   1.3685
B( 14-C , 15-C ) :   1.3945 B( 14-C , 31-H ) :   0.9725 B( 15-C , 16-C ) :   1.3677
B( 15-C , 32-H ) :   0.9705 B( 16-C , 17-C ) :   1.3288 B( 16-C , 33-H ) :   0.9846
B( 17-C , 18-O ) :   1.1063 B( 17-C , 19-C ) :   1.3631 B( 18-O , 34-H ) :   0.9801
B( 19-C , 35-H ) :   0.9565

MP2 TOTAL ENERGY:    -1274.336070704 Eh
FINAL SINGLE POINT ENERGY     -1274.336070703967

DIPOLE MOMENT
-------------
                                X             Y             Z
Electronic contribution:      8.14614      10.86945      11.25497
Nuclear contribution   :     -9.10168     -12.87896     -12.04409
                        -----------------------------------------
Total Dipole Moment    :     -0.95554      -2.00952      -0.78912
                        -----------------------------------------
Magnitude (a.u.)       :      2.36092
Magnitude (Debye)      :      6.00097

Rotational constants in cm-1:     0.010366     0.008557     0.005739
Rotational constants in MHz :   310.772971   256.521226   172.046525

                             ****ORCA TERMINATED NORMALLY****
TOTAL RUN TIME: 0 days 1 hours 54 minutes 48 seconds 81 msec
