                         Program Version 4.2.0 -  RELEASE  -
|  1> ! ri-mp2 cc-pvtz cc-pvtz/c TightSCF  NoKeepInts
|  2>
|  3> %scf
|  4>   MaxCore 4096
|  5> end
|  6> *xyz  0  1
|  7>     C       15.8938794   14.0187647   14.6402276
|  8>     C       15.0392694   14.9951523   15.4797457
|  9>     O       15.8260613   15.9530882   16.2277784
| 10>     C       16.9589871   15.6535625   16.9360039
| 11>     O       17.3723960   14.5173315   17.0929964
| 12>     C       17.5443803   16.8184373   17.6859257
| 13>     C       17.2575476   18.1273707   17.4537894
| 14>     C       16.3204293   18.7135233   16.4171558
| 15>     N       17.9227644   19.1227005   18.1780855
| 16>     C       18.9824104   18.9060871   19.0185138
| 17>     S       19.8028286   20.1550580   19.7275636
| 18>     N       19.3273451   17.5974312   19.2397378
| 19>     C       18.5468708   16.4331935   18.7811619
| 20>     C       17.8446599   15.7640963   19.9602485
| 21>     C       18.0280510   14.3919380   20.2127625
| 22>     C       17.3840462   13.7698574   21.2954454
| 23>     C       16.5482996   14.5257090   22.1349404
| 24>     C       16.3597208   15.8917478   21.8850829
| 25>     O       15.5485914   16.6231120   22.6904827
| 26>     C       17.0018011   16.5080306   20.8064603
| 27>     H       16.7066630   14.5483006   14.1280599
| 28>     H       15.2722674   13.5332745   13.8783610
| 29>     H       16.3258176   13.2236032   15.2598196
| 30>     H       14.3595794   15.5429958   14.8146215
| 31>     H       14.4215663   14.4101583   16.1739313
| 32>     H       15.2779234   18.4690530   16.6564384
| 33>     H       16.5430501   18.3134273   15.4202332
| 34>     H       16.3937210   19.8056366   16.3482764
| 35>     H       17.6837064   20.0900048   18.0297906
| 36>     H       20.0912353   17.4616902   19.8892640
| 37>     H       19.2545520   15.7110979   18.3487991
| 38>     H       18.6599422   13.8012184   19.5539755
| 39>     H       17.5292759   12.7062289   21.4752118
| 40>     H       16.0473155   14.0488539   22.9706702
| 41>     H       15.2257069   16.0332171   23.3879268
| 42>     H       16.8443380   17.5670473   20.6345126
| 43> *
| 44>
| 45>                          ****END OF INPUT****

CARTESIAN COORDINATES (ANGSTROEM)
---------------------------------
  C     15.893879   14.018765   14.640228
  C     15.039269   14.995152   15.479746
  O     15.826061   15.953088   16.227778
  C     16.958987   15.653562   16.936004
  O     17.372396   14.517331   17.092996
  C     17.544380   16.818437   17.685926
  C     17.257548   18.127371   17.453789
  C     16.320429   18.713523   16.417156
  N     17.922764   19.122700   18.178086
  C     18.982410   18.906087   19.018514
  S     19.802829   20.155058   19.727564
  N     19.327345   17.597431   19.239738
  C     18.546871   16.433194   18.781162
  C     17.844660   15.764096   19.960248
  C     18.028051   14.391938   20.212763
  C     17.384046   13.769857   21.295445
  C     16.548300   14.525709   22.134940
  C     16.359721   15.891748   21.885083
  O     15.548591   16.623112   22.690483
  C     17.001801   16.508031   20.806460
  H     16.706663   14.548301   14.128060
  H     15.272267   13.533274   13.878361
  H     16.325818   13.223603   15.259820
  H     14.359579   15.542996   14.814621
  H     14.421566   14.410158   16.173931
  H     15.277923   18.469053   16.656438
  H     16.543050   18.313427   15.420233
  H     16.393721   19.805637   16.348276
  H     17.683706   20.090005   18.029791
  H     20.091235   17.461690   19.889264
  H     19.254552   15.711098   18.348799
  H     18.659942   13.801218   19.553975
  H     17.529276   12.706229   21.475212
  H     16.047315   14.048854   22.970670
  H     15.225707   16.033217   23.387927
  H     16.844338   17.567047   20.634513

 Total Charge           Charge          ....    0
 Multiplicity           Mult            ....    1
 Number of Electrons    NEL             ....  154
 Basis Dimension        Dim             ....  828

ORBITAL ENERGIES
----------------

  NO   OCC          E(Eh)            E(eV)
   0   2.0000     -91.887432     -2500.3841
   1   2.0000     -20.602607      -560.6254
   2   2.0000     -20.590252      -560.2892
   3   2.0000     -20.544354      -559.0403
   4   2.0000     -15.627625      -425.2493
   5   2.0000     -15.605918      -424.6586
   6   2.0000     -11.397795      -310.1498
   7   2.0000     -11.382166      -309.7245
   8   2.0000     -11.335664      -308.4591
   9   2.0000     -11.306008      -307.6521
  10   2.0000     -11.305454      -307.6370
  11   2.0000     -11.304468      -307.6102
  12   2.0000     -11.260022      -306.4008
  13   2.0000     -11.258332      -306.3548
  14   2.0000     -11.252025      -306.1832
  15   2.0000     -11.246197      -306.0246
  16   2.0000     -11.235818      -305.7422
  17   2.0000     -11.231920      -305.6361
  18   2.0000     -11.228931      -305.5548
  19   2.0000     -11.225769      -305.4687
  20   2.0000      -8.892499      -241.9772
  21   2.0000      -6.574077      -178.8897
  22   2.0000      -6.572070      -178.8351
  23   2.0000      -6.571485      -178.8192
  24   2.0000      -1.448910       -39.4268
  25   2.0000      -1.409981       -38.3675
  26   2.0000      -1.357056       -36.9274
  27   2.0000      -1.338666       -36.4270
  28   2.0000      -1.236188       -33.6384
  29   2.0000      -1.150653       -31.3108
  30   2.0000      -1.118202       -30.4278
  31   2.0000      -1.041310       -28.3355
  32   2.0000      -1.034323       -28.1454
  33   2.0000      -1.008050       -27.4304
  34   2.0000      -0.996281       -27.1102
  35   2.0000      -0.981866       -26.7179
  36   2.0000      -0.920606       -25.0510
  37   2.0000      -0.896983       -24.4081
  38   2.0000      -0.847336       -23.0572
  39   2.0000      -0.834649       -22.7120
  40   2.0000      -0.826450       -22.4889
  41   2.0000      -0.816588       -22.2205
  42   2.0000      -0.746122       -20.3030
  43   2.0000      -0.730054       -19.8658
  44   2.0000      -0.723615       -19.6906
  45   2.0000      -0.689823       -18.7710
  46   2.0000      -0.684035       -18.6135
  47   2.0000      -0.678138       -18.4531
  48   2.0000      -0.669919       -18.2294
  49   2.0000      -0.664625       -18.0854
  50   2.0000      -0.645166       -17.5559
  51   2.0000      -0.641807       -17.4645
  52   2.0000      -0.632968       -17.2239
  53   2.0000      -0.609887       -16.5959
  54   2.0000      -0.599043       -16.3008
  55   2.0000      -0.598099       -16.2751
  56   2.0000      -0.593373       -16.1465
  57   2.0000      -0.585136       -15.9223
  58   2.0000      -0.571547       -15.5526
  59   2.0000      -0.566282       -15.4093
  60   2.0000      -0.559308       -15.2195
  61   2.0000      -0.543682       -14.7943
  62   2.0000      -0.536255       -14.5922
  63   2.0000      -0.522516       -14.2184
  64   2.0000      -0.516071       -14.0430
  65   2.0000      -0.511016       -13.9054
  66   2.0000      -0.500685       -13.6243
  67   2.0000      -0.494481       -13.4555
  68   2.0000      -0.479883       -13.0583
  69   2.0000      -0.461983       -12.5712
  70   2.0000      -0.455678       -12.3996
  71   2.0000      -0.448929       -12.2160
  72   2.0000      -0.353467        -9.6183
  73   2.0000      -0.342619        -9.3231
  74   2.0000      -0.326546        -8.8858
  75   2.0000      -0.314763        -8.5651
  76   2.0000      -0.312408        -8.5011
  77   0.0000       0.077062         2.0970
  78   0.0000       0.115051         3.1307
  79   0.0000       0.120718         3.2849
  80   0.0000       0.137004         3.7281
  81   0.0000       0.140489         3.8229

MULLIKEN ATOMIC CHARGES
-----------------------
   0 C :   -0.302736
   1 C :    0.047289
   2 O :   -0.349416
   3 C :    0.449460
   4 O :   -0.435181
   5 C :   -0.165888
   6 C :    0.143287
   7 C :   -0.285422
   8 N :   -0.120611
   9 C :    0.200763
  10 S :   -0.440055
  11 N :   -0.195886
  12 C :    0.031748
  13 C :    0.059181
  14 C :   -0.161018
  15 C :   -0.133926
  16 C :   -0.278772
  17 C :    0.311624
  18 O :   -0.359219
  19 C :   -0.270920
  20 H :    0.092760
  21 H :    0.096554
  22 H :    0.129116
  23 H :    0.101695
  24 H :    0.094737
  25 H :    0.129709
  26 H :    0.123020
  27 H :    0.102474
  28 H :    0.196564
  29 H :    0.193129
  30 H :    0.153338
  31 H :    0.152790
  32 H :    0.158373
  33 H :    0.127482
  34 H :    0.239825
  35 H :    0.164131
Sum of atomic charges:   -0.0000000

LOEWDIN ATOMIC CHARGES
----------------------
   0 C :    0.103418
   1 C :   -0.010443
   2 O :    0.297973
   3 C :   -0.414009
   4 O :    0.109004
   5 C :   -0.089972
   6 C :   -0.065092
   7 C :    0.124445
   8 N :    0.404714
   9 C :   -0.459264
  10 S :   -0.036593
  11 N :    0.397937
  12 C :   -0.046547
  13 C :   -0.038437
  14 C :    0.021891
  15 C :    0.040732
  16 C :   -0.002343
  17 C :   -0.192326
  18 O :    0.392968
  19 C :    0.028843
  20 H :   -0.028534
  21 H :   -0.028182
  22 H :   -0.024663
  23 H :   -0.025395
  24 H :   -0.027508
  25 H :   -0.009221
  26 H :   -0.009605
  27 H :   -0.021318
  28 H :   -0.059398
  29 H :   -0.063679
  30 H :   -0.005423
  31 H :   -0.025609
  32 H :   -0.021478
  33 H :   -0.036573
  34 H :   -0.155099
  35 H :   -0.025215

  Mayer bond orders larger than 0.100000
B(  0-C ,  1-C ) :   0.9667 B(  0-C , 20-H ) :   0.9762 B(  0-C , 21-H ) :   0.9769
B(  0-C , 22-H ) :   0.9710 B(  1-C ,  2-O ) :   0.9032 B(  1-C , 23-H ) :   0.9838
B(  1-C , 24-H ) :   0.9803 B(  2-O ,  3-C ) :   1.1645 B(  3-C ,  4-O ) :   1.9595
B(  3-C ,  5-C ) :   1.0645 B(  5-C ,  6-C ) :   1.6430 B(  5-C , 12-C ) :   0.9664
B(  6-C ,  7-C ) :   0.9553 B(  6-C ,  8-N ) :   1.1516 B(  7-C , 25-H ) :   0.9630
B(  7-C , 26-H ) :   0.9661 B(  7-C , 27-H ) :   0.9922 B(  8-N ,  9-C ) :   1.1777
B(  8-N , 28-H ) :   0.9491 B(  9-C , 10-S ) :   1.6102 B(  9-C , 11-N ) :   1.3047
B( 11-N , 12-C ) :   0.9939 B( 11-N , 29-H ) :   0.9521 B( 12-C , 13-C ) :   0.9477
B( 12-C , 30-H ) :   1.0005 B( 13-C , 14-C ) :   1.3749 B( 13-C , 19-C ) :   1.3701
B( 14-C , 15-C ) :   1.3949 B( 14-C , 31-H ) :   0.9653 B( 15-C , 16-C ) :   1.3627
B( 15-C , 32-H ) :   0.9716 B( 16-C , 17-C ) :   1.3315 B( 16-C , 33-H ) :   0.9862
B( 17-C , 18-O ) :   1.1078 B( 17-C , 19-C ) :   1.3797 B( 18-O , 34-H ) :   0.9808
B( 19-C , 35-H ) :   0.9583

MP2 TOTAL ENERGY:    -1274.342113678 Eh
FINAL SINGLE POINT ENERGY     -1274.342113678262

DIPOLE MOMENT
-------------
                                X             Y             Z
Electronic contribution:      9.33801       9.47849      12.02807
Nuclear contribution   :    -11.01636     -10.58457     -13.06577
                        -----------------------------------------
Total Dipole Moment    :     -1.67835      -1.10607      -1.03770
                        -----------------------------------------
Magnitude (a.u.)       :      2.26210
Magnitude (Debye)      :      5.74979

Rotational constants in cm-1:     0.010562     0.008772     0.005754
Rotational constants in MHz :   316.646425   262.967732   172.489265

                             ****ORCA TERMINATED NORMALLY****
TOTAL RUN TIME: 0 days 1 hours 35 minutes 49 seconds 228 msec
