                         Program Version 4.2.0 -  RELEASE  -
|  1> ! ri-mp2 cc-pvtz cc-pvtz/c TightSCF  NoKeepInts
|  2>
|  3> %scf
|  4>   MaxCore 4096
|  5> end
|  6> *xyz  0  1
|  7>     C       14.2631045   15.0167107   16.3535951
|  8>     C       15.4370799   15.5495169   17.1907239
|  9>     O       16.6487282   15.1175695   16.5419927
| 10>     C       17.8029688   15.8535979   16.4449664
| 11>     O       18.8080767   15.3106713   16.0264857
| 12>     C       17.9255022   16.9719546   17.4234182
| 13>     C       17.3998596   18.1937891   17.1834185
| 14>     C       16.6257662   18.6209430   15.9548185
| 15>     N       17.6036725   19.2297434   18.0969241
| 16>     C       18.3953253   19.1379849   19.2128775
| 17>     S       18.6251412   20.4279309   20.2213706
| 18>     N       18.9836281   17.9200774   19.4561581
| 19>     C       18.7613450   16.6896615   18.6694078
| 20>     C       18.1183019   15.5910216   19.5096767
| 21>     C       18.5412803   14.2572467   19.3639739
| 22>     C       17.9381421   13.2292316   20.1072844
| 23>     C       16.8997875   13.5357347   21.0029506
| 24>     C       16.4703043   14.8617627   21.1459455
| 25>     O       15.4567046   15.1592061   21.9970362
| 26>     C       17.0713857   15.8835721   20.4039647
| 27>     H       13.3054788   15.2985053   16.8080062
| 28>     H       14.3030292   13.9219233   16.2889850
| 29>     H       14.2954997   15.4236397   15.3353011
| 30>     H       15.3496627   16.6386332   17.2418461
| 31>     H       15.3923971   15.1481172   18.2117072
| 32>     H       16.4881378   17.8021835   15.2380010
| 33>     H       17.1552891   19.4230502   15.4246695
| 34>     H       15.6298999   18.9938908   16.2245640
| 35>     H       17.1965561   20.1363189   17.9275422
| 36>     H       19.5469653   17.8784727   20.2962251
| 37>     H       19.7440465   16.3277154   18.3320714
| 38>     H       19.3307802   14.0144064   18.6555844
| 39>     H       18.2717209   12.2005737   19.9806381
| 40>     H       16.4291279   12.7435351   21.5758837
| 41>     H       15.2147349   14.3414141   22.4578707
| 42>     H       16.7175690   16.9016941   20.5281151
| 43> *
| 44>
| 45>                          ****END OF INPUT****

CARTESIAN COORDINATES (ANGSTROEM)
---------------------------------
  C     14.263105   15.016711   16.353595
  C     15.437080   15.549517   17.190724
  O     16.648728   15.117569   16.541993
  C     17.802969   15.853598   16.444966
  O     18.808077   15.310671   16.026486
  C     17.925502   16.971955   17.423418
  C     17.399860   18.193789   17.183418
  C     16.625766   18.620943   15.954818
  N     17.603672   19.229743   18.096924
  C     18.395325   19.137985   19.212878
  S     18.625141   20.427931   20.221371
  N     18.983628   17.920077   19.456158
  C     18.761345   16.689661   18.669408
  C     18.118302   15.591022   19.509677
  C     18.541280   14.257247   19.363974
  C     17.938142   13.229232   20.107284
  C     16.899787   13.535735   21.002951
  C     16.470304   14.861763   21.145945
  O     15.456705   15.159206   21.997036
  C     17.071386   15.883572   20.403965
  H     13.305479   15.298505   16.808006
  H     14.303029   13.921923   16.288985
  H     14.295500   15.423640   15.335301
  H     15.349663   16.638633   17.241846
  H     15.392397   15.148117   18.211707
  H     16.488138   17.802183   15.238001
  H     17.155289   19.423050   15.424669
  H     15.629900   18.993891   16.224564
  H     17.196556   20.136319   17.927542
  H     19.546965   17.878473   20.296225
  H     19.744046   16.327715   18.332071
  H     19.330780   14.014406   18.655584
  H     18.271721   12.200574   19.980638
  H     16.429128   12.743535   21.575884
  H     15.214735   14.341414   22.457871
  H     16.717569   16.901694   20.528115

 Total Charge           Charge          ....    0
 Multiplicity           Mult            ....    1
 Number of Electrons    NEL             ....  154
 Basis Dimension        Dim             ....  828

ORBITAL ENERGIES
----------------

  NO   OCC          E(Eh)            E(eV)
   0   2.0000     -91.889216     -2500.4327
   1   2.0000     -20.602017      -560.6094
   2   2.0000     -20.600286      -560.5623
   3   2.0000     -20.552162      -559.2528
   4   2.0000     -15.625112      -425.1809
   5   2.0000     -15.611747      -424.8172
   6   2.0000     -11.397851      -310.1513
   7   2.0000     -11.386320      -309.8375
   8   2.0000     -11.325478      -308.1819
   9   2.0000     -11.317035      -307.9522
  10   2.0000     -11.316635      -307.9413
  11   2.0000     -11.302026      -307.5438
  12   2.0000     -11.270930      -306.6976
  13   2.0000     -11.264836      -306.5318
  14   2.0000     -11.264121      -306.5123
  15   2.0000     -11.257349      -306.3280
  16   2.0000     -11.246595      -306.0354
  17   2.0000     -11.242378      -305.9207
  18   2.0000     -11.239939      -305.8543
  19   2.0000     -11.233313      -305.6740
  20   2.0000      -8.894345      -242.0274
  21   2.0000      -6.575938      -178.9404
  22   2.0000      -6.573907      -178.8851
  23   2.0000      -6.573337      -178.8696
  24   2.0000      -1.450201       -39.4620
  25   2.0000      -1.420131       -38.6437
  26   2.0000      -1.360381       -37.0178
  27   2.0000      -1.339056       -36.4376
  28   2.0000      -1.239422       -33.7264
  29   2.0000      -1.161792       -31.6140
  30   2.0000      -1.125928       -30.6381
  31   2.0000      -1.049673       -28.5630
  32   2.0000      -1.040787       -28.3212
  33   2.0000      -1.019408       -27.7395
  34   2.0000      -1.005451       -27.3597
  35   2.0000      -0.989216       -26.9179
  36   2.0000      -0.928218       -25.2581
  37   2.0000      -0.883335       -24.0368
  38   2.0000      -0.854846       -23.2615
  39   2.0000      -0.841695       -22.9037
  40   2.0000      -0.837557       -22.7911
  41   2.0000      -0.836959       -22.7748
  42   2.0000      -0.757304       -20.6073
  43   2.0000      -0.738476       -20.0950
  44   2.0000      -0.732552       -19.9337
  45   2.0000      -0.697710       -18.9857
  46   2.0000      -0.688689       -18.7402
  47   2.0000      -0.680032       -18.5046
  48   2.0000      -0.678010       -18.4496
  49   2.0000      -0.667642       -18.1675
  50   2.0000      -0.652785       -17.7632
  51   2.0000      -0.649944       -17.6859
  52   2.0000      -0.639451       -17.4003
  53   2.0000      -0.612598       -16.6696
  54   2.0000      -0.608358       -16.5543
  55   2.0000      -0.604231       -16.4420
  56   2.0000      -0.596255       -16.2249
  57   2.0000      -0.588046       -16.0015
  58   2.0000      -0.578419       -15.7396
  59   2.0000      -0.570791       -15.5320
  60   2.0000      -0.563489       -15.3333
  61   2.0000      -0.562298       -15.3009
  62   2.0000      -0.548353       -14.9214
  63   2.0000      -0.528446       -14.3797
  64   2.0000      -0.522589       -14.2204
  65   2.0000      -0.514976       -14.0132
  66   2.0000      -0.505909       -13.7665
  67   2.0000      -0.502642       -13.6776
  68   2.0000      -0.487957       -13.2780
  69   2.0000      -0.470093       -12.7919
  70   2.0000      -0.452862       -12.3230
  71   2.0000      -0.450097       -12.2478
  72   2.0000      -0.356556        -9.7024
  73   2.0000      -0.352032        -9.5793
  74   2.0000      -0.329043        -8.9537
  75   2.0000      -0.324876        -8.8403
  76   2.0000      -0.317639        -8.6434
  77   0.0000       0.090586         2.4650
  78   0.0000       0.104206         2.8356
  79   0.0000       0.109850         2.9892
  80   0.0000       0.127114         3.4589
  81   0.0000       0.129274         3.5177

MULLIKEN ATOMIC CHARGES
-----------------------
   0 C :   -0.252699
   1 C :    0.007866
   2 O :   -0.305982
   3 C :    0.380770
   4 O :   -0.377176
   5 C :   -0.158231
   6 C :    0.117235
   7 C :   -0.320606
   8 N :   -0.134670
   9 C :    0.207193
  10 S :   -0.442888
  11 N :   -0.218250
  12 C :    0.062678
  13 C :    0.022861
  14 C :   -0.187518
  15 C :   -0.133316
  16 C :   -0.273614
  17 C :    0.317105
  18 O :   -0.359505
  19 C :   -0.276985
  20 H :    0.089036
  21 H :    0.106806
  22 H :    0.092117
  23 H :    0.091031
  24 H :    0.126332
  25 H :    0.118309
  26 H :    0.143859
  27 H :    0.118351
  28 H :    0.194866
  29 H :    0.199431
  30 H :    0.165913
  31 H :    0.164947
  32 H :    0.163618
  33 H :    0.133069
  34 H :    0.241689
  35 H :    0.176357
Sum of atomic charges:   -0.0000000

LOEWDIN ATOMIC CHARGES
----------------------
   0 C :    0.107892
   1 C :   -0.021482
   2 O :    0.315374
   3 C :   -0.419825
   4 O :    0.127802
   5 C :   -0.079471
   6 C :   -0.112560
   7 C :    0.123085
   8 N :    0.400264
   9 C :   -0.454985
  10 S :   -0.039333
  11 N :    0.397445
  12 C :   -0.043122
  13 C :   -0.042744
  14 C :    0.024005
  15 C :    0.046097
  16 C :   -0.000696
  17 C :   -0.195201
  18 O :    0.394847
  19 C :    0.027476
  20 H :   -0.025960
  21 H :   -0.023556
  22 H :   -0.028888
  23 H :   -0.038527
  24 H :   -0.026519
  25 H :   -0.010031
  26 H :   -0.008531
  27 H :   -0.016696
  28 H :   -0.058451
  29 H :   -0.063781
  30 H :   -0.002165
  31 H :   -0.021941
  32 H :   -0.018256
  33 H :   -0.034522
  34 H :   -0.152835
  35 H :   -0.024210

  Mayer bond orders larger than 0.100000
B(  0-C ,  1-C ) :   0.9826 B(  0-C , 20-H ) :   0.9769 B(  0-C , 21-H ) :   0.9792
B(  0-C , 22-H ) :   0.9775 B(  1-C ,  2-O ) :   0.9081 B(  1-C , 23-H ) :   0.9669
B(  1-C , 24-H ) :   0.9672 B(  2-O ,  3-C ) :   1.1671 B(  3-C ,  4-O ) :   2.0982
B(  3-C ,  5-C ) :   0.9192 B(  5-C ,  6-C ) :   1.7042 B(  5-C , 12-C ) :   0.9623
B(  6-C ,  7-C ) :   0.9451 B(  6-C ,  8-N ) :   1.1086 B(  7-C , 25-H ) :   0.9822
B(  7-C , 26-H ) :   0.9673 B(  7-C , 27-H ) :   0.9679 B(  8-N ,  9-C ) :   1.1993
B(  8-N , 28-H ) :   0.9530 B(  9-C , 10-S ) :   1.6087 B(  9-C , 11-N ) :   1.2855
B( 11-N , 12-C ) :   0.9950 B( 11-N , 29-H ) :   0.9479 B( 12-C , 13-C ) :   0.9460
B( 12-C , 30-H ) :   0.9979 B( 13-C , 14-C ) :   1.3854 B( 13-C , 19-C ) :   1.3457
B( 14-C , 15-C ) :   1.3972 B( 14-C , 31-H ) :   0.9630 B( 15-C , 16-C ) :   1.3628
B( 15-C , 32-H ) :   0.9700 B( 16-C , 17-C ) :   1.3287 B( 16-C , 33-H ) :   0.9843
B( 17-C , 18-O ) :   1.1079 B( 17-C , 19-C ) :   1.3660 B( 18-O , 34-H ) :   0.9790
B( 19-C , 35-H ) :   0.9587

MP2 TOTAL ENERGY:    -1274.327370339 Eh
FINAL SINGLE POINT ENERGY     -1274.327370339118

DIPOLE MOMENT
-------------
                                X             Y             Z
Electronic contribution:     11.87508       6.68288       7.63142
Nuclear contribution   :    -13.52374      -7.72861      -7.97693
                        -----------------------------------------
Total Dipole Moment    :     -1.64866      -1.04573      -0.34551
                        -----------------------------------------
Magnitude (a.u.)       :      1.98267
Magnitude (Debye)      :      5.03956

Rotational constants in cm-1:     0.011725     0.009128     0.006730
Rotational constants in MHz :   351.511152   273.648295   201.758734

                             ****ORCA TERMINATED NORMALLY****
TOTAL RUN TIME: 0 days 1 hours 54 minutes 26 seconds 463 msec
