                         Program Version 5.0.0 -  RELEASE  -
|  1> ! ri-mp2 cc-pvtz cc-pvtz/c TightSCF NoKeepInts
|  2>
|  3> %scf
|  4>   MaxCore 4096
|  5> end
|  6> *xyz  0  1
|  7>     C       14.9797884   14.2190489   17.0288047
|  8>     C       15.4610302   15.6319576   16.6594777
|  9>     O       16.6853378   15.4882299   15.9109871
| 10>     C       17.8953842   15.6746091   16.5208257
| 11>     O       18.7097825   14.7707997   16.5658022
| 12>     C       18.0200162   16.8994872   17.3737194
| 13>     C       17.5418968   18.1160364   17.0164724
| 14>     C       16.8680760   18.4895060   15.7130142
| 15>     N       17.7225830   19.2099832   17.8667337
| 16>     C       18.4574129   19.1873478   19.0235906
| 17>     S       18.6825736   20.5478672   19.9358598
| 18>     N       18.9916256   17.9767376   19.3904908
| 19>     C       18.7424767   16.6935355   18.7049132
| 20>     C       17.9412059   15.7429814   19.5899976
| 21>     C       18.3509452   14.4068379   19.7509917
| 22>     C       17.5969977   13.5153258   20.5321341
| 23>     C       16.4197109   13.9616054   21.1560098
| 24>     C       16.0049215   15.2901124   20.9938878
| 25>     O       14.8607202   15.7211174   21.5816263
| 26>     C       16.7578602   16.1757200   20.2166045
| 27>     H       15.7101750   13.7229371   17.6814119
| 28>     H       14.8487617   13.6054929   16.1286551
| 29>     H       14.0214674   14.2634254   17.5601148
| 30>     H       14.7011472   16.1077421   16.0264553
| 31>     H       15.5804153   16.2365588   17.5671076
| 32>     H       17.1834836   17.8330046   14.8922017
| 33>     H       17.1207822   19.5123545   15.4064122
| 34>     H       15.7770888   18.4249665   15.7986907
| 35>     H       17.3460756   20.1096932   17.6121952
| 36>     H       19.5084353   17.9846953   20.2608361
| 37>     H       19.7174616   16.2309265   18.4914970
| 38>     H       19.2484869   14.0521359   19.2488948
| 39>     H       17.9224716   12.4822895   20.6428649
| 40>     H       15.8323107   13.2745317   21.7561549
| 41>     H       14.5209970   14.9929355   22.1238467
| 42>     H       16.4170946   17.1994639   20.1047178
| 43> *
| 44>
| 45>                          ****END OF INPUT****

CARTESIAN COORDINATES (ANGSTROEM)
---------------------------------
  C     14.979788   14.219049   17.028805
  C     15.461030   15.631958   16.659478
  O     16.685338   15.488230   15.910987
  C     17.895384   15.674609   16.520826
  O     18.709782   14.770800   16.565802
  C     18.020016   16.899487   17.373719
  C     17.541897   18.116036   17.016472
  C     16.868076   18.489506   15.713014
  N     17.722583   19.209983   17.866734
  C     18.457413   19.187348   19.023591
  S     18.682574   20.547867   19.935860
  N     18.991626   17.976738   19.390491
  C     18.742477   16.693535   18.704913
  C     17.941206   15.742981   19.589998
  C     18.350945   14.406838   19.750992
  C     17.596998   13.515326   20.532134
  C     16.419711   13.961605   21.156010
  C     16.004921   15.290112   20.993888
  O     14.860720   15.721117   21.581626
  C     16.757860   16.175720   20.216604
  H     15.710175   13.722937   17.681412
  H     14.848762   13.605493   16.128655
  H     14.021467   14.263425   17.560115
  H     14.701147   16.107742   16.026455
  H     15.580415   16.236559   17.567108
  H     17.183484   17.833005   14.892202
  H     17.120782   19.512354   15.406412
  H     15.777089   18.424967   15.798691
  H     17.346076   20.109693   17.612195
  H     19.508435   17.984695   20.260836
  H     19.717462   16.230926   18.491497
  H     19.248487   14.052136   19.248895
  H     17.922472   12.482289   20.642865
  H     15.832311   13.274532   21.756155
  H     14.520997   14.992935   22.123847
  H     16.417095   17.199464   20.104718

 Total Charge           Charge          ....    0
 Multiplicity           Mult            ....    1
 Number of Electrons    NEL             ....  154
 Basis Dimension        Dim             ....  828

ORBITAL ENERGIES
----------------

  NO   OCC          E(Eh)            E(eV)
   0   2.0000     -91.891255     -2500.4882
   1   2.0000     -20.599679      -560.5458
   2   2.0000     -20.593377      -560.3743
   3   2.0000     -20.551760      -559.2418
   4   2.0000     -15.630300      -425.3221
   5   2.0000     -15.611396      -424.8077
   6   2.0000     -11.395704      -310.0929
   7   2.0000     -11.387369      -309.8661
   8   2.0000     -11.335214      -308.4469
   9   2.0000     -11.316256      -307.9310
  10   2.0000     -11.311997      -307.8151
  11   2.0000     -11.303567      -307.5857
  12   2.0000     -11.265886      -306.5603
  13   2.0000     -11.262939      -306.4801
  14   2.0000     -11.262136      -306.4583
  15   2.0000     -11.255872      -306.2878
  16   2.0000     -11.245512      -306.0059
  17   2.0000     -11.242086      -305.9127
  18   2.0000     -11.238421      -305.8130
  19   2.0000     -11.225609      -305.4644
  20   2.0000      -8.896340      -242.0817
  21   2.0000      -6.577918      -178.9942
  22   2.0000      -6.575904      -178.9394
  23   2.0000      -6.575320      -178.9235
  24   2.0000      -1.448895       -39.4264
  25   2.0000      -1.419480       -38.6260
  26   2.0000      -1.359395       -36.9910
  27   2.0000      -1.342100       -36.5204
  28   2.0000      -1.240730       -33.7620
  29   2.0000      -1.160741       -31.5854
  30   2.0000      -1.124969       -30.6120
  31   2.0000      -1.048005       -28.5177
  32   2.0000      -1.034838       -28.1594
  33   2.0000      -1.018104       -27.7040
  34   2.0000      -1.004336       -27.3294
  35   2.0000      -0.989229       -26.9183
  36   2.0000      -0.927324       -25.2338
  37   2.0000      -0.882970       -24.0268
  38   2.0000      -0.855075       -23.2678
  39   2.0000      -0.842630       -22.9291
  40   2.0000      -0.836409       -22.7599
  41   2.0000      -0.834753       -22.7148
  42   2.0000      -0.751600       -20.4521
  43   2.0000      -0.738644       -20.0995
  44   2.0000      -0.731127       -19.8950
  45   2.0000      -0.697791       -18.9879
  46   2.0000      -0.688044       -18.7226
  47   2.0000      -0.679063       -18.4782
  48   2.0000      -0.677579       -18.4379
  49   2.0000      -0.663256       -18.0481
  50   2.0000      -0.655276       -17.8310
  51   2.0000      -0.649451       -17.6725
  52   2.0000      -0.640833       -17.4380
  53   2.0000      -0.610260       -16.6060
  54   2.0000      -0.608490       -16.5579
  55   2.0000      -0.603913       -16.4333
  56   2.0000      -0.597479       -16.2582
  57   2.0000      -0.581364       -15.8197
  58   2.0000      -0.578091       -15.7306
  59   2.0000      -0.572157       -15.5692
  60   2.0000      -0.562376       -15.3030
  61   2.0000      -0.558130       -15.1875
  62   2.0000      -0.543661       -14.7938
  63   2.0000      -0.526493       -14.3266
  64   2.0000      -0.517832       -14.0909
  65   2.0000      -0.514335       -13.9958
  66   2.0000      -0.502641       -13.6776
  67   2.0000      -0.497661       -13.5420
  68   2.0000      -0.488610       -13.2957
  69   2.0000      -0.470757       -12.8100
  70   2.0000      -0.458020       -12.4634
  71   2.0000      -0.448555       -12.2058
  72   2.0000      -0.357504        -9.7282
  73   2.0000      -0.351867        -9.5748
  74   2.0000      -0.330657        -8.9976
  75   2.0000      -0.323622        -8.8062
  76   2.0000      -0.319209        -8.6861
  77   0.0000       0.074505         2.0274
  78   0.0000       0.103062         2.8045
  79   0.0000       0.117405         3.1948
  80   0.0000       0.128158         3.4874
  81   0.0000       0.135846         3.6966

MULLIKEN ATOMIC CHARGES
-----------------------
   0 C :   -0.260186
   1 C :   -0.006226
   2 O :   -0.343452
   3 C :    0.441846
   4 O :   -0.385537
   5 C :   -0.233877
   6 C :    0.156843
   7 C :   -0.305546
   8 N :   -0.129686
   9 C :    0.199733
  10 S :   -0.437471
  11 N :   -0.206759
  12 C :    0.067071
  13 C :    0.041450
  14 C :   -0.182076
  15 C :   -0.133734
  16 C :   -0.277359
  17 C :    0.320993
  18 O :   -0.359138
  19 C :   -0.303298
  20 H :    0.108388
  21 H :    0.105100
  22 H :    0.089322
  23 H :    0.111738
  24 H :    0.108657
  25 H :    0.138586
  26 H :    0.120560
  27 H :    0.120012
  28 H :    0.197522
  29 H :    0.196236
  30 H :    0.160075
  31 H :    0.164502
  32 H :    0.164041
  33 H :    0.131951
  34 H :    0.241902
  35 H :    0.177815
Sum of atomic charges:    0.0000000

LOEWDIN ATOMIC CHARGES
----------------------
   0 C :    0.109151
   1 C :   -0.023287
   2 O :    0.299215
   3 C :   -0.419032
   4 O :    0.126911
   5 C :   -0.092056
   6 C :   -0.084770
   7 C :    0.128403
   8 N :    0.403362
   9 C :   -0.457372
  10 S :   -0.034704
  11 N :    0.397094
  12 C :   -0.045912
  13 C :   -0.043754
  14 C :    0.022722
  15 C :    0.044030
  16 C :   -0.000266
  17 C :   -0.194199
  18 O :    0.394108
  19 C :    0.026727
  20 H :   -0.022397
  21 H :   -0.024409
  22 H :   -0.027286
  23 H :   -0.030536
  24 H :   -0.037538
  25 H :   -0.005940
  26 H :   -0.014441
  27 H :   -0.015029
  28 H :   -0.057714
  29 H :   -0.063550
  30 H :   -0.003279
  31 H :   -0.022408
  32 H :   -0.019004
  33 H :   -0.034808
  34 H :   -0.152928
  35 H :   -0.025104

  Mayer bond orders larger than 0.100000
B(  0-C ,  1-C ) :   0.9873 B(  0-C , 20-H ) :   0.9720 B(  0-C , 21-H ) :   0.9787
B(  0-C , 22-H ) :   0.9764 B(  1-C ,  2-O ) :   0.8900 B(  1-C , 23-H ) :   0.9794
B(  1-C , 24-H ) :   0.9582 B(  2-O ,  3-C ) :   1.1544 B(  3-C ,  4-O ) :   2.0782
B(  3-C ,  5-C ) :   0.9526 B(  5-C ,  6-C ) :   1.6711 B(  5-C , 12-C ) :   0.9608
B(  6-C ,  7-C ) :   0.9451 B(  6-C ,  8-N ) :   1.1345 B(  7-C , 25-H ) :   0.9720
B(  7-C , 26-H ) :   0.9816 B(  7-C , 27-H ) :   0.9636 B(  8-N ,  9-C ) :   1.1867
B(  8-N , 28-H ) :   0.9504 B(  9-C , 10-S ) :   1.6143 B(  9-C , 11-N ) :   1.2945
B( 11-N , 12-C ) :   0.9969 B( 11-N , 29-H ) :   0.9508 B( 12-C , 13-C ) :   0.9410
B( 12-C , 30-H ) :   0.9982 B( 13-C , 14-C ) :   1.3861 B( 13-C , 19-C ) :   1.3442
B( 14-C , 15-C ) :   1.3948 B( 14-C , 31-H ) :   0.9610 B( 15-C , 16-C ) :   1.3624
B( 15-C , 32-H ) :   0.9702 B( 16-C , 17-C ) :   1.3311 B( 16-C , 33-H ) :   0.9846
B( 17-C , 18-O ) :   1.1103 B( 17-C , 19-C ) :   1.3666 B( 18-O , 34-H ) :   0.9792
B( 19-C , 35-H ) :   0.9566

MP2 TOTAL ENERGY:    -1274.335677777 Eh
FINAL SINGLE POINT ENERGY     -1274.335677777035

DIPOLE MOMENT
-------------
                                X             Y             Z
Electronic contribution:     10.35332       8.76705       6.04110
Nuclear contribution   :    -11.83867      -9.68025      -6.38321
                        -----------------------------------------
Total Dipole Moment    :     -1.48535      -0.91320      -0.34211
                        -----------------------------------------
Magnitude (a.u.)       :      1.77686
Magnitude (Debye)      :      4.51643

Rotational constants in cm-1:     0.012347     0.009193     0.006814
Rotational constants in MHz :   370.146404   275.588921   204.277506

                             ****ORCA TERMINATED NORMALLY****
TOTAL RUN TIME: 0 days 2 hours 0 minutes 13 seconds 664 msec
