                         Program Version 5.0.0 -  RELEASE  -
|  1> ! ri-mp2 cc-pvtz cc-pvtz/c TightSCF NoKeepInts
|  2>
|  3> %scf
|  4>   MaxCore 4096
|  5> end
|  6> *xyz  0  1
|  7>     C       14.2150426   14.9672583   16.4127889
|  8>     C       15.4329467   15.5941346   17.1101634
|  9>     O       16.5918866   15.2485019   16.3267415
| 10>     C       17.8241217   15.8419406   16.4481032
| 11>     O       18.8189992   15.2214377   16.1225477
| 12>     C       17.9216993   16.9696788   17.4213071
| 13>     C       17.3678799   18.1809613   17.1849858
| 14>     C       16.5990329   18.6047414   15.9513565
| 15>     N       17.5530779   19.2201882   18.0989344
| 16>     C       18.3573889   19.1483022   19.2070350
| 17>     S       18.5675098   20.4443761   20.2118881
| 18>     N       18.9769786   17.9451403   19.4443136
| 19>     C       18.7710136   16.7086492   18.6631159
| 20>     C       18.1454864   15.6049774   19.5102646
| 21>     C       18.5921489   14.2776428   19.3770100
| 22>     C       18.0041257   13.2451773   20.1262425
| 23>     C       16.9568618   13.5405090   21.0152509
| 24>     C       16.5036800   14.8598913   21.1459170
| 25>     O       15.4818235   15.1464784   21.9908271
| 26>     C       17.0898432   15.8860374   20.3979977
| 27>     H       13.2966487   15.1816477   16.9727307
| 28>     H       14.3292861   13.8778955   16.3453483
| 29>     H       14.1014260   15.3657701   15.3969723
| 30>     H       15.2735206   16.6746289   17.1692936
| 31>     H       15.5317269   15.1969782   18.1290701
| 32>     H       16.5102487   17.7981874   15.2131979
| 33>     H       17.1041951   19.4397563   15.4490500
| 34>     H       15.5837978   18.9306735   16.2092863
| 35>     H       17.1234761   20.1169991   17.9330163
| 36>     H       19.5496571   17.9172317   20.2786425
| 37>     H       19.7577853   16.3598058   18.3237596
| 38>     H       19.3892875   14.0429140   18.6743416
| 39>     H       18.3566092   12.2216170   20.0096156
| 40>     H       16.4979837   12.7448225   21.5929283
| 41>     H       15.2518520   14.3282450   22.4570024
| 42>     H       16.7179521   16.8988032   20.5129537
| 43> *
| 44>
| 45>                          ****END OF INPUT****

CARTESIAN COORDINATES (ANGSTROEM)
---------------------------------
  C     14.215043   14.967258   16.412789
  C     15.432947   15.594135   17.110163
  O     16.591887   15.248502   16.326742
  C     17.824122   15.841941   16.448103
  O     18.818999   15.221438   16.122548
  C     17.921699   16.969679   17.421307
  C     17.367880   18.180961   17.184986
  C     16.599033   18.604741   15.951356
  N     17.553078   19.220188   18.098934
  C     18.357389   19.148302   19.207035
  S     18.567510   20.444376   20.211888
  N     18.976979   17.945140   19.444314
  C     18.771014   16.708649   18.663116
  C     18.145486   15.604977   19.510265
  C     18.592149   14.277643   19.377010
  C     18.004126   13.245177   20.126243
  C     16.956862   13.540509   21.015251
  C     16.503680   14.859891   21.145917
  O     15.481823   15.146478   21.990827
  C     17.089843   15.886037   20.397998
  H     13.296649   15.181648   16.972731
  H     14.329286   13.877895   16.345348
  H     14.101426   15.365770   15.396972
  H     15.273521   16.674629   17.169294
  H     15.531727   15.196978   18.129070
  H     16.510249   17.798187   15.213198
  H     17.104195   19.439756   15.449050
  H     15.583798   18.930674   16.209286
  H     17.123476   20.116999   17.933016
  H     19.549657   17.917232   20.278643
  H     19.757785   16.359806   18.323760
  H     19.389287   14.042914   18.674342
  H     18.356609   12.221617   20.009616
  H     16.497984   12.744822   21.592928
  H     15.251852   14.328245   22.457002
  H     16.717952   16.898803   20.512954

 Total Charge           Charge          ....    0
 Multiplicity           Mult            ....    1
 Number of Electrons    NEL             ....  154
 Basis Dimension        Dim             ....  828

ORBITAL ENERGIES
----------------

  NO   OCC          E(Eh)            E(eV)
   0   2.0000     -91.890143     -2500.4579
   1   2.0000     -20.600574      -560.5701
   2   2.0000     -20.600300      -560.5627
   3   2.0000     -20.550887      -559.2181
   4   2.0000     -15.626949      -425.2309
   5   2.0000     -15.611904      -424.8215
   6   2.0000     -11.397811      -310.1502
   7   2.0000     -11.387041      -309.8571
   8   2.0000     -11.329023      -308.2784
   9   2.0000     -11.317192      -307.9564
  10   2.0000     -11.315458      -307.9093
  11   2.0000     -11.302242      -307.5497
  12   2.0000     -11.270296      -306.6803
  13   2.0000     -11.264734      -306.5290
  14   2.0000     -11.264041      -306.5101
  15   2.0000     -11.257415      -306.3298
  16   2.0000     -11.246661      -306.0372
  17   2.0000     -11.242451      -305.9226
  18   2.0000     -11.239777      -305.8499
  19   2.0000     -11.233415      -305.6768
  20   2.0000      -8.895260      -242.0523
  21   2.0000      -6.576848      -178.9651
  22   2.0000      -6.574822      -178.9100
  23   2.0000      -6.574247      -178.8944
  24   2.0000      -1.448490       -39.4154
  25   2.0000      -1.420138       -38.6439
  26   2.0000      -1.359796       -37.0019
  27   2.0000      -1.340310       -36.4717
  28   2.0000      -1.240154       -33.7463
  29   2.0000      -1.161939       -31.6180
  30   2.0000      -1.126141       -30.6439
  31   2.0000      -1.049648       -28.5624
  32   2.0000      -1.040581       -28.3156
  33   2.0000      -1.019483       -27.7416
  34   2.0000      -1.005630       -27.3646
  35   2.0000      -0.989719       -26.9316
  36   2.0000      -0.928331       -25.2612
  37   2.0000      -0.881060       -23.9749
  38   2.0000      -0.855653       -23.2835
  39   2.0000      -0.842393       -22.9227
  40   2.0000      -0.837743       -22.7961
  41   2.0000      -0.836861       -22.7722
  42   2.0000      -0.757490       -20.6123
  43   2.0000      -0.739858       -20.1325
  44   2.0000      -0.732491       -19.9321
  45   2.0000      -0.697764       -18.9871
  46   2.0000      -0.688551       -18.7364
  47   2.0000      -0.681312       -18.5394
  48   2.0000      -0.677372       -18.4322
  49   2.0000      -0.665703       -18.1147
  50   2.0000      -0.653595       -17.7852
  51   2.0000      -0.650539       -17.7021
  52   2.0000      -0.639972       -17.4145
  53   2.0000      -0.612405       -16.6644
  54   2.0000      -0.608276       -16.5520
  55   2.0000      -0.604237       -16.4421
  56   2.0000      -0.597210       -16.2509
  57   2.0000      -0.587213       -15.9789
  58   2.0000      -0.578513       -15.7421
  59   2.0000      -0.569902       -15.5078
  60   2.0000      -0.563216       -15.3259
  61   2.0000      -0.559308       -15.2196
  62   2.0000      -0.548835       -14.9346
  63   2.0000      -0.527520       -14.3546
  64   2.0000      -0.523587       -14.2475
  65   2.0000      -0.515671       -14.0321
  66   2.0000      -0.504396       -13.7253
  67   2.0000      -0.502824       -13.6825
  68   2.0000      -0.489047       -13.3076
  69   2.0000      -0.469765       -12.7829
  70   2.0000      -0.454413       -12.3652
  71   2.0000      -0.450044       -12.2463
  72   2.0000      -0.357498        -9.7280
  73   2.0000      -0.352132        -9.5820
  74   2.0000      -0.329838        -8.9753
  75   2.0000      -0.325233        -8.8500
  76   2.0000      -0.318613        -8.6699
  77   0.0000       0.085876         2.3368
  78   0.0000       0.104675         2.8484
  79   0.0000       0.111880         3.0444
  80   0.0000       0.127884         3.4799
  81   0.0000       0.129967         3.5366

MULLIKEN ATOMIC CHARGES
-----------------------
   0 C :   -0.257533
   1 C :    0.015155
   2 O :   -0.309108
   3 C :    0.392117
   4 O :   -0.381143
   5 C :   -0.177546
   6 C :    0.126929
   7 C :   -0.321998
   8 N :   -0.134690
   9 C :    0.204424
  10 S :   -0.440921
  11 N :   -0.216555
  12 C :    0.069285
  13 C :    0.020331
  14 C :   -0.194058
  15 C :   -0.133092
  16 C :   -0.274100
  17 C :    0.320846
  18 O :   -0.359075
  19 C :   -0.281263
  20 H :    0.089509
  21 H :    0.107248
  22 H :    0.095378
  23 H :    0.087721
  24 H :    0.122774
  25 H :    0.124373
  26 H :    0.143189
  27 H :    0.118286
  28 H :    0.195621
  29 H :    0.198990
  30 H :    0.164999
  31 H :    0.169098
  32 H :    0.164122
  33 H :    0.133008
  34 H :    0.241681
  35 H :    0.176000
Sum of atomic charges:    0.0000000

LOEWDIN ATOMIC CHARGES
----------------------
   0 C :    0.110544
   1 C :   -0.022342
   2 O :    0.307164
   3 C :   -0.416292
   4 O :    0.125094
   5 C :   -0.081490
   6 C :   -0.105474
   7 C :    0.123586
   8 N :    0.401300
   9 C :   -0.455649
  10 S :   -0.037699
  11 N :    0.397323
  12 C :   -0.044006
  13 C :   -0.044054
  14 C :    0.022351
  15 C :    0.045788
  16 C :   -0.000481
  17 C :   -0.195024
  18 O :    0.394898
  19 C :    0.026961
  20 H :   -0.025060
  21 H :   -0.023235
  22 H :   -0.027730
  23 H :   -0.038879
  24 H :   -0.027896
  25 H :   -0.008497
  26 H :   -0.008880
  27 H :   -0.017321
  28 H :   -0.057709
  29 H :   -0.063718
  30 H :   -0.002247
  31 H :   -0.021622
  32 H :   -0.018177
  33 H :   -0.034464
  34 H :   -0.152818
  35 H :   -0.024245

  Mayer bond orders larger than 0.100000
B(  0-C ,  1-C ) :   0.9835 B(  0-C , 20-H ) :   0.9769 B(  0-C , 21-H ) :   0.9790
B(  0-C , 22-H ) :   0.9782 B(  1-C ,  2-O ) :   0.9078 B(  1-C , 23-H ) :   0.9668
B(  1-C , 24-H ) :   0.9674 B(  2-O ,  3-C ) :   1.1863 B(  3-C ,  4-O ) :   2.0973
B(  3-C ,  5-C ) :   0.9183 B(  5-C ,  6-C ) :   1.6943 B(  5-C , 12-C ) :   0.9614
B(  6-C ,  7-C ) :   0.9431 B(  6-C ,  8-N ) :   1.1141 B(  7-C , 25-H ) :   0.9809
B(  7-C , 26-H ) :   0.9675 B(  7-C , 27-H ) :   0.9675 B(  8-N ,  9-C ) :   1.1956
B(  8-N , 28-H ) :   0.9523 B(  9-C , 10-S ) :   1.6108 B(  9-C , 11-N ) :   1.2877
B( 11-N , 12-C ) :   0.9958 B( 11-N , 29-H ) :   0.9486 B( 12-C , 13-C ) :   0.9429
B( 12-C , 30-H ) :   0.9974 B( 13-C , 14-C ) :   1.3872 B( 13-C , 19-C ) :   1.3474
B( 14-C , 15-C ) :   1.3967 B( 14-C , 31-H ) :   0.9608 B( 15-C , 16-C ) :   1.3637
B( 15-C , 32-H ) :   0.9699 B( 16-C , 17-C ) :   1.3284 B( 16-C , 33-H ) :   0.9842
B( 17-C , 18-O ) :   1.1089 B( 17-C , 19-C ) :   1.3655 B( 18-O , 34-H ) :   0.9790
B( 19-C , 35-H ) :   0.9587

MP2 TOTAL ENERGY:    -1274.332409180 Eh
FINAL SINGLE POINT ENERGY     -1274.332409179847

DIPOLE MOMENT
-------------
                                X             Y             Z
Electronic contribution:     11.86729       6.89566       7.42795
Nuclear contribution   :    -13.44627      -7.90061      -7.73118
                        -----------------------------------------
Total Dipole Moment    :     -1.57897      -1.00495      -0.30323
                        -----------------------------------------
Magnitude (a.u.)       :      1.89606
Magnitude (Debye)      :      4.81940

Rotational constants in cm-1:     0.011575     0.009137     0.006733
Rotational constants in MHz :   347.011205   273.918306   201.845664

                             ****ORCA TERMINATED NORMALLY****
TOTAL RUN TIME: 0 days 2 hours 7 minutes 20 seconds 668 msec
