                         Program Version 5.0.0 -  RELEASE  -
|  1> ! ri-mp2 cc-pvtz cc-pvtz/c TightSCF NoKeepInts
|  2>
|  3> %scf
|  4>   MaxCore 4096
|  5> end
|  6> *xyz  0  1
|  7>     C       14.2681262   14.8623936   15.6858572
|  8>     C       15.7676133   14.6748930   15.3996598
|  9>     O       16.4426793   15.8489993   15.8871761
| 10>     C       17.5293036   15.7256783   16.7040289
| 11>     O       18.1445614   14.6780269   16.8181038
| 12>     C       17.7939103   16.9154483   17.5837429
| 13>     C       17.2557103   18.1527528   17.4154347
| 14>     C       16.2996276   18.6210333   16.3371551
| 15>     N       17.6317014   19.1948268   18.2700062
| 16>     C       18.6344345   19.1237869   19.2004595
| 17>     S       19.1055227   20.4445459   20.0775790
| 18>     N       19.2274002   17.8983113   19.3659291
| 19>     C       18.7579827   16.6456604   18.7452074
| 20>     C       18.1156633   15.7396706   19.7927184
| 21>     C       18.5743536   14.4215084   19.9721451
| 22>     C       17.9852556   13.5820776   20.9324902
| 23>     C       16.9271683   14.0637698   21.7217992
| 24>     C       16.4646409   15.3746768   21.5439370
| 25>     O       15.4388798   15.8407922   22.3002216
| 26>     C       17.0527833   16.2077071   20.5870647
| 27>     H       14.0910120   14.9663685   16.7637870
| 28>     H       13.6974293   13.9972732   15.3268292
| 29>     H       13.8863246   15.7591572   15.1823887
| 30>     H       16.1121042   13.7628536   15.9062588
| 31>     H       15.9414461   14.5588355   14.3221026
| 32>     H       16.6860019   18.3746124   15.3403020
| 33>     H       16.1334972   19.7048617   16.3584122
| 34>     H       15.3216611   18.1367156   16.4504968
| 35>     H       17.2083323   20.1027863   18.1639664
| 36>     H       19.9422889   17.8637638   20.0812160
| 37>     H       19.6382656   16.1285469   18.3366395
| 38>     H       19.3809714   14.0407792   19.3503388
| 39>     H       18.3455242   12.5624743   21.0565816
| 40>     H       16.4680373   13.4182064   22.4629633
| 41>     H       15.1951643   15.1383851   22.9214891
| 42>     H       16.6816209   17.2198210   20.4695122
| 43> *
| 44>
| 45>                          ****END OF INPUT****

CARTESIAN COORDINATES (ANGSTROEM)
---------------------------------
  C     14.268126   14.862394   15.685857
  C     15.767613   14.674893   15.399660
  O     16.442679   15.848999   15.887176
  C     17.529304   15.725678   16.704029
  O     18.144561   14.678027   16.818104
  C     17.793910   16.915448   17.583743
  C     17.255710   18.152753   17.415435
  C     16.299628   18.621033   16.337155
  N     17.631701   19.194827   18.270006
  C     18.634435   19.123787   19.200460
  S     19.105523   20.444546   20.077579
  N     19.227400   17.898311   19.365929
  C     18.757983   16.645660   18.745207
  C     18.115663   15.739671   19.792718
  C     18.574354   14.421508   19.972145
  C     17.985256   13.582078   20.932490
  C     16.927168   14.063770   21.721799
  C     16.464641   15.374677   21.543937
  O     15.438880   15.840792   22.300222
  C     17.052783   16.207707   20.587065
  H     14.091012   14.966368   16.763787
  H     13.697429   13.997273   15.326829
  H     13.886325   15.759157   15.182389
  H     16.112104   13.762854   15.906259
  H     15.941446   14.558836   14.322103
  H     16.686002   18.374612   15.340302
  H     16.133497   19.704862   16.358412
  H     15.321661   18.136716   16.450497
  H     17.208332   20.102786   18.163966
  H     19.942289   17.863764   20.081216
  H     19.638266   16.128547   18.336640
  H     19.380971   14.040779   19.350339
  H     18.345524   12.562474   21.056582
  H     16.468037   13.418206   22.462963
  H     15.195164   15.138385   22.921489
  H     16.681621   17.219821   20.469512

 Total Charge           Charge          ....    0
 Multiplicity           Mult            ....    1
 Number of Electrons    NEL             ....  154
 Basis Dimension        Dim             ....  828

ORBITAL ENERGIES
----------------

  NO   OCC          E(Eh)            E(eV)
   0   2.0000     -91.888123     -2500.4030
   1   2.0000     -20.603236      -560.6425
   2   2.0000     -20.591672      -560.3279
   3   2.0000     -20.545133      -559.0615
   4   2.0000     -15.628609      -425.2761
   5   2.0000     -15.606671      -424.6791
   6   2.0000     -11.396004      -310.1010
   7   2.0000     -11.382939      -309.7455
   8   2.0000     -11.336836      -308.4910
   9   2.0000     -11.307433      -307.6909
  10   2.0000     -11.305348      -307.6342
  11   2.0000     -11.299124      -307.4648
  12   2.0000     -11.260772      -306.4212
  13   2.0000     -11.259010      -306.3732
  14   2.0000     -11.253284      -306.2174
  15   2.0000     -11.247491      -306.0598
  16   2.0000     -11.237165      -305.7788
  17   2.0000     -11.233604      -305.6819
  18   2.0000     -11.233345      -305.6748
  19   2.0000     -11.230203      -305.5893
  20   2.0000      -8.893185      -241.9959
  21   2.0000      -6.574762      -178.9084
  22   2.0000      -6.572755      -178.8538
  23   2.0000      -6.572169      -178.8378
  24   2.0000      -1.453933       -39.5635
  25   2.0000      -1.411410       -38.4064
  26   2.0000      -1.357189       -36.9310
  27   2.0000      -1.339495       -36.4495
  28   2.0000      -1.237027       -33.6612
  29   2.0000      -1.152008       -31.3477
  30   2.0000      -1.119441       -30.4615
  31   2.0000      -1.044432       -28.4204
  32   2.0000      -1.036870       -28.2147
  33   2.0000      -1.009400       -27.4672
  34   2.0000      -0.997784       -27.1511
  35   2.0000      -0.983335       -26.7579
  36   2.0000      -0.921077       -25.0638
  37   2.0000      -0.890518       -24.2322
  38   2.0000      -0.847189       -23.0532
  39   2.0000      -0.834898       -22.7187
  40   2.0000      -0.827703       -22.5229
  41   2.0000      -0.816515       -22.2185
  42   2.0000      -0.761956       -20.7339
  43   2.0000      -0.736112       -20.0306
  44   2.0000      -0.724717       -19.7206
  45   2.0000      -0.691130       -18.8066
  46   2.0000      -0.684957       -18.6386
  47   2.0000      -0.679217       -18.4824
  48   2.0000      -0.674491       -18.3538
  49   2.0000      -0.659961       -17.9584
  50   2.0000      -0.648837       -17.6558
  51   2.0000      -0.643871       -17.5206
  52   2.0000      -0.634593       -17.2682
  53   2.0000      -0.601714       -16.3735
  54   2.0000      -0.600034       -16.3278
  55   2.0000      -0.595530       -16.2052
  56   2.0000      -0.590913       -16.0796
  57   2.0000      -0.585465       -15.9313
  58   2.0000      -0.573441       -15.6041
  59   2.0000      -0.562869       -15.3165
  60   2.0000      -0.561096       -15.2682
  61   2.0000      -0.557991       -15.1837
  62   2.0000      -0.538411       -14.6509
  63   2.0000      -0.525778       -14.3071
  64   2.0000      -0.517263       -14.0754
  65   2.0000      -0.510065       -13.8796
  66   2.0000      -0.499755       -13.5990
  67   2.0000      -0.495469       -13.4824
  68   2.0000      -0.480794       -13.0831
  69   2.0000      -0.464261       -12.6332
  70   2.0000      -0.457075       -12.4376
  71   2.0000      -0.456394       -12.4191
  72   2.0000      -0.354379        -9.6431
  73   2.0000      -0.343926        -9.3587
  74   2.0000      -0.327230        -8.9044
  75   2.0000      -0.315676        -8.5900
  76   2.0000      -0.313634        -8.5344
  77   0.0000       0.075745         2.0611
  78   0.0000       0.112920         3.0727
  79   0.0000       0.120512         3.2793
  80   0.0000       0.136115         3.7039
  81   0.0000       0.139533         3.7969

MULLIKEN ATOMIC CHARGES
-----------------------
   0 C :   -0.274907
   1 C :    0.024125
   2 O :   -0.341273
   3 C :    0.448150
   4 O :   -0.429065
   5 C :   -0.179607
   6 C :    0.143692
   7 C :   -0.285810
   8 N :   -0.121734
   9 C :    0.201455
  10 S :   -0.439065
  11 N :   -0.196841
  12 C :    0.036412
  13 C :    0.057382
  14 C :   -0.159983
  15 C :   -0.134125
  16 C :   -0.279190
  17 C :    0.311257
  18 O :   -0.359283
  19 C :   -0.273764
  20 H :    0.100968
  21 H :    0.101141
  22 H :    0.090679
  23 H :    0.113704
  24 H :    0.098903
  25 H :    0.127660
  26 H :    0.103600
  27 H :    0.126574
  28 H :    0.196773
  29 H :    0.193593
  30 H :    0.153616
  31 H :    0.153212
  32 H :    0.159071
  33 H :    0.128002
  34 H :    0.240100
  35 H :    0.164578
Sum of atomic charges:   -0.0000000

LOEWDIN ATOMIC CHARGES
----------------------
   0 C :    0.103897
   1 C :   -0.011978
   2 O :    0.307719
   3 C :   -0.415449
   4 O :    0.103162
   5 C :   -0.091701
   6 C :   -0.065278
   7 C :    0.124843
   8 N :    0.404899
   9 C :   -0.459004
  10 S :   -0.035820
  11 N :    0.397948
  12 C :   -0.046591
  13 C :   -0.038728
  14 C :    0.022372
  15 C :    0.040889
  16 C :   -0.002460
  17 C :   -0.192879
  18 O :    0.392856
  19 C :    0.028003
  20 H :   -0.025450
  21 H :   -0.024045
  22 H :   -0.030571
  23 H :   -0.025861
  24 H :   -0.030359
  25 H :   -0.008200
  26 H :   -0.021112
  27 H :   -0.010193
  28 H :   -0.059209
  29 H :   -0.063634
  30 H :   -0.004974
  31 H :   -0.025248
  32 H :   -0.021243
  33 H :   -0.036449
  34 H :   -0.154921
  35 H :   -0.025230

  Mayer bond orders larger than 0.100000
B(  0-C ,  1-C ) :   0.9720 B(  0-C , 20-H ) :   0.9759 B(  0-C , 21-H ) :   0.9780
B(  0-C , 22-H ) :   0.9791 B(  1-C ,  2-O ) :   0.8914 B(  1-C , 23-H ) :   0.9730
B(  1-C , 24-H ) :   0.9827 B(  2-O ,  3-C ) :   1.1696 B(  3-C ,  4-O ) :   1.9833
B(  3-C ,  5-C ) :   1.0501 B(  5-C ,  6-C ) :   1.6468 B(  5-C , 12-C ) :   0.9659
B(  6-C ,  7-C ) :   0.9554 B(  6-C ,  8-N ) :   1.1497 B(  7-C , 25-H ) :   0.9653
B(  7-C , 26-H ) :   0.9912 B(  7-C , 27-H ) :   0.9645 B(  8-N ,  9-C ) :   1.1779
B(  8-N , 28-H ) :   0.9487 B(  9-C , 10-S ) :   1.6109 B(  9-C , 11-N ) :   1.3047
B( 11-N , 12-C ) :   0.9920 B( 11-N , 29-H ) :   0.9521 B( 12-C , 13-C ) :   0.9473
B( 12-C , 30-H ) :   0.9999 B( 13-C , 14-C ) :   1.3760 B( 13-C , 19-C ) :   1.3688
B( 14-C , 15-C ) :   1.3945 B( 14-C , 31-H ) :   0.9649 B( 15-C , 16-C ) :   1.3624
B( 15-C , 32-H ) :   0.9714 B( 16-C , 17-C ) :   1.3316 B( 16-C , 33-H ) :   0.9860
B( 17-C , 18-O ) :   1.1079 B( 17-C , 19-C ) :   1.3792 B( 18-O , 34-H ) :   0.9806
B( 19-C , 35-H ) :   0.9585

MP2 TOTAL ENERGY:    -1274.346908403 Eh
FINAL SINGLE POINT ENERGY     -1274.346908402609

DIPOLE MOMENT
-------------
                                X             Y             Z
Electronic contribution:     11.87423       8.76393       9.96888
Nuclear contribution   :    -13.35088     -10.08320     -10.97525
                        -----------------------------------------
Total Dipole Moment    :     -1.47665      -1.31927      -1.00637
                        -----------------------------------------
Magnitude (a.u.)       :      2.22121
Magnitude (Debye)      :      5.64586

Rotational constants in cm-1:     0.010348     0.009091     0.006050
Rotational constants in MHz :   310.226222   272.537863   181.383017

                             ****ORCA TERMINATED NORMALLY****
TOTAL RUN TIME: 0 days 2 hours 0 minutes 11 seconds 947 msec
