                         Program Version 4.2.0 -  RELEASE  -
|  1> ! ri-mp2 cc-pvtz cc-pvtz/c TightSCF  NoKeepInts
|  2>
|  3> %scf
|  4>   MaxCore 4096
|  5> end
|  6> *xyz  0  1
|  7>     C       14.6568246   15.7511057   16.4618653
|  8>     C       15.6653683   14.8968500   17.2521758
|  9>     O       16.9077025   14.8174748   16.5226014
| 10>     C       17.7927200   15.8521650   16.3627890
| 11>     O       18.5184084   15.9106765   15.3884971
| 12>     C       17.7926800   16.9307579   17.3949578
| 13>     C       17.4183811   18.1901123   17.0718121
| 14>     C       16.8443580   18.6591812   15.7519610
| 15>     N       17.5875721   19.2296955   17.9878446
| 16>     C       18.2352814   19.1121706   19.1889615
| 17>     S       18.4291020   20.4016195   20.2057129
| 18>     N       18.7181396   17.8677264   19.5096550
| 19>     C       18.5270061   16.6384445   18.7135640
| 20>     C       17.9096897   15.5274928   19.5578536
| 21>     C       18.3337002   14.1967879   19.3825826
| 22>     C       17.7718467   13.1591117   20.1445684
| 23>     C       16.7800564   13.4527245   21.0953807
| 24>     C       16.3575912   14.7760536   21.2781174
| 25>     O       15.3943629   15.0619889   22.1892296
| 26>     C       16.9161109   15.8076604   20.5164394
| 27>     H       14.9015588   16.8155867   16.5241138
| 28>     H       13.6475806   15.6191014   16.8707588
| 29>     H       14.6375747   15.4534257   15.4056520
| 30>     H       15.7871231   15.3110943   18.2545100
| 31>     H       15.2597894   13.8825185   17.3597727
| 32>     H       16.6260701   17.8285329   15.0696067
| 33>     H       17.5585775   19.3121639   15.2345286
| 34>     H       15.9121289   19.2183685   15.8967980
| 35>     H       17.2656481   20.1563514   17.7561280
| 36>     H       19.1800353   17.8114729   20.4088735
| 37>     H       19.5321812   16.2926797   18.4309085
| 38>     H       19.0954985   13.9628678   18.6422837
| 39>     H       18.1052663   12.1331563   19.9956306
| 40>     H       16.3435500   12.6535504   21.6858028
| 41>     H       15.1727921   14.2384695   22.6501106
| 42>     H       16.5647233   16.8228604   20.6719525
| 43> *
| 44>
| 45>                          ****END OF INPUT****

CARTESIAN COORDINATES (ANGSTROEM)
---------------------------------
  C     14.656825   15.751106   16.461865
  C     15.665368   14.896850   17.252176
  O     16.907702   14.817475   16.522601
  C     17.792720   15.852165   16.362789
  O     18.518408   15.910676   15.388497
  C     17.792680   16.930758   17.394958
  C     17.418381   18.190112   17.071812
  C     16.844358   18.659181   15.751961
  N     17.587572   19.229695   17.987845
  C     18.235281   19.112171   19.188962
  S     18.429102   20.401619   20.205713
  N     18.718140   17.867726   19.509655
  C     18.527006   16.638444   18.713564
  C     17.909690   15.527493   19.557854
  C     18.333700   14.196788   19.382583
  C     17.771847   13.159112   20.144568
  C     16.780056   13.452724   21.095381
  C     16.357591   14.776054   21.278117
  O     15.394363   15.061989   22.189230
  C     16.916111   15.807660   20.516439
  H     14.901559   16.815587   16.524114
  H     13.647581   15.619101   16.870759
  H     14.637575   15.453426   15.405652
  H     15.787123   15.311094   18.254510
  H     15.259789   13.882518   17.359773
  H     16.626070   17.828533   15.069607
  H     17.558577   19.312164   15.234529
  H     15.912129   19.218369   15.896798
  H     17.265648   20.156351   17.756128
  H     19.180035   17.811473   20.408873
  H     19.532181   16.292680   18.430908
  H     19.095499   13.962868   18.642284
  H     18.105266   12.133156   19.995631
  H     16.343550   12.653550   21.685803
  H     15.172792   14.238470   22.650111
  H     16.564723   16.822860   20.671952

 Total Charge           Charge          ....    0
 Multiplicity           Mult            ....    1
 Number of Electrons    NEL             ....  154
 Basis Dimension        Dim             ....  828

ORBITAL ENERGIES
----------------

  NO   OCC          E(Eh)            E(eV)
   0   2.0000     -91.889716     -2500.4463
   1   2.0000     -20.604274      -560.6708
   2   2.0000     -20.598392      -560.5107
   3   2.0000     -20.552274      -559.2558
   4   2.0000     -15.624887      -425.1748
   5   2.0000     -15.612496      -424.8376
   6   2.0000     -11.397629      -310.1453
   7   2.0000     -11.386356      -309.8385
   8   2.0000     -11.327163      -308.2278
   9   2.0000     -11.322517      -308.1013
  10   2.0000     -11.320837      -308.0556
  11   2.0000     -11.300887      -307.5128
  12   2.0000     -11.270489      -306.6856
  13   2.0000     -11.263725      -306.5015
  14   2.0000     -11.263419      -306.4932
  15   2.0000     -11.259844      -306.3959
  16   2.0000     -11.251806      -306.1772
  17   2.0000     -11.247075      -306.0485
  18   2.0000     -11.246787      -306.0406
  19   2.0000     -11.233318      -305.6741
  20   2.0000      -8.894832      -242.0407
  21   2.0000      -6.576423      -178.9536
  22   2.0000      -6.574394      -178.8983
  23   2.0000      -6.573822      -178.8828
  24   2.0000      -1.446793       -39.3692
  25   2.0000      -1.424078       -38.7511
  26   2.0000      -1.360438       -37.0194
  27   2.0000      -1.339576       -36.4517
  28   2.0000      -1.240682       -33.7607
  29   2.0000      -1.165993       -31.7283
  30   2.0000      -1.124960       -30.6117
  31   2.0000      -1.050985       -28.5987
  32   2.0000      -1.038105       -28.2483
  33   2.0000      -1.024411       -27.8756
  34   2.0000      -1.004560       -27.3355
  35   2.0000      -0.989530       -26.9265
  36   2.0000      -0.929092       -25.2819
  37   2.0000      -0.894949       -24.3528
  38   2.0000      -0.852544       -23.1989
  39   2.0000      -0.844384       -22.9769
  40   2.0000      -0.841617       -22.9016
  41   2.0000      -0.835258       -22.7285
  42   2.0000      -0.754877       -20.5412
  43   2.0000      -0.737896       -20.0792
  44   2.0000      -0.725199       -19.7337
  45   2.0000      -0.702533       -19.1169
  46   2.0000      -0.693125       -18.8609
  47   2.0000      -0.680668       -18.5219
  48   2.0000      -0.677350       -18.4316
  49   2.0000      -0.667070       -18.1519
  50   2.0000      -0.654910       -17.8210
  51   2.0000      -0.645371       -17.5614
  52   2.0000      -0.636719       -17.3260
  53   2.0000      -0.622948       -16.9513
  54   2.0000      -0.613083       -16.6828
  55   2.0000      -0.609264       -16.5789
  56   2.0000      -0.606043       -16.4913
  57   2.0000      -0.584966       -15.9177
  58   2.0000      -0.579266       -15.7626
  59   2.0000      -0.567635       -15.4461
  60   2.0000      -0.562982       -15.3195
  61   2.0000      -0.553109       -15.0509
  62   2.0000      -0.546938       -14.8829
  63   2.0000      -0.533437       -14.5156
  64   2.0000      -0.527599       -14.3567
  65   2.0000      -0.517632       -14.0855
  66   2.0000      -0.506119       -13.7722
  67   2.0000      -0.504999       -13.7417
  68   2.0000      -0.487061       -13.2536
  69   2.0000      -0.469539       -12.7768
  70   2.0000      -0.454057       -12.3555
  71   2.0000      -0.450410       -12.2563
  72   2.0000      -0.357945        -9.7402
  73   2.0000      -0.353721        -9.6252
  74   2.0000      -0.330751        -9.0002
  75   2.0000      -0.329046        -8.9538
  76   2.0000      -0.319241        -8.6870
  77   0.0000       0.090821         2.4714
  78   0.0000       0.099552         2.7089
  79   0.0000       0.119744         3.2584
  80   0.0000       0.126559         3.4438
  81   0.0000       0.128806         3.5050

MULLIKEN ATOMIC CHARGES
-----------------------
   0 C :   -0.313115
   1 C :    0.036350
   2 O :   -0.321943
   3 C :    0.387343
   4 O :   -0.372047
   5 C :   -0.182638
   6 C :    0.141100
   7 C :   -0.322995
   8 N :   -0.136053
   9 C :    0.212627
  10 S :   -0.443274
  11 N :   -0.230809
  12 C :    0.061569
  13 C :    0.010173
  14 C :   -0.192601
  15 C :   -0.136258
  16 C :   -0.272090
  17 C :    0.310431
  18 O :   -0.353823
  19 C :   -0.255178
  20 H :    0.093880
  21 H :    0.107645
  22 H :    0.115549
  23 H :    0.103714
  24 H :    0.121651
  25 H :    0.126016
  26 H :    0.146319
  27 H :    0.114390
  28 H :    0.196440
  29 H :    0.204120
  30 H :    0.164010
  31 H :    0.154834
  32 H :    0.165409
  33 H :    0.135102
  34 H :    0.241778
  35 H :    0.182375
Sum of atomic charges:    0.0000000

LOEWDIN ATOMIC CHARGES
----------------------
   0 C :    0.104415
   1 C :   -0.018099
   2 O :    0.305638
   3 C :   -0.421167
   4 O :    0.128075
   5 C :   -0.082181
   6 C :   -0.096766
   7 C :    0.125222
   8 N :    0.403300
   9 C :   -0.455543
  10 S :   -0.038491
  11 N :    0.396751
  12 C :   -0.049075
  13 C :   -0.044915
  14 C :    0.019740
  15 C :    0.046335
  16 C :    0.000888
  17 C :   -0.192698
  18 O :    0.397260
  19 C :    0.026879
  20 H :   -0.034045
  21 H :   -0.023570
  22 H :   -0.023511
  23 H :   -0.039041
  24 H :   -0.020015
  25 H :   -0.008807
  26 H :   -0.007953
  27 H :   -0.018858
  28 H :   -0.056602
  29 H :   -0.064465
  30 H :   -0.006872
  31 H :   -0.025424
  32 H :   -0.017628
  33 H :   -0.033558
  34 H :   -0.152099
  35 H :   -0.023119

  Mayer bond orders larger than 0.100000
B(  0-C ,  1-C ) :   0.9687 B(  0-C , 20-H ) :   0.9777 B(  0-C , 21-H ) :   0.9784
B(  0-C , 22-H ) :   0.9746 B(  1-C ,  2-O ) :   0.8908 B(  1-C , 23-H ) :   0.9586
B(  1-C , 24-H ) :   0.9821 B(  2-O ,  3-C ) :   1.1803 B(  3-C ,  4-O ) :   2.1214
B(  3-C ,  5-C ) :   0.8799 B(  5-C ,  6-C ) :   1.7211 B(  5-C , 12-C ) :   0.9574
B(  6-C ,  7-C ) :   0.9502 B(  6-C ,  8-N ) :   1.1197 B(  7-C , 25-H ) :   0.9769
B(  7-C , 26-H ) :   0.9638 B(  7-C , 27-H ) :   0.9717 B(  8-N ,  9-C ) :   1.2067
B(  8-N , 28-H ) :   0.9519 B(  9-C , 10-S ) :   1.6058 B(  9-C , 11-N ) :   1.2836
B( 11-N , 12-C ) :   0.9872 B( 11-N , 29-H ) :   0.9446 B( 12-C , 13-C ) :   0.9558
B( 12-C , 30-H ) :   1.0004 B( 13-C , 14-C ) :   1.3814 B( 13-C , 19-C ) :   1.3397
B( 14-C , 15-C ) :   1.3990 B( 14-C , 31-H ) :   0.9716 B( 15-C , 16-C ) :   1.3611
B( 15-C , 32-H ) :   0.9691 B( 16-C , 17-C ) :   1.3304 B( 16-C , 33-H ) :   0.9834
B( 17-C , 18-O ) :   1.1116 B( 17-C , 19-C ) :   1.3651 B( 18-O , 34-H ) :   0.9786
B( 19-C , 35-H ) :   0.9572

MP2 TOTAL ENERGY:    -1274.331568893 Eh
FINAL SINGLE POINT ENERGY     -1274.331568893475

DIPOLE MOMENT
-------------
                                X             Y             Z
Electronic contribution:     10.02802       5.68531       7.50769
Nuclear contribution   :    -11.43702      -7.25570      -7.36940
                        -----------------------------------------
Total Dipole Moment    :     -1.40899      -1.57039       0.13829
                        -----------------------------------------
Magnitude (a.u.)       :      2.11436
Magnitude (Debye)      :      5.37426

Rotational constants in cm-1:     0.011806     0.009305     0.006447
Rotational constants in MHz :   353.939174   278.953183   193.274372

                             ****ORCA TERMINATED NORMALLY****
TOTAL RUN TIME: 0 days 1 hours 51 minutes 21 seconds 56 msec
