                         Program Version 5.0.0 -  RELEASE  -
|  1> ! ri-mp2 cc-pvtz cc-pvtz/c TightSCF NoKeepInts
|  2>
|  3> %scf
|  4>   MaxCore 4096
|  5> end
|  6> *xyz  0  1
|  7>     C       14.4851145   14.5967985   15.6266007
|  8>     C       15.7113159   14.5282433   16.5518639
|  9>     O       16.6541822   15.5089976   16.0914937
| 10>     C       17.8629533   15.5596022   16.7189645
| 11>     O       18.4522475   14.5371584   17.0278037
| 12>     C       18.0350651   16.8252930   17.5031674
| 13>     C       17.5600930   18.0322744   17.1046705
| 14>     C       16.8223694   18.3531353   15.8213993
| 15>     N       17.8047506   19.1671523   17.8839076
| 16>     C       18.6194242   19.1987178   18.9853180
| 17>     S       18.9459056   20.6080336   19.7869536
| 18>     N       19.1509009   17.9995687   19.3893781
| 19>     C       18.7957224   16.6835619   18.8248245
| 20>     C       17.9822504   15.8719518   19.8295395
| 21>     C       18.4061880   14.5882971   20.2196966
| 22>     C       17.6534834   13.8322815   21.1338955
| 23>     C       16.4648790   14.3631904   21.6630655
| 24>     C       16.0368026   15.6395929   21.2738963
| 25>     O       14.8848912   16.1516214   21.7758704
| 26>     C       16.7877409   16.3893774   20.3632826
| 27>     H       14.7723377   14.3854526   14.5889785
| 28>     H       14.0263901   15.5925004   15.6644616
| 29>     H       13.7323847   13.8595730   15.9313312
| 30>     H       15.4191623   14.7354239   17.5904233
| 31>     H       16.1491746   13.5214698   16.5058554
| 32>     H       17.2728099   17.8306235   14.9681783
| 33>     H       16.8375773   19.4240272   15.5848747
| 34>     H       15.7732265   18.0394870   15.8899260
| 35>     H       17.4242618   20.0569233   17.6032419
| 36>     H       19.7234067   18.0468439   20.2224608
| 37>     H       19.7311108   16.1434513   18.6184881
| 38>     H       19.3152786   14.1677164   19.7966121
| 39>     H       17.9899083   12.8382024   21.4230871
| 40>     H       15.8796698   13.7817276   22.3676981
| 41>     H       14.5441654   15.5174388   22.4245519
| 42>     H       16.4398551   17.3762892   20.0782389
| 43> *
| 44>
| 45>                          ****END OF INPUT****

CARTESIAN COORDINATES (ANGSTROEM)
---------------------------------
  C     14.485114   14.596799   15.626601
  C     15.711316   14.528243   16.551864
  O     16.654182   15.508998   16.091494
  C     17.862953   15.559602   16.718964
  O     18.452247   14.537158   17.027804
  C     18.035065   16.825293   17.503167
  C     17.560093   18.032274   17.104671
  C     16.822369   18.353135   15.821399
  N     17.804751   19.167152   17.883908
  C     18.619424   19.198718   18.985318
  S     18.945906   20.608034   19.786954
  N     19.150901   17.999569   19.389378
  C     18.795722   16.683562   18.824824
  C     17.982250   15.871952   19.829539
  C     18.406188   14.588297   20.219697
  C     17.653483   13.832281   21.133896
  C     16.464879   14.363190   21.663065
  C     16.036803   15.639593   21.273896
  O     14.884891   16.151621   21.775870
  C     16.787741   16.389377   20.363283
  H     14.772338   14.385453   14.588978
  H     14.026390   15.592500   15.664462
  H     13.732385   13.859573   15.931331
  H     15.419162   14.735424   17.590423
  H     16.149175   13.521470   16.505855
  H     17.272810   17.830624   14.968178
  H     16.837577   19.424027   15.584875
  H     15.773226   18.039487   15.889926
  H     17.424262   20.056923   17.603242
  H     19.723407   18.046844   20.222461
  H     19.731111   16.143451   18.618488
  H     19.315279   14.167716   19.796612
  H     17.989908   12.838202   21.423087
  H     15.879670   13.781728   22.367698
  H     14.544165   15.517439   22.424552
  H     16.439855   17.376289   20.078239

 Total Charge           Charge          ....    0
 Multiplicity           Mult            ....    1
 Number of Electrons    NEL             ....  154
 Basis Dimension        Dim             ....  828

ORBITAL ENERGIES
----------------

  NO   OCC          E(Eh)            E(eV)
   0   2.0000     -91.888528     -2500.4140
   1   2.0000     -20.595016      -560.4189
   2   2.0000     -20.589169      -560.2598
   3   2.0000     -20.553436      -559.2874
   4   2.0000     -15.628266      -425.2668
   5   2.0000     -15.607890      -424.7123
   6   2.0000     -11.394251      -310.0533
   7   2.0000     -11.383937      -309.7727
   8   2.0000     -11.333500      -308.4002
   9   2.0000     -11.311083      -307.7902
  10   2.0000     -11.307970      -307.7055
  11   2.0000     -11.297706      -307.4262
  12   2.0000     -11.259956      -306.3990
  13   2.0000     -11.259667      -306.3911
  14   2.0000     -11.256601      -306.3077
  15   2.0000     -11.251082      -306.1575
  16   2.0000     -11.240755      -305.8765
  17   2.0000     -11.236733      -305.7671
  18   2.0000     -11.233868      -305.6891
  19   2.0000     -11.232576      -305.6539
  20   2.0000      -8.893604      -242.0073
  21   2.0000      -6.575182      -178.9198
  22   2.0000      -6.573173      -178.8651
  23   2.0000      -6.572589      -178.8492
  24   2.0000      -1.454162       -39.5698
  25   2.0000      -1.414793       -38.4985
  26   2.0000      -1.357105       -36.9287
  27   2.0000      -1.339348       -36.4455
  28   2.0000      -1.237524       -33.6747
  29   2.0000      -1.155217       -31.4351
  30   2.0000      -1.120903       -30.5013
  31   2.0000      -1.044555       -28.4238
  32   2.0000      -1.036177       -28.1958
  33   2.0000      -1.012652       -27.5557
  34   2.0000      -0.998791       -27.1785
  35   2.0000      -0.984379       -26.7863
  36   2.0000      -0.922703       -25.1080
  37   2.0000      -0.883048       -24.0290
  38   2.0000      -0.847718       -23.0676
  39   2.0000      -0.837610       -22.7925
  40   2.0000      -0.831183       -22.6176
  41   2.0000      -0.823692       -22.4138
  42   2.0000      -0.758393       -20.6369
  43   2.0000      -0.735983       -20.0271
  44   2.0000      -0.727472       -19.7955
  45   2.0000      -0.693056       -18.8590
  46   2.0000      -0.685240       -18.6463
  47   2.0000      -0.681242       -18.5375
  48   2.0000      -0.675445       -18.3798
  49   2.0000      -0.655142       -17.8273
  50   2.0000      -0.651175       -17.7194
  51   2.0000      -0.642595       -17.4859
  52   2.0000      -0.634177       -17.2568
  53   2.0000      -0.614811       -16.7299
  54   2.0000      -0.603503       -16.4222
  55   2.0000      -0.602311       -16.3897
  56   2.0000      -0.598459       -16.2849
  57   2.0000      -0.577098       -15.7036
  58   2.0000      -0.575418       -15.6579
  59   2.0000      -0.563663       -15.3380
  60   2.0000      -0.558825       -15.2064
  61   2.0000      -0.546261       -14.8645
  62   2.0000      -0.539942       -14.6926
  63   2.0000      -0.522428       -14.2160
  64   2.0000      -0.520125       -14.1533
  65   2.0000      -0.511036       -13.9060
  66   2.0000      -0.504060       -13.7162
  67   2.0000      -0.497236       -13.5305
  68   2.0000      -0.482390       -13.1265
  69   2.0000      -0.464843       -12.6490
  70   2.0000      -0.460133       -12.5208
  71   2.0000      -0.450945       -12.2708
  72   2.0000      -0.354029        -9.6336
  73   2.0000      -0.346977        -9.4417
  74   2.0000      -0.327820        -8.9204
  75   2.0000      -0.318122        -8.6565
  76   2.0000      -0.315412        -8.5828
  77   0.0000       0.072047         1.9605
  78   0.0000       0.106620         2.9013
  79   0.0000       0.119351         3.2477
  80   0.0000       0.133039         3.6202
  81   0.0000       0.136717         3.7203

MULLIKEN ATOMIC CHARGES
-----------------------
   0 C :   -0.269440
   1 C :    0.043317
   2 O :   -0.363534
   3 C :    0.452086
   4 O :   -0.404099
   5 C :   -0.190973
   6 C :    0.136255
   7 C :   -0.282907
   8 N :   -0.124212
   9 C :    0.203346
  10 S :   -0.439965
  11 N :   -0.200584
  12 C :    0.052028
  13 C :    0.050142
  14 C :   -0.160650
  15 C :   -0.132621
  16 C :   -0.280683
  17 C :    0.313477
  18 O :   -0.359342
  19 C :   -0.282479
  20 H :    0.099941
  21 H :    0.089596
  22 H :    0.095055
  23 H :    0.092643
  24 H :    0.110077
  25 H :    0.124146
  26 H :    0.104453
  27 H :    0.125388
  28 H :    0.197171
  29 H :    0.194182
  30 H :    0.154685
  31 H :    0.155127
  32 H :    0.160338
  33 H :    0.129979
  34 H :    0.240698
  35 H :    0.167359
Sum of atomic charges:    0.0000000

LOEWDIN ATOMIC CHARGES
----------------------
   0 C :    0.108468
   1 C :   -0.017754
   2 O :    0.294565
   3 C :   -0.415209
   4 O :    0.123916
   5 C :   -0.093394
   6 C :   -0.073254
   7 C :    0.125956
   8 N :    0.404156
   9 C :   -0.457574
  10 S :   -0.036472
  11 N :    0.397166
  12 C :   -0.045492
  13 C :   -0.040086
  14 C :    0.021865
  15 C :    0.041804
  16 C :   -0.002296
  17 C :   -0.194203
  18 O :    0.393277
  19 C :    0.027714
  20 H :   -0.025150
  21 H :   -0.030420
  22 H :   -0.023787
  23 H :   -0.030531
  24 H :   -0.027140
  25 H :   -0.008013
  26 H :   -0.019746
  27 H :   -0.010575
  28 H :   -0.058792
  29 H :   -0.064032
  30 H :   -0.004738
  31 H :   -0.024826
  32 H :   -0.020553
  33 H :   -0.035867
  34 H :   -0.154280
  35 H :   -0.024704

  Mayer bond orders larger than 0.100000
B(  0-C ,  1-C ) :   0.9748 B(  0-C , 20-H ) :   0.9775 B(  0-C , 21-H ) :   0.9789
B(  0-C , 22-H ) :   0.9770 B(  1-C ,  2-O ) :   0.8969 B(  1-C , 23-H ) :   0.9685
B(  1-C , 24-H ) :   0.9790 B(  2-O ,  3-C ) :   1.1008 B(  3-C ,  4-O ) :   2.0165
B(  3-C ,  5-C ) :   1.0332 B(  5-C ,  6-C ) :   1.6659 B(  5-C , 12-C ) :   0.9637
B(  6-C ,  7-C ) :   0.9518 B(  6-C ,  8-N ) :   1.1393 B(  7-C , 25-H ) :   0.9700
B(  7-C , 26-H ) :   0.9887 B(  7-C , 27-H ) :   0.9628 B(  8-N ,  9-C ) :   1.1837
B(  8-N , 28-H ) :   0.9498 B(  9-C , 10-S ) :   1.6104 B(  9-C , 11-N ) :   1.3008
B( 11-N , 12-C ) :   0.9923 B( 11-N , 29-H ) :   0.9517 B( 12-C , 13-C ) :   0.9459
B( 12-C , 30-H ) :   0.9986 B( 13-C , 14-C ) :   1.3775 B( 13-C , 19-C ) :   1.3666
B( 14-C , 15-C ) :   1.3944 B( 14-C , 31-H ) :   0.9642 B( 15-C , 16-C ) :   1.3636
B( 15-C , 32-H ) :   0.9711 B( 16-C , 17-C ) :   1.3310 B( 16-C , 33-H ) :   0.9852
B( 17-C , 18-O ) :   1.1091 B( 17-C , 19-C ) :   1.3745 B( 18-O , 34-H ) :   0.9800
B( 19-C , 35-H ) :   0.9585

MP2 TOTAL ENERGY:    -1274.329780541 Eh
FINAL SINGLE POINT ENERGY     -1274.329780541266

DIPOLE MOMENT
-------------
                                X             Y             Z
Electronic contribution:     11.37077       9.52018       8.82153
Nuclear contribution   :    -12.73162     -10.86047      -9.46006
                        -----------------------------------------
Total Dipole Moment    :     -1.36085      -1.34030      -0.63853
                        -----------------------------------------
Magnitude (a.u.)       :      2.01396
Magnitude (Debye)      :      5.11908

Rotational constants in cm-1:     0.010974     0.009147     0.006380
Rotational constants in MHz :   328.981285   274.233451   191.259258

                             ****ORCA TERMINATED NORMALLY****
TOTAL RUN TIME: 0 days 1 hours 57 minutes 24 seconds 187 msec
