                         Program Version 5.0.0 -  RELEASE  -
|  1> ! ri-mp2 cc-pvtz cc-pvtz/c TightSCF NoKeepInts
|  2>
|  3> %scf
|  4>   MaxCore 4096
|  5> end
|  6> *xyz  0  1
|  7>     C       14.3943642   15.7236568   16.2580536
|  8>     C       15.4814033   15.3346417   17.2761662
|  9>     O       16.6853658   15.0027996   16.5531826
| 10>     C       17.8243241   15.7682074   16.4787673
| 11>     O       18.8472853   15.2628456   16.0565386
| 12>     C       17.9049311   16.9113891   17.4329760
| 13>     C       17.3638931   18.1199990   17.1644898
| 14>     C       16.6361716   18.5284831   15.9045981
| 15>     N       17.5160236   19.1674270   18.0752426
| 16>     C       18.2654592   19.1007178   19.2213844
| 17>     S       18.4257769   20.4007634   20.2303390
| 18>     N       18.8712559   17.8983785   19.4951969
| 19>     C       18.7138888   16.6606343   18.7047869
| 20>     C       18.0967401   15.5367086   19.5320092
| 21>     C       18.5641367   14.2181040   19.3829817
| 22>     C       17.9862080   13.1661349   20.1126317
| 23>     C       16.9287435   13.4329104   20.9985256
| 24>     C       16.4559295   14.7435648   21.1460059
| 25>     O       15.4246018   15.0027252   21.9882047
| 26>     C       17.0322741   15.7892995   20.4178986
| 27>     H       14.7030223   16.5665818   15.6340214
| 28>     H       13.4666403   15.9987772   16.7745406
| 29>     H       14.1751554   14.8763401   15.5960696
| 30>     H       15.6248382   16.1400354   18.0053397
| 31>     H       15.1448061   14.4491152   17.8312599
| 32>     H       16.6952544   17.7608451   15.1233502
| 33>     H       17.0755279   19.4404316   15.4803989
| 34>     H       15.5773619   18.7290321   16.1082820
| 35>     H       17.0929911   20.0625449   17.8854174
| 36>     H       19.4030651   17.8747880   20.3562875
| 37>     H       19.7184893   16.3371926   18.3938317
| 38>     H       19.3691447   14.0053389   18.6823164
| 39>     H       18.3543770   12.1496440   19.9832431
| 40>     H       16.4776309   12.6220936   21.5611115
| 41>     H       15.2051701   14.1751291   22.4428450
| 42>     H       16.6447485   16.7947195   20.5457055
| 43> *
| 44>
| 45>                          ****END OF INPUT****

CARTESIAN COORDINATES (ANGSTROEM)
---------------------------------
  C     14.394364   15.723657   16.258054
  C     15.481403   15.334642   17.276166
  O     16.685366   15.002800   16.553183
  C     17.824324   15.768207   16.478767
  O     18.847285   15.262846   16.056539
  C     17.904931   16.911389   17.432976
  C     17.363893   18.119999   17.164490
  C     16.636172   18.528483   15.904598
  N     17.516024   19.167427   18.075243
  C     18.265459   19.100718   19.221384
  S     18.425777   20.400763   20.230339
  N     18.871256   17.898378   19.495197
  C     18.713889   16.660634   18.704787
  C     18.096740   15.536709   19.532009
  C     18.564137   14.218104   19.382982
  C     17.986208   13.166135   20.112632
  C     16.928743   13.432910   20.998526
  C     16.455929   14.743565   21.146006
  O     15.424602   15.002725   21.988205
  C     17.032274   15.789299   20.417899
  H     14.703022   16.566582   15.634021
  H     13.466640   15.998777   16.774541
  H     14.175155   14.876340   15.596070
  H     15.624838   16.140035   18.005340
  H     15.144806   14.449115   17.831260
  H     16.695254   17.760845   15.123350
  H     17.075528   19.440432   15.480399
  H     15.577362   18.729032   16.108282
  H     17.092991   20.062545   17.885417
  H     19.403065   17.874788   20.356288
  H     19.718489   16.337193   18.393832
  H     19.369145   14.005339   18.682316
  H     18.354377   12.149644   19.983243
  H     16.477631   12.622094   21.561111
  H     15.205170   14.175129   22.442845
  H     16.644748   16.794719   20.545705

 Total Charge           Charge          ....    0
 Multiplicity           Mult            ....    1
 Number of Electrons    NEL             ....  154
 Basis Dimension        Dim             ....  828

ORBITAL ENERGIES
----------------

  NO   OCC          E(Eh)            E(eV)
   0   2.0000     -91.889506     -2500.4406
   1   2.0000     -20.601347      -560.5911
   2   2.0000     -20.600861      -560.5779
   3   2.0000     -20.551938      -559.2467
   4   2.0000     -15.625173      -425.1826
   5   2.0000     -15.612151      -424.8282
   6   2.0000     -11.398850      -310.1785
   7   2.0000     -11.386560      -309.8441
   8   2.0000     -11.325626      -308.1860
   9   2.0000     -11.317717      -307.9707
  10   2.0000     -11.317282      -307.9589
  11   2.0000     -11.303042      -307.5714
  12   2.0000     -11.268970      -306.6443
  13   2.0000     -11.265271      -306.5436
  14   2.0000     -11.264898      -306.5335
  15   2.0000     -11.257827      -306.3410
  16   2.0000     -11.247052      -306.0478
  17   2.0000     -11.243152      -305.9417
  18   2.0000     -11.240417      -305.8673
  19   2.0000     -11.234962      -305.7189
  20   2.0000      -8.894636      -242.0354
  21   2.0000      -6.576230      -178.9483
  22   2.0000      -6.574198      -178.8930
  23   2.0000      -6.573627      -178.8775
  24   2.0000      -1.448392       -39.4127
  25   2.0000      -1.420682       -38.6587
  26   2.0000      -1.359644       -36.9978
  27   2.0000      -1.339464       -36.4487
  28   2.0000      -1.239898       -33.7394
  29   2.0000      -1.162326       -31.6285
  30   2.0000      -1.126128       -30.6435
  31   2.0000      -1.049891       -28.5690
  32   2.0000      -1.040506       -28.3136
  33   2.0000      -1.019952       -27.7543
  34   2.0000      -1.005680       -27.3659
  35   2.0000      -0.989727       -26.9318
  36   2.0000      -0.928432       -25.2639
  37   2.0000      -0.891000       -24.2454
  38   2.0000      -0.853490       -23.2246
  39   2.0000      -0.841893       -22.9091
  40   2.0000      -0.837839       -22.7988
  41   2.0000      -0.836708       -22.7680
  42   2.0000      -0.755886       -20.5687
  43   2.0000      -0.735376       -20.0106
  44   2.0000      -0.732916       -19.9437
  45   2.0000      -0.698449       -19.0058
  46   2.0000      -0.689669       -18.7669
  47   2.0000      -0.680152       -18.5079
  48   2.0000      -0.677680       -18.4406
  49   2.0000      -0.668173       -18.1819
  50   2.0000      -0.653713       -17.7884
  51   2.0000      -0.640694       -17.4342
  52   2.0000      -0.638298       -17.3690
  53   2.0000      -0.617737       -16.8095
  54   2.0000      -0.609647       -16.5893
  55   2.0000      -0.607622       -16.5342
  56   2.0000      -0.604232       -16.4420
  57   2.0000      -0.589686       -16.0462
  58   2.0000      -0.578931       -15.7535
  59   2.0000      -0.570222       -15.5165
  60   2.0000      -0.567247       -15.4356
  61   2.0000      -0.559471       -15.2240
  62   2.0000      -0.542389       -14.7591
  63   2.0000      -0.536315       -14.5939
  64   2.0000      -0.523163       -14.2360
  65   2.0000      -0.516130       -14.0446
  66   2.0000      -0.503136       -13.6910
  67   2.0000      -0.501431       -13.6446
  68   2.0000      -0.488508       -13.2930
  69   2.0000      -0.471377       -12.8268
  70   2.0000      -0.452387       -12.3101
  71   2.0000      -0.449195       -12.2232
  72   2.0000      -0.356601        -9.7036
  73   2.0000      -0.352239        -9.5849
  74   2.0000      -0.329338        -8.9617
  75   2.0000      -0.325459        -8.8562
  76   2.0000      -0.318301        -8.6614
  77   0.0000       0.090485         2.4622
  78   0.0000       0.104481         2.8431
  79   0.0000       0.113002         3.0749
  80   0.0000       0.126790         3.4501
  81   0.0000       0.128671         3.5013

MULLIKEN ATOMIC CHARGES
-----------------------
   0 C :   -0.272809
   1 C :    0.018427
   2 O :   -0.314579
   3 C :    0.385298
   4 O :   -0.377320
   5 C :   -0.167305
   6 C :    0.131985
   7 C :   -0.339606
   8 N :   -0.137744
   9 C :    0.207957
  10 S :   -0.442764
  11 N :   -0.220950
  12 C :    0.077708
  13 C :    0.015564
  14 C :   -0.188711
  15 C :   -0.131406
  16 C :   -0.277302
  17 C :    0.315258
  18 O :   -0.356883
  19 C :   -0.280131
  20 H :    0.085748
  21 H :    0.095557
  22 H :    0.111417
  23 H :    0.099375
  24 H :    0.127176
  25 H :    0.121924
  26 H :    0.143198
  27 H :    0.124425
  28 H :    0.195796
  29 H :    0.200711
  30 H :    0.165170
  31 H :    0.165243
  32 H :    0.163923
  33 H :    0.133184
  34 H :    0.241926
  35 H :    0.180541
Sum of atomic charges:   -0.0000000

LOEWDIN ATOMIC CHARGES
----------------------
   0 C :    0.104397
   1 C :   -0.018056
   2 O :    0.311897
   3 C :   -0.418492
   4 O :    0.126847
   5 C :   -0.079321
   6 C :   -0.109125
   7 C :    0.123667
   8 N :    0.400504
   9 C :   -0.455493
  10 S :   -0.039305
  11 N :    0.397468
  12 C :   -0.043491
  13 C :   -0.042972
  14 C :    0.024203
  15 C :    0.046291
  16 C :   -0.000345
  17 C :   -0.194101
  18 O :    0.394885
  19 C :    0.027345
  20 H :   -0.035477
  21 H :   -0.025106
  22 H :   -0.023219
  23 H :   -0.040725
  24 H :   -0.020034
  25 H :   -0.010151
  26 H :   -0.009468
  27 H :   -0.016494
  28 H :   -0.058378
  29 H :   -0.063712
  30 H :   -0.002068
  31 H :   -0.021763
  32 H :   -0.018132
  33 H :   -0.034471
  34 H :   -0.152722
  35 H :   -0.024883

  Mayer bond orders larger than 0.100000
B(  0-C ,  1-C ) :   0.9744 B(  0-C , 20-H ) :   0.9772 B(  0-C , 21-H ) :   0.9757
B(  0-C , 22-H ) :   0.9800 B(  1-C ,  2-O ) :   0.8953 B(  1-C , 23-H ) :   0.9591
B(  1-C , 24-H ) :   0.9783 B(  2-O ,  3-C ) :   1.1759 B(  3-C ,  4-O ) :   2.0959
B(  3-C ,  5-C ) :   0.9128 B(  5-C ,  6-C ) :   1.7038 B(  5-C , 12-C ) :   0.9599
B(  6-C ,  7-C ) :   0.9435 B(  6-C ,  8-N ) :   1.1081 B(  7-C , 25-H ) :   0.9825
B(  7-C , 26-H ) :   0.9702 B(  7-C , 27-H ) :   0.9662 B(  8-N ,  9-C ) :   1.2004
B(  8-N , 28-H ) :   0.9530 B(  9-C , 10-S ) :   1.6088 B(  9-C , 11-N ) :   1.2842
B( 11-N , 12-C ) :   0.9941 B( 11-N , 29-H ) :   0.9475 B( 12-C , 13-C ) :   0.9426
B( 12-C , 30-H ) :   0.9975 B( 13-C , 14-C ) :   1.3883 B( 13-C , 19-C ) :   1.3395
B( 14-C , 15-C ) :   1.3988 B( 14-C , 31-H ) :   0.9629 B( 15-C , 16-C ) :   1.3621
B( 15-C , 32-H ) :   0.9697 B( 16-C , 17-C ) :   1.3298 B( 16-C , 33-H ) :   0.9842
B( 17-C , 18-O ) :   1.1109 B( 17-C , 19-C ) :   1.3682 B( 18-O , 34-H ) :   0.9789
B( 19-C , 35-H ) :   0.9564

MP2 TOTAL ENERGY:    -1274.327714304 Eh
FINAL SINGLE POINT ENERGY     -1274.327714303681

DIPOLE MOMENT
-------------
                                X             Y             Z
Electronic contribution:     11.18555       5.33283       7.87805
Nuclear contribution   :    -12.76381      -6.44486      -8.17929
                        -----------------------------------------
Total Dipole Moment    :     -1.57826      -1.11203      -0.30123
                        -----------------------------------------
Magnitude (a.u.)       :      1.95404
Magnitude (Debye)      :      4.96677

Rotational constants in cm-1:     0.011744     0.009243     0.006828
Rotational constants in MHz :   352.064262   277.101520   204.689587

                             ****ORCA TERMINATED NORMALLY****
TOTAL RUN TIME: 0 days 1 hours 50 minutes 26 seconds 211 msec
