                         Program Version 5.0.0 -  RELEASE  -
|  1> ! ri-mp2 cc-pvtz cc-pvtz/c TightSCF NoKeepInts
|  2>
|  3> %scf
|  4>   MaxCore 4096
|  5> end
|  6> *xyz  0  1
|  7>     C       15.2270381   13.8409397   15.2724363
|  8>     C       15.1575367   14.8923630   16.3961920
|  9>     O       16.1566959   15.8983118   16.1494974
| 10>     C       17.3987858   15.7465927   16.6967788
| 11>     O       17.8892448   14.6438406   16.8756800
| 12>     C       17.8113708   16.9277211   17.5242916
| 13>     C       17.4454649   18.2084528   17.2617814
| 14>     C       16.6047804   18.7116306   16.1065484
| 15>     N       17.9247911   19.2469486   18.0664246
| 16>     C       18.8736961   19.1049127   19.0445598
| 17>     S       19.4751403   20.4055880   19.8704051
| 18>     N       19.2997831   17.8264383   19.3031270
| 19>     C       18.7077244   16.6053451   18.7244533
| 20>     C       17.9337061   15.8304512   19.7878724
| 21>     C       18.2262031   14.4769638   20.0378209
| 22>     C       17.5113340   13.7568271   21.0095359
| 23>     C       16.4936635   14.3947090   21.7389600
| 24>     C       16.1962304   15.7414789   21.4904370
| 25>     O       15.2090457   16.3583015   22.1877473
| 26>     C       16.9089084   16.4553407   20.5219718
| 27>     H       16.1921739   13.3190423   15.2834215
| 28>     H       15.1006677   14.3135730   14.2906816
| 29>     H       14.4357783   13.0921951   15.3982166
| 30>     H       14.1639802   15.3582901   16.3831808
| 31>     H       15.3019133   14.4223559   17.3793472
| 32>     H       16.8982758   18.2261037   15.1673948
| 33>     H       16.7058520   19.7928259   15.9523245
| 34>     H       15.5428188   18.4963697   16.2785025
| 35>     H       17.6246664   20.1927053   17.8914934
| 36>     H       19.9773064   17.7463194   20.0504628
| 37>     H       19.5323260   15.9716865   18.3670547
| 38>     H       19.0006314   13.9763462   19.4616323
| 39>     H       17.7440233   12.7086763   21.1888287
| 40>     H       15.9380693   13.8417817   22.4890089
| 41>     H       14.8729440   15.7229957   22.8376087
| 42>     H       16.6644296   17.4975759   20.3483200
| 43> *
| 44>
| 45>                          ****END OF INPUT****

CARTESIAN COORDINATES (ANGSTROEM)
---------------------------------
  C     15.227038   13.840940   15.272436
  C     15.157537   14.892363   16.396192
  O     16.156696   15.898312   16.149497
  C     17.398786   15.746593   16.696779
  O     17.889245   14.643841   16.875680
  C     17.811371   16.927721   17.524292
  C     17.445465   18.208453   17.261781
  C     16.604780   18.711631   16.106548
  N     17.924791   19.246949   18.066425
  C     18.873696   19.104913   19.044560
  S     19.475140   20.405588   19.870405
  N     19.299783   17.826438   19.303127
  C     18.707724   16.605345   18.724453
  C     17.933706   15.830451   19.787872
  C     18.226203   14.476964   20.037821
  C     17.511334   13.756827   21.009536
  C     16.493664   14.394709   21.738960
  C     16.196230   15.741479   21.490437
  O     15.209046   16.358301   22.187747
  C     16.908908   16.455341   20.521972
  H     16.192174   13.319042   15.283421
  H     15.100668   14.313573   14.290682
  H     14.435778   13.092195   15.398217
  H     14.163980   15.358290   16.383181
  H     15.301913   14.422356   17.379347
  H     16.898276   18.226104   15.167395
  H     16.705852   19.792826   15.952324
  H     15.542819   18.496370   16.278502
  H     17.624666   20.192705   17.891493
  H     19.977306   17.746319   20.050463
  H     19.532326   15.971687   18.367055
  H     19.000631   13.976346   19.461632
  H     17.744023   12.708676   21.188829
  H     15.938069   13.841782   22.489009
  H     14.872944   15.722996   22.837609
  H     16.664430   17.497576   20.348320

 Total Charge           Charge          ....    0
 Multiplicity           Mult            ....    1
 Number of Electrons    NEL             ....  154
 Basis Dimension        Dim             ....  828

ORBITAL ENERGIES
----------------

  NO   OCC          E(Eh)            E(eV)
   0   2.0000     -91.888191     -2500.4048
   1   2.0000     -20.593736      -560.3840
   2   2.0000     -20.593099      -560.3667
   3   2.0000     -20.552369      -559.2584
   4   2.0000     -15.627932      -425.2576
   5   2.0000     -15.607407      -424.6991
   6   2.0000     -11.396612      -310.1176
   7   2.0000     -11.383430      -309.7589
   8   2.0000     -11.333743      -308.4068
   9   2.0000     -11.309833      -307.7562
  10   2.0000     -11.307346      -307.6885
  11   2.0000     -11.300452      -307.5009
  12   2.0000     -11.259936      -306.3984
  13   2.0000     -11.259212      -306.3787
  14   2.0000     -11.255642      -306.2816
  15   2.0000     -11.250064      -306.1298
  16   2.0000     -11.239673      -305.8470
  17   2.0000     -11.235607      -305.7364
  18   2.0000     -11.232831      -305.6609
  19   2.0000     -11.221778      -305.3601
  20   2.0000      -8.893263      -241.9980
  21   2.0000      -6.574842      -178.9105
  22   2.0000      -6.572832      -178.8559
  23   2.0000      -6.572248      -178.8400
  24   2.0000      -1.453535       -39.5527
  25   2.0000      -1.413487       -38.4629
  26   2.0000      -1.357883       -36.9499
  27   2.0000      -1.339073       -36.4380
  28   2.0000      -1.237142       -33.6643
  29   2.0000      -1.154164       -31.4064
  30   2.0000      -1.120353       -30.4864
  31   2.0000      -1.043027       -28.3822
  32   2.0000      -1.032717       -28.1017
  33   2.0000      -1.011567       -27.5261
  34   2.0000      -0.997692       -27.1486
  35   2.0000      -0.983021       -26.7494
  36   2.0000      -0.922167       -25.0934
  37   2.0000      -0.887155       -24.1407
  38   2.0000      -0.847940       -23.0736
  39   2.0000      -0.837127       -22.7794
  40   2.0000      -0.830145       -22.5894
  41   2.0000      -0.822053       -22.3692
  42   2.0000      -0.753006       -20.4903
  43   2.0000      -0.733889       -19.9701
  44   2.0000      -0.726658       -19.7734
  45   2.0000      -0.692420       -18.8417
  46   2.0000      -0.685779       -18.6610
  47   2.0000      -0.680793       -18.5253
  48   2.0000      -0.672159       -18.2904
  49   2.0000      -0.661629       -18.0038
  50   2.0000      -0.646296       -17.5866
  51   2.0000      -0.641307       -17.4509
  52   2.0000      -0.632305       -17.2059
  53   2.0000      -0.606452       -16.5024
  54   2.0000      -0.601694       -16.3729
  55   2.0000      -0.599754       -16.3201
  56   2.0000      -0.596656       -16.2358
  57   2.0000      -0.585324       -15.9275
  58   2.0000      -0.574753       -15.6398
  59   2.0000      -0.567776       -15.4500
  60   2.0000      -0.561313       -15.2741
  61   2.0000      -0.547330       -14.8936
  62   2.0000      -0.534815       -14.5531
  63   2.0000      -0.519358       -14.1325
  64   2.0000      -0.516473       -14.0539
  65   2.0000      -0.511154       -13.9092
  66   2.0000      -0.502678       -13.6786
  67   2.0000      -0.496660       -13.5148
  68   2.0000      -0.481001       -13.0887
  69   2.0000      -0.462923       -12.5968
  70   2.0000      -0.455328       -12.3901
  71   2.0000      -0.453882       -12.3508
  72   2.0000      -0.353644        -9.6231
  73   2.0000      -0.345953        -9.4139
  74   2.0000      -0.327435        -8.9099
  75   2.0000      -0.317053        -8.6275
  76   2.0000      -0.314985        -8.5712
  77   0.0000       0.073829         2.0090
  78   0.0000       0.109079         2.9682
  79   0.0000       0.120897         3.2898
  80   0.0000       0.134292         3.6543
  81   0.0000       0.138921         3.7802

MULLIKEN ATOMIC CHARGES
-----------------------
   0 C :   -0.280349
   1 C :    0.045048
   2 O :   -0.361631
   3 C :    0.425309
   4 O :   -0.414435
   5 C :   -0.151888
   6 C :    0.138189
   7 C :   -0.282552
   8 N :   -0.123474
   9 C :    0.202561
  10 S :   -0.440065
  11 N :   -0.199453
  12 C :    0.044907
  13 C :    0.050353
  14 C :   -0.164896
  15 C :   -0.134029
  16 C :   -0.280450
  17 C :    0.311496
  18 O :   -0.358446
  19 C :   -0.272649
  20 H :    0.117275
  21 H :    0.090109
  22 H :    0.089524
  23 H :    0.098947
  24 H :    0.100967
  25 H :    0.123851
  26 H :    0.102326
  27 H :    0.126920
  28 H :    0.197000
  29 H :    0.193901
  30 H :    0.154466
  31 H :    0.155101
  32 H :    0.160218
  33 H :    0.129368
  34 H :    0.240318
  35 H :    0.166163
Sum of atomic charges:   -0.0000000

LOEWDIN ATOMIC CHARGES
----------------------
   0 C :    0.104484
   1 C :   -0.014996
   2 O :    0.296419
   3 C :   -0.413231
   4 O :    0.118775
   5 C :   -0.091811
   6 C :   -0.070969
   7 C :    0.125679
   8 N :    0.404272
   9 C :   -0.458055
  10 S :   -0.036609
  11 N :    0.397320
  12 C :   -0.045668
  13 C :   -0.039766
  14 C :    0.020967
  15 C :    0.040497
  16 C :   -0.002459
  17 C :   -0.193063
  18 O :    0.393313
  19 C :    0.028482
  20 H :   -0.024433
  21 H :   -0.029970
  22 H :   -0.029329
  23 H :   -0.026869
  24 H :   -0.025919
  25 H :   -0.008498
  26 H :   -0.020130
  27 H :   -0.009539
  28 H :   -0.058884
  29 H :   -0.063951
  30 H :   -0.004941
  31 H :   -0.025117
  32 H :   -0.020880
  33 H :   -0.036064
  34 H :   -0.154576
  35 H :   -0.024479

  Mayer bond orders larger than 0.100000
B(  0-C ,  1-C ) :   0.9726 B(  0-C , 20-H ) :   0.9739 B(  0-C , 21-H ) :   0.9767
B(  0-C , 22-H ) :   0.9765 B(  1-C ,  2-O ) :   0.8969 B(  1-C , 23-H ) :   0.9835
B(  1-C , 24-H ) :   0.9730 B(  2-O ,  3-C ) :   1.0993 B(  3-C ,  4-O ) :   1.9855
B(  3-C ,  5-C ) :   1.0444 B(  5-C ,  6-C ) :   1.6596 B(  5-C , 12-C ) :   0.9640
B(  6-C ,  7-C ) :   0.9534 B(  6-C ,  8-N ) :   1.1393 B(  7-C , 25-H ) :   0.9691
B(  7-C , 26-H ) :   0.9895 B(  7-C , 27-H ) :   0.9629 B(  8-N ,  9-C ) :   1.1828
B(  8-N , 28-H ) :   0.9495 B(  9-C , 10-S ) :   1.6102 B(  9-C , 11-N ) :   1.3011
B( 11-N , 12-C ) :   0.9925 B( 11-N , 29-H ) :   0.9516 B( 12-C , 13-C ) :   0.9452
B( 12-C , 30-H ) :   0.9987 B( 13-C , 14-C ) :   1.3763 B( 13-C , 19-C ) :   1.3696
B( 14-C , 15-C ) :   1.3945 B( 14-C , 31-H ) :   0.9644 B( 15-C , 16-C ) :   1.3630
B( 15-C , 32-H ) :   0.9711 B( 16-C , 17-C ) :   1.3308 B( 16-C , 33-H ) :   0.9855
B( 17-C , 18-O ) :   1.1089 B( 17-C , 19-C ) :   1.3775 B( 18-O , 34-H ) :   0.9803
B( 19-C , 35-H ) :   0.9581

MP2 TOTAL ENERGY:    -1274.333259145 Eh
FINAL SINGLE POINT ENERGY     -1274.333259145175

DIPOLE MOMENT
-------------
                                X             Y             Z
Electronic contribution:     10.62466      10.53416       9.69302
Nuclear contribution   :    -12.17823     -11.73061     -10.35678
                        -----------------------------------------
Total Dipole Moment    :     -1.55357      -1.19645      -0.66376
                        -----------------------------------------
Magnitude (a.u.)       :      2.07018
Magnitude (Debye)      :      5.26198

Rotational constants in cm-1:     0.011064     0.009002     0.006061
Rotational constants in MHz :   331.684803   269.870306   181.700565

                             ****ORCA TERMINATED NORMALLY****
TOTAL RUN TIME: 0 days 1 hours 55 minutes 58 seconds 557 msec
