                         Program Version 4.2.0 -  RELEASE  -
|  1> ! ri-mp2 cc-pvtz cc-pvtz/c TightSCF  NoKeepInts
|  2>
|  3> %scf
|  4>   MaxCore 4096
|  5> end
|  6> *xyz  0  1
|  7>     C       14.6306586   16.0232219   17.0342959
|  8>     C       15.7066201   14.9346241   16.8678811
|  9>     O       16.7179305   15.3326734   15.9173879
| 10>     C       17.9478569   15.7611605   16.3414431
| 11>     O       18.8811257   14.9795719   16.3152908
| 12>     C       17.9152559   16.8737024   17.3401331
| 13>     C       17.3086419   18.0574533   17.0846170
| 14>     C       16.6063580   18.4786281   15.8103090
| 15>     N       17.3861772   19.0943789   18.0171770
| 16>     C       18.1663369   19.0728726   19.1437905
| 17>     S       18.2784828   20.3812507   20.1486207
| 18>     N       18.8513938   17.9097698   19.3957285
| 19>     C       18.7040509   16.6540223   18.6333887
| 20>     C       18.0520505   15.5701028   19.4856338
| 21>     C       18.5755770   14.2643284   19.4916291
| 22>     C       17.9640392   13.2508047   20.2480340
| 23>     C       16.8162759   13.5434741   21.0040408
| 24>     C       16.2880959   14.8413398   20.9971012
| 25>     O       15.1712612   15.1241449   21.7132760
| 26>     C       16.8982725   15.8481698   20.2425250
| 27>     H       14.9851951   16.8420168   17.6688738
| 28>     H       13.7422756   15.5995687   17.5186382
| 29>     H       14.3255901   16.4246418   16.0601755
| 30>     H       16.1442813   14.6612547   17.8356754
| 31>     H       15.2150489   14.0350807   16.4752851
| 32>     H       16.6604760   17.7171440   15.0239514
| 33>     H       17.0623284   19.3877644   15.3982889
| 34>     H       15.5460035   18.6888733   15.9941666
| 35>     H       16.9051428   19.9623536   17.8403140
| 36>     H       19.4041420   17.9157926   20.2436461
| 37>     H       19.7123050   16.3115441   18.3572734
| 38>     H       19.4523753   14.0305195   18.8911832
| 39>     H       18.3776316   12.2436135   20.2405519
| 40>     H       16.3396754   12.7624574   21.5874134
| 41>     H       14.9392520   14.3292271   22.2171031
| 42>     H       16.4688154   16.8444535   20.2491569
| 43> *
| 44>
| 45>                          ****END OF INPUT****

CARTESIAN COORDINATES (ANGSTROEM)
---------------------------------
  C     14.630659   16.023222   17.034296
  C     15.706620   14.934624   16.867881
  O     16.717931   15.332673   15.917388
  C     17.947857   15.761160   16.341443
  O     18.881126   14.979572   16.315291
  C     17.915256   16.873702   17.340133
  C     17.308642   18.057453   17.084617
  C     16.606358   18.478628   15.810309
  N     17.386177   19.094379   18.017177
  C     18.166337   19.072873   19.143790
  S     18.278483   20.381251   20.148621
  N     18.851394   17.909770   19.395729
  C     18.704051   16.654022   18.633389
  C     18.052050   15.570103   19.485634
  C     18.575577   14.264328   19.491629
  C     17.964039   13.250805   20.248034
  C     16.816276   13.543474   21.004041
  C     16.288096   14.841340   20.997101
  O     15.171261   15.124145   21.713276
  C     16.898273   15.848170   20.242525
  H     14.985195   16.842017   17.668874
  H     13.742276   15.599569   17.518638
  H     14.325590   16.424642   16.060175
  H     16.144281   14.661255   17.835675
  H     15.215049   14.035081   16.475285
  H     16.660476   17.717144   15.023951
  H     17.062328   19.387764   15.398289
  H     15.546003   18.688873   15.994167
  H     16.905143   19.962354   17.840314
  H     19.404142   17.915793   20.243646
  H     19.712305   16.311544   18.357273
  H     19.452375   14.030519   18.891183
  H     18.377632   12.243613   20.240552
  H     16.339675   12.762457   21.587413
  H     14.939252   14.329227   22.217103
  H     16.468815   16.844454   20.249157

 Total Charge           Charge          ....    0
 Multiplicity           Mult            ....    1
 Number of Electrons    NEL             ....  154
 Basis Dimension        Dim             ....  828

ORBITAL ENERGIES
----------------

  NO   OCC          E(Eh)            E(eV)
   0   2.0000     -91.890902     -2500.4786
   1   2.0000     -20.600630      -560.5716
   2   2.0000     -20.581483      -560.0506
   3   2.0000     -20.556371      -559.3673
   4   2.0000     -15.628926      -425.2847
   5   2.0000     -15.611433      -424.8087
   6   2.0000     -11.395293      -310.0817
   7   2.0000     -11.387157      -309.8603
   8   2.0000     -11.332831      -308.3820
   9   2.0000     -11.317824      -307.9736
  10   2.0000     -11.313622      -307.8593
  11   2.0000     -11.300586      -307.5046
  12   2.0000     -11.263620      -306.4987
  13   2.0000     -11.263489      -306.4951
  14   2.0000     -11.263439      -306.4938
  15   2.0000     -11.257971      -306.3450
  16   2.0000     -11.247445      -306.0585
  17   2.0000     -11.242820      -305.9327
  18   2.0000     -11.239970      -305.8551
  19   2.0000     -11.231854      -305.6343
  20   2.0000      -8.895987      -242.0721
  21   2.0000      -6.577568      -178.9847
  22   2.0000      -6.575552      -178.9299
  23   2.0000      -6.574969      -178.9140
  24   2.0000      -1.446979       -39.3743
  25   2.0000      -1.420451       -38.6524
  26   2.0000      -1.355058       -36.8730
  27   2.0000      -1.341710       -36.5098
  28   2.0000      -1.240707       -33.7614
  29   2.0000      -1.161902       -31.6170
  30   2.0000      -1.124812       -30.6077
  31   2.0000      -1.048568       -28.5330
  32   2.0000      -1.035247       -28.1705
  33   2.0000      -1.019370       -27.7385
  34   2.0000      -1.003999       -27.3202
  35   2.0000      -0.989713       -26.9315
  36   2.0000      -0.927724       -25.2447
  37   2.0000      -0.887014       -24.1369
  38   2.0000      -0.851976       -23.1834
  39   2.0000      -0.842552       -22.9270
  40   2.0000      -0.837789       -22.7974
  41   2.0000      -0.831615       -22.6294
  42   2.0000      -0.755063       -20.5463
  43   2.0000      -0.735676       -20.0188
  44   2.0000      -0.731271       -19.8989
  45   2.0000      -0.698788       -19.0150
  46   2.0000      -0.688955       -18.7474
  47   2.0000      -0.679541       -18.4912
  48   2.0000      -0.675297       -18.3758
  49   2.0000      -0.661716       -18.0062
  50   2.0000      -0.654720       -17.8158
  51   2.0000      -0.643471       -17.5097
  52   2.0000      -0.637210       -17.3394
  53   2.0000      -0.611933       -16.6515
  54   2.0000      -0.608765       -16.5653
  55   2.0000      -0.606049       -16.4914
  56   2.0000      -0.603156       -16.4127
  57   2.0000      -0.584697       -15.9104
  58   2.0000      -0.580919       -15.8076
  59   2.0000      -0.576405       -15.6848
  60   2.0000      -0.565060       -15.3761
  61   2.0000      -0.554887       -15.0993
  62   2.0000      -0.541591       -14.7374
  63   2.0000      -0.527437       -14.3523
  64   2.0000      -0.520899       -14.1744
  65   2.0000      -0.514235       -13.9930
  66   2.0000      -0.503267       -13.6946
  67   2.0000      -0.494680       -13.4609
  68   2.0000      -0.486268       -13.2320
  69   2.0000      -0.467260       -12.7148
  70   2.0000      -0.455826       -12.4037
  71   2.0000      -0.449372       -12.2280
  72   2.0000      -0.358006        -9.7418
  73   2.0000      -0.352705        -9.5976
  74   2.0000      -0.330412        -8.9910
  75   2.0000      -0.325770        -8.8647
  76   2.0000      -0.319454        -8.6928
  77   0.0000       0.076988         2.0950
  78   0.0000       0.100604         2.7376
  79   0.0000       0.117784         3.2051
  80   0.0000       0.127464         3.4685
  81   0.0000       0.130091         3.5399

MULLIKEN ATOMIC CHARGES
-----------------------
   0 C :   -0.316692
   1 C :    0.029117
   2 O :   -0.363136
   3 C :    0.430719
   4 O :   -0.372680
   5 C :   -0.173663
   6 C :    0.097277
   7 C :   -0.321586
   8 N :   -0.125610
   9 C :    0.193890
  10 S :   -0.438046
  11 N :   -0.207147
  12 C :    0.064547
  13 C :    0.008872
  14 C :   -0.178956
  15 C :   -0.135388
  16 C :   -0.275540
  17 C :    0.311164
  18 O :   -0.357461
  19 C :   -0.263905
  20 H :    0.095403
  21 H :    0.121491
  22 H :    0.106875
  23 H :    0.107668
  24 H :    0.125148
  25 H :    0.132912
  26 H :    0.141238
  27 H :    0.121073
  28 H :    0.197994
  29 H :    0.196232
  30 H :    0.163879
  31 H :    0.168133
  32 H :    0.163947
  33 H :    0.133553
  34 H :    0.241757
  35 H :    0.176921
Sum of atomic charges:   -0.0000000

LOEWDIN ATOMIC CHARGES
----------------------
   0 C :    0.103840
   1 C :   -0.011446
   2 O :    0.278269
   3 C :   -0.418387
   4 O :    0.136773
   5 C :   -0.087897
   6 C :   -0.088805
   7 C :    0.126320
   8 N :    0.403942
   9 C :   -0.457725
  10 S :   -0.035439
  11 N :    0.397190
  12 C :   -0.044363
  13 C :   -0.045582
  14 C :    0.020004
  15 C :    0.043996
  16 C :   -0.000715
  17 C :   -0.194742
  18 O :    0.395470
  19 C :    0.027943
  20 H :   -0.035716
  21 H :   -0.021705
  22 H :   -0.027841
  23 H :   -0.028803
  24 H :   -0.021671
  25 H :   -0.009975
  26 H :   -0.011672
  27 H :   -0.016193
  28 H :   -0.056296
  29 H :   -0.063698
  30 H :   -0.002970
  31 H :   -0.022167
  32 H :   -0.018473
  33 H :   -0.034306
  34 H :   -0.152894
  35 H :   -0.024268

  Mayer bond orders larger than 0.100000
B(  0-C ,  1-C ) :   0.9622 B(  0-C , 20-H ) :   0.9758 B(  0-C , 21-H ) :   0.9780
B(  0-C , 22-H ) :   0.9742 B(  1-C ,  2-O ) :   0.8906 B(  1-C , 23-H ) :   0.9674
B(  1-C , 24-H ) :   0.9862 B(  2-O ,  3-C ) :   1.1226 B(  3-C ,  4-O ) :   2.0855
B(  3-C ,  5-C ) :   0.9468 B(  5-C ,  6-C ) :   1.6803 B(  5-C , 12-C ) :   0.9546
B(  6-C ,  7-C ) :   0.9555 B(  6-C ,  8-N ) :   1.1123 B(  7-C , 25-H ) :   0.9747
B(  7-C , 26-H ) :   0.9706 B(  7-C , 27-H ) :   0.9635 B(  8-N ,  9-C ) :   1.1896
B(  8-N , 28-H ) :   0.9513 B(  9-C , 10-S ) :   1.6157 B(  9-C , 11-N ) :   1.2907
B( 11-N , 12-C ) :   0.9942 B( 11-N , 29-H ) :   0.9507 B( 12-C , 13-C ) :   0.9448
B( 12-C , 30-H ) :   0.9979 B( 13-C , 14-C ) :   1.3918 B( 13-C , 19-C ) :   1.3480
B( 14-C , 15-C ) :   1.3946 B( 14-C , 31-H ) :   0.9600 B( 15-C , 16-C ) :   1.3639
B( 15-C , 32-H ) :   0.9702 B( 16-C , 17-C ) :   1.3288 B( 16-C , 33-H ) :   0.9840
B( 17-C , 18-O ) :   1.1131 B( 17-C , 19-C ) :   1.3716 B( 18-O , 34-H ) :   0.9791
B( 19-C , 35-H ) :   0.9561

MP2 TOTAL ENERGY:    -1274.322309010 Eh
FINAL SINGLE POINT ENERGY     -1274.322309009572

DIPOLE MOMENT
-------------
                                X             Y             Z
Electronic contribution:     10.42320       5.62677       5.86148
Nuclear contribution   :    -11.72678      -6.79055      -6.15180
                        -----------------------------------------
Total Dipole Moment    :     -1.30358      -1.16378      -0.29033
                        -----------------------------------------
Magnitude (a.u.)       :      1.77144
Magnitude (Debye)      :      4.50264

Rotational constants in cm-1:     0.012010     0.009466     0.007105
Rotational constants in MHz :   360.064191   283.782067   212.989014

                             ****ORCA TERMINATED NORMALLY****
TOTAL RUN TIME: 0 days 1 hours 49 minutes 45 seconds 717 msec
