                         Program Version 4.2.0 -  RELEASE  -
|  1> ! ri-mp2 cc-pvtz cc-pvtz/c TightSCF  NoKeepInts
|  2>
|  3> %scf
|  4>   MaxCore 4096
|  5> end
|  6> *xyz  0  1
|  7>     C       15.4765012   13.7587173   15.2568861
|  8>     C       15.0555746   14.9885675   16.0908750
|  9>     O       16.0935088   15.9923637   16.1375621
| 10>     C       17.3127471   15.7711175   16.7192974
| 11>     O       17.7770140   14.6559350   16.8835771
| 12>     C       17.7696669   16.9297999   17.5578586
| 13>     C       17.4446361   18.2269216   17.3191941
| 14>     C       16.6083433   18.7810186   16.1839153
| 15>     N       17.9705893   19.2361820   18.1322174
| 16>     C       18.9319305   19.0489075   19.0901298
| 17>     S       19.5924992   20.3169945   19.9215633
| 18>     N       19.3189128   17.7534568   19.3228053
| 19>     C       18.6712194   16.5621552   18.7419750
| 20>     C       17.8870031   15.8060664   19.8115427
| 21>     C       18.1325567   14.4399768   20.0429742
| 22>     C       17.4105862   13.7378229   21.0225850
| 23>     C       16.4331394   14.4066292   21.7788238
| 24>     C       16.1824047   15.7661658   21.5488883
| 25>     O       15.2343731   16.4131708   22.2727636
| 26>     C       16.9021993   16.4621709   20.5727090
| 27>     H       15.9659959   14.0681289   14.3252329
| 28>     H       14.5961768   13.1590711   14.9963364
| 29>     H       16.1614935   13.1073120   15.8124482
| 30>     H       14.1605701   15.4325778   15.6367027
| 31>     H       14.7924366   14.6703570   17.1086499
| 32>     H       16.8875697   18.3174170   15.2295132
| 33>     H       16.7301093   19.8640192   16.0604418
| 34>     H       15.5430872   18.5829407   16.3560651
| 35>     H       17.6994277   20.1938619   17.9762347
| 36>     H       20.0067159   17.6394383   20.0561618
| 37>     H       19.4660402   15.9017163   18.3661259
| 38>     H       18.8755729   13.9161901   19.4464281
| 39>     H       17.6064582   12.6798266   21.1871751
| 40>     H       15.8720818   13.8677637   22.5349614
| 41>     H       14.8834725   15.7825889   22.9193097
| 42>     H       16.6943861   17.5146507   20.4140699
| 43> *
| 44>
| 45>                          ****END OF INPUT****

CARTESIAN COORDINATES (ANGSTROEM)
---------------------------------
  C     15.476501   13.758717   15.256886
  C     15.055575   14.988568   16.090875
  O     16.093509   15.992364   16.137562
  C     17.312747   15.771117   16.719297
  O     17.777014   14.655935   16.883577
  C     17.769667   16.929800   17.557859
  C     17.444636   18.226922   17.319194
  C     16.608343   18.781019   16.183915
  N     17.970589   19.236182   18.132217
  C     18.931930   19.048907   19.090130
  S     19.592499   20.316994   19.921563
  N     19.318913   17.753457   19.322805
  C     18.671219   16.562155   18.741975
  C     17.887003   15.806066   19.811543
  C     18.132557   14.439977   20.042974
  C     17.410586   13.737823   21.022585
  C     16.433139   14.406629   21.778824
  C     16.182405   15.766166   21.548888
  O     15.234373   16.413171   22.272764
  C     16.902199   16.462171   20.572709
  H     15.965996   14.068129   14.325233
  H     14.596177   13.159071   14.996336
  H     16.161493   13.107312   15.812448
  H     14.160570   15.432578   15.636703
  H     14.792437   14.670357   17.108650
  H     16.887570   18.317417   15.229513
  H     16.730109   19.864019   16.060442
  H     15.543087   18.582941   16.356065
  H     17.699428   20.193862   17.976235
  H     20.006716   17.639438   20.056162
  H     19.466040   15.901716   18.366126
  H     18.875573   13.916190   19.446428
  H     17.606458   12.679827   21.187175
  H     15.872082   13.867764   22.534961
  H     14.883472   15.782589   22.919310
  H     16.694386   17.514651   20.414070

 Total Charge           Charge          ....    0
 Multiplicity           Mult            ....    1
 Number of Electrons    NEL             ....  154
 Basis Dimension        Dim             ....  828

ORBITAL ENERGIES
----------------

  NO   OCC          E(Eh)            E(eV)
   0   2.0000     -91.887471     -2500.3852
   1   2.0000     -20.596367      -560.4556
   2   2.0000     -20.592604      -560.3532
   3   2.0000     -20.549862      -559.1902
   4   2.0000     -15.627092      -425.2348
   5   2.0000     -15.606532      -424.6753
   6   2.0000     -11.397633      -310.1454
   7   2.0000     -11.382554      -309.7350
   8   2.0000     -11.333205      -308.3922
   9   2.0000     -11.308566      -307.7217
  10   2.0000     -11.306184      -307.6569
  11   2.0000     -11.303635      -307.5875
  12   2.0000     -11.259383      -306.3834
  13   2.0000     -11.258321      -306.3545
  14   2.0000     -11.254384      -306.2474
  15   2.0000     -11.248814      -306.0958
  16   2.0000     -11.238397      -305.8123
  17   2.0000     -11.234306      -305.7010
  18   2.0000     -11.231549      -305.6260
  19   2.0000     -11.221389      -305.3495
  20   2.0000      -8.892546      -241.9785
  21   2.0000      -6.574126      -178.8911
  22   2.0000      -6.572116      -178.8364
  23   2.0000      -6.571533      -178.8205
  24   2.0000      -1.450175       -39.4613
  25   2.0000      -1.412346       -38.4319
  26   2.0000      -1.358190       -36.9582
  27   2.0000      -1.338348       -36.4183
  28   2.0000      -1.236342       -33.6426
  29   2.0000      -1.152835       -31.3702
  30   2.0000      -1.119147       -30.4535
  31   2.0000      -1.042028       -28.3550
  32   2.0000      -1.032813       -28.1043
  33   2.0000      -1.010315       -27.4921
  34   2.0000      -0.996703       -27.1217
  35   2.0000      -0.982075       -26.7236
  36   2.0000      -0.921352       -25.0713
  37   2.0000      -0.891890       -24.2696
  38   2.0000      -0.847336       -23.0572
  39   2.0000      -0.836155       -22.7529
  40   2.0000      -0.828901       -22.5556
  41   2.0000      -0.819632       -22.3033
  42   2.0000      -0.747660       -20.3449
  43   2.0000      -0.730636       -19.8816
  44   2.0000      -0.725482       -19.7414
  45   2.0000      -0.691474       -18.8160
  46   2.0000      -0.684736       -18.6326
  47   2.0000      -0.680367       -18.5137
  48   2.0000      -0.670770       -18.2526
  49   2.0000      -0.663995       -18.0682
  50   2.0000      -0.645407       -17.5624
  51   2.0000      -0.641755       -17.4630
  52   2.0000      -0.633661       -17.2428
  53   2.0000      -0.603890       -16.4327
  54   2.0000      -0.600376       -16.3371
  55   2.0000      -0.597390       -16.2558
  56   2.0000      -0.595300       -16.1989
  57   2.0000      -0.586900       -15.9704
  58   2.0000      -0.573407       -15.6032
  59   2.0000      -0.569262       -15.4904
  60   2.0000      -0.559950       -15.2370
  61   2.0000      -0.545383       -14.8406
  62   2.0000      -0.535630       -14.5752
  63   2.0000      -0.519337       -14.1319
  64   2.0000      -0.518007       -14.0957
  65   2.0000      -0.510605       -13.8943
  66   2.0000      -0.501353       -13.6425
  67   2.0000      -0.495581       -13.4855
  68   2.0000      -0.479645       -13.0518
  69   2.0000      -0.461846       -12.5675
  70   2.0000      -0.457464       -12.4482
  71   2.0000      -0.448265       -12.1979
  72   2.0000      -0.352996        -9.6055
  73   2.0000      -0.344704        -9.3799
  74   2.0000      -0.326720        -8.8905
  75   2.0000      -0.315878        -8.5955
  76   2.0000      -0.314154        -8.5486
  77   0.0000       0.075854         2.0641
  78   0.0000       0.110842         3.0162
  79   0.0000       0.121423         3.3041
  80   0.0000       0.135296         3.6816
  81   0.0000       0.139991         3.8093

MULLIKEN ATOMIC CHARGES
-----------------------
   0 C :   -0.293988
   1 C :    0.049254
   2 O :   -0.361226
   3 C :    0.435910
   4 O :   -0.419919
   5 C :   -0.147397
   6 C :    0.135756
   7 C :   -0.284581
   8 N :   -0.122613
   9 C :    0.202117
  10 S :   -0.440950
  11 N :   -0.198476
  12 C :    0.039822
  13 C :    0.053371
  14 C :   -0.164506
  15 C :   -0.134000
  16 C :   -0.279948
  17 C :    0.311303
  18 O :   -0.358658
  19 C :   -0.271507
  20 H :    0.093362
  21 H :    0.092961
  22 H :    0.125632
  23 H :    0.099373
  24 H :    0.093332
  25 H :    0.123643
  26 H :    0.102019
  27 H :    0.126766
  28 H :    0.196727
  29 H :    0.193576
  30 H :    0.154629
  31 H :    0.154382
  32 H :    0.159545
  33 H :    0.128602
  34 H :    0.240101
  35 H :    0.165586
Sum of atomic charges:   -0.0000000

LOEWDIN ATOMIC CHARGES
----------------------
   0 C :    0.103839
   1 C :   -0.012069
   2 O :    0.292941
   3 C :   -0.411019
   4 O :    0.119909
   5 C :   -0.090795
   6 C :   -0.070187
   7 C :    0.125020
   8 N :    0.404178
   9 C :   -0.458439
  10 S :   -0.037302
  11 N :    0.397459
  12 C :   -0.045861
  13 C :   -0.039093
  14 C :    0.020960
  15 C :    0.040460
  16 C :   -0.002574
  17 C :   -0.192863
  18 O :    0.393178
  19 C :    0.028804
  20 H :   -0.027640
  21 H :   -0.029983
  22 H :   -0.026569
  23 H :   -0.024635
  24 H :   -0.027912
  25 H :   -0.008900
  26 H :   -0.020540
  27 H :   -0.009795
  28 H :   -0.059135
  29 H :   -0.063947
  30 H :   -0.005203
  31 H :   -0.025370
  32 H :   -0.021184
  33 H :   -0.036304
  34 H :   -0.154814
  35 H :   -0.024615

  Mayer bond orders larger than 0.100000
B(  0-C ,  1-C ) :   0.9702 B(  0-C , 20-H ) :   0.9757 B(  0-C , 21-H ) :   0.9767
B(  0-C , 22-H ) :   0.9712 B(  1-C ,  2-O ) :   0.9076 B(  1-C , 23-H ) :   0.9840
B(  1-C , 24-H ) :   0.9778 B(  2-O ,  3-C ) :   1.1097 B(  3-C ,  4-O ) :   1.9805
B(  3-C ,  5-C ) :   1.0477 B(  5-C ,  6-C ) :   1.6576 B(  5-C , 12-C ) :   0.9639
B(  6-C ,  7-C ) :   0.9548 B(  6-C ,  8-N ) :   1.1401 B(  7-C , 25-H ) :   0.9684
B(  7-C , 26-H ) :   0.9902 B(  7-C , 27-H ) :   0.9629 B(  8-N ,  9-C ) :   1.1824
B(  8-N , 28-H ) :   0.9495 B(  9-C , 10-S ) :   1.6094 B(  9-C , 11-N ) :   1.3019
B( 11-N , 12-C ) :   0.9929 B( 11-N , 29-H ) :   0.9518 B( 12-C , 13-C ) :   0.9460
B( 12-C , 30-H ) :   0.9990 B( 13-C , 14-C ) :   1.3762 B( 13-C , 19-C ) :   1.3697
B( 14-C , 15-C ) :   1.3945 B( 14-C , 31-H ) :   0.9647 B( 15-C , 16-C ) :   1.3630
B( 15-C , 32-H ) :   0.9712 B( 16-C , 17-C ) :   1.3311 B( 16-C , 33-H ) :   0.9858
B( 17-C , 18-O ) :   1.1085 B( 17-C , 19-C ) :   1.3781 B( 18-O , 34-H ) :   0.9805
B( 19-C , 35-H ) :   0.9582

MP2 TOTAL ENERGY:    -1274.334025628 Eh
FINAL SINGLE POINT ENERGY     -1274.334025627932

DIPOLE MOMENT
-------------
                                X             Y             Z
Electronic contribution:     10.27167      10.43960      10.12767
Nuclear contribution   :    -11.91078     -11.63059     -10.94858
                        -----------------------------------------
Total Dipole Moment    :     -1.63910      -1.19099      -0.82090
                        -----------------------------------------
Magnitude (a.u.)       :      2.18609
Magnitude (Debye)      :      5.55661

Rotational constants in cm-1:     0.010943     0.008975     0.005997
Rotational constants in MHz :   328.059607   269.065431   179.791924

                             ****ORCA TERMINATED NORMALLY****
TOTAL RUN TIME: 0 days 1 hours 34 minutes 44 seconds 413 msec
