                         Program Version 4.2.0 -  RELEASE  -
|  1> ! ri-mp2 cc-pvtz cc-pvtz/c TightSCF  NoKeepInts
|  2>
|  3> %scf
|  4>   MaxCore 4096
|  5> end
|  6> *xyz  0  1
|  7>     C       15.2899104   14.6210718   17.2750663
|  8>     C       16.3671216   14.1311353   16.2874611
|  9>     O       17.6063187   14.8604654   16.4326904
| 10>     C       17.6320946   16.1796434   16.0803983
| 11>     O       17.1456302   16.5305898   15.0194922
| 12>     C       17.7657524   17.0969908   17.2659922
| 13>     C       17.3546311   18.3913190   17.2429340
| 14>     C       16.5916685   19.0979062   16.1429197
| 15>     N       17.6908273   19.2476790   18.2966216
| 16>     C       18.6237144   18.9602536   19.2584222
| 17>     S       19.1331058   20.0912114   20.3523764
| 18>     N       19.1206778   17.6809470   19.2595915
| 19>     C       18.5517577   16.5670693   18.4777238
| 20>     C       17.7303672   15.6759283   19.4042967
| 21>     C       18.0986504   14.3320361   19.6061575
| 22>     C       17.3716011   13.5152077   20.4886635
| 23>     C       16.2699070   14.0469452   21.1804931
| 24>     C       15.9033612   15.3859429   20.9872623
| 25>     O       14.8389492   15.9017440   21.6516669
| 26>     C       16.6274559   16.1959362   20.1068494
| 27>     H       15.5443195   14.3345325   18.2994059
| 28>     H       14.3244097   14.1591397   17.0365730
| 29>     H       15.1601425   15.7090056   17.2299646
| 30>     H       16.5514935   13.0637389   16.4638385
| 31>     H       15.9948660   14.2358302   15.2590535
| 32>     H       17.2084730   19.1808330   15.2388566
| 33>     H       16.2729785   20.1084626   16.4238992
| 34>     H       15.6904347   18.5329184   15.8731964
| 35>     H       17.3456075   20.1942547   18.2977466
| 36>     H       19.7868597   17.4876421   19.9963515
| 37>     H       19.3920685   15.9729856   18.0917577
| 38>     H       18.9508554   13.9177101   19.0738837
| 39>     H       17.6642329   12.4769814   20.6359602
| 40>     H       15.7062737   13.4204113   21.8640100
| 41>     H       14.5079566   15.2156820   22.2506290
| 42>     H       16.3325258   17.2318494   19.9817943
| 43> *
| 44>
| 45>                          ****END OF INPUT****

CARTESIAN COORDINATES (ANGSTROEM)
---------------------------------
  C     15.289910   14.621072   17.275066
  C     16.367122   14.131135   16.287461
  O     17.606319   14.860465   16.432690
  C     17.632095   16.179643   16.080398
  O     17.145630   16.530590   15.019492
  C     17.765752   17.096991   17.265992
  C     17.354631   18.391319   17.242934
  C     16.591669   19.097906   16.142920
  N     17.690827   19.247679   18.296622
  C     18.623714   18.960254   19.258422
  S     19.133106   20.091211   20.352376
  N     19.120678   17.680947   19.259591
  C     18.551758   16.567069   18.477724
  C     17.730367   15.675928   19.404297
  C     18.098650   14.332036   19.606157
  C     17.371601   13.515208   20.488664
  C     16.269907   14.046945   21.180493
  C     15.903361   15.385943   20.987262
  O     14.838949   15.901744   21.651667
  C     16.627456   16.195936   20.106849
  H     15.544320   14.334532   18.299406
  H     14.324410   14.159140   17.036573
  H     15.160142   15.709006   17.229965
  H     16.551493   13.063739   16.463839
  H     15.994866   14.235830   15.259054
  H     17.208473   19.180833   15.238857
  H     16.272979   20.108463   16.423899
  H     15.690435   18.532918   15.873196
  H     17.345607   20.194255   18.297747
  H     19.786860   17.487642   19.996351
  H     19.392069   15.972986   18.091758
  H     18.950855   13.917710   19.073884
  H     17.664233   12.476981   20.635960
  H     15.706274   13.420411   21.864010
  H     14.507957   15.215682   22.250629
  H     16.332526   17.231849   19.981794

 Total Charge           Charge          ....    0
 Multiplicity           Mult            ....    1
 Number of Electrons    NEL             ....  154
 Basis Dimension        Dim             ....  828

ORBITAL ENERGIES
----------------

  NO   OCC          E(Eh)            E(eV)
   0   2.0000     -91.890695     -2500.4729
   1   2.0000     -20.598419      -560.5115
   2   2.0000     -20.585079      -560.1485
   3   2.0000     -20.549322      -559.1755
   4   2.0000     -15.630843      -425.3369
   5   2.0000     -15.609050      -424.7438
   6   2.0000     -11.394482      -310.0596
   7   2.0000     -11.385085      -309.8039
   8   2.0000     -11.336890      -308.4925
   9   2.0000     -11.315719      -307.9164
  10   2.0000     -11.311548      -307.8029
  11   2.0000     -11.297025      -307.4077
  12   2.0000     -11.261140      -306.4312
  13   2.0000     -11.260640      -306.4176
  14   2.0000     -11.257374      -306.3287
  15   2.0000     -11.253766      -306.2305
  16   2.0000     -11.245514      -306.0060
  17   2.0000     -11.239805      -305.8506
  18   2.0000     -11.239742      -305.8489
  19   2.0000     -11.221959      -305.3650
  20   2.0000      -8.895706      -242.0645
  21   2.0000      -6.577269      -178.9766
  22   2.0000      -6.575278      -178.9224
  23   2.0000      -6.574680      -178.9061
  24   2.0000      -1.449183       -39.4343
  25   2.0000      -1.418157       -38.5900
  26   2.0000      -1.351683       -36.7812
  27   2.0000      -1.341874       -36.5142
  28   2.0000      -1.239904       -33.7395
  29   2.0000      -1.158919       -31.5358
  30   2.0000      -1.120874       -30.5005
  31   2.0000      -1.043935       -28.4069
  32   2.0000      -1.031711       -28.0743
  33   2.0000      -1.017057       -27.6755
  34   2.0000      -0.998531       -27.1714
  35   2.0000      -0.985985       -26.8300
  36   2.0000      -0.924320       -25.1520
  37   2.0000      -0.893359       -24.3095
  38   2.0000      -0.847927       -23.0733
  39   2.0000      -0.841124       -22.8881
  40   2.0000      -0.835843       -22.7444
  41   2.0000      -0.815926       -22.2025
  42   2.0000      -0.752378       -20.4733
  43   2.0000      -0.733808       -19.9679
  44   2.0000      -0.723000       -19.6738
  45   2.0000      -0.697926       -18.9915
  46   2.0000      -0.690778       -18.7970
  47   2.0000      -0.677438       -18.4340
  48   2.0000      -0.668021       -18.1778
  49   2.0000      -0.667268       -18.1573
  50   2.0000      -0.649562       -17.6755
  51   2.0000      -0.645205       -17.5569
  52   2.0000      -0.637299       -17.3418
  53   2.0000      -0.609560       -16.5870
  54   2.0000      -0.608409       -16.5557
  55   2.0000      -0.600186       -16.3319
  56   2.0000      -0.600063       -16.3286
  57   2.0000      -0.579363       -15.7653
  58   2.0000      -0.572029       -15.5657
  59   2.0000      -0.564830       -15.3698
  60   2.0000      -0.554930       -15.1004
  61   2.0000      -0.546169       -14.8620
  62   2.0000      -0.540088       -14.6965
  63   2.0000      -0.526939       -14.3387
  64   2.0000      -0.525262       -14.2931
  65   2.0000      -0.515239       -14.0204
  66   2.0000      -0.503431       -13.6990
  67   2.0000      -0.501965       -13.6592
  68   2.0000      -0.474709       -12.9175
  69   2.0000      -0.464876       -12.6499
  70   2.0000      -0.452237       -12.3060
  71   2.0000      -0.444754       -12.1024
  72   2.0000      -0.357542        -9.7292
  73   2.0000      -0.350518        -9.5381
  74   2.0000      -0.329820        -8.9749
  75   2.0000      -0.324343        -8.8258
  76   2.0000      -0.317352        -8.6356
  77   0.0000       0.067620         1.8400
  78   0.0000       0.105506         2.8710
  79   0.0000       0.120649         3.2830
  80   0.0000       0.130080         3.5397
  81   0.0000       0.133883         3.6431

MULLIKEN ATOMIC CHARGES
-----------------------
   0 C :   -0.321083
   1 C :    0.037355
   2 O :   -0.385448
   3 C :    0.473828
   4 O :   -0.410680
   5 C :   -0.228090
   6 C :    0.157946
   7 C :   -0.271924
   8 N :   -0.123965
   9 C :    0.199577
  10 S :   -0.433528
  11 N :   -0.191670
  12 C :    0.026598
  13 C :    0.060036
  14 C :   -0.185451
  15 C :   -0.131041
  16 C :   -0.276814
  17 C :    0.301375
  18 O :   -0.358554
  19 C :   -0.247535
  20 H :    0.111504
  21 H :    0.117004
  22 H :    0.100350
  23 H :    0.111629
  24 H :    0.117955
  25 H :    0.136536
  26 H :    0.094442
  27 H :    0.126434
  28 H :    0.198330
  29 H :    0.190620
  30 H :    0.149481
  31 H :    0.154165
  32 H :    0.161389
  33 H :    0.131811
  34 H :    0.241010
  35 H :    0.166411
Sum of atomic charges:   -0.0000000

LOEWDIN ATOMIC CHARGES
----------------------
   0 C :    0.106924
   1 C :   -0.014543
   2 O :    0.282572
   3 C :   -0.417705
   4 O :    0.118299
   5 C :   -0.097279
   6 C :   -0.060363
   7 C :    0.130182
   8 N :    0.406775
   9 C :   -0.458533
  10 S :   -0.031578
  11 N :    0.396715
  12 C :   -0.052596
  13 C :   -0.038396
  14 C :    0.014785
  15 C :    0.038802
  16 C :   -0.002811
  17 C :   -0.191711
  18 O :    0.396513
  19 C :    0.033965
  20 H :   -0.027312
  21 H :   -0.024882
  22 H :   -0.029985
  23 H :   -0.022989
  24 H :   -0.028902
  25 H :   -0.003259
  26 H :   -0.023088
  27 H :   -0.007212
  28 H :   -0.057851
  29 H :   -0.065166
  30 H :   -0.006378
  31 H :   -0.028809
  32 H :   -0.020663
  33 H :   -0.035137
  34 H :   -0.153483
  35 H :   -0.024899

  Mayer bond orders larger than 0.100000
B(  0-C ,  1-C ) :   0.9569 B(  0-C , 20-H ) :   0.9728 B(  0-C , 21-H ) :   0.9782
B(  0-C , 22-H ) :   0.9723 B(  1-C ,  2-O ) :   0.8830 B(  1-C , 23-H ) :   0.9840
B(  1-C , 24-H ) :   0.9832 B(  2-O ,  3-C ) :   1.1046 B(  3-C ,  4-O ) :   2.0030
B(  3-C ,  5-C ) :   1.0620 B(  5-C ,  6-C ) :   1.6551 B(  5-C , 12-C ) :   0.9706
B(  6-C ,  7-C ) :   0.9711 B(  6-C ,  8-N ) :   1.1431 B(  7-C , 25-H ) :   0.9571
B(  7-C , 26-H ) :   0.9883 B(  7-C , 27-H ) :   0.9652 B(  8-N ,  9-C ) :   1.1778
B(  8-N , 28-H ) :   0.9486 B(  9-C , 10-S ) :   1.6196 B(  9-C , 11-N ) :   1.2985
B( 11-N , 12-C ) :   0.9867 B( 11-N , 29-H ) :   0.9542 B( 12-C , 13-C ) :   0.9395
B( 12-C , 30-H ) :   1.0055 B( 13-C , 14-C ) :   1.3627 B( 13-C , 19-C ) :   1.3695
B( 14-C , 15-C ) :   1.3867 B( 14-C , 31-H ) :   0.9690 B( 15-C , 16-C ) :   1.3614
B( 15-C , 32-H ) :   0.9715 B( 16-C , 17-C ) :   1.3306 B( 16-C , 33-H ) :   0.9849
B( 17-C , 18-O ) :   1.1136 B( 17-C , 19-C ) :   1.3793 B( 18-O , 34-H ) :   0.9796
B( 19-C , 35-H ) :   0.9571

MP2 TOTAL ENERGY:    -1274.329560508 Eh
FINAL SINGLE POINT ENERGY     -1274.329560507794

DIPOLE MOMENT
-------------
                                X             Y             Z
Electronic contribution:      9.69174       8.95918       5.54776
Nuclear contribution   :    -10.72992     -10.61091      -5.59692
                        -----------------------------------------
Total Dipole Moment    :     -1.03818      -1.65173      -0.04915
                        -----------------------------------------
Magnitude (a.u.)       :      1.95152
Magnitude (Debye)      :      4.96038

Rotational constants in cm-1:     0.011805     0.009818     0.006597
Rotational constants in MHz :   353.910793   294.342883   197.771109

                             ****ORCA TERMINATED NORMALLY****
TOTAL RUN TIME: 0 days 1 hours 48 minutes 51 seconds 541 msec
