                         Program Version 4.2.0 -  RELEASE  -
|  1> ! ri-mp2 cc-pvtz cc-pvtz/c TightSCF  NoKeepInts
|  2>
|  3> %scf
|  4>   MaxCore 4096
|  5> end
|  6> *xyz  0  1
|  7>     C       15.9532516   13.9703563   14.8276699
|  8>     C       15.4410671   14.3212578   16.2354091
|  9>     O       16.4054246   15.1952815   16.8487470
| 10>     C       16.1837252   16.5447389   16.8913630
| 11>     O       15.2421967   17.0724793   16.3236164
| 12>     C       17.2396279   17.2808288   17.6691991
| 13>     C       17.2714300   18.6351421   17.7542348
| 14>     C       16.3049692   19.6164556   17.1261934
| 15>     N       18.3005442   19.2696126   18.4565452
| 16>     C       19.3820945   18.6344967   19.0060348
| 17>     S       20.6082421   19.4693285   19.7378372
| 18>     N       19.3986630   17.2660121   18.9166318
| 19>     C       18.2967170   16.4349986   18.3977657
| 20>     C       17.6856746   15.6193463   19.5335942
| 21>     C       17.7954699   14.2160795   19.5441855
| 22>     C       17.2333982   13.4627109   20.5885849
| 23>     C       16.5580854   14.1175000   21.6327069
| 24>     C       16.4499905   15.5149596   21.6272143
| 25>     O       15.7992883   16.1501283   22.6342978
| 26>     C       17.0102334   16.2619735   20.5864321
| 27>     H       16.0155997   14.8721644   14.2054578
| 28>     H       15.2737463   13.2632062   14.3367177
| 29>     H       16.9490555   13.5130346   14.8785789
| 30>     H       14.4407556   14.7732787   16.1887231
| 31>     H       15.3662405   13.3985500   16.8250597
| 32>     H       15.2858492   19.4418163   17.4943848
| 33>     H       16.2841711   19.4936803   16.0358499
| 34>     H       16.5576665   20.6622402   17.3365494
| 35>     H       18.3056969   20.2743450   18.5308181
| 36>     H       20.1901483   16.8233633   19.3654549
| 37>     H       18.7314559   15.7402815   17.6654178
| 38>     H       18.3122421   13.7070756   18.7350159
| 39>     H       17.3216266   12.3777392   20.5865798
| 40>     H       16.1224343   13.5401634   22.4414813
| 41>     H       15.5082484   15.4744832   23.2648080
| 42>     H       16.9219697   17.3428913   20.6048397
| 43> *
| 44>
| 45>                          ****END OF INPUT****

CARTESIAN COORDINATES (ANGSTROEM)
---------------------------------
  C     15.953252   13.970356   14.827670
  C     15.441067   14.321258   16.235409
  O     16.405425   15.195281   16.848747
  C     16.183725   16.544739   16.891363
  O     15.242197   17.072479   16.323616
  C     17.239628   17.280829   17.669199
  C     17.271430   18.635142   17.754235
  C     16.304969   19.616456   17.126193
  N     18.300544   19.269613   18.456545
  C     19.382095   18.634497   19.006035
  S     20.608242   19.469328   19.737837
  N     19.398663   17.266012   18.916632
  C     18.296717   16.434999   18.397766
  C     17.685675   15.619346   19.533594
  C     17.795470   14.216079   19.544186
  C     17.233398   13.462711   20.588585
  C     16.558085   14.117500   21.632707
  C     16.449990   15.514960   21.627214
  O     15.799288   16.150128   22.634298
  C     17.010233   16.261973   20.586432
  H     16.015600   14.872164   14.205458
  H     15.273746   13.263206   14.336718
  H     16.949056   13.513035   14.878579
  H     14.440756   14.773279   16.188723
  H     15.366240   13.398550   16.825060
  H     15.285849   19.441816   17.494385
  H     16.284171   19.493680   16.035850
  H     16.557666   20.662240   17.336549
  H     18.305697   20.274345   18.530818
  H     20.190148   16.823363   19.365455
  H     18.731456   15.740282   17.665418
  H     18.312242   13.707076   18.735016
  H     17.321627   12.377739   20.586580
  H     16.122434   13.540163   22.441481
  H     15.508248   15.474483   23.264808
  H     16.921970   17.342891   20.604840

 Total Charge           Charge          ....    0
 Multiplicity           Mult            ....    1
 Number of Electrons    NEL             ....  154
 Basis Dimension        Dim             ....  828

ORBITAL ENERGIES
----------------

  NO   OCC          E(Eh)            E(eV)
   0   2.0000     -91.888609     -2500.4162
   1   2.0000     -20.602693      -560.6278
   2   2.0000     -20.595240      -560.4250
   3   2.0000     -20.541714      -558.9685
   4   2.0000     -15.628828      -425.2820
   5   2.0000     -15.607883      -424.7121
   6   2.0000     -11.395804      -310.0956
   7   2.0000     -11.383684      -309.7658
   8   2.0000     -11.335852      -308.4642
   9   2.0000     -11.312264      -307.8224
  10   2.0000     -11.308341      -307.7156
  11   2.0000     -11.296416      -307.3911
  12   2.0000     -11.258868      -306.3694
  13   2.0000     -11.258316      -306.3543
  14   2.0000     -11.253741      -306.2298
  15   2.0000     -11.251830      -306.1779
  16   2.0000     -11.241708      -305.9024
  17   2.0000     -11.237247      -305.7810
  18   2.0000     -11.237011      -305.7746
  19   2.0000     -11.227825      -305.5247
  20   2.0000      -8.893670      -242.0091
  21   2.0000      -6.575245      -178.9215
  22   2.0000      -6.573241      -178.8670
  23   2.0000      -6.572654      -178.8510
  24   2.0000      -1.451759       -39.5044
  25   2.0000      -1.414893       -38.5012
  26   2.0000      -1.355185       -36.8764
  27   2.0000      -1.339763       -36.4568
  28   2.0000      -1.238126       -33.6911
  29   2.0000      -1.156456       -31.4688
  30   2.0000      -1.120006       -30.4769
  31   2.0000      -1.042493       -28.3677
  32   2.0000      -1.038318       -28.2541
  33   2.0000      -1.013693       -27.5840
  34   2.0000      -0.995311       -27.0838
  35   2.0000      -0.983872       -26.7725
  36   2.0000      -0.921909       -25.0864
  37   2.0000      -0.892896       -24.2969
  38   2.0000      -0.846579       -23.0366
  39   2.0000      -0.836631       -22.7659
  40   2.0000      -0.832759       -22.6605
  41   2.0000      -0.817069       -22.2336
  42   2.0000      -0.761449       -20.7201
  43   2.0000      -0.731497       -19.9050
  44   2.0000      -0.722660       -19.6646
  45   2.0000      -0.694430       -18.8964
  46   2.0000      -0.687219       -18.7002
  47   2.0000      -0.680660       -18.5217
  48   2.0000      -0.672352       -18.2956
  49   2.0000      -0.655837       -17.8462
  50   2.0000      -0.645394       -17.5621
  51   2.0000      -0.644545       -17.5389
  52   2.0000      -0.630942       -17.1688
  53   2.0000      -0.610903       -16.6235
  54   2.0000      -0.605383       -16.4733
  55   2.0000      -0.598663       -16.2905
  56   2.0000      -0.597794       -16.2668
  57   2.0000      -0.577930       -15.7263
  58   2.0000      -0.570473       -15.5234
  59   2.0000      -0.568825       -15.4785
  60   2.0000      -0.563262       -15.3271
  61   2.0000      -0.539750       -14.6873
  62   2.0000      -0.537159       -14.6168
  63   2.0000      -0.532955       -14.5025
  64   2.0000      -0.523871       -14.2553
  65   2.0000      -0.512922       -13.9573
  66   2.0000      -0.500794       -13.6273
  67   2.0000      -0.496946       -13.5226
  68   2.0000      -0.485521       -13.2117
  69   2.0000      -0.463527       -12.6132
  70   2.0000      -0.454169       -12.3586
  71   2.0000      -0.449582       -12.2337
  72   2.0000      -0.354140        -9.6366
  73   2.0000      -0.348248        -9.4763
  74   2.0000      -0.327891        -8.9224
  75   2.0000      -0.320017        -8.7081
  76   2.0000      -0.315581        -8.5874
  77   0.0000       0.076798         2.0898
  78   0.0000       0.107955         2.9376
  79   0.0000       0.123692         3.3658
  80   0.0000       0.132914         3.6168
  81   0.0000       0.136066         3.7025

MULLIKEN ATOMIC CHARGES
-----------------------
   0 C :   -0.275653
   1 C :    0.024968
   2 O :   -0.349517
   3 C :    0.475330
   4 O :   -0.438162
   5 C :   -0.222080
   6 C :    0.148623
   7 C :   -0.274372
   8 N :   -0.119952
   9 C :    0.210201
  10 S :   -0.439967
  11 N :   -0.203018
  12 C :    0.044681
  13 C :    0.067459
  14 C :   -0.176560
  15 C :   -0.133663
  16 C :   -0.277628
  17 C :    0.315268
  18 O :   -0.356902
  19 C :   -0.268296
  20 H :    0.103864
  21 H :    0.092722
  22 H :    0.091687
  23 H :    0.114295
  24 H :    0.105677
  25 H :    0.131994
  26 H :    0.130812
  27 H :    0.094926
  28 H :    0.197287
  29 H :    0.194383
  30 H :    0.151345
  31 H :    0.146882
  32 H :    0.159266
  33 H :    0.129090
  34 H :    0.240500
  35 H :    0.164512
Sum of atomic charges:   -0.0000000

LOEWDIN ATOMIC CHARGES
----------------------
   0 C :    0.104345
   1 C :   -0.014743
   2 O :    0.311191
   3 C :   -0.413005
   4 O :    0.093631
   5 C :   -0.093992
   6 C :   -0.058822
   7 C :    0.131451
   8 N :    0.406521
   9 C :   -0.456772
  10 S :   -0.035577
  11 N :    0.396641
  12 C :   -0.052911
  13 C :   -0.038986
  14 C :    0.014448
  15 C :    0.038993
  16 C :   -0.001309
  17 C :   -0.189545
  18 O :    0.394973
  19 C :    0.031547
  20 H :   -0.025111
  21 H :   -0.026328
  22 H :   -0.029473
  23 H :   -0.027673
  24 H :   -0.027926
  25 H :   -0.004477
  26 H :   -0.004118
  27 H :   -0.023463
  28 H :   -0.057604
  29 H :   -0.064520
  30 H :   -0.011608
  31 H :   -0.030452
  32 H :   -0.021666
  33 H :   -0.035729
  34 H :   -0.154091
  35 H :   -0.023839

  Mayer bond orders larger than 0.100000
B(  0-C ,  1-C ) :   0.9683 B(  0-C , 20-H ) :   0.9784 B(  0-C , 21-H ) :   0.9756
B(  0-C , 22-H ) :   0.9784 B(  1-C ,  2-O ) :   0.8888 B(  1-C , 23-H ) :   0.9750
B(  1-C , 24-H ) :   0.9821 B(  2-O ,  3-C ) :   1.1726 B(  3-C ,  4-O ) :   1.9577
B(  3-C ,  5-C ) :   1.0642 B(  5-C ,  6-C ) :   1.6563 B(  5-C , 12-C ) :   0.9726
B(  6-C ,  7-C ) :   0.9674 B(  6-C ,  8-N ) :   1.1653 B(  7-C , 25-H ) :   0.9609
B(  7-C , 26-H ) :   0.9599 B(  7-C , 27-H ) :   0.9904 B(  8-N ,  9-C ) :   1.1824
B(  8-N , 28-H ) :   0.9479 B(  9-C , 10-S ) :   1.6078 B(  9-C , 11-N ) :   1.3048
B( 11-N , 12-C ) :   0.9889 B( 11-N , 29-H ) :   0.9516 B( 12-C , 13-C ) :   0.9370
B( 12-C , 30-H ) :   1.0034 B( 13-C , 14-C ) :   1.3562 B( 13-C , 19-C ) :   1.3820
B( 14-C , 15-C ) :   1.3935 B( 14-C , 31-H ) :   0.9721 B( 15-C , 16-C ) :   1.3643
B( 15-C , 32-H ) :   0.9709 B( 16-C , 17-C ) :   1.3316 B( 16-C , 33-H ) :   0.9854
B( 17-C , 18-O ) :   1.1096 B( 17-C , 19-C ) :   1.3738 B( 18-O , 34-H ) :   0.9801
B( 19-C , 35-H ) :   0.9583

MP2 TOTAL ENERGY:    -1274.350736413 Eh
FINAL SINGLE POINT ENERGY     -1274.350736412557

DIPOLE MOMENT
-------------
                                X             Y             Z
Electronic contribution:      9.05060       9.33411      10.38222
Nuclear contribution   :    -10.23713     -10.94530     -10.73833
                        -----------------------------------------
Total Dipole Moment    :     -1.18653      -1.61119      -0.35611
                        -----------------------------------------
Magnitude (a.u.)       :      2.03239
Magnitude (Debye)      :      5.16592

Rotational constants in cm-1:     0.010689     0.008831     0.006040
Rotational constants in MHz :   320.450988   264.738600   181.086385

                             ****ORCA TERMINATED NORMALLY****
TOTAL RUN TIME: 0 days 1 hours 38 minutes 16 seconds 115 msec
