                         Program Version 4.2.0 -  RELEASE  -
|  1> ! ri-mp2 cc-pvtz cc-pvtz/c TightSCF  NoKeepInts
|  2>
|  3> %scf
|  4>   MaxCore 4096
|  5> end
|  6> *xyz  0  1
|  7>     C       15.1458513   14.8384922   17.2158088
|  8>     C       15.6807799   14.8789337   15.7691981
|  9>     O       16.6725609   15.9151964   15.6305888
| 10>     C       17.8016818   15.8703882   16.3952570
| 11>     O       18.4101711   14.8244374   16.5482465
| 12>     C       17.8961357   16.9912723   17.3906269
| 13>     C       17.3445680   18.2201676   17.2161969
| 14>     C       16.5568335   18.7237722   16.0242916
| 15>     N       17.5520021   19.2169071   18.1753077
| 16>     C       18.4223513   19.1189690   19.2289637
| 17>     S       18.7166387   20.3957367   20.2381821
| 18>     N       19.0373077   17.9047925   19.4023969
| 19>     C       18.6992183   16.6768712   18.6580657
| 20>     C       17.9443900   15.6998836   19.5556432
| 21>     C       18.3915945   14.3734425   19.6988407
| 22>     C       17.6923701   13.4649819   20.5109656
| 23>     C       16.5343066   13.8851019   21.1868991
| 24>     C       16.0838174   15.2044946   21.0454425
| 25>     O       14.9600592   15.6106676   21.6881778
| 26>     C       16.7820118   16.1065259   20.2367444
| 27>     H       15.9078571   14.4546076   17.9050335
| 28>     H       14.2760981   14.1739610   17.2819962
| 29>     H       14.8398141   15.8369334   17.5517290
| 30>     H       16.1107346   13.9029707   15.5053082
| 31>     H       14.8506803   15.0810504   15.0803447
| 32>     H       15.5491450   18.2902317   16.0149810
| 33>     H       17.0508898   18.4480721   15.0841670
| 34>     H       16.4493092   19.8152764   16.0202652
| 35>     H       17.1112817   20.1159975   18.0634245
| 36>     H       19.6525154   17.8492803   20.2039157
| 37>     H       19.6425982   16.2032690   18.3498247
| 38>     H       19.2756882   14.0403489   19.1603651
| 39>     H       18.0457130   12.4398864   20.6073745
| 40>     H       15.9896790   13.1857783   21.8124711
| 41>     H       14.6549164   14.8705338   22.2341391
| 42>     H       16.4154301   17.1227680   20.1428166
| 43> *
| 44>
| 45>                          ****END OF INPUT****

CARTESIAN COORDINATES (ANGSTROEM)
---------------------------------
  C     15.145851   14.838492   17.215809
  C     15.680780   14.878934   15.769198
  O     16.672561   15.915196   15.630589
  C     17.801682   15.870388   16.395257
  O     18.410171   14.824437   16.548247
  C     17.896136   16.991272   17.390627
  C     17.344568   18.220168   17.216197
  C     16.556833   18.723772   16.024292
  N     17.552002   19.216907   18.175308
  C     18.422351   19.118969   19.228964
  S     18.716639   20.395737   20.238182
  N     19.037308   17.904792   19.402397
  C     18.699218   16.676871   18.658066
  C     17.944390   15.699884   19.555643
  C     18.391595   14.373442   19.698841
  C     17.692370   13.464982   20.510966
  C     16.534307   13.885102   21.186899
  C     16.083817   15.204495   21.045443
  O     14.960059   15.610668   21.688178
  C     16.782012   16.106526   20.236744
  H     15.907857   14.454608   17.905033
  H     14.276098   14.173961   17.281996
  H     14.839814   15.836933   17.551729
  H     16.110735   13.902971   15.505308
  H     14.850680   15.081050   15.080345
  H     15.549145   18.290232   16.014981
  H     17.050890   18.448072   15.084167
  H     16.449309   19.815276   16.020265
  H     17.111282   20.115997   18.063424
  H     19.652515   17.849280   20.203916
  H     19.642598   16.203269   18.349825
  H     19.275688   14.040349   19.160365
  H     18.045713   12.439886   20.607374
  H     15.989679   13.185778   21.812471
  H     14.654916   14.870534   22.234139
  H     16.415430   17.122768   20.142817

 Total Charge           Charge          ....    0
 Multiplicity           Mult            ....    1
 Number of Electrons    NEL             ....  154
 Basis Dimension        Dim             ....  828

ORBITAL ENERGIES
----------------

  NO   OCC          E(Eh)            E(eV)
   0   2.0000     -91.889450     -2500.4390
   1   2.0000     -20.594866      -560.4148
   2   2.0000     -20.587635      -560.2180
   3   2.0000     -20.551213      -559.2269
   4   2.0000     -15.629774      -425.3078
   5   2.0000     -15.608201      -424.7207
   6   2.0000     -11.395245      -310.0804
   7   2.0000     -11.384459      -309.7869
   8   2.0000     -11.336371      -308.4783
   9   2.0000     -11.310864      -307.7842
  10   2.0000     -11.307884      -307.7032
  11   2.0000     -11.300382      -307.4990
  12   2.0000     -11.261154      -306.4316
  13   2.0000     -11.260099      -306.4029
  14   2.0000     -11.256424      -306.3029
  15   2.0000     -11.251346      -306.1647
  16   2.0000     -11.241000      -305.8831
  17   2.0000     -11.236343      -305.7564
  18   2.0000     -11.233808      -305.6874
  19   2.0000     -11.224942      -305.4462
  20   2.0000      -8.894506      -242.0318
  21   2.0000      -6.576080      -178.9442
  22   2.0000      -6.574075      -178.8897
  23   2.0000      -6.573487      -178.8737
  24   2.0000      -1.451009       -39.4840
  25   2.0000      -1.414651       -38.4946
  26   2.0000      -1.355047       -36.8727
  27   2.0000      -1.340699       -36.4823
  28   2.0000      -1.238389       -33.6983
  29   2.0000      -1.155331       -31.4381
  30   2.0000      -1.120942       -30.5024
  31   2.0000      -1.043561       -28.3967
  32   2.0000      -1.031161       -28.0593
  33   2.0000      -1.012812       -27.5600
  34   2.0000      -0.999728       -27.2040
  35   2.0000      -0.985578       -26.8189
  36   2.0000      -0.923627       -25.1332
  37   2.0000      -0.893777       -24.3209
  38   2.0000      -0.848726       -23.0950
  39   2.0000      -0.838047       -22.8044
  40   2.0000      -0.831276       -22.6202
  41   2.0000      -0.815767       -22.1981
  42   2.0000      -0.749761       -20.4020
  43   2.0000      -0.734658       -19.9911
  44   2.0000      -0.727443       -19.7947
  45   2.0000      -0.693417       -18.8688
  46   2.0000      -0.686709       -18.6863
  47   2.0000      -0.677283       -18.4298
  48   2.0000      -0.672216       -18.2919
  49   2.0000      -0.659273       -17.9397
  50   2.0000      -0.654068       -17.7981
  51   2.0000      -0.645733       -17.5713
  52   2.0000      -0.635641       -17.2967
  53   2.0000      -0.612945       -16.6791
  54   2.0000      -0.602276       -16.3888
  55   2.0000      -0.602240       -16.3878
  56   2.0000      -0.598731       -16.2923
  57   2.0000      -0.580488       -15.7959
  58   2.0000      -0.575530       -15.6610
  59   2.0000      -0.562770       -15.3137
  60   2.0000      -0.553584       -15.0638
  61   2.0000      -0.548511       -14.9257
  62   2.0000      -0.538450       -14.6520
  63   2.0000      -0.530330       -14.4310
  64   2.0000      -0.520508       -14.1637
  65   2.0000      -0.511623       -13.9220
  66   2.0000      -0.499118       -13.5817
  67   2.0000      -0.492007       -13.3882
  68   2.0000      -0.481132       -13.0923
  69   2.0000      -0.463841       -12.6217
  70   2.0000      -0.458302       -12.4710
  71   2.0000      -0.449059       -12.2195
  72   2.0000      -0.355351        -9.6696
  73   2.0000      -0.346824        -9.4376
  74   2.0000      -0.328586        -8.9413
  75   2.0000      -0.318745        -8.6735
  76   2.0000      -0.316319        -8.6075
  77   0.0000       0.070704         1.9240
  78   0.0000       0.107805         2.9335
  79   0.0000       0.119063         3.2399
  80   0.0000       0.132920         3.6169
  81   0.0000       0.139665         3.8005

MULLIKEN ATOMIC CHARGES
-----------------------
   0 C :   -0.330217
   1 C :    0.041083
   2 O :   -0.378205
   3 C :    0.453774
   4 O :   -0.410838
   5 C :   -0.183332
   6 C :    0.142030
   7 C :   -0.282128
   8 N :   -0.123237
   9 C :    0.197709
  10 S :   -0.437331
  11 N :   -0.197740
  12 C :    0.046042
  13 C :    0.030631
  14 C :   -0.157987
  15 C :   -0.136168
  16 C :   -0.277988
  17 C :    0.311128
  18 O :   -0.360525
  19 C :   -0.263609
  20 H :    0.126576
  21 H :    0.111624
  22 H :    0.100587
  23 H :    0.111310
  24 H :    0.108803
  25 H :    0.121856
  26 H :    0.128664
  27 H :    0.103981
  28 H :    0.197352
  29 H :    0.193315
  30 H :    0.154922
  31 H :    0.157626
  32 H :    0.160687
  33 H :    0.130408
  34 H :    0.240724
  35 H :    0.168473
Sum of atomic charges:    0.0000000

LOEWDIN ATOMIC CHARGES
----------------------
   0 C :    0.105166
   1 C :   -0.018350
   2 O :    0.290098
   3 C :   -0.416551
   4 O :    0.118082
   5 C :   -0.093200
   6 C :   -0.068675
   7 C :    0.125789
   8 N :    0.405166
   9 C :   -0.459060
  10 S :   -0.034746
  11 N :    0.397664
  12 C :   -0.045617
  13 C :   -0.041630
  14 C :    0.020511
  15 C :    0.040639
  16 C :   -0.002306
  17 C :   -0.193456
  18 O :    0.394086
  19 C :    0.030889
  20 H :   -0.022238
  21 H :   -0.024957
  22 H :   -0.030197
  23 H :   -0.026900
  24 H :   -0.024818
  25 H :   -0.011284
  26 H :   -0.006961
  27 H :   -0.020271
  28 H :   -0.058790
  29 H :   -0.063863
  30 H :   -0.004003
  31 H :   -0.024506
  32 H :   -0.020427
  33 H :   -0.035720
  34 H :   -0.154256
  35 H :   -0.025309

  Mayer bond orders larger than 0.100000
B(  0-C ,  1-C ) :   0.9588 B(  0-C , 20-H ) :   0.9669 B(  0-C , 21-H ) :   0.9773
B(  0-C , 22-H ) :   0.9730 B(  1-C ,  2-O ) :   0.8931 B(  1-C , 23-H ) :   0.9828
B(  1-C , 24-H ) :   0.9840 B(  2-O ,  3-C ) :   1.0946 B(  3-C ,  4-O ) :   2.0101
B(  3-C ,  5-C ) :   1.0404 B(  5-C ,  6-C ) :   1.6586 B(  5-C , 12-C ) :   0.9649
B(  6-C ,  7-C ) :   0.9551 B(  6-C ,  8-N ) :   1.1405 B(  7-C , 25-H ) :   0.9639
B(  7-C , 26-H ) :   0.9669 B(  7-C , 27-H ) :   0.9900 B(  8-N ,  9-C ) :   1.1799
B(  8-N , 28-H ) :   0.9491 B(  9-C , 10-S ) :   1.6137 B(  9-C , 11-N ) :   1.3016
B( 11-N , 12-C ) :   0.9898 B( 11-N , 29-H ) :   0.9523 B( 12-C , 13-C ) :   0.9439
B( 12-C , 30-H ) :   0.9991 B( 13-C , 14-C ) :   1.3823 B( 13-C , 19-C ) :   1.3653
B( 14-C , 15-C ) :   1.3938 B( 14-C , 31-H ) :   0.9631 B( 15-C , 16-C ) :   1.3623
B( 15-C , 32-H ) :   0.9714 B( 16-C , 17-C ) :   1.3313 B( 16-C , 33-H ) :   0.9852
B( 17-C , 18-O ) :   1.1092 B( 17-C , 19-C ) :   1.3751 B( 18-O , 34-H ) :   0.9802
B( 19-C , 35-H ) :   0.9580

MP2 TOTAL ENERGY:    -1274.333920034 Eh
FINAL SINGLE POINT ENERGY     -1274.333920034336

DIPOLE MOMENT
-------------
                                X             Y             Z
Electronic contribution:      9.89790       8.65658       6.35738
Nuclear contribution   :    -11.27205      -9.88722      -7.12546
                        -----------------------------------------
Total Dipole Moment    :     -1.37416      -1.23064      -0.76808
                        -----------------------------------------
Magnitude (a.u.)       :      1.99818
Magnitude (Debye)      :      5.07897

Rotational constants in cm-1:     0.011669     0.009627     0.006718
Rotational constants in MHz :   349.842210   288.599768   201.386189

                             ****ORCA TERMINATED NORMALLY****
TOTAL RUN TIME: 0 days 1 hours 52 minutes 8 seconds 176 msec
