                         Program Version 4.2.0 -  RELEASE  -
|  1> ! ri-mp2 cc-pvtz cc-pvtz/c TightSCF  NoKeepInts
|  2>
|  3> %scf
|  4>   MaxCore 4096
|  5> end
|  6> *xyz  0  1
|  7>     C       15.4504180   13.8186358   17.1959194
|  8>     C       16.4306913   14.0981047   16.0424735
|  9>     O       17.3652523   15.1068279   16.4712230
| 10>     C       17.0613264   16.4272219   16.2839052
| 11>     O       16.2655522   16.7937044   15.4357356
| 12>     C       17.6202579   17.3147469   17.3624421
| 13>     C       17.3925376   18.6530416   17.3934675
| 14>     C       16.5633954   19.4668911   16.4228434
| 15>     N       17.9859726   19.4425393   18.3830107
| 16>     C       18.9151446   18.9988001   19.2853972
| 17>     S       19.6610183   20.0223821   20.3494284
| 18>     N       19.2048801   17.6588072   19.2549737
| 19>     C       18.4887139   16.6549796   18.4474700
| 20>     C       17.6883078   15.7446824   19.3741912
| 21>     C       18.1812278   14.4697945   19.7105718
| 22>     C       17.4623455   13.6309145   20.5789311
| 23>     C       16.2397518   14.0698327   21.1151416
| 24>     C       15.7487138   15.3408870   20.7867113
| 25>     O       14.5698598   15.7684443   21.3046372
| 26>     C       16.4684846   16.1754709   19.9262595
| 27>     H       15.9852195   13.4525395   18.0796376
| 28>     H       14.7179520   13.0577744   16.9010858
| 29>     H       14.9043562   14.7292379   17.4728549
| 30>     H       16.9771466   13.1738518   15.8155467
| 31>     H       15.8906474   14.3997453   15.1345626
| 32>     H       15.5213359   19.1222775   16.4237436
| 33>     H       16.9443040   19.3535864   15.3998803
| 34>     H       16.5576817   20.5380669   16.6560093
| 35>     H       17.7886948   20.4299526   18.4161158
| 36>     H       19.8675330   17.3556595   19.9568342
| 37>     H       19.2458558   16.0436881   17.9364110
| 38>     H       19.1253075   14.1272241   19.2956100
| 39>     H       17.8521921   12.6466752   20.8328131
| 40>     H       15.6801518   13.4254297   21.7851420
| 41>     H       14.2481537   15.0791237   21.9048762
| 42>     H       16.0766167   17.1604584   19.6981436
| 43> *
| 44>
| 45>                          ****END OF INPUT****

CARTESIAN COORDINATES (ANGSTROEM)
---------------------------------
  C     15.450418   13.818636   17.195919
  C     16.430691   14.098105   16.042473
  O     17.365252   15.106828   16.471223
  C     17.061326   16.427222   16.283905
  O     16.265552   16.793704   15.435736
  C     17.620258   17.314747   17.362442
  C     17.392538   18.653042   17.393467
  C     16.563395   19.466891   16.422843
  N     17.985973   19.442539   18.383011
  C     18.915145   18.998800   19.285397
  S     19.661018   20.022382   20.349428
  N     19.204880   17.658807   19.254974
  C     18.488714   16.654980   18.447470
  C     17.688308   15.744682   19.374191
  C     18.181228   14.469794   19.710572
  C     17.462346   13.630914   20.578931
  C     16.239752   14.069833   21.115142
  C     15.748714   15.340887   20.786711
  O     14.569860   15.768444   21.304637
  C     16.468485   16.175471   19.926260
  H     15.985219   13.452539   18.079638
  H     14.717952   13.057774   16.901086
  H     14.904356   14.729238   17.472855
  H     16.977147   13.173852   15.815547
  H     15.890647   14.399745   15.134563
  H     15.521336   19.122277   16.423744
  H     16.944304   19.353586   15.399880
  H     16.557682   20.538067   16.656009
  H     17.788695   20.429953   18.416116
  H     19.867533   17.355660   19.956834
  H     19.245856   16.043688   17.936411
  H     19.125308   14.127224   19.295610
  H     17.852192   12.646675   20.832813
  H     15.680152   13.425430   21.785142
  H     14.248154   15.079124   21.904876
  H     16.076617   17.160458   19.698144

 Total Charge           Charge          ....    0
 Multiplicity           Mult            ....    1
 Number of Electrons    NEL             ....  154
 Basis Dimension        Dim             ....  828

ORBITAL ENERGIES
----------------

  NO   OCC          E(Eh)            E(eV)
   0   2.0000     -91.889103     -2500.4296
   1   2.0000     -20.598592      -560.5162
   2   2.0000     -20.597583      -560.4887
   3   2.0000     -20.541950      -558.9749
   4   2.0000     -15.629574      -425.3023
   5   2.0000     -15.608463      -424.7279
   6   2.0000     -11.394749      -310.0669
   7   2.0000     -11.384147      -309.7784
   8   2.0000     -11.336733      -308.4882
   9   2.0000     -11.315714      -307.9162
  10   2.0000     -11.309648      -307.7512
  11   2.0000     -11.293442      -307.3102
  12   2.0000     -11.261404      -306.4384
  13   2.0000     -11.259435      -306.3848
  14   2.0000     -11.257176      -306.3233
  15   2.0000     -11.252438      -306.1944
  16   2.0000     -11.244542      -305.9796
  17   2.0000     -11.239475      -305.8417
  18   2.0000     -11.239266      -305.8360
  19   2.0000     -11.220530      -305.3262
  20   2.0000      -8.894157      -242.0223
  21   2.0000      -6.575730      -178.9347
  22   2.0000      -6.573727      -178.8802
  23   2.0000      -6.573140      -178.8642
  24   2.0000      -1.449759       -39.4500
  25   2.0000      -1.418214       -38.5916
  26   2.0000      -1.353428       -36.8287
  27   2.0000      -1.340615       -36.4800
  28   2.0000      -1.239134       -33.7185
  29   2.0000      -1.158992       -31.5378
  30   2.0000      -1.120778       -30.4979
  31   2.0000      -1.043557       -28.3966
  32   2.0000      -1.034092       -28.1391
  33   2.0000      -1.016838       -27.6696
  34   2.0000      -0.996153       -27.1067
  35   2.0000      -0.984510       -26.7899
  36   2.0000      -0.923384       -25.1266
  37   2.0000      -0.891535       -24.2599
  38   2.0000      -0.847562       -23.0633
  39   2.0000      -0.839234       -22.8367
  40   2.0000      -0.835066       -22.7233
  41   2.0000      -0.814279       -22.1576
  42   2.0000      -0.757725       -20.6187
  43   2.0000      -0.733536       -19.9605
  44   2.0000      -0.722853       -19.6698
  45   2.0000      -0.697546       -18.9812
  46   2.0000      -0.689021       -18.7492
  47   2.0000      -0.678493       -18.4627
  48   2.0000      -0.669551       -18.2194
  49   2.0000      -0.664786       -18.0898
  50   2.0000      -0.648486       -17.6462
  51   2.0000      -0.642915       -17.4946
  52   2.0000      -0.634435       -17.2639
  53   2.0000      -0.609450       -16.5840
  54   2.0000      -0.602859       -16.4046
  55   2.0000      -0.600000       -16.3268
  56   2.0000      -0.599220       -16.3056
  57   2.0000      -0.579137       -15.7591
  58   2.0000      -0.570979       -15.5371
  59   2.0000      -0.566699       -15.4207
  60   2.0000      -0.558482       -15.1971
  61   2.0000      -0.545936       -14.8557
  62   2.0000      -0.535444       -14.5702
  63   2.0000      -0.528462       -14.3802
  64   2.0000      -0.526903       -14.3377
  65   2.0000      -0.513253       -13.9663
  66   2.0000      -0.502754       -13.6806
  67   2.0000      -0.498382       -13.5617
  68   2.0000      -0.479590       -13.0503
  69   2.0000      -0.463860       -12.6223
  70   2.0000      -0.452693       -12.3184
  71   2.0000      -0.446263       -12.1434
  72   2.0000      -0.355062        -9.6617
  73   2.0000      -0.351250        -9.5580
  74   2.0000      -0.328743        -8.9456
  75   2.0000      -0.323358        -8.7990
  76   2.0000      -0.316684        -8.6174
  77   0.0000       0.075362         2.0507
  78   0.0000       0.104572         2.8455
  79   0.0000       0.123505         3.3608
  80   0.0000       0.131845         3.5877
  81   0.0000       0.135989         3.7005

MULLIKEN ATOMIC CHARGES
-----------------------
   0 C :   -0.308074
   1 C :    0.024513
   2 O :   -0.362796
   3 C :    0.460431
   4 O :   -0.430090
   5 C :   -0.241050
   6 C :    0.157290
   7 C :   -0.269840
   8 N :   -0.123071
   9 C :    0.216405
  10 S :   -0.441011
  11 N :   -0.209014
  12 C :    0.064637
  13 C :    0.079811
  14 C :   -0.195658
  15 C :   -0.136811
  16 C :   -0.277996
  17 C :    0.319018
  18 O :   -0.358423
  19 C :   -0.265412
  20 H :    0.104703
  21 H :    0.108803
  22 H :    0.106508
  23 H :    0.105979
  24 H :    0.120504
  25 H :    0.131036
  26 H :    0.131994
  27 H :    0.095156
  28 H :    0.197529
  29 H :    0.195088
  30 H :    0.149307
  31 H :    0.147736
  32 H :    0.162467
  33 H :    0.131402
  34 H :    0.241459
  35 H :    0.167469
Sum of atomic charges:   -0.0000000

LOEWDIN ATOMIC CHARGES
----------------------
   0 C :    0.104161
   1 C :   -0.015538
   2 O :    0.302505
   3 C :   -0.415297
   4 O :    0.098400
   5 C :   -0.095364
   6 C :   -0.058417
   7 C :    0.131356
   8 N :    0.407143
   9 C :   -0.455073
  10 S :   -0.035537
  11 N :    0.396344
  12 C :   -0.052248
  13 C :   -0.035582
  14 C :    0.011087
  15 C :    0.040495
  16 C :   -0.002212
  17 C :   -0.188463
  18 O :    0.396130
  19 C :    0.032478
  20 H :   -0.026659
  21 H :   -0.027277
  22 H :   -0.027070
  23 H :   -0.026838
  24 H :   -0.028800
  25 H :   -0.004948
  26 H :   -0.003629
  27 H :   -0.023370
  28 H :   -0.057478
  29 H :   -0.065203
  30 H :   -0.009702
  31 H :   -0.030442
  32 H :   -0.020857
  33 H :   -0.035438
  34 H :   -0.153313
  35 H :   -0.025346

  Mayer bond orders larger than 0.100000
B(  0-C ,  1-C ) :   0.9632 B(  0-C , 20-H ) :   0.9724 B(  0-C , 21-H ) :   0.9780
B(  0-C , 22-H ) :   0.9751 B(  1-C ,  2-O ) :   0.8863 B(  1-C , 23-H ) :   0.9854
B(  1-C , 24-H ) :   0.9774 B(  2-O ,  3-C ) :   1.1562 B(  3-C ,  4-O ) :   1.9794
B(  3-C ,  5-C ) :   1.0572 B(  5-C ,  6-C ) :   1.6518 B(  5-C , 12-C ) :   0.9747
B(  6-C ,  7-C ) :   0.9673 B(  6-C ,  8-N ) :   1.1638 B(  7-C , 25-H ) :   0.9605
B(  7-C , 26-H ) :   0.9597 B(  7-C , 27-H ) :   0.9904 B(  8-N ,  9-C ) :   1.1832
B(  8-N , 28-H ) :   0.9477 B(  9-C , 10-S ) :   1.6032 B(  9-C , 11-N ) :   1.3085
B( 11-N , 12-C ) :   0.9707 B( 11-N , 29-H ) :   0.9519 B( 12-C , 13-C ) :   0.9411
B( 12-C , 30-H ) :   1.0023 B( 13-C , 14-C ) :   1.3514 B( 13-C , 19-C ) :   1.3714
B( 14-C , 15-C ) :   1.3907 B( 14-C , 31-H ) :   0.9738 B( 15-C , 16-C ) :   1.3598
B( 15-C , 32-H ) :   0.9713 B( 16-C , 17-C ) :   1.3319 B( 16-C , 33-H ) :   0.9850
B( 17-C , 18-O ) :   1.1103 B( 17-C , 19-C ) :   1.3686 B( 18-O , 34-H ) :   0.9794
B( 19-C , 35-H ) :   0.9584

MP2 TOTAL ENERGY:    -1274.349010051 Eh
FINAL SINGLE POINT ENERGY     -1274.349010051290

DIPOLE MOMENT
-------------
                                X             Y             Z
Electronic contribution:      8.78823      10.63141       5.83396
Nuclear contribution   :     -9.63346     -12.35107      -6.08499
                        -----------------------------------------
Total Dipole Moment    :     -0.84522      -1.71966      -0.25103
                        -----------------------------------------
Magnitude (a.u.)       :      1.93253
Magnitude (Debye)      :      4.91209

Rotational constants in cm-1:     0.012518     0.008831     0.006431
Rotational constants in MHz :   375.275090   264.754925   192.799603

                             ****ORCA TERMINATED NORMALLY****
TOTAL RUN TIME: 0 days 1 hours 47 minutes 56 seconds 363 msec
