                         Program Version 4.2.0 -  RELEASE  -
|  1> ! ri-mp2 cc-pvtz cc-pvtz/c TightSCF  NoKeepInts
|  2>
|  3> %scf
|  4>   MaxCore 4096
|  5> end
|  6> *xyz  0  1
|  7>     C       14.2572855   14.8220092   16.4962080
|  8>     C       15.4334485   15.6396538   17.0534313
|  9>     O       16.6001228   15.2728316   16.2926782
| 10>     C       17.8360550   15.8522949   16.4397786
| 11>     O       18.8309128   15.2217805   16.1339474
| 12>     C       17.9237887   16.9797396   17.4148897
| 13>     C       17.3780811   18.1935937   17.1719916
| 14>     C       16.6372562   18.6265437   15.9244316
| 15>     N       17.5568857   19.2319677   18.0882590
| 16>     C       18.3516630   19.1586901   19.2030176
| 17>     S       18.5579271   20.4551848   20.2081103
| 18>     N       18.9661295   17.9541581   19.4458491
| 19>     C       18.7599250   16.7169051   18.6659854
| 20>     C       18.1245422   15.6172703   19.5115243
| 21>     C       18.5553153   14.2854059   19.3707581
| 22>     C       17.9597565   13.2565691   20.1189892
| 23>     C       16.9210415   13.5600832   21.0151786
| 24>     C       16.4839903   14.8840409   21.1540736
| 25>     O       15.4708172   15.1787903   22.0066195
| 26>     C       17.0777155   15.9066338   20.4072073
| 27>     H       13.3355578   15.0464782   17.0466032
| 28>     H       14.4587618   13.7471703   16.5881571
| 29>     H       14.0918585   15.0525705   15.4364189
| 30>     H       15.1958692   16.7033877   16.9577545
| 31>     H       15.5793044   15.4020403   18.1151525
| 32>     H       16.5579484   17.8231258   15.1817630
| 33>     H       17.1593693   19.4587723   15.4349323
| 34>     H       15.6199162   18.9609454   16.1624433
| 35>     H       17.1320208   20.1301923   17.9178842
| 36>     H       19.5326491   17.9253673   20.2843528
| 37>     H       19.7480908   16.3628129   18.3362125
| 38>     H       19.3462873   14.0444299   18.6632094
| 39>     H       18.3000246   12.2296040   19.9962438
| 40>     H       16.4564027   12.7673124   21.5922389
| 41>     H       15.2325888   14.3607322   22.4688839
| 42>     H       16.7176906   16.9229125   20.5288213
| 43> *
| 44>
| 45>                          ****END OF INPUT****

CARTESIAN COORDINATES (ANGSTROEM)
---------------------------------
  C     14.257285   14.822009   16.496208
  C     15.433449   15.639654   17.053431
  O     16.600123   15.272832   16.292678
  C     17.836055   15.852295   16.439779
  O     18.830913   15.221780   16.133947
  C     17.923789   16.979740   17.414890
  C     17.378081   18.193594   17.171992
  C     16.637256   18.626544   15.924432
  N     17.556886   19.231968   18.088259
  C     18.351663   19.158690   19.203018
  S     18.557927   20.455185   20.208110
  N     18.966130   17.954158   19.445849
  C     18.759925   16.716905   18.665985
  C     18.124542   15.617270   19.511524
  C     18.555315   14.285406   19.370758
  C     17.959757   13.256569   20.118989
  C     16.921042   13.560083   21.015179
  C     16.483990   14.884041   21.154074
  O     15.470817   15.178790   22.006619
  C     17.077716   15.906634   20.407207
  H     13.335558   15.046478   17.046603
  H     14.458762   13.747170   16.588157
  H     14.091859   15.052570   15.436419
  H     15.195869   16.703388   16.957755
  H     15.579304   15.402040   18.115153
  H     16.557948   17.823126   15.181763
  H     17.159369   19.458772   15.434932
  H     15.619916   18.960945   16.162443
  H     17.132021   20.130192   17.917884
  H     19.532649   17.925367   20.284353
  H     19.748091   16.362813   18.336212
  H     19.346287   14.044430   18.663209
  H     18.300025   12.229604   19.996244
  H     16.456403   12.767312   21.592239
  H     15.232589   14.360732   22.468884
  H     16.717691   16.922912   20.528821

 Total Charge           Charge          ....    0
 Multiplicity           Mult            ....    1
 Number of Electrons    NEL             ....  154
 Basis Dimension        Dim             ....  828

ORBITAL ENERGIES
----------------

  NO   OCC          E(Eh)            E(eV)
   0   2.0000     -91.890206     -2500.4596
   1   2.0000     -20.600645      -560.5721
   2   2.0000     -20.600158      -560.5588
   3   2.0000     -20.550872      -559.2176
   4   2.0000     -15.627003      -425.2324
   5   2.0000     -15.611899      -424.8214
   6   2.0000     -11.397763      -310.1489
   7   2.0000     -11.387055      -309.8575
   8   2.0000     -11.329481      -308.2908
   9   2.0000     -11.317140      -307.9550
  10   2.0000     -11.315471      -307.9096
  11   2.0000     -11.302243      -307.5497
  12   2.0000     -11.270348      -306.6818
  13   2.0000     -11.264959      -306.5351
  14   2.0000     -11.264091      -306.5115
  15   2.0000     -11.257304      -306.3268
  16   2.0000     -11.246463      -306.0318
  17   2.0000     -11.242358      -305.9201
  18   2.0000     -11.239523      -305.8430
  19   2.0000     -11.233012      -305.6658
  20   2.0000      -8.895322      -242.0540
  21   2.0000      -6.576910      -178.9668
  22   2.0000      -6.574884      -178.9117
  23   2.0000      -6.574309      -178.8960
  24   2.0000      -1.448719       -39.4217
  25   2.0000      -1.419993       -38.6400
  26   2.0000      -1.360024       -37.0081
  27   2.0000      -1.340410       -36.4744
  28   2.0000      -1.240224       -33.7482
  29   2.0000      -1.161788       -31.6139
  30   2.0000      -1.126044       -30.6412
  31   2.0000      -1.049550       -28.5597
  32   2.0000      -1.040337       -28.3090
  33   2.0000      -1.019440       -27.7404
  34   2.0000      -1.005629       -27.3646
  35   2.0000      -0.989692       -26.9309
  36   2.0000      -0.928315       -25.2607
  37   2.0000      -0.880361       -23.9558
  38   2.0000      -0.855964       -23.2920
  39   2.0000      -0.842425       -22.9235
  40   2.0000      -0.837676       -22.7943
  41   2.0000      -0.836788       -22.7702
  42   2.0000      -0.757318       -20.6077
  43   2.0000      -0.739961       -20.1354
  44   2.0000      -0.732320       -19.9274
  45   2.0000      -0.697690       -18.9851
  46   2.0000      -0.688526       -18.7357
  47   2.0000      -0.681511       -18.5448
  48   2.0000      -0.677490       -18.4354
  49   2.0000      -0.664904       -18.0930
  50   2.0000      -0.654826       -17.8187
  51   2.0000      -0.651201       -17.7201
  52   2.0000      -0.639954       -17.4140
  53   2.0000      -0.612394       -16.6641
  54   2.0000      -0.608123       -16.5479
  55   2.0000      -0.604063       -16.4374
  56   2.0000      -0.595753       -16.2113
  57   2.0000      -0.585991       -15.9456
  58   2.0000      -0.578319       -15.7368
  59   2.0000      -0.570476       -15.5234
  60   2.0000      -0.563917       -15.3450
  61   2.0000      -0.558183       -15.1889
  62   2.0000      -0.550873       -14.9900
  63   2.0000      -0.526739       -14.3333
  64   2.0000      -0.522052       -14.2058
  65   2.0000      -0.515668       -14.0320
  66   2.0000      -0.505023       -13.7424
  67   2.0000      -0.502768       -13.6810
  68   2.0000      -0.488958       -13.3052
  69   2.0000      -0.469514       -12.7761
  70   2.0000      -0.454534       -12.3685
  71   2.0000      -0.450502       -12.2588
  72   2.0000      -0.357664        -9.7325
  73   2.0000      -0.351958        -9.5773
  74   2.0000      -0.329889        -8.9767
  75   2.0000      -0.325123        -8.8471
  76   2.0000      -0.318807        -8.6752
  77   0.0000       0.085816         2.3352
  78   0.0000       0.104648         2.8476
  79   0.0000       0.112421         3.0591
  80   0.0000       0.128261         3.4901
  81   0.0000       0.130235         3.5439

MULLIKEN ATOMIC CHARGES
-----------------------
   0 C :   -0.260183
   1 C :    0.019324
   2 O :   -0.306916
   3 C :    0.392019
   4 O :   -0.381168
   5 C :   -0.176391
   6 C :    0.129189
   7 C :   -0.323327
   8 N :   -0.136660
   9 C :    0.203901
  10 S :   -0.440784
  11 N :   -0.217811
  12 C :    0.073539
  13 C :    0.019988
  14 C :   -0.196628
  15 C :   -0.133090
  16 C :   -0.274217
  17 C :    0.323449
  18 O :   -0.358669
  19 C :   -0.284103
  20 H :    0.089410
  21 H :    0.107282
  22 H :    0.098017
  23 H :    0.083806
  24 H :    0.118276
  25 H :    0.124380
  26 H :    0.143242
  27 H :    0.118053
  28 H :    0.195571
  29 H :    0.199496
  30 H :    0.165359
  31 H :    0.170026
  32 H :    0.164229
  33 H :    0.132861
  34 H :    0.241572
  35 H :    0.176959
Sum of atomic charges:   -0.0000000

LOEWDIN ATOMIC CHARGES
----------------------
   0 C :    0.111584
   1 C :   -0.024057
   2 O :    0.306831
   3 C :   -0.415882
   4 O :    0.124692
   5 C :   -0.081005
   6 C :   -0.103953
   7 C :    0.122913
   8 N :    0.401469
   9 C :   -0.455848
  10 S :   -0.037608
  11 N :    0.397343
  12 C :   -0.043783
  13 C :   -0.044099
  14 C :    0.022155
  15 C :    0.045839
  16 C :   -0.000347
  17 C :   -0.194755
  18 O :    0.394982
  19 C :    0.026322
  20 H :   -0.025024
  21 H :   -0.022916
  22 H :   -0.026921
  23 H :   -0.038692
  24 H :   -0.029276
  25 H :   -0.008493
  26 H :   -0.008839
  27 H :   -0.017705
  28 H :   -0.057670
  29 H :   -0.063699
  30 H :   -0.002157
  31 H :   -0.021555
  32 H :   -0.018168
  33 H :   -0.034504
  34 H :   -0.152849
  35 H :   -0.024324

  Mayer bond orders larger than 0.100000
B(  0-C ,  1-C ) :   0.9850 B(  0-C , 20-H ) :   0.9770 B(  0-C , 21-H ) :   0.9789
B(  0-C , 22-H ) :   0.9786 B(  1-C ,  2-O ) :   0.9095 B(  1-C , 23-H ) :   0.9685
B(  1-C , 24-H ) :   0.9644 B(  2-O ,  3-C ) :   1.1876 B(  3-C ,  4-O ) :   2.0953
B(  3-C ,  5-C ) :   0.9187 B(  5-C ,  6-C ) :   1.6905 B(  5-C , 12-C ) :   0.9602
B(  6-C ,  7-C ) :   0.9423 B(  6-C ,  8-N ) :   1.1161 B(  7-C , 25-H ) :   0.9812
B(  7-C , 26-H ) :   0.9668 B(  7-C , 27-H ) :   0.9678 B(  8-N ,  9-C ) :   1.1961
B(  8-N , 28-H ) :   0.9525 B(  9-C , 10-S ) :   1.6107 B(  9-C , 11-N ) :   1.2876
B( 11-N , 12-C ) :   0.9943 B( 11-N , 29-H ) :   0.9484 B( 12-C , 13-C ) :   0.9426
B( 12-C , 30-H ) :   0.9973 B( 13-C , 14-C ) :   1.3877 B( 13-C , 19-C ) :   1.3459
B( 14-C , 15-C ) :   1.3973 B( 14-C , 31-H ) :   0.9604 B( 15-C , 16-C ) :   1.3635
B( 15-C , 32-H ) :   0.9698 B( 16-C , 17-C ) :   1.3293 B( 16-C , 33-H ) :   0.9843
B( 17-C , 18-O ) :   1.1088 B( 17-C , 19-C ) :   1.3639 B( 18-O , 34-H ) :   0.9791
B( 19-C , 35-H ) :   0.9591

MP2 TOTAL ENERGY:    -1274.332996012 Eh
FINAL SINGLE POINT ENERGY     -1274.332996011964

DIPOLE MOMENT
-------------
                                X             Y             Z
Electronic contribution:     11.72733       7.16916       7.32934
Nuclear contribution   :    -13.30347      -8.16277      -7.65900
                        -----------------------------------------
Total Dipole Moment    :     -1.57614      -0.99361      -0.32966
                        -----------------------------------------
Magnitude (a.u.)       :      1.89213
Magnitude (Debye)      :      4.80942

Rotational constants in cm-1:     0.011630     0.009125     0.006707
Rotational constants in MHz :   348.652307   273.552878   201.075960

                             ****ORCA TERMINATED NORMALLY****
TOTAL RUN TIME: 0 days 1 hours 44 minutes 19 seconds 956 msec
