                         Program Version 4.2.0 -  RELEASE  -
|  1> ! ri-mp2 cc-pvtz cc-pvtz/c TightSCF  NoKeepInts
|  2>
|  3> %scf
|  4>   MaxCore 4096
|  5> end
|  6> *xyz  0  1
|  7>     C       15.9241861   14.2402035   14.4374788
|  8>     C       15.0635454   14.9022225   15.5360121
|  9>     O       15.8145537   15.9133244   16.2400081
| 10>     C       16.9257228   15.6077145   16.9759675
| 11>     O       17.3089242   14.4621722   17.1476370
| 12>     C       17.5346845   16.7725373   17.7060682
| 13>     C       17.2714916   18.0827909   17.4548522
| 14>     C       16.3399473   18.6700392   16.4139423
| 15>     N       17.9578454   19.0762294   18.1617893
| 16>     C       19.0152274   18.8521321   19.0031761
| 17>     S       19.8613337   20.0957387   19.6911207
| 18>     N       19.3354448   17.5406031   19.2440187
| 19>     C       18.5320872   16.3845504   18.8046403
| 20>     C       17.8201360   15.7463611   19.9949163
| 21>     C       17.9780740   14.3748336   20.2672856
| 22>     C       17.3248515   13.7811275   21.3603305
| 23>     C       16.5054957   14.5650046   22.1902296
| 24>     C       16.3423021   15.9305567   21.9206326
| 25>     O       15.5470590   16.6890070   22.7167546
| 26>     C       16.9934742   16.5185612   20.8317204
| 27>     H       16.3963739   15.0003907   13.8032363
| 28>     H       15.2984733   13.6054938   13.7985111
| 29>     H       16.7099324   13.6046443   14.8627677
| 30>     H       14.1850997   15.3681731   15.0715764
| 31>     H       14.7084437   14.1368279   16.2393881
| 32>     H       15.2952094   18.4364409   16.6544170
| 33>     H       16.5591019   18.2607514   15.4199550
| 34>     H       16.4225439   19.7609709   16.3375717
| 35>     H       17.7371730   20.0455666   17.9989079
| 36>     H       20.0981258   17.4003435   19.8940267
| 37>     H       19.2247978   15.6428008   18.3813928
| 38>     H       18.5972542   13.7625525   19.6161646
| 39>     H       17.4503435   12.7177105   21.5555891
| 40>     H       15.9974900   14.1101295   23.0339448
| 41>     H       15.2144988   16.1157387   23.4234638
| 42>     H       16.8557522   17.5777550   20.6445061
| 43> *
| 44>
| 45>                          ****END OF INPUT****

CARTESIAN COORDINATES (ANGSTROEM)
---------------------------------
  C     15.924186   14.240203   14.437479
  C     15.063545   14.902222   15.536012
  O     15.814554   15.913324   16.240008
  C     16.925723   15.607715   16.975967
  O     17.308924   14.462172   17.147637
  C     17.534684   16.772537   17.706068
  C     17.271492   18.082791   17.454852
  C     16.339947   18.670039   16.413942
  N     17.957845   19.076229   18.161789
  C     19.015227   18.852132   19.003176
  S     19.861334   20.095739   19.691121
  N     19.335445   17.540603   19.244019
  C     18.532087   16.384550   18.804640
  C     17.820136   15.746361   19.994916
  C     17.978074   14.374834   20.267286
  C     17.324851   13.781128   21.360330
  C     16.505496   14.565005   22.190230
  C     16.342302   15.930557   21.920633
  O     15.547059   16.689007   22.716755
  C     16.993474   16.518561   20.831720
  H     16.396374   15.000391   13.803236
  H     15.298473   13.605494   13.798511
  H     16.709932   13.604644   14.862768
  H     14.185100   15.368173   15.071576
  H     14.708444   14.136828   16.239388
  H     15.295209   18.436441   16.654417
  H     16.559102   18.260751   15.419955
  H     16.422544   19.760971   16.337572
  H     17.737173   20.045567   17.998908
  H     20.098126   17.400344   19.894027
  H     19.224798   15.642801   18.381393
  H     18.597254   13.762552   19.616165
  H     17.450343   12.717710   21.555589
  H     15.997490   14.110129   23.033945
  H     15.214499   16.115739   23.423464
  H     16.855752   17.577755   20.644506

 Total Charge           Charge          ....    0
 Multiplicity           Mult            ....    1
 Number of Electrons    NEL             ....  154
 Basis Dimension        Dim             ....  828

ORBITAL ENERGIES
----------------

  NO   OCC          E(Eh)            E(eV)
   0   2.0000     -91.887824     -2500.3948
   1   2.0000     -20.603918      -560.6611
   2   2.0000     -20.590388      -560.2929
   3   2.0000     -20.545096      -559.0605
   4   2.0000     -15.628202      -425.2650
   5   2.0000     -15.606303      -424.6691
   6   2.0000     -11.397220      -310.1341
   7   2.0000     -11.382584      -309.7358
   8   2.0000     -11.336498      -308.4818
   9   2.0000     -11.306170      -307.6565
  10   2.0000     -11.304878      -307.6214
  11   2.0000     -11.303246      -307.5770
  12   2.0000     -11.260578      -306.4159
  13   2.0000     -11.258678      -306.3642
  14   2.0000     -11.252241      -306.1890
  15   2.0000     -11.246336      -306.0283
  16   2.0000     -11.235974      -305.7464
  17   2.0000     -11.232133      -305.6419
  18   2.0000     -11.229113      -305.5597
  19   2.0000     -11.226267      -305.4823
  20   2.0000      -8.892886      -241.9877
  21   2.0000      -6.574463      -178.9002
  22   2.0000      -6.572457      -178.8457
  23   2.0000      -6.571871      -178.8297
  24   2.0000      -1.452277       -39.5185
  25   2.0000      -1.410118       -38.3713
  26   2.0000      -1.357354       -36.9355
  27   2.0000      -1.339145       -36.4400
  28   2.0000      -1.236624       -33.6502
  29   2.0000      -1.150954       -31.3190
  30   2.0000      -1.118815       -30.4445
  31   2.0000      -1.041478       -28.3401
  32   2.0000      -1.034364       -28.1465
  33   2.0000      -1.008266       -27.4363
  34   2.0000      -0.996679       -27.1210
  35   2.0000      -0.982330       -26.7305
  36   2.0000      -0.920819       -25.0568
  37   2.0000      -0.895834       -24.3769
  38   2.0000      -0.847533       -23.0625
  39   2.0000      -0.834692       -22.7131
  40   2.0000      -0.826617       -22.4934
  41   2.0000      -0.816491       -22.2178
  42   2.0000      -0.750669       -20.4267
  43   2.0000      -0.733311       -19.9544
  44   2.0000      -0.723928       -19.6991
  45   2.0000      -0.689985       -18.7754
  46   2.0000      -0.684463       -18.6252
  47   2.0000      -0.678953       -18.4753
  48   2.0000      -0.670589       -18.2477
  49   2.0000      -0.661369       -17.9968
  50   2.0000      -0.646192       -17.5838
  51   2.0000      -0.641603       -17.4589
  52   2.0000      -0.631391       -17.1810
  53   2.0000      -0.612817       -16.6756
  54   2.0000      -0.599467       -16.3123
  55   2.0000      -0.598333       -16.2815
  56   2.0000      -0.593571       -16.1519
  57   2.0000      -0.584917       -15.9164
  58   2.0000      -0.571947       -15.5635
  59   2.0000      -0.565599       -15.3907
  60   2.0000      -0.559862       -15.2346
  61   2.0000      -0.544992       -14.8300
  62   2.0000      -0.535668       -14.5763
  63   2.0000      -0.525143       -14.2899
  64   2.0000      -0.516042       -14.0422
  65   2.0000      -0.510744       -13.8981
  66   2.0000      -0.500071       -13.6076
  67   2.0000      -0.494729       -13.4623
  68   2.0000      -0.480003       -13.0615
  69   2.0000      -0.463057       -12.6004
  70   2.0000      -0.456322       -12.4171
  71   2.0000      -0.452596       -12.3158
  72   2.0000      -0.354002        -9.6329
  73   2.0000      -0.342860        -9.3297
  74   2.0000      -0.326903        -8.8955
  75   2.0000      -0.315123        -8.5749
  76   2.0000      -0.312582        -8.5058
  77   0.0000       0.076433         2.0798
  78   0.0000       0.114882         3.1261
  79   0.0000       0.120741         3.2855
  80   0.0000       0.136914         3.7256
  81   0.0000       0.140926         3.8348

MULLIKEN ATOMIC CHARGES
-----------------------
   0 C :   -0.305994
   1 C :    0.038921
   2 O :   -0.345810
   3 C :    0.451028
   4 O :   -0.439501
   5 C :   -0.170948
   6 C :    0.148282
   7 C :   -0.285556
   8 N :   -0.120269
   9 C :    0.200782
  10 S :   -0.439377
  11 N :   -0.195767
  12 C :    0.031949
  13 C :    0.058707
  14 C :   -0.159962
  15 C :   -0.133873
  16 C :   -0.278635
  17 C :    0.311644
  18 O :   -0.359226
  19 C :   -0.271227
  20 H :    0.089698
  21 H :    0.097412
  22 H :    0.127709
  23 H :    0.107435
  24 H :    0.101158
  25 H :    0.129959
  26 H :    0.124059
  27 H :    0.101983
  28 H :    0.196630
  29 H :    0.193228
  30 H :    0.153067
  31 H :    0.152519
  32 H :    0.158446
  33 H :    0.127549
  34 H :    0.239870
  35 H :    0.164110
Sum of atomic charges:   -0.0000000

LOEWDIN ATOMIC CHARGES
----------------------
   0 C :    0.104548
   1 C :   -0.014113
   2 O :    0.302573
   3 C :   -0.413051
   4 O :    0.104540
   5 C :   -0.090163
   6 C :   -0.064555
   7 C :    0.124690
   8 N :    0.404888
   9 C :   -0.459186
  10 S :   -0.036045
  11 N :    0.397964
  12 C :   -0.046562
  13 C :   -0.038569
  14 C :    0.022071
  15 C :    0.040860
  16 C :   -0.002217
  17 C :   -0.192315
  18 O :    0.392986
  19 C :    0.028754
  20 H :   -0.031185
  21 H :   -0.026932
  22 H :   -0.025294
  23 H :   -0.024883
  24 H :   -0.026878
  25 H :   -0.009024
  26 H :   -0.009576
  27 H :   -0.021274
  28 H :   -0.059276
  29 H :   -0.063621
  30 H :   -0.005321
  31 H :   -0.025589
  32 H :   -0.021417
  33 H :   -0.036522
  34 H :   -0.155056
  35 H :   -0.025252

  Mayer bond orders larger than 0.100000
B(  0-C ,  1-C ) :   0.9643 B(  0-C , 20-H ) :   0.9764 B(  0-C , 21-H ) :   0.9771
B(  0-C , 22-H ) :   0.9714 B(  1-C ,  2-O ) :   0.9037 B(  1-C , 23-H ) :   0.9846
B(  1-C , 24-H ) :   0.9788 B(  2-O ,  3-C ) :   1.1637 B(  3-C ,  4-O ) :   1.9491
B(  3-C ,  5-C ) :   1.0713 B(  5-C ,  6-C ) :   1.6420 B(  5-C , 12-C ) :   0.9674
B(  6-C ,  7-C ) :   0.9552 B(  6-C ,  8-N ) :   1.1539 B(  7-C , 25-H ) :   0.9631
B(  7-C , 26-H ) :   0.9657 B(  7-C , 27-H ) :   0.9918 B(  8-N ,  9-C ) :   1.1770
B(  8-N , 28-H ) :   0.9488 B(  9-C , 10-S ) :   1.6107 B(  9-C , 11-N ) :   1.3048
B( 11-N , 12-C ) :   0.9939 B( 11-N , 29-H ) :   0.9520 B( 12-C , 13-C ) :   0.9472
B( 12-C , 30-H ) :   1.0006 B( 13-C , 14-C ) :   1.3744 B( 13-C , 19-C ) :   1.3702
B( 14-C , 15-C ) :   1.3948 B( 14-C , 31-H ) :   0.9655 B( 15-C , 16-C ) :   1.3626
B( 15-C , 32-H ) :   0.9716 B( 16-C , 17-C ) :   1.3316 B( 16-C , 33-H ) :   0.9862
B( 17-C , 18-O ) :   1.1078 B( 17-C , 19-C ) :   1.3797 B( 18-O , 34-H ) :   0.9808
B( 19-C , 35-H ) :   0.9583

MP2 TOTAL ENERGY:    -1274.347026268 Eh
FINAL SINGLE POINT ENERGY     -1274.347026267985

DIPOLE MOMENT
-------------
                                X             Y             Z
Electronic contribution:      9.22674       9.01214      12.40055
Nuclear contribution   :    -10.89662     -10.08424     -13.39637
                        -----------------------------------------
Total Dipole Moment    :     -1.66988      -1.07210      -0.99582
                        -----------------------------------------
Magnitude (a.u.)       :      2.22026
Magnitude (Debye)      :      5.64345

Rotational constants in cm-1:     0.010571     0.008747     0.005733
Rotational constants in MHz :   316.922076   262.237186   171.885389

                             ****ORCA TERMINATED NORMALLY****
TOTAL RUN TIME: 0 days 1 hours 36 minutes 29 seconds 281 msec
