                         Program Version 4.2.0 -  RELEASE  -
|  1> ! ri-mp2 cc-pvtz cc-pvtz/c TightSCF  NoKeepInts
|  2>
|  3> %scf
|  4>   MaxCore 4096
|  5> end
|  6> *xyz  0  1
|  7>     C       14.7141766   14.3473908   16.8835269
|  8>     C       15.5280727   15.6366576   16.6897839
|  9>     O       16.7791856   15.2551151   16.0820758
| 10>     C       18.0023184   15.6293520   16.5777633
| 11>     O       18.9314421   14.8430963   16.5676888
| 12>     C       18.0467923   16.8756537   17.4048538
| 13>     C       17.5466322   18.0645263   16.9916604
| 14>     C       16.9238591   18.3820042   15.6489090
| 15>     N       17.6611475   19.1890760   17.8121786
| 16>     C       18.3462818   19.2232769   18.9989454
| 17>     S       18.4860882   20.6151885   19.8802825
| 18>     N       18.9059727   18.0427577   19.4222717
| 19>     C       18.7407078   16.7342390   18.7588506
| 20>     C       17.9701078   15.7567440   19.6415562
| 21>     C       18.4136575   14.4290785   19.7818103
| 22>     C       17.6910053   13.5107480   20.5613989
| 23>     C       16.5110287   13.9212231   21.2044617
| 24>     C       16.0619958   15.2408498   21.0623328
| 25>     O       14.9149954   15.6371571   21.6687502
| 26>     C       16.7836728   16.1533346   20.2863559
| 27>     H       15.2462181   13.6544904   17.5482357
| 28>     H       14.5480914   13.8450717   15.9222914
| 29>     H       13.7378121   14.5697581   17.3307935
| 30>     H       14.9796055   16.3272436   16.0373744
| 31>     H       15.6654745   16.1062282   17.6717324
| 32>     H       17.0898842   17.5842981   14.9144298
| 33>     H       17.3606898   19.2931316   15.2203676
| 34>     H       15.8426823   18.5402201   15.7405636
| 35>     H       17.2699745   20.0689492   17.5137433
| 36>     H       19.3867576   18.0930582   20.3117129
| 37>     H       19.7440821   16.3199560   18.5799823
| 38>     H       19.3142373   14.1021604   19.2661201
| 39>     H       18.0428027   12.4847828   20.6564565
| 40>     H       15.9478842   13.2133388   21.8036764
| 41>     H       14.5964620   14.8927866   22.2017568
| 42>     H       16.4152014   17.1690573   20.1893065
| 43> *
| 44>
| 45>                          ****END OF INPUT****

CARTESIAN COORDINATES (ANGSTROEM)
---------------------------------
  C     14.714177   14.347391   16.883527
  C     15.528073   15.636658   16.689784
  O     16.779186   15.255115   16.082076
  C     18.002318   15.629352   16.577763
  O     18.931442   14.843096   16.567689
  C     18.046792   16.875654   17.404854
  C     17.546632   18.064526   16.991660
  C     16.923859   18.382004   15.648909
  N     17.661147   19.189076   17.812179
  C     18.346282   19.223277   18.998945
  S     18.486088   20.615188   19.880282
  N     18.905973   18.042758   19.422272
  C     18.740708   16.734239   18.758851
  C     17.970108   15.756744   19.641556
  C     18.413657   14.429078   19.781810
  C     17.691005   13.510748   20.561399
  C     16.511029   13.921223   21.204462
  C     16.061996   15.240850   21.062333
  O     14.914995   15.637157   21.668750
  C     16.783673   16.153335   20.286356
  H     15.246218   13.654490   17.548236
  H     14.548091   13.845072   15.922291
  H     13.737812   14.569758   17.330793
  H     14.979605   16.327244   16.037374
  H     15.665475   16.106228   17.671732
  H     17.089884   17.584298   14.914430
  H     17.360690   19.293132   15.220368
  H     15.842682   18.540220   15.740564
  H     17.269975   20.068949   17.513743
  H     19.386758   18.093058   20.311713
  H     19.744082   16.319956   18.579982
  H     19.314237   14.102160   19.266120
  H     18.042803   12.484783   20.656457
  H     15.947884   13.213339   21.803676
  H     14.596462   14.892787   22.201757
  H     16.415201   17.169057   20.189307

 Total Charge           Charge          ....    0
 Multiplicity           Mult            ....    1
 Number of Electrons    NEL             ....  154
 Basis Dimension        Dim             ....  828

ORBITAL ENERGIES
----------------

  NO   OCC          E(Eh)            E(eV)
   0   2.0000     -91.890972     -2500.4805
   1   2.0000     -20.600114      -560.5576
   2   2.0000     -20.599406      -560.5383
   3   2.0000     -20.549070      -559.1686
   4   2.0000     -15.629048      -425.2880
   5   2.0000     -15.611792      -424.8185
   6   2.0000     -11.397135      -310.1318
   7   2.0000     -11.387475      -309.8689
   8   2.0000     -11.333236      -308.3930
   9   2.0000     -11.316939      -307.9496
  10   2.0000     -11.313486      -307.8556
  11   2.0000     -11.303797      -307.5920
  12   2.0000     -11.268081      -306.6201
  13   2.0000     -11.264674      -306.5274
  14   2.0000     -11.263263      -306.4890
  15   2.0000     -11.256640      -306.3087
  16   2.0000     -11.246100      -306.0219
  17   2.0000     -11.242618      -305.9272
  18   2.0000     -11.239035      -305.8297
  19   2.0000     -11.229321      -305.5654
  20   2.0000      -8.896072      -242.0744
  21   2.0000      -6.577655      -178.9871
  22   2.0000      -6.575635      -178.9321
  23   2.0000      -6.575055      -178.9163
  24   2.0000      -1.447805       -39.3968
  25   2.0000      -1.419915       -38.6379
  26   2.0000      -1.359371       -36.9904
  27   2.0000      -1.341690       -36.5092
  28   2.0000      -1.240807       -33.7641
  29   2.0000      -1.161474       -31.6053
  30   2.0000      -1.125664       -30.6309
  31   2.0000      -1.048882       -28.5415
  32   2.0000      -1.038378       -28.2557
  33   2.0000      -1.018925       -27.7263
  34   2.0000      -1.005426       -27.3590
  35   2.0000      -0.989698       -26.9310
  36   2.0000      -0.928020       -25.2527
  37   2.0000      -0.881346       -23.9826
  38   2.0000      -0.856233       -23.2993
  39   2.0000      -0.842749       -22.9324
  40   2.0000      -0.837132       -22.7795
  41   2.0000      -0.836336       -22.7579
  42   2.0000      -0.755060       -20.5462
  43   2.0000      -0.740539       -20.1511
  44   2.0000      -0.731557       -19.9067
  45   2.0000      -0.698168       -18.9981
  46   2.0000      -0.688511       -18.7353
  47   2.0000      -0.680572       -18.5193
  48   2.0000      -0.677667       -18.4403
  49   2.0000      -0.660774       -17.9806
  50   2.0000      -0.658106       -17.9080
  51   2.0000      -0.649934       -17.6856
  52   2.0000      -0.641066       -17.4443
  53   2.0000      -0.611528       -16.6405
  54   2.0000      -0.608342       -16.5538
  55   2.0000      -0.603940       -16.4340
  56   2.0000      -0.596065       -16.2197
  57   2.0000      -0.582349       -15.8465
  58   2.0000      -0.578741       -15.7484
  59   2.0000      -0.571564       -15.5530
  60   2.0000      -0.563218       -15.3259
  61   2.0000      -0.560113       -15.2414
  62   2.0000      -0.548040       -14.9129
  63   2.0000      -0.527073       -14.3424
  64   2.0000      -0.517496       -14.0818
  65   2.0000      -0.515935       -14.0393
  66   2.0000      -0.502871       -13.6838
  67   2.0000      -0.500518       -13.6198
  68   2.0000      -0.489738       -13.3265
  69   2.0000      -0.472152       -12.8479
  70   2.0000      -0.454768       -12.3749
  71   2.0000      -0.450412       -12.2563
  72   2.0000      -0.357523        -9.7287
  73   2.0000      -0.352283        -9.5861
  74   2.0000      -0.330508        -8.9936
  75   2.0000      -0.324420        -8.8279
  76   2.0000      -0.319327        -8.6893
  77   0.0000       0.079461         2.1622
  78   0.0000       0.103350         2.8123
  79   0.0000       0.115864         3.1528
  80   0.0000       0.128046         3.4843
  81   0.0000       0.134784         3.6677

MULLIKEN ATOMIC CHARGES
-----------------------
   0 C :   -0.253090
   1 C :    0.003789
   2 O :   -0.319228
   3 C :    0.415020
   4 O :   -0.385702
   5 C :   -0.221379
   6 C :    0.159393
   7 C :   -0.329407
   8 N :   -0.134332
   9 C :    0.200970
  10 S :   -0.438846
  11 N :   -0.210592
  12 C :    0.074075
  13 C :    0.034643
  14 C :   -0.191115
  15 C :   -0.130937
  16 C :   -0.277389
  17 C :    0.323407
  18 O :   -0.357996
  19 C :   -0.302573
  20 H :    0.107374
  21 H :    0.102454
  22 H :    0.088154
  23 H :    0.098210
  24 H :    0.109180
  25 H :    0.136902
  26 H :    0.134869
  27 H :    0.121806
  28 H :    0.197205
  29 H :    0.197479
  30 H :    0.162702
  31 H :    0.167536
  32 H :    0.164193
  33 H :    0.132291
  34 H :    0.241815
  35 H :    0.179121
Sum of atomic charges:    0.0000000

LOEWDIN ATOMIC CHARGES
----------------------
   0 C :    0.110633
   1 C :   -0.022003
   2 O :    0.304683
   3 C :   -0.416771
   4 O :    0.122221
   5 C :   -0.087210
   6 C :   -0.092366
   7 C :    0.125698
   8 N :    0.402573
   9 C :   -0.456956
  10 S :   -0.035930
  11 N :    0.397127
  12 C :   -0.045293
  13 C :   -0.044185
  14 C :    0.022967
  15 C :    0.045152
  16 C :   -0.000048
  17 C :   -0.194092
  18 O :    0.394380
  19 C :    0.026091
  20 H :   -0.021821
  21 H :   -0.025670
  22 H :   -0.026203
  23 H :   -0.035745
  24 H :   -0.035685
  25 H :   -0.006904
  26 H :   -0.011000
  27 H :   -0.017585
  28 H :   -0.057171
  29 H :   -0.063494
  30 H :   -0.002658
  31 H :   -0.021752
  32 H :   -0.018555
  33 H :   -0.034649
  34 H :   -0.152858
  35 H :   -0.024923

  Mayer bond orders larger than 0.100000
B(  0-C ,  1-C ) :   0.9869 B(  0-C , 20-H ) :   0.9761 B(  0-C , 21-H ) :   0.9797
B(  0-C , 22-H ) :   0.9768 B(  1-C ,  2-O ) :   0.8984 B(  1-C , 23-H ) :   0.9763
B(  1-C , 24-H ) :   0.9581 B(  2-O ,  3-C ) :   1.1894 B(  3-C ,  4-O ) :   2.0853
B(  3-C ,  5-C ) :   0.9352 B(  5-C ,  6-C ) :   1.6772 B(  5-C , 12-C ) :   0.9580
B(  6-C ,  7-C ) :   0.9400 B(  6-C ,  8-N ) :   1.1274 B(  7-C , 25-H ) :   0.9771
B(  7-C , 26-H ) :   0.9730 B(  7-C , 27-H ) :   0.9659 B(  8-N ,  9-C ) :   1.1904
B(  8-N , 28-H ) :   0.9516 B(  9-C , 10-S ) :   1.6136 B(  9-C , 11-N ) :   1.2911
B( 11-N , 12-C ) :   0.9980 B( 11-N , 29-H ) :   0.9499 B( 12-C , 13-C ) :   0.9408
B( 12-C , 30-H ) :   0.9977 B( 13-C , 14-C ) :   1.3884 B( 13-C , 19-C ) :   1.3422
B( 14-C , 15-C ) :   1.3957 B( 14-C , 31-H ) :   0.9603 B( 15-C , 16-C ) :   1.3633
B( 15-C , 32-H ) :   0.9698 B( 16-C , 17-C ) :   1.3299 B( 16-C , 33-H ) :   0.9844
B( 17-C , 18-O ) :   1.1106 B( 17-C , 19-C ) :   1.3649 B( 18-O , 34-H ) :   0.9792
B( 19-C , 35-H ) :   0.9565

MP2 TOTAL ENERGY:    -1274.336718531 Eh
FINAL SINGLE POINT ENERGY     -1274.336718531273

DIPOLE MOMENT
-------------
                                X             Y             Z
Electronic contribution:     10.58230       8.42653       6.60264
Nuclear contribution   :    -12.09076      -9.36140      -6.96348
                        -----------------------------------------
Total Dipole Moment    :     -1.50846      -0.93487      -0.36084
                        -----------------------------------------
Magnitude (a.u.)       :      1.81098
Magnitude (Debye)      :      4.60314

Rotational constants in cm-1:     0.012062     0.009116     0.006796
Rotational constants in MHz :   361.609678   273.280262   203.745343

                             ****ORCA TERMINATED NORMALLY****
TOTAL RUN TIME: 0 days 1 hours 49 minutes 22 seconds 183 msec
