                         Program Version 4.2.0 -  RELEASE  -
|  1> ! ri-mp2 cc-pvtz cc-pvtz/c TightSCF  NoKeepInts
|  2>
|  3> %scf
|  4>   MaxCore 4096
|  5> end
|  6> *xyz  0  1
|  7>     C       14.5742666   14.3543596   15.9567563
|  8>     C       15.6407549   14.9433475   16.8943116
|  9>     O       16.6544172   15.5445581   16.0714333
| 10>     C       17.9013218   15.6373678   16.6103218
| 11>     O       18.5372015   14.6281505   16.8607993
| 12>     C       18.0536868   16.8772683   17.4365829
| 13>     C       17.5560670   18.0841089   17.0706179
| 14>     C       16.8194856   18.4190343   15.7907378
| 15>     N       17.7692537   19.1998098   17.8854098
| 16>     C       18.5677185   19.2119301   18.9993940
| 17>     S       18.8514995   20.6005706   19.8514358
| 18>     N       19.1180860   18.0111512   19.3738543
| 19>     C       18.8038873   16.7067798   18.7594732
| 20>     C       17.9929149   15.8401828   19.7191554
| 21>     C       18.4226494   14.5403749   20.0433746
| 22>     C       17.6658057   13.7298986   20.9059513
| 23>     C       16.4666411   14.2217522   21.4487942
| 24>     C       16.0326921   15.5141768   21.1250122
| 25>     O       14.8689078   15.9880609   21.6365077
| 26>     C       16.7878029   16.3183462   20.2657717
| 27>     H       15.0190833   13.6024236   15.2927479
| 28>     H       14.1245780   15.1407527   15.3381791
| 29>     H       13.7769975   13.8724132   16.5354980
| 30>     H       15.1995295   15.6878525   17.5700741
| 31>     H       16.0653172   14.1314776   17.5021847
| 32>     H       17.2617908   17.8962202   14.9333034
| 33>     H       16.8483268   19.4910823   15.5603958
| 34>     H       15.7668706   18.1173884   15.8585499
| 35>     H       17.3758273   20.0906846   17.6264051
| 36>     H       19.6795355   18.0440415   20.2152392
| 37>     H       19.7543458   16.1962945   18.5461188
| 38>     H       19.3388592   14.1494972   19.6069609
| 39>     H       18.0069045   12.7237543   21.1437574
| 40>     H       15.8778244   13.5975903   22.1128565
| 41>     H       14.5316705   15.3228354   22.2555685
| 42>     H       16.4344788   17.3164625   20.0304653
| 43> *
| 44>
| 45>                          ****END OF INPUT****

CARTESIAN COORDINATES (ANGSTROEM)
---------------------------------
  C     14.574267   14.354360   15.956756
  C     15.640755   14.943347   16.894312
  O     16.654417   15.544558   16.071433
  C     17.901322   15.637368   16.610322
  O     18.537201   14.628151   16.860799
  C     18.053687   16.877268   17.436583
  C     17.556067   18.084109   17.070618
  C     16.819486   18.419034   15.790738
  N     17.769254   19.199810   17.885410
  C     18.567718   19.211930   18.999394
  S     18.851499   20.600571   19.851436
  N     19.118086   18.011151   19.373854
  C     18.803887   16.706780   18.759473
  C     17.992915   15.840183   19.719155
  C     18.422649   14.540375   20.043375
  C     17.665806   13.729899   20.905951
  C     16.466641   14.221752   21.448794
  C     16.032692   15.514177   21.125012
  O     14.868908   15.988061   21.636508
  C     16.787803   16.318346   20.265772
  H     15.019083   13.602424   15.292748
  H     14.124578   15.140753   15.338179
  H     13.776997   13.872413   16.535498
  H     15.199529   15.687852   17.570074
  H     16.065317   14.131478   17.502185
  H     17.261791   17.896220   14.933303
  H     16.848327   19.491082   15.560396
  H     15.766871   18.117388   15.858550
  H     17.375827   20.090685   17.626405
  H     19.679536   18.044041   20.215239
  H     19.754346   16.196295   18.546119
  H     19.338859   14.149497   19.606961
  H     18.006905   12.723754   21.143757
  H     15.877824   13.597590   22.112856
  H     14.531670   15.322835   22.255568
  H     16.434479   17.316463   20.030465

 Total Charge           Charge          ....    0
 Multiplicity           Mult            ....    1
 Number of Electrons    NEL             ....  154
 Basis Dimension        Dim             ....  828

ORBITAL ENERGIES
----------------

  NO   OCC          E(Eh)            E(eV)
   0   2.0000     -91.889629     -2500.4439
   1   2.0000     -20.597273      -560.4803
   2   2.0000     -20.581995      -560.0646
   3   2.0000     -20.557322      -559.3932
   4   2.0000     -15.629247      -425.2934
   5   2.0000     -15.609174      -424.7472
   6   2.0000     -11.393743      -310.0395
   7   2.0000     -11.385222      -309.8076
   8   2.0000     -11.333719      -308.4062
   9   2.0000     -11.313344      -307.8517
  10   2.0000     -11.309535      -307.7481
  11   2.0000     -11.298483      -307.4474
  12   2.0000     -11.261735      -306.4474
  13   2.0000     -11.259653      -306.3907
  14   2.0000     -11.258762      -306.3665
  15   2.0000     -11.253454      -306.2220
  16   2.0000     -11.243167      -305.9421
  17   2.0000     -11.238911      -305.8263
  18   2.0000     -11.236170      -305.7517
  19   2.0000     -11.229616      -305.5734
  20   2.0000      -8.894702      -242.0371
  21   2.0000      -6.576279      -178.9497
  22   2.0000      -6.574270      -178.8950
  23   2.0000      -6.573685      -178.8791
  24   2.0000      -1.453216       -39.5440
  25   2.0000      -1.417058       -38.5601
  26   2.0000      -1.357355       -36.9355
  27   2.0000      -1.340313       -36.4718
  28   2.0000      -1.238621       -33.7046
  29   2.0000      -1.157524       -31.4978
  30   2.0000      -1.122215       -30.5370
  31   2.0000      -1.045676       -28.4543
  32   2.0000      -1.034391       -28.1472
  33   2.0000      -1.014986       -27.6192
  34   2.0000      -1.000336       -27.2205
  35   2.0000      -0.985816       -26.8254
  36   2.0000      -0.924343       -25.1527
  37   2.0000      -0.878506       -23.9054
  38   2.0000      -0.849962       -23.1286
  39   2.0000      -0.840270       -22.8649
  40   2.0000      -0.833556       -22.6822
  41   2.0000      -0.829792       -22.5798
  42   2.0000      -0.756845       -20.5948
  43   2.0000      -0.735812       -20.0225
  44   2.0000      -0.729451       -19.8494
  45   2.0000      -0.695144       -18.9158
  46   2.0000      -0.687329       -18.7032
  47   2.0000      -0.681380       -18.5413
  48   2.0000      -0.674851       -18.3636
  49   2.0000      -0.659099       -17.9350
  50   2.0000      -0.648985       -17.6598
  51   2.0000      -0.641872       -17.4662
  52   2.0000      -0.632062       -17.1993
  53   2.0000      -0.620226       -16.8772
  54   2.0000      -0.605761       -16.4836
  55   2.0000      -0.604080       -16.4379
  56   2.0000      -0.600755       -16.3474
  57   2.0000      -0.579913       -15.7802
  58   2.0000      -0.576866       -15.6973
  59   2.0000      -0.564440       -15.3592
  60   2.0000      -0.558530       -15.1984
  61   2.0000      -0.550783       -14.9876
  62   2.0000      -0.535382       -14.5685
  63   2.0000      -0.522852       -14.2275
  64   2.0000      -0.516395       -14.0518
  65   2.0000      -0.513214       -13.9653
  66   2.0000      -0.503645       -13.7049
  67   2.0000      -0.498424       -13.5628
  68   2.0000      -0.482763       -13.1366
  69   2.0000      -0.465517       -12.6674
  70   2.0000      -0.458886       -12.4869
  71   2.0000      -0.453025       -12.3274
  72   2.0000      -0.355279        -9.6676
  73   2.0000      -0.349040        -9.4979
  74   2.0000      -0.328943        -8.9510
  75   2.0000      -0.320632        -8.7248
  76   2.0000      -0.316640        -8.6162
  77   0.0000       0.069553         1.8926
  78   0.0000       0.103017         2.8032
  79   0.0000       0.117307         3.1921
  80   0.0000       0.131052         3.5661
  81   0.0000       0.134242         3.6529

MULLIKEN ATOMIC CHARGES
-----------------------
   0 C :   -0.255611
   1 C :    0.027846
   2 O :   -0.374494
   3 C :    0.466223
   4 O :   -0.390912
   5 C :   -0.221653
   6 C :    0.145626
   7 C :   -0.280783
   8 N :   -0.124965
   9 C :    0.202079
  10 S :   -0.438626
  11 N :   -0.201569
  12 C :    0.051904
  13 C :    0.048656
  14 C :   -0.163710
  15 C :   -0.133958
  16 C :   -0.279802
  17 C :    0.315715
  18 O :   -0.359505
  19 C :   -0.292873
  20 H :    0.104410
  21 H :    0.090782
  22 H :    0.088592
  23 H :    0.094551
  24 H :    0.114881
  25 H :    0.125453
  26 H :    0.106948
  27 H :    0.123285
  28 H :    0.197224
  29 H :    0.194263
  30 H :    0.155803
  31 H :    0.158349
  32 H :    0.161709
  33 H :    0.131313
  34 H :    0.241352
  35 H :    0.171498
Sum of atomic charges:   -0.0000000

LOEWDIN ATOMIC CHARGES
----------------------
   0 C :    0.110187
   1 C :   -0.019000
   2 O :    0.288993
   3 C :   -0.420094
   4 O :    0.133896
   5 C :   -0.094787
   6 C :   -0.076456
   7 C :    0.126672
   8 N :    0.404083
   9 C :   -0.457346
  10 S :   -0.035558
  11 N :    0.396950
  12 C :   -0.045541
  13 C :   -0.041165
  14 C :    0.021626
  15 C :    0.041899
  16 C :   -0.001976
  17 C :   -0.194770
  18 O :    0.393417
  19 C :    0.028912
  20 H :   -0.022741
  21 H :   -0.029784
  22 H :   -0.025340
  23 H :   -0.036388
  24 H :   -0.023847
  25 H :   -0.007286
  26 H :   -0.018864
  27 H :   -0.010521
  28 H :   -0.058601
  29 H :   -0.064065
  30 H :   -0.004379
  31 H :   -0.024225
  32 H :   -0.019984
  33 H :   -0.035354
  34 H :   -0.153573
  35 H :   -0.024989

  Mayer bond orders larger than 0.100000
B(  0-C ,  1-C ) :   0.9803 B(  0-C , 20-H ) :   0.9785 B(  0-C , 21-H ) :   0.9799
B(  0-C , 22-H ) :   0.9764 B(  1-C ,  2-O ) :   0.8820 B(  1-C , 23-H ) :   0.9706
B(  1-C , 24-H ) :   0.9712 B(  2-O ,  3-C ) :   1.0990 B(  3-C ,  4-O ) :   2.0487
B(  3-C ,  5-C ) :   1.0042 B(  5-C ,  6-C ) :   1.6659 B(  5-C , 12-C ) :   0.9667
B(  6-C ,  7-C ) :   0.9517 B(  6-C ,  8-N ) :   1.1386 B(  7-C , 25-H ) :   0.9710
B(  7-C , 26-H ) :   0.9868 B(  7-C , 27-H ) :   0.9637 B(  8-N ,  9-C ) :   1.1840
B(  8-N , 28-H ) :   0.9498 B(  9-C , 10-S ) :   1.6123 B(  9-C , 11-N ) :   1.2988
B( 11-N , 12-C ) :   0.9939 B( 11-N , 29-H ) :   0.9518 B( 12-C , 13-C ) :   0.9455
B( 12-C , 30-H ) :   0.9985 B( 13-C , 14-C ) :   1.3794 B( 13-C , 19-C ) :   1.3564
B( 14-C , 15-C ) :   1.3939 B( 14-C , 31-H ) :   0.9630 B( 15-C , 16-C ) :   1.3643
B( 15-C , 32-H ) :   0.9707 B( 16-C , 17-C ) :   1.3306 B( 16-C , 33-H ) :   0.9846
B( 17-C , 18-O ) :   1.1097 B( 17-C , 19-C ) :   1.3713 B( 18-O , 34-H ) :   0.9797
B( 19-C , 35-H ) :   0.9585

MP2 TOTAL ENERGY:    -1274.322695070 Eh
FINAL SINGLE POINT ENERGY     -1274.322695070223

DIPOLE MOMENT
-------------
                                X             Y             Z
Electronic contribution:     11.26267       9.56149       7.70879
Nuclear contribution   :    -12.59111     -10.75412      -8.15650
                        -----------------------------------------
Total Dipole Moment    :     -1.32844      -1.19263      -0.44772
                        -----------------------------------------
Magnitude (a.u.)       :      1.84053
Magnitude (Debye)      :      4.67826

Rotational constants in cm-1:     0.011610     0.009130     0.006590
Rotational constants in MHz :   348.048908   273.723552   197.572933

                             ****ORCA TERMINATED NORMALLY****
TOTAL RUN TIME: 0 days 1 hours 39 minutes 56 seconds 178 msec
