                         Program Version 4.2.0 -  RELEASE  -
|  1> ! ri-mp2 cc-pvtz cc-pvtz/c TightSCF  NoKeepInts
|  2>
|  3> %scf
|  4>   MaxCore 4096
|  5> end
|  6> *xyz  0  1
|  7>     C       14.5376635   14.4427073   16.5039744
|  8>     C       15.5893400   15.5056652   16.8593489
|  9>     O       16.8298773   15.0895609   16.2570225
| 10>     C       18.0525960   15.6029943   16.6106050
| 11>     O       19.0407797   14.8939581   16.5670739
| 12>     C       18.0390718   16.8538379   17.4289227
| 13>     C       17.5309634   18.0232243   16.9741443
| 14>     C       16.9501200   18.2978951   15.6030320
| 15>     N       17.6113449   19.1705719   17.7662019
| 16>     C       18.2789786   19.2480942   18.9609640
| 17>     S       18.3822589   20.6648801   19.8069414
| 18>     N       18.8560981   18.0900134   19.4218095
| 19>     C       18.7235405   16.7608382   18.7921594
| 20>     C       17.9788252   15.7838596   19.6973689
| 21>     C       18.4167836   14.4513426   19.8062787
| 22>     C       17.7237032   13.5324952   20.6115538
| 23>     C       16.5794164   13.9474834   21.3134038
| 24>     C       16.1356445   15.2719138   21.2033439
| 25>     O       15.0226706   15.6726300   21.8674270
| 26>     C       16.8270024   16.1847620   20.4004264
| 27>     H       14.8439477   13.4582149   16.8799965
| 28>     H       14.4096149   14.3722506   15.4166119
| 29>     H       13.5679469   14.6940031   16.9504878
| 30>     H       15.2634800   16.4827962   16.4880489
| 31>     H       15.6872572   15.5519627   17.9516696
| 32>     H       16.9985318   17.4235770   14.9424588
| 33>     H       17.5066882   19.1001344   15.1015972
| 34>     H       15.9006591   18.6097550   15.6705348
| 35>     H       17.2124267   20.0358910   17.4369358
| 36>     H       19.3268843   18.1734558   20.3141431
| 37>     H       19.7379709   16.3672972   18.6289958
| 38>     H       19.2912832   14.1218325   19.2486813
| 39>     H       18.0713055   12.5031152   20.6825112
| 40>     H       16.0395579   13.2394863   21.9336023
| 41>     H       14.7218490   14.9259365   22.4074199
| 42>     H       16.4609180   17.2035642   20.3283023
| 43> *
| 44>
| 45>                          ****END OF INPUT****

CARTESIAN COORDINATES (ANGSTROEM)
---------------------------------
  C     14.537663   14.442707   16.503974
  C     15.589340   15.505665   16.859349
  O     16.829877   15.089561   16.257023
  C     18.052596   15.602994   16.610605
  O     19.040780   14.893958   16.567074
  C     18.039072   16.853838   17.428923
  C     17.530963   18.023224   16.974144
  C     16.950120   18.297895   15.603032
  N     17.611345   19.170572   17.766202
  C     18.278979   19.248094   18.960964
  S     18.382259   20.664880   19.806941
  N     18.856098   18.090013   19.421809
  C     18.723540   16.760838   18.792159
  C     17.978825   15.783860   19.697369
  C     18.416784   14.451343   19.806279
  C     17.723703   13.532495   20.611554
  C     16.579416   13.947483   21.313404
  C     16.135645   15.271914   21.203344
  O     15.022671   15.672630   21.867427
  C     16.827002   16.184762   20.400426
  H     14.843948   13.458215   16.879997
  H     14.409615   14.372251   15.416612
  H     13.567947   14.694003   16.950488
  H     15.263480   16.482796   16.488049
  H     15.687257   15.551963   17.951670
  H     16.998532   17.423577   14.942459
  H     17.506688   19.100134   15.101597
  H     15.900659   18.609755   15.670535
  H     17.212427   20.035891   17.436936
  H     19.326884   18.173456   20.314143
  H     19.737971   16.367297   18.628996
  H     19.291283   14.121833   19.248681
  H     18.071306   12.503115   20.682511
  H     16.039558   13.239486   21.933602
  H     14.721849   14.925936   22.407420
  H     16.460918   17.203564   20.328302

 Total Charge           Charge          ....    0
 Multiplicity           Mult            ....    1
 Number of Electrons    NEL             ....  154
 Basis Dimension        Dim             ....  828

ORBITAL ENERGIES
----------------

  NO   OCC          E(Eh)            E(eV)
   0   2.0000     -91.890581     -2500.4698
   1   2.0000     -20.600020      -560.5550
   2   2.0000     -20.599819      -560.5496
   3   2.0000     -20.550457      -559.2064
   4   2.0000     -15.627887      -425.2564
   5   2.0000     -15.611831      -424.8195
   6   2.0000     -11.397485      -310.1413
   7   2.0000     -11.387256      -309.8630
   8   2.0000     -11.331511      -308.3461
   9   2.0000     -11.317015      -307.9516
  10   2.0000     -11.314660      -307.8876
  11   2.0000     -11.302723      -307.5627
  12   2.0000     -11.269453      -306.6574
  13   2.0000     -11.265190      -306.5414
  14   2.0000     -11.263791      -306.5033
  15   2.0000     -11.257022      -306.3191
  16   2.0000     -11.246247      -306.0259
  17   2.0000     -11.242333      -305.9194
  18   2.0000     -11.239205      -305.8343
  19   2.0000     -11.232313      -305.6468
  20   2.0000      -8.895690      -242.0640
  21   2.0000      -6.577276      -178.9768
  22   2.0000      -6.575252      -178.9217
  23   2.0000      -6.574675      -178.9060
  24   2.0000      -1.448461       -39.4146
  25   2.0000      -1.419845       -38.6359
  26   2.0000      -1.360029       -37.0083
  27   2.0000      -1.341049       -36.4918
  28   2.0000      -1.240542       -33.7569
  29   2.0000      -1.161570       -31.6079
  30   2.0000      -1.125848       -30.6359
  31   2.0000      -1.049227       -28.5509
  32   2.0000      -1.039754       -28.2931
  33   2.0000      -1.019223       -27.7345
  34   2.0000      -1.005587       -27.3634
  35   2.0000      -0.989696       -26.9310
  36   2.0000      -0.928195       -25.2575
  37   2.0000      -0.879654       -23.9366
  38   2.0000      -0.856364       -23.3029
  39   2.0000      -0.842693       -22.9308
  40   2.0000      -0.837513       -22.7899
  41   2.0000      -0.836626       -22.7658
  42   2.0000      -0.756881       -20.5958
  43   2.0000      -0.740209       -20.1421
  44   2.0000      -0.732032       -19.9196
  45   2.0000      -0.697721       -18.9860
  46   2.0000      -0.688547       -18.7363
  47   2.0000      -0.681893       -18.5553
  48   2.0000      -0.677396       -18.4329
  49   2.0000      -0.663283       -18.0488
  50   2.0000      -0.656534       -17.8652
  51   2.0000      -0.650996       -17.7145
  52   2.0000      -0.640366       -17.4252
  53   2.0000      -0.612054       -16.6548
  54   2.0000      -0.607974       -16.5438
  55   2.0000      -0.603890       -16.4327
  56   2.0000      -0.595172       -16.1955
  57   2.0000      -0.585245       -15.9253
  58   2.0000      -0.578151       -15.7323
  59   2.0000      -0.570142       -15.5143
  60   2.0000      -0.563834       -15.3427
  61   2.0000      -0.558088       -15.1864
  62   2.0000      -0.551166       -14.9980
  63   2.0000      -0.526664       -14.3313
  64   2.0000      -0.519302       -14.1309
  65   2.0000      -0.515995       -14.0409
  66   2.0000      -0.503548       -13.7022
  67   2.0000      -0.502601       -13.6765
  68   2.0000      -0.489696       -13.3253
  69   2.0000      -0.470074       -12.7914
  70   2.0000      -0.455555       -12.3963
  71   2.0000      -0.450945       -12.2708
  72   2.0000      -0.357968        -9.7408
  73   2.0000      -0.351895        -9.5756
  74   2.0000      -0.330194        -8.9850
  75   2.0000      -0.324876        -8.8403
  76   2.0000      -0.319256        -8.6874
  77   0.0000       0.083076         2.2606
  78   0.0000       0.104438         2.8419
  79   0.0000       0.114052         3.1035
  80   0.0000       0.128848         3.5061
  81   0.0000       0.131444         3.5768

MULLIKEN ATOMIC CHARGES
-----------------------
   0 C :   -0.260968
   1 C :    0.020008
   2 O :   -0.310027
   3 C :    0.401338
   4 O :   -0.381990
   5 C :   -0.197299
   6 C :    0.146257
   7 C :   -0.327777
   8 N :   -0.138474
   9 C :    0.202346
  10 S :   -0.439813
  11 N :   -0.215826
  12 C :    0.077088
  13 C :    0.022309
  14 C :   -0.197400
  15 C :   -0.132311
  16 C :   -0.274884
  17 C :    0.325293
  18 O :   -0.358229
  19 C :   -0.289252
  20 H :    0.107634
  21 H :    0.100329
  22 H :    0.089231
  23 H :    0.083095
  24 H :    0.113349
  25 H :    0.129218
  26 H :    0.141305
  27 H :    0.118724
  28 H :    0.196228
  29 H :    0.198979
  30 H :    0.164905
  31 H :    0.170814
  32 H :    0.164237
  33 H :    0.132644
  34 H :    0.241527
  35 H :    0.177393
Sum of atomic charges:   -0.0000000

LOEWDIN ATOMIC CHARGES
----------------------
   0 C :    0.112260
   1 C :   -0.024704
   2 O :    0.303989
   3 C :   -0.415264
   4 O :    0.123867
   5 C :   -0.082770
   6 C :   -0.098095
   7 C :    0.123129
   8 N :    0.402110
   9 C :   -0.456501
  10 S :   -0.036819
  11 N :    0.397242
  12 C :   -0.044148
  13 C :   -0.044521
  14 C :    0.021890
  15 C :    0.045586
  16 C :   -0.000169
  17 C :   -0.194501
  18 O :    0.394837
  19 C :    0.026059
  20 H :   -0.022116
  21 H :   -0.026603
  22 H :   -0.025038
  23 H :   -0.038543
  24 H :   -0.030600
  25 H :   -0.008046
  26 H :   -0.009408
  27 H :   -0.018291
  28 H :   -0.057263
  29 H :   -0.063602
  30 H :   -0.002278
  31 H :   -0.021563
  32 H :   -0.018289
  33 H :   -0.034557
  34 H :   -0.152887
  35 H :   -0.024394

  Mayer bond orders larger than 0.100000
B(  0-C ,  1-C ) :   0.9860 B(  0-C , 20-H ) :   0.9786 B(  0-C , 21-H ) :   0.9793
B(  0-C , 22-H ) :   0.9769 B(  1-C ,  2-O ) :   0.9076 B(  1-C , 23-H ) :   0.9700
B(  1-C , 24-H ) :   0.9626 B(  2-O ,  3-C ) :   1.1905 B(  3-C ,  4-O ) :   2.0928
B(  3-C ,  5-C ) :   0.9258 B(  5-C ,  6-C ) :   1.6762 B(  5-C , 12-C ) :   0.9561
B(  6-C ,  7-C ) :   0.9440 B(  6-C ,  8-N ) :   1.1218 B(  7-C , 25-H ) :   0.9794
B(  7-C , 26-H ) :   0.9676 B(  7-C , 27-H ) :   0.9671 B(  8-N ,  9-C ) :   1.1942
B(  8-N , 28-H ) :   0.9523 B(  9-C , 10-S ) :   1.6118 B(  9-C , 11-N ) :   1.2889
B( 11-N , 12-C ) :   0.9950 B( 11-N , 29-H ) :   0.9490 B( 12-C , 13-C ) :   0.9425
B( 12-C , 30-H ) :   0.9973 B( 13-C , 14-C ) :   1.3884 B( 13-C , 19-C ) :   1.3445
B( 14-C , 15-C ) :   1.3970 B( 14-C , 31-H ) :   0.9596 B( 15-C , 16-C ) :   1.3637
B( 15-C , 32-H ) :   0.9698 B( 16-C , 17-C ) :   1.3299 B( 16-C , 33-H ) :   0.9843
B( 17-C , 18-O ) :   1.1094 B( 17-C , 19-C ) :   1.3631 B( 18-O , 34-H ) :   0.9792
B( 19-C , 35-H ) :   0.9591

MP2 TOTAL ENERGY:    -1274.335249037 Eh
FINAL SINGLE POINT ENERGY     -1274.335249036735

DIPOLE MOMENT
-------------
                                X             Y             Z
Electronic contribution:     10.73683       8.39231       7.37678
Nuclear contribution   :    -12.24386      -9.40369      -7.74419
                        -----------------------------------------
Total Dipole Moment    :     -1.50703      -1.01138      -0.36742
                        -----------------------------------------
Magnitude (a.u.)       :      1.85176
Magnitude (Debye)      :      4.70681

Rotational constants in cm-1:     0.011651     0.009133     0.006703
Rotational constants in MHz :   349.301236   273.801047   200.956721

                             ****ORCA TERMINATED NORMALLY****
TOTAL RUN TIME: 0 days 1 hours 46 minutes 15 seconds 778 msec
