                         Program Version 5.0.0 -  RELEASE  -
|  1> ! ri-mp2 cc-pvtz cc-pvtz/c TightSCF NoKeepInts
|  2>
|  3> %scf
|  4>   MaxCore 4096
|  5> end
|  6> *xyz  0  1
|  7>     C       14.6371055   15.5956720   17.1514128
|  8>     C       15.8211607   14.7861670   16.5940062
|  9>     O       16.6789577   15.6816022   15.8618670
| 10>     C       17.9356064   15.8779812   16.3527057
| 11>     O       18.7060632   14.9373477   16.4403567
| 12>     C       17.9623698   16.9889249   17.3555346
| 13>     C       17.3347400   18.1738722   17.1604746
| 14>     C       16.5626860   18.6047125   15.9312661
| 15>     N       17.4335820   19.1799978   18.1255439
| 16>     C       18.2418464   19.1233276   19.2311659
| 17>     S       18.3828095   20.4005565   20.2721414
| 18>     N       18.9271153   17.9504859   19.4323642
| 19>     C       18.7479287   16.7176925   18.6407866
| 20>     C       18.0552122   15.6386297   19.4687499
| 21>     C       18.6054782   14.3469941   19.5599394
| 22>     C       17.9550993   13.3411805   20.2941248
| 23>     C       16.7414445   13.6273651   20.9419701
| 24>     C       16.1882119   14.9115739   20.8513561
| 25>     O       15.0094846   15.1883104   21.4633823
| 26>     C       16.8388006   15.9108538   20.1213351
| 27>     H       14.9845091   16.3725332   17.8427100
| 28>     H       13.9508021   14.9387233   17.6995904
| 29>     H       14.0773849   16.0742356   16.3385588
| 30>     H       16.3591011   14.2944481   17.4173530
| 31>     H       15.4465932   14.0049193   15.9201341
| 32>     H       15.5323882   18.2312542   15.9678583
| 33>     H       17.0257557   18.2149914   15.0160985
| 34>     H       16.5222483   19.6959512   15.8276363
| 35>     H       16.9407773   20.0491314   17.9941741
| 36>     H       19.4944319   17.9271626   20.2701073
| 37>     H       19.7453119   16.3517612   18.3565874
| 38>     H       19.5326100   14.1167576   19.0399962
| 39>     H       18.3891104   12.3443826   20.3514146
| 40>     H       16.2340299   12.8521179   21.5065722
| 41>     H       14.7536662   14.4025563   21.9698617
| 42>     H       16.3925774   16.8978267   20.0648637
| 43> *
| 44>
| 45>                          ****END OF INPUT****

CARTESIAN COORDINATES (ANGSTROEM)
---------------------------------
  C     14.637106   15.595672   17.151413
  C     15.821161   14.786167   16.594006
  O     16.678958   15.681602   15.861867
  C     17.935606   15.877981   16.352706
  O     18.706063   14.937348   16.440357
  C     17.962370   16.988925   17.355535
  C     17.334740   18.173872   17.160475
  C     16.562686   18.604712   15.931266
  N     17.433582   19.179998   18.125544
  C     18.241846   19.123328   19.231166
  S     18.382810   20.400556   20.272141
  N     18.927115   17.950486   19.432364
  C     18.747929   16.717692   18.640787
  C     18.055212   15.638630   19.468750
  C     18.605478   14.346994   19.559939
  C     17.955099   13.341181   20.294125
  C     16.741445   13.627365   20.941970
  C     16.188212   14.911574   20.851356
  O     15.009485   15.188310   21.463382
  C     16.838801   15.910854   20.121335
  H     14.984509   16.372533   17.842710
  H     13.950802   14.938723   17.699590
  H     14.077385   16.074236   16.338559
  H     16.359101   14.294448   17.417353
  H     15.446593   14.004919   15.920134
  H     15.532388   18.231254   15.967858
  H     17.025756   18.214991   15.016099
  H     16.522248   19.695951   15.827636
  H     16.940777   20.049131   17.994174
  H     19.494432   17.927163   20.270107
  H     19.745312   16.351761   18.356587
  H     19.532610   14.116758   19.039996
  H     18.389110   12.344383   20.351415
  H     16.234030   12.852118   21.506572
  H     14.753666   14.402556   21.969862
  H     16.392577   16.897827   20.064864

 Total Charge           Charge          ....    0
 Multiplicity           Mult            ....    1
 Number of Electrons    NEL             ....  154
 Basis Dimension        Dim             ....  828

ORBITAL ENERGIES
----------------

  NO   OCC          E(Eh)            E(eV)
   0   2.0000     -91.889978     -2500.4534
   1   2.0000     -20.598663      -560.5181
   2   2.0000     -20.579922      -560.0081
   3   2.0000     -20.557211      -559.3902
   4   2.0000     -15.629161      -425.2911
   5   2.0000     -15.609872      -424.7662
   6   2.0000     -11.394087      -310.0489
   7   2.0000     -11.385695      -309.8205
   8   2.0000     -11.332570      -308.3749
   9   2.0000     -11.314945      -307.8953
  10   2.0000     -11.311002      -307.7880
  11   2.0000     -11.298427      -307.4458
  12   2.0000     -11.260946      -306.4259
  13   2.0000     -11.260449      -306.4124
  14   2.0000     -11.260145      -306.4041
  15   2.0000     -11.255045      -306.2654
  16   2.0000     -11.244863      -305.9883
  17   2.0000     -11.240538      -305.8706
  18   2.0000     -11.237579      -305.7901
  19   2.0000     -11.228950      -305.5553
  20   2.0000      -8.895052      -242.0467
  21   2.0000      -6.576629      -178.9592
  22   2.0000      -6.574619      -178.9045
  23   2.0000      -6.574034      -178.8886
  24   2.0000      -1.451897       -39.5081
  25   2.0000      -1.418417       -38.5971
  26   2.0000      -1.355695       -36.8903
  27   2.0000      -1.340523       -36.4775
  28   2.0000      -1.239079       -33.7171
  29   2.0000      -1.159113       -31.5411
  30   2.0000      -1.122838       -30.5540
  31   2.0000      -1.046495       -28.4766
  32   2.0000      -1.033343       -28.1187
  33   2.0000      -1.016601       -27.6631
  34   2.0000      -1.000882       -27.2354
  35   2.0000      -0.987361       -26.8674
  36   2.0000      -0.925355       -25.1802
  37   2.0000      -0.884575       -24.0705
  38   2.0000      -0.849061       -23.1041
  39   2.0000      -0.840474       -22.8705
  40   2.0000      -0.835271       -22.7289
  41   2.0000      -0.825435       -22.4612
  42   2.0000      -0.756377       -20.5821
  43   2.0000      -0.736070       -20.0295
  44   2.0000      -0.729915       -19.8620
  45   2.0000      -0.696958       -18.9652
  46   2.0000      -0.687027       -18.6950
  47   2.0000      -0.680016       -18.5042
  48   2.0000      -0.675849       -18.3908
  49   2.0000      -0.658534       -17.9196
  50   2.0000      -0.655449       -17.8357
  51   2.0000      -0.645274       -17.5588
  52   2.0000      -0.637622       -17.3506
  53   2.0000      -0.608138       -16.5483
  54   2.0000      -0.605418       -16.4743
  55   2.0000      -0.602572       -16.3968
  56   2.0000      -0.595941       -16.2164
  57   2.0000      -0.578902       -15.7527
  58   2.0000      -0.577756       -15.7215
  59   2.0000      -0.573737       -15.6122
  60   2.0000      -0.563027       -15.3207
  61   2.0000      -0.550966       -14.9925
  62   2.0000      -0.544593       -14.8191
  63   2.0000      -0.523909       -14.2563
  64   2.0000      -0.515517       -14.0279
  65   2.0000      -0.508926       -13.8486
  66   2.0000      -0.504998       -13.7417
  67   2.0000      -0.499731       -13.5984
  68   2.0000      -0.483568       -13.1586
  69   2.0000      -0.466163       -12.6849
  70   2.0000      -0.455761       -12.4019
  71   2.0000      -0.452101       -12.3023
  72   2.0000      -0.354991        -9.6598
  73   2.0000      -0.350593        -9.5401
  74   2.0000      -0.329333        -8.9616
  75   2.0000      -0.322498        -8.7756
  76   2.0000      -0.317019        -8.6265
  77   0.0000       0.069421         1.8890
  78   0.0000       0.102009         2.7758
  79   0.0000       0.119404         3.2492
  80   0.0000       0.128864         3.5066
  81   0.0000       0.134406         3.6574

MULLIKEN ATOMIC CHARGES
-----------------------
   0 C :   -0.315023
   1 C :    0.038160
   2 O :   -0.381087
   3 C :    0.459563
   4 O :   -0.391006
   5 C :   -0.196207
   6 C :    0.126631
   7 C :   -0.281817
   8 N :   -0.123693
   9 C :    0.196311
  10 S :   -0.438155
  11 N :   -0.202297
  12 C :    0.055057
  13 C :    0.027958
  14 C :   -0.162185
  15 C :   -0.134663
  16 C :   -0.279161
  17 C :    0.320102
  18 O :   -0.360993
  19 C :   -0.291529
  20 H :    0.100721
  21 H :    0.117657
  22 H :    0.105517
  23 H :    0.105736
  24 H :    0.117199
  25 H :    0.126571
  26 H :    0.124197
  27 H :    0.108903
  28 H :    0.197742
  29 H :    0.194480
  30 H :    0.157978
  31 H :    0.160890
  32 H :    0.162504
  33 H :    0.132489
  34 H :    0.241480
  35 H :    0.179970
Sum of atomic charges:    0.0000000

LOEWDIN ATOMIC CHARGES
----------------------
   0 C :    0.102987
   1 C :   -0.009983
   2 O :    0.283790
   3 C :   -0.420157
   4 O :    0.134108
   5 C :   -0.094024
   6 C :   -0.078584
   7 C :    0.127639
   8 N :    0.404314
   9 C :   -0.457563
  10 S :   -0.035458
  11 N :    0.396958
  12 C :   -0.045013
  13 C :   -0.043269
  14 C :    0.020885
  15 C :    0.041674
  16 C :   -0.001977
  17 C :   -0.194264
  18 O :    0.394478
  19 C :    0.029926
  20 H :   -0.032265
  21 H :   -0.022390
  22 H :   -0.030929
  23 H :   -0.024720
  24 H :   -0.025972
  25 H :   -0.011138
  26 H :   -0.007627
  27 H :   -0.018388
  28 H :   -0.058406
  29 H :   -0.064074
  30 H :   -0.004009
  31 H :   -0.023673
  32 H :   -0.019592
  33 H :   -0.034993
  34 H :   -0.153374
  35 H :   -0.024917

  Mayer bond orders larger than 0.100000
B(  0-C ,  1-C ) :   0.9670 B(  0-C , 20-H ) :   0.9733 B(  0-C , 21-H ) :   0.9777
B(  0-C , 22-H ) :   0.9768 B(  1-C ,  2-O ) :   0.8827 B(  1-C , 23-H ) :   0.9672
B(  1-C , 24-H ) :   0.9859 B(  2-O ,  3-C ) :   1.0908 B(  3-C ,  4-O ) :   2.0452
B(  3-C ,  5-C ) :   1.0034 B(  5-C ,  6-C ) :   1.6761 B(  5-C , 12-C ) :   0.9608
B(  6-C ,  7-C ) :   0.9545 B(  6-C ,  8-N ) :   1.1314 B(  7-C , 25-H ) :   0.9616
B(  7-C , 26-H ) :   0.9713 B(  7-C , 27-H ) :   0.9868 B(  8-N ,  9-C ) :   1.1856
B(  8-N , 28-H ) :   0.9499 B(  9-C , 10-S ) :   1.6143 B(  9-C , 11-N ) :   1.2955
B( 11-N , 12-C ) :   0.9927 B( 11-N , 29-H ) :   0.9516 B( 12-C , 13-C ) :   0.9454
B( 12-C , 30-H ) :   0.9980 B( 13-C , 14-C ) :   1.3826 B( 13-C , 19-C ) :   1.3525
B( 14-C , 15-C ) :   1.3953 B( 14-C , 31-H ) :   0.9622 B( 15-C , 16-C ) :   1.3629
B( 15-C , 32-H ) :   0.9708 B( 16-C , 17-C ) :   1.3309 B( 16-C , 33-H ) :   0.9842
B( 17-C , 18-O ) :   1.1064 B( 17-C , 19-C ) :   1.3714 B( 18-O , 34-H ) :   0.9798
B( 19-C , 35-H ) :   0.9538

MP2 TOTAL ENERGY:    -1274.321159832 Eh
FINAL SINGLE POINT ENERGY     -1274.321159831584

DIPOLE MOMENT
-------------
                                X             Y             Z
Electronic contribution:     10.44126       7.10904       5.77842
Nuclear contribution   :    -11.62626      -8.37928      -6.28987
                        -----------------------------------------
Total Dipole Moment    :     -1.18500      -1.27024      -0.51144
                        -----------------------------------------
Magnitude (a.u.)       :      1.81089
Magnitude (Debye)      :      4.60291

Rotational constants in cm-1:     0.012221     0.009408     0.007116
Rotational constants in MHz :   366.382209   282.042409   213.331472

                             ****ORCA TERMINATED NORMALLY****
TOTAL RUN TIME: 0 days 1 hours 45 minutes 33 seconds 529 msec
