                         Program Version 4.2.0 -  RELEASE  -
|  1> ! ri-mp2 cc-pvtz cc-pvtz/c TightSCF  NoKeepInts
|  2>
|  3> %scf
|  4>   MaxCore 4096
|  5> end
|  6> *xyz  0  1
|  7>     C       14.7634579   16.1314532   17.1685443
|  8>     C       15.6743753   14.9102879   16.9366197
|  9>     O       16.7672283   15.1605832   16.0211374
| 10>     C       17.9617686   15.7388992   16.3748537
| 11>     O       18.9845809   15.0909641   16.2490817
| 12>     C       17.9034310   16.8678793   17.3479485
| 13>     C       17.3441220   18.0574421   17.0273486
| 14>     C       16.7105701   18.4428714   15.7075556
| 15>     N       17.4053398   19.1211309   17.9300022
| 16>     C       18.1035525   19.1032292   19.1094040
| 17>     S       18.1753889   20.4278060   20.0965086
| 18>     N       18.7410693   17.9300862   19.4317290
| 19>     C       18.6484438   16.6692085   18.6685125
| 20>     C       17.9993114   15.5642730   19.4952918
| 21>     C       18.5178247   14.2570590   19.4539539
| 22>     C       17.9109683   13.2222214   20.1847506
| 23>     C       16.7730314   13.4948937   20.9627407
| 24>     C       16.2500480   14.7942535   21.0032720
| 25>     O       15.1426986   15.0581727   21.7409499
| 26>     C       16.8553878   15.8224374   20.2739105
| 27>     H       15.1966715   16.8344678   17.8866214
| 28>     H       13.8064267   15.8008696   17.5906076
| 29>     H       14.5483781   16.6478913   16.2260170
| 30>     H       16.0485191   14.5213607   17.8918295
| 31>     H       15.0542798   14.1188354   16.4961776
| 32>     H       16.5903057   17.5889717   15.0306427
| 33>     H       17.3309223   19.1815518   15.1843117
| 34>     H       15.7169131   18.8823131   15.8580504
| 35>     H       16.9639537   19.9979215   17.7009258
| 36>     H       19.2343993   17.9417937   20.3155474
| 37>     H       19.6736160   16.3519821   18.4260712
| 38>     H       19.3878393   14.0395140   18.8373866
| 39>     H       18.3209496   12.2144016   20.1411895
| 40>     H       16.3002209   12.6975082   21.5268065
| 41>     H       14.9122640   14.2482851   22.2211724
| 42>     H       16.4287423   16.8191803   20.3165273
| 43> *
| 44>
| 45>                          ****END OF INPUT****

CARTESIAN COORDINATES (ANGSTROEM)
---------------------------------
  C     14.763458   16.131453   17.168544
  C     15.674375   14.910288   16.936620
  O     16.767228   15.160583   16.021137
  C     17.961769   15.738899   16.374854
  O     18.984581   15.090964   16.249082
  C     17.903431   16.867879   17.347948
  C     17.344122   18.057442   17.027349
  C     16.710570   18.442871   15.707556
  N     17.405340   19.121131   17.930002
  C     18.103552   19.103229   19.109404
  S     18.175389   20.427806   20.096509
  N     18.741069   17.930086   19.431729
  C     18.648444   16.669208   18.668512
  C     17.999311   15.564273   19.495292
  C     18.517825   14.257059   19.453954
  C     17.910968   13.222221   20.184751
  C     16.773031   13.494894   20.962741
  C     16.250048   14.794253   21.003272
  O     15.142699   15.058173   21.740950
  C     16.855388   15.822437   20.273910
  H     15.196671   16.834468   17.886621
  H     13.806427   15.800870   17.590608
  H     14.548378   16.647891   16.226017
  H     16.048519   14.521361   17.891829
  H     15.054280   14.118835   16.496178
  H     16.590306   17.588972   15.030643
  H     17.330922   19.181552   15.184312
  H     15.716913   18.882313   15.858050
  H     16.963954   19.997921   17.700926
  H     19.234399   17.941794   20.315547
  H     19.673616   16.351982   18.426071
  H     19.387839   14.039514   18.837387
  H     18.320950   12.214402   20.141189
  H     16.300221   12.697508   21.526806
  H     14.912264   14.248285   22.221172
  H     16.428742   16.819180   20.316527

 Total Charge           Charge          ....    0
 Multiplicity           Mult            ....    1
 Number of Electrons    NEL             ....  154
 Basis Dimension        Dim             ....  828

ORBITAL ENERGIES
----------------

  NO   OCC          E(Eh)            E(eV)
   0   2.0000     -91.890774     -2500.4751
   1   2.0000     -20.601869      -560.6054
   2   2.0000     -20.586588      -560.1895
   3   2.0000     -20.553767      -559.2964
   4   2.0000     -15.627937      -425.2578
   5   2.0000     -15.612115      -424.8273
   6   2.0000     -11.396259      -310.1080
   7   2.0000     -11.387383      -309.8665
   8   2.0000     -11.330018      -308.3055
   9   2.0000     -11.319279      -308.0133
  10   2.0000     -11.315035      -307.8978
  11   2.0000     -11.302538      -307.5577
  12   2.0000     -11.265341      -306.5455
  13   2.0000     -11.265041      -306.5374
  14   2.0000     -11.262358      -306.4643
  15   2.0000     -11.259485      -306.3862
  16   2.0000     -11.248797      -306.0953
  17   2.0000     -11.244126      -305.9682
  18   2.0000     -11.241345      -305.8926
  19   2.0000     -11.232151      -305.6424
  20   2.0000      -8.895869      -242.0689
  21   2.0000      -6.577453      -178.9816
  22   2.0000      -6.575433      -178.9266
  23   2.0000      -6.574853      -178.9108
  24   2.0000      -1.444279       -39.3008
  25   2.0000      -1.421689       -38.6861
  26   2.0000      -1.354450       -36.8564
  27   2.0000      -1.341042       -36.4916
  28   2.0000      -1.240692       -33.7610
  29   2.0000      -1.163387       -31.6574
  30   2.0000      -1.125747       -30.6331
  31   2.0000      -1.049884       -28.5688
  32   2.0000      -1.036007       -28.1912
  33   2.0000      -1.020883       -27.7796
  34   2.0000      -1.004966       -27.3465
  35   2.0000      -0.990525       -26.9536
  36   2.0000      -0.928587       -25.2681
  37   2.0000      -0.891313       -24.2539
  38   2.0000      -0.852637       -23.2014
  39   2.0000      -0.842703       -22.9311
  40   2.0000      -0.839154       -22.8345
  41   2.0000      -0.831599       -22.6290
  42   2.0000      -0.752802       -20.4848
  43   2.0000      -0.735675       -20.0187
  44   2.0000      -0.730794       -19.8859
  45   2.0000      -0.699771       -19.0417
  46   2.0000      -0.689502       -18.7623
  47   2.0000      -0.678687       -18.4680
  48   2.0000      -0.675282       -18.3754
  49   2.0000      -0.662703       -18.0331
  50   2.0000      -0.655083       -17.8257
  51   2.0000      -0.642680       -17.4882
  52   2.0000      -0.640032       -17.4162
  53   2.0000      -0.613863       -16.7041
  54   2.0000      -0.608691       -16.5633
  55   2.0000      -0.606461       -16.5026
  56   2.0000      -0.603222       -16.4145
  57   2.0000      -0.589509       -16.0414
  58   2.0000      -0.581684       -15.8284
  59   2.0000      -0.578221       -15.7342
  60   2.0000      -0.566603       -15.4180
  61   2.0000      -0.556157       -15.1338
  62   2.0000      -0.539967       -14.6933
  63   2.0000      -0.530366       -14.4320
  64   2.0000      -0.522830       -14.2269
  65   2.0000      -0.514294       -13.9946
  66   2.0000      -0.503861       -13.7108
  67   2.0000      -0.492417       -13.3994
  68   2.0000      -0.490109       -13.3366
  69   2.0000      -0.464426       -12.6377
  70   2.0000      -0.456708       -12.4277
  71   2.0000      -0.448499       -12.2043
  72   2.0000      -0.356460        -9.6998
  73   2.0000      -0.354171        -9.6375
  74   2.0000      -0.330432        -8.9915
  75   2.0000      -0.327339        -8.9073
  76   2.0000      -0.319395        -8.6912
  77   0.0000       0.082828         2.2539
  78   0.0000       0.100968         2.7475
  79   0.0000       0.117778         3.2049
  80   0.0000       0.125607         3.4179
  81   0.0000       0.128839         3.5059

MULLIKEN ATOMIC CHARGES
-----------------------
   0 C :   -0.332057
   1 C :    0.034596
   2 O :   -0.352555
   3 C :    0.406165
   4 O :   -0.371685
   5 C :   -0.173164
   6 C :    0.116720
   7 C :   -0.330828
   8 N :   -0.130053
   9 C :    0.201453
  10 S :   -0.439245
  11 N :   -0.216029
  12 C :    0.078225
  13 C :    0.006529
  14 C :   -0.193889
  15 C :   -0.133163
  16 C :   -0.276443
  17 C :    0.314888
  18 O :   -0.357000
  19 C :   -0.270937
  20 H :    0.105486
  21 H :    0.124370
  22 H :    0.107344
  23 H :    0.105916
  24 H :    0.126277
  25 H :    0.128230
  26 H :    0.149395
  27 H :    0.116432
  28 H :    0.197455
  29 H :    0.198757
  30 H :    0.165321
  31 H :    0.171022
  32 H :    0.164881
  33 H :    0.133834
  34 H :    0.241948
  35 H :    0.181806
Sum of atomic charges:   -0.0000000

LOEWDIN ATOMIC CHARGES
----------------------
   0 C :    0.103197
   1 C :   -0.012263
   2 O :    0.280860
   3 C :   -0.416244
   4 O :    0.133397
   5 C :   -0.085244
   6 C :   -0.094180
   7 C :    0.125427
   8 N :    0.403530
   9 C :   -0.456497
  10 S :   -0.036375
  11 N :    0.397551
  12 C :   -0.044482
  13 C :   -0.045493
  14 C :    0.020006
  15 C :    0.044314
  16 C :   -0.000750
  17 C :   -0.194499
  18 O :    0.395977
  19 C :    0.028039
  20 H :   -0.035991
  21 H :   -0.021231
  22 H :   -0.029306
  23 H :   -0.029109
  24 H :   -0.019598
  25 H :   -0.010585
  26 H :   -0.009292
  27 H :   -0.016901
  28 H :   -0.056855
  29 H :   -0.063786
  30 H :   -0.002876
  31 H :   -0.021589
  32 H :   -0.018033
  33 H :   -0.034074
  34 H :   -0.152615
  35 H :   -0.024432

  Mayer bond orders larger than 0.100000
B(  0-C ,  1-C ) :   0.9571 B(  0-C , 20-H ) :   0.9728 B(  0-C , 21-H ) :   0.9784
B(  0-C , 22-H ) :   0.9747 B(  1-C ,  2-O ) :   0.8966 B(  1-C , 23-H ) :   0.9704
B(  1-C , 24-H ) :   0.9852 B(  2-O ,  3-C ) :   1.1460 B(  3-C ,  4-O ) :   2.1005
B(  3-C ,  5-C ) :   0.9260 B(  5-C ,  6-C ) :   1.6911 B(  5-C , 12-C ) :   0.9504
B(  6-C ,  7-C ) :   0.9517 B(  6-C ,  8-N ) :   1.1119 B(  7-C , 25-H ) :   0.9771
B(  7-C , 26-H ) :   0.9658 B(  7-C , 27-H ) :   0.9680 B(  8-N ,  9-C ) :   1.1931
B(  8-N , 28-H ) :   0.9512 B(  9-C , 10-S ) :   1.6140 B(  9-C , 11-N ) :   1.2863
B( 11-N , 12-C ) :   0.9954 B( 11-N , 29-H ) :   0.9491 B( 12-C , 13-C ) :   0.9411
B( 12-C , 30-H ) :   0.9981 B( 13-C , 14-C ) :   1.3913 B( 13-C , 19-C ) :   1.3436
B( 14-C , 15-C ) :   1.3968 B( 14-C , 31-H ) :   0.9601 B( 15-C , 16-C ) :   1.3612
B( 15-C , 32-H ) :   0.9700 B( 16-C , 17-C ) :   1.3292 B( 16-C , 33-H ) :   0.9841
B( 17-C , 18-O ) :   1.1131 B( 17-C , 19-C ) :   1.3686 B( 18-O , 34-H ) :   0.9789
B( 19-C , 35-H ) :   0.9532

MP2 TOTAL ENERGY:    -1274.324151111 Eh
FINAL SINGLE POINT ENERGY     -1274.324151111331

DIPOLE MOMENT
-------------
                                X             Y             Z
Electronic contribution:      9.90336       5.41610       5.78455
Nuclear contribution   :    -11.28050      -6.62402      -6.03152
                        -----------------------------------------
Total Dipole Moment    :     -1.37714      -1.20792      -0.24697
                        -----------------------------------------
Magnitude (a.u.)       :      1.84840
Magnitude (Debye)      :      4.69826

Rotational constants in cm-1:     0.012305     0.009369     0.007056
Rotational constants in MHz :   368.889236   280.890423   211.526854

                             ****ORCA TERMINATED NORMALLY****
TOTAL RUN TIME: 0 days 2 hours 0 minutes 31 seconds 119 msec
