                         Program Version 5.0.0 -  RELEASE  -
|  1> ! ri-mp2 cc-pvtz cc-pvtz/c TightSCF NoKeepInts
|  2>
|  3> %scf
|  4>   MaxCore 4096
|  5> end
|  6> *xyz  0  1
|  7>     C       14.9080428   14.1107855   16.1540122
|  8>     C       15.6661158   14.9721815   15.1202310
|  9>     O       16.3631386   16.0491628   15.7788828
| 10>     C       17.3534058   15.7970503   16.6856283
| 11>     O       17.8876084   14.7040003   16.7825661
| 12>     C       17.7383969   16.9619910   17.5549062
| 13>     C       17.3190913   18.2452348   17.3903395
| 14>     C       16.3937027   18.8031744   16.3281002
| 15>     N       17.8020483   19.2469747   18.2395844
| 16>     C       18.7974915   19.0797766   19.1654131
| 17>     S       19.3995420   20.3495247   20.0377497
| 18>     N       19.2677224   17.8024194   19.3313652
| 19>     C       18.6774323   16.6012592   18.7123168
| 20>     C       17.9551591   15.7591445   19.7611599
| 21>     C       18.2779053   14.3997807   19.9288636
| 22>     C       17.6128036   13.6181861   20.8883492
| 23>     C       16.6150601   14.1999176   21.6887478
| 24>     C       16.2877763   15.5524506   21.5226861
| 25>     O       15.3202558   16.1155750   22.2896142
| 26>     C       16.9511739   16.3276986   20.5664569
| 27>     H       15.5970600   13.5561737   16.8027856
| 28>     H       14.2717157   13.3778868   15.6435944
| 29>     H       14.2666058   14.7376604   16.7856459
| 30>     H       16.3757184   14.3449703   14.5636242
| 31>     H       14.9487872   15.3916547   14.4033356
| 32>     H       16.7696482   18.5705069   15.3239884
| 33>     H       16.2864259   19.8929819   16.3876177
| 34>     H       15.3897449   18.3710568   16.4235363
| 35>     H       17.4696995   20.1920271   18.1335483
| 36>     H       19.9791563   17.6989367   20.0434248
| 37>     H       19.5028051   16.0029861   18.2998617
| 38>     H       19.0367607   13.9429137   19.2982054
| 39>     H       17.8678099   12.5662525   21.0032001
| 40>     H       16.0975197   13.5994711   22.4293540
| 41>     H       15.0095507   15.4371388   22.9076183
| 42>     H       16.6841191   17.3730943   20.4576862
| 43> *
| 44>
| 45>                          ****END OF INPUT****

CARTESIAN COORDINATES (ANGSTROEM)
---------------------------------
  C     14.908043   14.110786   16.154012
  C     15.666116   14.972181   15.120231
  O     16.363139   16.049163   15.778883
  C     17.353406   15.797050   16.685628
  O     17.887608   14.704000   16.782566
  C     17.738397   16.961991   17.554906
  C     17.319091   18.245235   17.390339
  C     16.393703   18.803174   16.328100
  N     17.802048   19.246975   18.239584
  C     18.797491   19.079777   19.165413
  S     19.399542   20.349525   20.037750
  N     19.267722   17.802419   19.331365
  C     18.677432   16.601259   18.712317
  C     17.955159   15.759144   19.761160
  C     18.277905   14.399781   19.928864
  C     17.612804   13.618186   20.888349
  C     16.615060   14.199918   21.688748
  C     16.287776   15.552451   21.522686
  O     15.320256   16.115575   22.289614
  C     16.951174   16.327699   20.566457
  H     15.597060   13.556174   16.802786
  H     14.271716   13.377887   15.643594
  H     14.266606   14.737660   16.785646
  H     16.375718   14.344970   14.563624
  H     14.948787   15.391655   14.403336
  H     16.769648   18.570507   15.323988
  H     16.286426   19.892982   16.387618
  H     15.389745   18.371057   16.423536
  H     17.469699   20.192027   18.133548
  H     19.979156   17.698937   20.043425
  H     19.502805   16.002986   18.299862
  H     19.036761   13.942914   19.298205
  H     17.867810   12.566252   21.003200
  H     16.097520   13.599471   22.429354
  H     15.009551   15.437139   22.907618
  H     16.684119   17.373094   20.457686

 Total Charge           Charge          ....    0
 Multiplicity           Mult            ....    1
 Number of Electrons    NEL             ....  154
 Basis Dimension        Dim             ....  828

ORBITAL ENERGIES
----------------

  NO   OCC          E(Eh)            E(eV)
   0   2.0000     -91.888172     -2500.4043
   1   2.0000     -20.602799      -560.6307
   2   2.0000     -20.591523      -560.3238
   3   2.0000     -20.544645      -559.0482
   4   2.0000     -15.628699      -425.2785
   5   2.0000     -15.606703      -424.6800
   6   2.0000     -11.396689      -310.1197
   7   2.0000     -11.382916      -309.7449
   8   2.0000     -11.337327      -308.5043
   9   2.0000     -11.307343      -307.6884
  10   2.0000     -11.305116      -307.6279
  11   2.0000     -11.302269      -307.5504
  12   2.0000     -11.260893      -306.4245
  13   2.0000     -11.258646      -306.3633
  14   2.0000     -11.253236      -306.2161
  15   2.0000     -11.247480      -306.0595
  16   2.0000     -11.237132      -305.7779
  17   2.0000     -11.233309      -305.6739
  18   2.0000     -11.230165      -305.5883
  19   2.0000     -11.225936      -305.4732
  20   2.0000      -8.893231      -241.9971
  21   2.0000      -6.574807      -178.9096
  22   2.0000      -6.572802      -178.8550
  23   2.0000      -6.572215      -178.8391
  24   2.0000      -1.452616       -39.5277
  25   2.0000      -1.411264       -38.4024
  26   2.0000      -1.356566       -36.9140
  27   2.0000      -1.339568       -36.4515
  28   2.0000      -1.237067       -33.6623
  29   2.0000      -1.152001       -31.3475
  30   2.0000      -1.119265       -30.4568
  31   2.0000      -1.041712       -28.3464
  32   2.0000      -1.033822       -28.1317
  33   2.0000      -1.009340       -27.4655
  34   2.0000      -0.997362       -27.1396
  35   2.0000      -0.982811       -26.7436
  36   2.0000      -0.921347       -25.0711
  37   2.0000      -0.895724       -24.3739
  38   2.0000      -0.847839       -23.0709
  39   2.0000      -0.835288       -22.7293
  40   2.0000      -0.827696       -22.5227
  41   2.0000      -0.815692       -22.1961
  42   2.0000      -0.750779       -20.4297
  43   2.0000      -0.735033       -20.0013
  44   2.0000      -0.724637       -19.7184
  45   2.0000      -0.690585       -18.7918
  46   2.0000      -0.685508       -18.6536
  47   2.0000      -0.678716       -18.4688
  48   2.0000      -0.671015       -18.2592
  49   2.0000      -0.654684       -17.8148
  50   2.0000      -0.652222       -17.7479
  51   2.0000      -0.644245       -17.5308
  52   2.0000      -0.631177       -17.1752
  53   2.0000      -0.614349       -16.7173
  54   2.0000      -0.600188       -16.3319
  55   2.0000      -0.599411       -16.3108
  56   2.0000      -0.594943       -16.1892
  57   2.0000      -0.581231       -15.8161
  58   2.0000      -0.573511       -15.6060
  59   2.0000      -0.564432       -15.3590
  60   2.0000      -0.557875       -15.1806
  61   2.0000      -0.544422       -14.8145
  62   2.0000      -0.537848       -14.6356
  63   2.0000      -0.526984       -14.3400
  64   2.0000      -0.516585       -14.0570
  65   2.0000      -0.509356       -13.8603
  66   2.0000      -0.499613       -13.5952
  67   2.0000      -0.495134       -13.4733
  68   2.0000      -0.480512       -13.0754
  69   2.0000      -0.463370       -12.6090
  70   2.0000      -0.458473       -12.4757
  71   2.0000      -0.451457       -12.2848
  72   2.0000      -0.354323        -9.6416
  73   2.0000      -0.343930        -9.3588
  74   2.0000      -0.327266        -8.9054
  75   2.0000      -0.315701        -8.5907
  76   2.0000      -0.313539        -8.5318
  77   0.0000       0.075441         2.0529
  78   0.0000       0.113289         3.0827
  79   0.0000       0.121308         3.3010
  80   0.0000       0.136172         3.7054
  81   0.0000       0.141276         3.8443

MULLIKEN ATOMIC CHARGES
-----------------------
   0 C :   -0.305300
   1 C :    0.034722
   2 O :   -0.350572
   3 C :    0.457385
   4 O :   -0.436865
   5 C :   -0.178595
   6 C :    0.144700
   7 C :   -0.282097
   8 N :   -0.120503
   9 C :    0.201362
  10 S :   -0.438794
  11 N :   -0.197584
  12 C :    0.036054
  13 C :    0.058825
  14 C :   -0.163801
  15 C :   -0.134107
  16 C :   -0.278852
  17 C :    0.311768
  18 O :   -0.359189
  19 C :   -0.273844
  20 H :    0.127154
  21 H :    0.096364
  22 H :    0.094181
  23 H :    0.104285
  24 H :    0.108088
  25 H :    0.128105
  26 H :    0.101213
  27 H :    0.125605
  28 H :    0.196707
  29 H :    0.193707
  30 H :    0.153820
  31 H :    0.154155
  32 H :    0.159236
  33 H :    0.128039
  34 H :    0.240067
  35 H :    0.164560
Sum of atomic charges:   -0.0000000

LOEWDIN ATOMIC CHARGES
----------------------
   0 C :    0.105955
   1 C :   -0.015835
   2 O :    0.302612
   3 C :   -0.413890
   4 O :    0.103167
   5 C :   -0.090896
   6 C :   -0.063745
   7 C :    0.125067
   8 N :    0.405067
   9 C :   -0.459132
  10 S :   -0.035633
  11 N :    0.398120
  12 C :   -0.046695
  13 C :   -0.038943
  14 C :    0.022065
  15 C :    0.040409
  16 C :   -0.002286
  17 C :   -0.192662
  18 O :    0.392961
  19 C :    0.028242
  20 H :   -0.023914
  21 H :   -0.026608
  22 H :   -0.029634
  23 H :   -0.028038
  24 H :   -0.025253
  25 H :   -0.008022
  26 H :   -0.021451
  27 H :   -0.010015
  28 H :   -0.059228
  29 H :   -0.063548
  30 H :   -0.005253
  31 H :   -0.025243
  32 H :   -0.021270
  33 H :   -0.036407
  34 H :   -0.154903
  35 H :   -0.025160

  Mayer bond orders larger than 0.100000
B(  0-C ,  1-C ) :   0.9611 B(  0-C , 20-H ) :   0.9720 B(  0-C , 21-H ) :   0.9763
B(  0-C , 22-H ) :   0.9761 B(  1-C ,  2-O ) :   0.8976 B(  1-C , 23-H ) :   0.9803
B(  1-C , 24-H ) :   0.9845 B(  2-O ,  3-C ) :   1.1559 B(  3-C ,  4-O ) :   1.9647
B(  3-C ,  5-C ) :   1.0651 B(  5-C ,  6-C ) :   1.6413 B(  5-C , 12-C ) :   0.9669
B(  6-C ,  7-C ) :   0.9567 B(  6-C ,  8-N ) :   1.1531 B(  7-C , 25-H ) :   0.9641
B(  7-C , 26-H ) :   0.9915 B(  7-C , 27-H ) :   0.9644 B(  8-N ,  9-C ) :   1.1769
B(  8-N , 28-H ) :   0.9486 B(  9-C , 10-S ) :   1.6112 B(  9-C , 11-N ) :   1.3052
B( 11-N , 12-C ) :   0.9921 B( 11-N , 29-H ) :   0.9519 B( 12-C , 13-C ) :   0.9462
B( 12-C , 30-H ) :   1.0007 B( 13-C , 14-C ) :   1.3749 B( 13-C , 19-C ) :   1.3690
B( 14-C , 15-C ) :   1.3943 B( 14-C , 31-H ) :   0.9646 B( 15-C , 16-C ) :   1.3622
B( 15-C , 32-H ) :   0.9714 B( 16-C , 17-C ) :   1.3318 B( 16-C , 33-H ) :   0.9860
B( 17-C , 18-O ) :   1.1079 B( 17-C , 19-C ) :   1.3788 B( 18-O , 34-H ) :   0.9806
B( 19-C , 35-H ) :   0.9584

MP2 TOTAL ENERGY:    -1274.348165503 Eh
FINAL SINGLE POINT ENERGY     -1274.348165502950

DIPOLE MOMENT
-------------
                                X             Y             Z
Electronic contribution:     10.80025       9.89353       9.22659
Nuclear contribution   :    -12.35788     -11.09595     -10.27499
                        -----------------------------------------
Total Dipole Moment    :     -1.55763      -1.20242      -1.04840
                        -----------------------------------------
Magnitude (a.u.)       :      2.22961
Magnitude (Debye)      :      5.66722

Rotational constants in cm-1:     0.010708     0.009185     0.006014
Rotational constants in MHz :   321.015666   275.354229   180.286071

                             ****ORCA TERMINATED NORMALLY****
TOTAL RUN TIME: 0 days 1 hours 31 minutes 26 seconds 192 msec
