                         Program Version 5.0.0 -  RELEASE  -
|  1> ! ri-mp2 cc-pvtz cc-pvtz/c TightSCF NoKeepInts
|  2>
|  3> %scf
|  4>   MaxCore 4096
|  5> end
|  6> *xyz  0  1
|  7>     C       15.1385772   13.9135114   15.1718219
|  8>     C       15.2006824   14.8430968   16.3966323
|  9>     O       16.1992486   15.8468407   16.1419695
| 10>     C       17.4268780   15.7111679   16.7226599
| 11>     O       17.9222109   14.6129229   16.9158995
| 12>     C       17.8230894   16.9069988   17.5370908
| 13>     C       17.4461013   18.1811763   17.2582678
| 14>     C       16.6050153   18.6638630   16.0945897
| 15>     N       17.9123862   19.2332875   18.0528925
| 16>     C       18.8589068   19.1116501   19.0360496
| 17>     S       19.4450184   20.4274598   19.8488226
| 18>     N       19.2959077   17.8403584   19.3110875
| 19>     C       18.7170116   16.6072155   18.7448808
| 20>     C       17.9456103   15.8383779   19.8145644
| 21>     C       18.2490545   14.4906454   20.0819695
| 22>     C       17.5369609   13.7760589   21.0598025
| 23>     C       16.5110657   14.4137326   21.7777992
| 24>     C       16.2027563   15.7547250   21.5119024
| 25>     O       15.2076977   16.3712551   22.1981917
| 26>     C       16.9127066   16.4630678   20.5373937
| 27>     H       16.0973609   13.3982864   15.0307529
| 28>     H       14.9140079   14.4835697   14.2619383
| 29>     H       14.3591022   13.1536039   15.3044118
| 30>     H       14.2239105   15.3261979   16.5269625
| 31>     H       15.4235020   14.2721562   17.3093004
| 32>     H       16.9135738   18.1784559   15.1601933
| 33>     H       16.6883561   19.7458017   15.9351108
| 34>     H       15.5456818   18.4314128   16.2602019
| 35>     H       17.6042695   20.1741277   17.8657676
| 36>     H       19.9713829   17.7753044   20.0617440
| 37>     H       19.5486869   15.9766112   18.3986113
| 38>     H       19.0300437   13.9899313   19.5147789
| 39>     H       17.7781905   12.7322538   21.2526712
| 40>     H       15.9575962   13.8650519   22.5325257
| 41>     H       14.8746336   15.7408484   22.8543624
| 42>     H       16.6598159   17.5009745   20.3503793
| 43> *
| 44>
| 45>                          ****END OF INPUT****

CARTESIAN COORDINATES (ANGSTROEM)
---------------------------------
  C     15.138577   13.913511   15.171822
  C     15.200682   14.843097   16.396632
  O     16.199249   15.846841   16.141969
  C     17.426878   15.711168   16.722660
  O     17.922211   14.612923   16.915899
  C     17.823089   16.906999   17.537091
  C     17.446101   18.181176   17.258268
  C     16.605015   18.663863   16.094590
  N     17.912386   19.233287   18.052892
  C     18.858907   19.111650   19.036050
  S     19.445018   20.427460   19.848823
  N     19.295908   17.840358   19.311087
  C     18.717012   16.607215   18.744881
  C     17.945610   15.838378   19.814564
  C     18.249054   14.490645   20.081969
  C     17.536961   13.776059   21.059802
  C     16.511066   14.413733   21.777799
  C     16.202756   15.754725   21.511902
  O     15.207698   16.371255   22.198192
  C     16.912707   16.463068   20.537394
  H     16.097361   13.398286   15.030753
  H     14.914008   14.483570   14.261938
  H     14.359102   13.153604   15.304412
  H     14.223911   15.326198   16.526962
  H     15.423502   14.272156   17.309300
  H     16.913574   18.178456   15.160193
  H     16.688356   19.745802   15.935111
  H     15.545682   18.431413   16.260202
  H     17.604270   20.174128   17.865768
  H     19.971383   17.775304   20.061744
  H     19.548687   15.976611   18.398611
  H     19.030044   13.989931   19.514779
  H     17.778191   12.732254   21.252671
  H     15.957596   13.865052   22.532526
  H     14.874634   15.740848   22.854362
  H     16.659816   17.500975   20.350379

 Total Charge           Charge          ....    0
 Multiplicity           Mult            ....    1
 Number of Electrons    NEL             ....  154
 Basis Dimension        Dim             ....  828

ORBITAL ENERGIES
----------------

  NO   OCC          E(Eh)            E(eV)
   0   2.0000     -91.888338     -2500.4088
   1   2.0000     -20.593675      -560.3824
   2   2.0000     -20.593135      -560.3677
   3   2.0000     -20.551839      -559.2440
   4   2.0000     -15.628212      -425.2653
   5   2.0000     -15.607477      -424.7010
   6   2.0000     -11.396251      -310.1077
   7   2.0000     -11.383552      -309.7622
   8   2.0000     -11.334288      -308.4217
   9   2.0000     -11.309748      -307.7539
  10   2.0000     -11.307289      -307.6870
  11   2.0000     -11.299850      -307.4845
  12   2.0000     -11.260119      -306.4034
  13   2.0000     -11.259401      -306.3839
  14   2.0000     -11.255581      -306.2799
  15   2.0000     -11.249974      -306.1274
  16   2.0000     -11.239575      -305.8444
  17   2.0000     -11.235553      -305.7349
  18   2.0000     -11.232740      -305.6584
  19   2.0000     -11.223681      -305.4119
  20   2.0000      -8.893407      -242.0019
  21   2.0000      -6.574985      -178.9144
  22   2.0000      -6.572977      -178.8598
  23   2.0000      -6.572392      -178.8439
  24   2.0000      -1.453877       -39.5620
  25   2.0000      -1.413423       -38.4612
  26   2.0000      -1.357570       -36.9414
  27   2.0000      -1.339287       -36.4439
  28   2.0000      -1.237291       -33.6684
  29   2.0000      -1.154126       -31.4054
  30   2.0000      -1.120462       -30.4893
  31   2.0000      -1.043224       -28.3876
  32   2.0000      -1.033614       -28.1261
  33   2.0000      -1.011518       -27.5248
  34   2.0000      -0.997932       -27.1551
  35   2.0000      -0.983267       -26.7560
  36   2.0000      -0.922197       -25.0943
  37   2.0000      -0.886414       -24.1205
  38   2.0000      -0.848029       -23.0760
  39   2.0000      -0.837107       -22.7788
  40   2.0000      -0.830069       -22.5873
  41   2.0000      -0.822318       -22.3764
  42   2.0000      -0.755042       -20.5457
  43   2.0000      -0.734741       -19.9933
  44   2.0000      -0.726648       -19.7731
  45   2.0000      -0.692298       -18.8384
  46   2.0000      -0.685881       -18.6638
  47   2.0000      -0.680666       -18.5219
  48   2.0000      -0.672368       -18.2961
  49   2.0000      -0.660179       -17.9644
  50   2.0000      -0.646464       -17.5912
  51   2.0000      -0.641287       -17.4503
  52   2.0000      -0.631084       -17.1727
  53   2.0000      -0.609608       -16.5883
  54   2.0000      -0.601740       -16.3742
  55   2.0000      -0.600898       -16.3513
  56   2.0000      -0.596843       -16.2409
  57   2.0000      -0.584225       -15.8976
  58   2.0000      -0.574805       -15.6412
  59   2.0000      -0.566534       -15.4162
  60   2.0000      -0.561602       -15.2820
  61   2.0000      -0.547494       -14.8981
  62   2.0000      -0.534282       -14.5385
  63   2.0000      -0.519537       -14.1373
  64   2.0000      -0.517696       -14.0872
  65   2.0000      -0.511045       -13.9062
  66   2.0000      -0.502423       -13.6716
  67   2.0000      -0.496702       -13.5160
  68   2.0000      -0.481269       -13.0960
  69   2.0000      -0.462923       -12.5968
  70   2.0000      -0.456828       -12.4309
  71   2.0000      -0.453884       -12.3508
  72   2.0000      -0.353873        -9.6294
  73   2.0000      -0.345910        -9.4127
  74   2.0000      -0.327560        -8.9134
  75   2.0000      -0.316988        -8.6257
  76   2.0000      -0.315108        -8.5745
  77   0.0000       0.073649         2.0041
  78   0.0000       0.109235         2.9724
  79   0.0000       0.120795         3.2870
  80   0.0000       0.134356         3.6560
  81   0.0000       0.138889         3.7794

MULLIKEN ATOMIC CHARGES
-----------------------
   0 C :   -0.273520
   1 C :    0.045183
   2 O :   -0.361936
   3 C :    0.427972
   4 O :   -0.414052
   5 C :   -0.160023
   6 C :    0.140192
   7 C :   -0.282334
   8 N :   -0.123725
   9 C :    0.202427
  10 S :   -0.439743
  11 N :   -0.199383
  12 C :    0.045102
  13 C :    0.051181
  14 C :   -0.165152
  15 C :   -0.134109
  16 C :   -0.280213
  17 C :    0.311522
  18 O :   -0.358541
  19 C :   -0.272972
  20 H :    0.111402
  21 H :    0.090419
  22 H :    0.089119
  23 H :    0.097308
  24 H :    0.103783
  25 H :    0.124559
  26 H :    0.102554
  27 H :    0.126646
  28 H :    0.197053
  29 H :    0.193952
  30 H :    0.154298
  31 H :    0.155181
  32 H :    0.160243
  33 H :    0.129264
  34 H :    0.240332
  35 H :    0.166008
Sum of atomic charges:    0.0000000

LOEWDIN ATOMIC CHARGES
----------------------
   0 C :    0.104484
   1 C :   -0.014721
   2 O :    0.298487
   3 C :   -0.414882
   4 O :    0.116202
   5 C :   -0.092064
   6 C :   -0.070382
   7 C :    0.125671
   8 N :    0.404378
   9 C :   -0.458119
  10 S :   -0.036361
  11 N :    0.397355
  12 C :   -0.045733
  13 C :   -0.039718
  14 C :    0.021083
  15 C :    0.040484
  16 C :   -0.002403
  17 C :   -0.192990
  18 O :    0.393258
  19 C :    0.028397
  20 H :   -0.023418
  21 H :   -0.029616
  22 H :   -0.028736
  23 H :   -0.028420
  24 H :   -0.025367
  25 H :   -0.008337
  26 H :   -0.020161
  27 H :   -0.009589
  28 H :   -0.058864
  29 H :   -0.063914
  30 H :   -0.004851
  31 H :   -0.025069
  32 H :   -0.020878
  33 H :   -0.036082
  34 H :   -0.154575
  35 H :   -0.024548

  Mayer bond orders larger than 0.100000
B(  0-C ,  1-C ) :   0.9735 B(  0-C , 20-H ) :   0.9757 B(  0-C , 21-H ) :   0.9776
B(  0-C , 22-H ) :   0.9764 B(  1-C ,  2-O ) :   0.8920 B(  1-C , 23-H ) :   0.9827
B(  1-C , 24-H ) :   0.9718 B(  2-O ,  3-C ) :   1.1018 B(  3-C ,  4-O ) :   1.9908
B(  3-C ,  5-C ) :   1.0466 B(  5-C ,  6-C ) :   1.6588 B(  5-C , 12-C ) :   0.9647
B(  6-C ,  7-C ) :   0.9532 B(  6-C ,  8-N ) :   1.1399 B(  7-C , 25-H ) :   0.9689
B(  7-C , 26-H ) :   0.9896 B(  7-C , 27-H ) :   0.9631 B(  8-N ,  9-C ) :   1.1824
B(  8-N , 28-H ) :   0.9494 B(  9-C , 10-S ) :   1.6105 B(  9-C , 11-N ) :   1.3014
B( 11-N , 12-C ) :   0.9919 B( 11-N , 29-H ) :   0.9517 B( 12-C , 13-C ) :   0.9455
B( 12-C , 30-H ) :   0.9987 B( 13-C , 14-C ) :   1.3762 B( 13-C , 19-C ) :   1.3696
B( 14-C , 15-C ) :   1.3944 B( 14-C , 31-H ) :   0.9643 B( 15-C , 16-C ) :   1.3630
B( 15-C , 32-H ) :   0.9711 B( 16-C , 17-C ) :   1.3310 B( 16-C , 33-H ) :   0.9856
B( 17-C , 18-O ) :   1.1088 B( 17-C , 19-C ) :   1.3775 B( 18-O , 34-H ) :   0.9803
B( 19-C , 35-H ) :   0.9581

MP2 TOTAL ENERGY:    -1274.333977443 Eh
FINAL SINGLE POINT ENERGY     -1274.333977442643

DIPOLE MOMENT
-------------
                                X             Y             Z
Electronic contribution:     10.76839      10.43998       9.90726
Nuclear contribution   :    -12.31788     -11.64172     -10.56383
                        -----------------------------------------
Total Dipole Moment    :     -1.54949      -1.20174      -0.65657
                        -----------------------------------------
Magnitude (a.u.)       :      2.06789
Magnitude (Debye)      :      5.25617

Rotational constants in cm-1:     0.010957     0.008999     0.006033
Rotational constants in MHz :   328.496229   269.787095   180.863347

                             ****ORCA TERMINATED NORMALLY****
TOTAL RUN TIME: 0 days 1 hours 45 minutes 31 seconds 51 msec
