                         Program Version 5.0.0 -  RELEASE  -
|  1> ! ri-mp2 cc-pvtz cc-pvtz/c TightSCF NoKeepInts
|  2>
|  3> %scf
|  4>   MaxCore 4096
|  5> end
|  6> *xyz  0  1
|  7>     C       15.2231589   13.8488034   15.5125120
|  8>     C       15.7876298   14.3168599   16.8672017
|  9>     O       16.9033167   15.1936764   16.6278246
| 10>     C       16.6789705   16.5384155   16.5349338
| 11>     O       15.6968018   16.9860253   15.9686028
| 12>     C       17.5225330   17.3310875   17.4964654
| 13>     C       17.4340175   18.6821440   17.5957768
| 14>     C       16.5260638   19.6022307   16.8077812
| 15>     N       18.2696293   19.3773326   18.4749791
| 16>     C       19.2882118   18.8156068   19.1972310
| 17>     S       20.2977774   19.7251708   20.1402572
| 18>     N       19.4337624   17.4558708   19.0942510
| 19>     C       18.5074687   16.5535547   18.3867016
| 20>     C       17.7918107   15.6628404   19.3986134
| 21>     C       18.1273395   14.3001723   19.5081913
| 22>     C       17.4648400   13.4725414   20.4302351
| 23>     C       16.4614295   14.0123907   21.2527632
| 24>     C       16.1302573   15.3705888   21.1519180
| 25>     O       15.1632207   15.8951909   21.9458038
| 26>     C       16.7902574   16.1914102   20.2323305
| 27>     H       14.8203517   14.6947048   14.9415645
| 28>     H       14.4127783   13.1257533   15.6638999
| 29>     H       16.0054419   13.3682152   14.9123010
| 30>     H       15.0111721   14.8182181   17.4615552
| 31>     H       16.1321349   13.4395027   17.4294544
| 32>     H       15.4735993   19.3950641   17.0405137
| 33>     H       16.6586303   19.4467774   15.7295479
| 34>     H       16.7090402   20.6637354   17.0116736
| 35>     H       18.1786606   20.3770231   18.5614058
| 36>     H       20.1713306   17.0667651   19.6673358
| 37>     H       19.1120615   15.9132327   17.7289124
| 38>     H       18.9003118   13.8794973   18.8703805
| 39>     H       17.7308289   12.4195508   20.5068549
| 40>     H       15.9479484   13.3777524   21.9676832
| 41>     H       14.8606473   15.1930348   22.5411562
| 42>     H       16.5235653   17.2412598   20.1753875
| 43> *
| 44>
| 45>                          ****END OF INPUT****

CARTESIAN COORDINATES (ANGSTROEM)
---------------------------------
  C     15.223159   13.848803   15.512512
  C     15.787630   14.316860   16.867202
  O     16.903317   15.193676   16.627825
  C     16.678970   16.538415   16.534934
  O     15.696802   16.986025   15.968603
  C     17.522533   17.331087   17.496465
  C     17.434017   18.682144   17.595777
  C     16.526064   19.602231   16.807781
  N     18.269629   19.377333   18.474979
  C     19.288212   18.815607   19.197231
  S     20.297777   19.725171   20.140257
  N     19.433762   17.455871   19.094251
  C     18.507469   16.553555   18.386702
  C     17.791811   15.662840   19.398613
  C     18.127340   14.300172   19.508191
  C     17.464840   13.472541   20.430235
  C     16.461430   14.012391   21.252763
  C     16.130257   15.370589   21.151918
  O     15.163221   15.895191   21.945804
  C     16.790257   16.191410   20.232330
  H     14.820352   14.694705   14.941564
  H     14.412778   13.125753   15.663900
  H     16.005442   13.368215   14.912301
  H     15.011172   14.818218   17.461555
  H     16.132135   13.439503   17.429454
  H     15.473599   19.395064   17.040514
  H     16.658630   19.446777   15.729548
  H     16.709040   20.663735   17.011674
  H     18.178661   20.377023   18.561406
  H     20.171331   17.066765   19.667336
  H     19.112061   15.913233   17.728912
  H     18.900312   13.879497   18.870380
  H     17.730829   12.419551   20.506855
  H     15.947948   13.377752   21.967683
  H     14.860647   15.193035   22.541156
  H     16.523565   17.241260   20.175387

 Total Charge           Charge          ....    0
 Multiplicity           Mult            ....    1
 Number of Electrons    NEL             ....  154
 Basis Dimension        Dim             ....  828

ORBITAL ENERGIES
----------------

  NO   OCC          E(Eh)            E(eV)
   0   2.0000     -91.889559     -2500.4420
   1   2.0000     -20.599053      -560.5287
   2   2.0000     -20.590832      -560.3050
   3   2.0000     -20.545661      -559.0759
   4   2.0000     -15.629861      -425.3101
   5   2.0000     -15.608994      -424.7423
   6   2.0000     -11.395082      -310.0759
   7   2.0000     -11.384667      -309.7925
   8   2.0000     -11.336418      -308.4796
   9   2.0000     -11.316550      -307.9390
  10   2.0000     -11.310259      -307.7678
  11   2.0000     -11.295737      -307.3726
  12   2.0000     -11.262077      -306.4567
  13   2.0000     -11.259273      -306.3804
  14   2.0000     -11.257941      -306.3442
  15   2.0000     -11.253045      -306.2109
  16   2.0000     -11.245478      -306.0050
  17   2.0000     -11.240632      -305.8731
  18   2.0000     -11.240384      -305.8664
  19   2.0000     -11.217833      -305.2528
  20   2.0000      -8.894618      -242.0349
  21   2.0000      -6.576191      -178.9473
  22   2.0000      -6.574187      -178.8927
  23   2.0000      -6.573599      -178.8767
  24   2.0000      -1.449807       -39.4513
  25   2.0000      -1.418705       -38.6049
  26   2.0000      -1.354379       -36.8545
  27   2.0000      -1.340873       -36.4870
  28   2.0000      -1.239453       -33.7272
  29   2.0000      -1.159785       -31.5594
  30   2.0000      -1.120954       -30.5027
  31   2.0000      -1.044251       -28.4155
  32   2.0000      -1.032788       -28.1036
  33   2.0000      -1.017681       -27.6925
  34   2.0000      -0.995880       -27.0993
  35   2.0000      -0.984451       -26.7883
  36   2.0000      -0.923852       -25.1393
  37   2.0000      -0.886189       -24.1144
  38   2.0000      -0.848301       -23.0835
  39   2.0000      -0.839950       -22.8562
  40   2.0000      -0.836267       -22.7560
  41   2.0000      -0.822860       -22.3911
  42   2.0000      -0.756824       -20.5942
  43   2.0000      -0.733652       -19.9637
  44   2.0000      -0.722903       -19.6712
  45   2.0000      -0.697930       -18.9916
  46   2.0000      -0.689551       -18.7636
  47   2.0000      -0.679909       -18.5013
  48   2.0000      -0.670993       -18.2587
  49   2.0000      -0.655294       -17.8315
  50   2.0000      -0.647682       -17.6243
  51   2.0000      -0.645944       -17.5770
  52   2.0000      -0.632760       -17.2183
  53   2.0000      -0.609609       -16.5883
  54   2.0000      -0.604815       -16.4579
  55   2.0000      -0.600314       -16.3354
  56   2.0000      -0.599122       -16.3030
  57   2.0000      -0.581542       -15.8246
  58   2.0000      -0.574467       -15.6320
  59   2.0000      -0.570827       -15.5330
  60   2.0000      -0.564947       -15.3730
  61   2.0000      -0.539225       -14.6731
  62   2.0000      -0.534854       -14.5541
  63   2.0000      -0.527012       -14.3407
  64   2.0000      -0.516134       -14.0447
  65   2.0000      -0.513076       -13.9615
  66   2.0000      -0.502284       -13.6678
  67   2.0000      -0.497545       -13.5389
  68   2.0000      -0.488039       -13.2802
  69   2.0000      -0.463966       -12.6252
  70   2.0000      -0.454820       -12.3763
  71   2.0000      -0.444588       -12.0978
  72   2.0000      -0.354813        -9.6550
  73   2.0000      -0.351784        -9.5725
  74   2.0000      -0.329175        -8.9573
  75   2.0000      -0.323924        -8.8144
  76   2.0000      -0.316957        -8.6248
  77   0.0000       0.072562         1.9745
  78   0.0000       0.103246         2.8095
  79   0.0000       0.124076         3.3763
  80   0.0000       0.131072         3.5666
  81   0.0000       0.136253         3.7076

MULLIKEN ATOMIC CHARGES
-----------------------
   0 C :   -0.275147
   1 C :    0.038060
   2 O :   -0.372895
   3 C :    0.458386
   4 O :   -0.421521
   5 C :   -0.229458
   6 C :    0.158539
   7 C :   -0.271110
   8 N :   -0.122685
   9 C :    0.213921
  10 S :   -0.439841
  11 N :   -0.207202
  12 C :    0.069478
  13 C :    0.060895
  14 C :   -0.203200
  15 C :   -0.125506
  16 C :   -0.280669
  17 C :    0.314539
  18 O :   -0.355812
  19 C :   -0.264058
  20 H :    0.117511
  21 H :    0.088734
  22 H :    0.089995
  23 H :    0.094853
  24 H :    0.109103
  25 H :    0.132353
  26 H :    0.129813
  27 H :    0.095672
  28 H :    0.197474
  29 H :    0.195037
  30 H :    0.149954
  31 H :    0.150925
  32 H :    0.164120
  33 H :    0.131822
  34 H :    0.241266
  35 H :    0.166656
Sum of atomic charges:    0.0000000

LOEWDIN ATOMIC CHARGES
----------------------
   0 C :    0.104726
   1 C :   -0.016805
   2 O :    0.298053
   3 C :   -0.415498
   4 O :    0.109029
   5 C :   -0.096342
   6 C :   -0.058994
   7 C :    0.131373
   8 N :    0.406770
   9 C :   -0.455938
  10 S :   -0.035070
  11 N :    0.396125
  12 C :   -0.052227
  13 C :   -0.037072
  14 C :    0.014657
  15 C :    0.039565
  16 C :   -0.002417
  17 C :   -0.189717
  18 O :    0.395865
  19 C :    0.030925
  20 H :   -0.025124
  21 H :   -0.030084
  22 H :   -0.029453
  23 H :   -0.028829
  24 H :   -0.026494
  25 H :   -0.004740
  26 H :   -0.004068
  27 H :   -0.023148
  28 H :   -0.057441
  29 H :   -0.064793
  30 H :   -0.009818
  31 H :   -0.029769
  32 H :   -0.020839
  33 H :   -0.035207
  34 H :   -0.153343
  35 H :   -0.023859

  Mayer bond orders larger than 0.100000
B(  0-C ,  1-C ) :   0.9818 B(  0-C , 20-H ) :   0.9745 B(  0-C , 21-H ) :   0.9782
B(  0-C , 22-H ) :   0.9770 B(  1-C ,  2-O ) :   0.8787 B(  1-C , 23-H ) :   0.9700
B(  1-C , 24-H ) :   0.9771 B(  2-O ,  3-C ) :   1.1180 B(  3-C ,  4-O ) :   1.9787
B(  3-C ,  5-C ) :   1.0684 B(  5-C ,  6-C ) :   1.6491 B(  5-C , 12-C ) :   0.9712
B(  6-C ,  7-C ) :   0.9666 B(  6-C ,  8-N ) :   1.1614 B(  7-C , 25-H ) :   0.9593
B(  7-C , 26-H ) :   0.9613 B(  7-C , 27-H ) :   0.9907 B(  8-N ,  9-C ) :   1.1828
B(  8-N , 28-H ) :   0.9477 B(  9-C , 10-S ) :   1.6062 B(  9-C , 11-N ) :   1.3069
B( 11-N , 12-C ) :   0.9774 B( 11-N , 29-H ) :   0.9517 B( 12-C , 13-C ) :   0.9371
B( 12-C , 30-H ) :   1.0019 B( 13-C , 14-C ) :   1.3471 B( 13-C , 19-C ) :   1.3799
B( 14-C , 15-C ) :   1.3882 B( 14-C , 31-H ) :   0.9742 B( 15-C , 16-C ) :   1.3631
B( 15-C , 32-H ) :   0.9696 B( 16-C , 17-C ) :   1.3307 B( 16-C , 33-H ) :   0.9844
B( 17-C , 18-O ) :   1.1119 B( 17-C , 19-C ) :   1.3710 B( 18-O , 34-H ) :   0.9793
B( 19-C , 35-H ) :   0.9583

MP2 TOTAL ENERGY:    -1274.338879831 Eh
FINAL SINGLE POINT ENERGY     -1274.338879830676

DIPOLE MOMENT
-------------
                                X             Y             Z
Electronic contribution:     10.37217      10.03841       8.25650
Nuclear contribution   :    -11.38009     -11.59865      -8.36546
                        -----------------------------------------
Total Dipole Moment    :     -1.00792      -1.56023      -0.10896
                        -----------------------------------------
Magnitude (a.u.)       :      1.86067
Magnitude (Debye)      :      4.72945

Rotational constants in cm-1:     0.012054     0.008649     0.006193
Rotational constants in MHz :   361.375395   259.286175   185.668627

                             ****ORCA TERMINATED NORMALLY****
TOTAL RUN TIME: 0 days 2 hours 22 minutes 51 seconds 497 msec
