                         Program Version 4.2.0 -  RELEASE  -
|  1> ! ri-mp2 cc-pvtz cc-pvtz/c TightSCF  NoKeepInts
|  2>
|  3> %scf
|  4>   MaxCore 4096
|  5> end
|  6> *xyz  0  1
|  7>     C       15.0050685   14.0992445   16.0370698
|  8>     C       16.1126241   14.5853749   16.9867903
|  9>     O       17.1505735   15.1612888   16.1740992
| 10>     C       17.2462326   16.5195286   16.0797293
| 11>     O       16.8377715   17.0765723   15.0779631
| 12>     C       17.6264979   17.2418606   17.3469045
| 13>     C       17.3363042   18.5550099   17.5369949
| 14>     C       16.4802058   19.4437425   16.6607250
| 15>     N       17.9005675   19.2455767   18.6144556
| 16>     C       18.9491884   18.7787698   19.3631437
| 17>     S       19.7282948   19.7272117   20.4715082
| 18>     N       19.3320931   17.4818825   19.1281662
| 19>     C       18.5381899   16.5120331   18.3520496
| 20>     C       17.8008081   15.6074542   19.3336869
| 21>     C       18.2386566   14.2853885   19.5399024
| 22>     C       17.5709811   13.4439015   20.4454671
| 23>     C       16.4626105   13.9304371   21.1591201
| 24>     C       16.0347138   15.2514011   20.9704450
| 25>     O       14.9671340   15.7261075   21.6594958
| 26>     C       16.6992534   16.0859943   20.0666451
| 27>     H       14.5893639   14.9391627   15.4657489
| 28>     H       14.1902995   13.6302721   16.6017710
| 29>     H       15.4008524   13.3627283   15.3266246
| 30>     H       15.6949984   15.3109744   17.6958899
| 31>     H       16.5042369   13.7251850   17.5438084
| 32>     H       15.5381436   18.9443110   16.4013650
| 33>     H       16.9991215   19.6692152   15.7199475
| 34>     H       16.2240416   20.3959385   17.1398394
| 35>     H       17.6462508   20.2069226   18.7777807
| 36>     H       20.0975907   17.1583120   19.7055817
| 37>     H       19.2381235   15.8928039   17.7728685
| 38>     H       19.0972952   13.9057104   18.9917512
| 39>     H       17.9151995   12.4216491   20.5953248
| 40>     H       15.9449349   13.2844810   21.8610332
| 41>     H       14.6910647   15.0373768   22.2833339
| 42>     H       16.3577137   17.1081767   19.9469696
| 43> *
| 44>
| 45>                          ****END OF INPUT****

CARTESIAN COORDINATES (ANGSTROEM)
---------------------------------
  C     15.005069   14.099244   16.037070
  C     16.112624   14.585375   16.986790
  O     17.150574   15.161289   16.174099
  C     17.246233   16.519529   16.079729
  O     16.837771   17.076572   15.077963
  C     17.626498   17.241861   17.346905
  C     17.336304   18.555010   17.536995
  C     16.480206   19.443742   16.660725
  N     17.900568   19.245577   18.614456
  C     18.949188   18.778770   19.363144
  S     19.728295   19.727212   20.471508
  N     19.332093   17.481883   19.128166
  C     18.538190   16.512033   18.352050
  C     17.800808   15.607454   19.333687
  C     18.238657   14.285388   19.539902
  C     17.570981   13.443901   20.445467
  C     16.462611   13.930437   21.159120
  C     16.034714   15.251401   20.970445
  O     14.967134   15.726107   21.659496
  C     16.699253   16.085994   20.066645
  H     14.589364   14.939163   15.465749
  H     14.190300   13.630272   16.601771
  H     15.400852   13.362728   15.326625
  H     15.694998   15.310974   17.695890
  H     16.504237   13.725185   17.543808
  H     15.538144   18.944311   16.401365
  H     16.999122   19.669215   15.719947
  H     16.224042   20.395938   17.139839
  H     17.646251   20.206923   18.777781
  H     20.097591   17.158312   19.705582
  H     19.238124   15.892804   17.772869
  H     19.097295   13.905710   18.991751
  H     17.915199   12.421649   20.595325
  H     15.944935   13.284481   21.861033
  H     14.691065   15.037377   22.283334
  H     16.357714   17.108177   19.946970

 Total Charge           Charge          ....    0
 Multiplicity           Mult            ....    1
 Number of Electrons    NEL             ....  154
 Basis Dimension        Dim             ....  828

ORBITAL ENERGIES
----------------

  NO   OCC          E(Eh)            E(eV)
   0   2.0000     -91.892242     -2500.5150
   1   2.0000     -20.603936      -560.6616
   2   2.0000     -20.583481      -560.1050
   3   2.0000     -20.548056      -559.1410
   4   2.0000     -15.632472      -425.3812
   5   2.0000     -15.611251      -424.8037
   6   2.0000     -11.392927      -310.0173
   7   2.0000     -11.386730      -309.8487
   8   2.0000     -11.338381      -308.5330
   9   2.0000     -11.321933      -308.0855
  10   2.0000     -11.315572      -307.9124
  11   2.0000     -11.294991      -307.3523
  12   2.0000     -11.266679      -306.5819
  13   2.0000     -11.263243      -306.4884
  14   2.0000     -11.260714      -306.4196
  15   2.0000     -11.254809      -306.2589
  16   2.0000     -11.251039      -306.1563
  17   2.0000     -11.245655      -306.0098
  18   2.0000     -11.245029      -305.9928
  19   2.0000     -11.220566      -305.3271
  20   2.0000      -8.897243      -242.1063
  21   2.0000      -6.578802      -179.0183
  22   2.0000      -6.576815      -178.9642
  23   2.0000      -6.576213      -178.9479
  24   2.0000      -1.446586       -39.3636
  25   2.0000      -1.423613       -38.7385
  26   2.0000      -1.354136       -36.8479
  27   2.0000      -1.343921       -36.5699
  28   2.0000      -1.242420       -33.8080
  29   2.0000      -1.164520       -31.6882
  30   2.0000      -1.122716       -30.5506
  31   2.0000      -1.048520       -28.5317
  32   2.0000      -1.030970       -28.0541
  33   2.0000      -1.023193       -27.8425
  34   2.0000      -1.000443       -27.2234
  35   2.0000      -0.987575       -26.8733
  36   2.0000      -0.927616       -25.2417
  37   2.0000      -0.879569       -23.9343
  38   2.0000      -0.851879       -23.1808
  39   2.0000      -0.846887       -23.0450
  40   2.0000      -0.841257       -22.8918
  41   2.0000      -0.833130       -22.6706
  42   2.0000      -0.758001       -20.6262
  43   2.0000      -0.737477       -20.0678
  44   2.0000      -0.719596       -19.5812
  45   2.0000      -0.703463       -19.1422
  46   2.0000      -0.694071       -18.8866
  47   2.0000      -0.679246       -18.4832
  48   2.0000      -0.669810       -18.2265
  49   2.0000      -0.667451       -18.1623
  50   2.0000      -0.652095       -17.7444
  51   2.0000      -0.648931       -17.6583
  52   2.0000      -0.640739       -17.4354
  53   2.0000      -0.614695       -16.7267
  54   2.0000      -0.607762       -16.5380
  55   2.0000      -0.603133       -16.4121
  56   2.0000      -0.586997       -15.9730
  57   2.0000      -0.582501       -15.8507
  58   2.0000      -0.578204       -15.7337
  59   2.0000      -0.574477       -15.6323
  60   2.0000      -0.564156       -15.3515
  61   2.0000      -0.544133       -14.8066
  62   2.0000      -0.539956       -14.6929
  63   2.0000      -0.532044       -14.4776
  64   2.0000      -0.519633       -14.1399
  65   2.0000      -0.513784       -13.9808
  66   2.0000      -0.507685       -13.8148
  67   2.0000      -0.500369       -13.6157
  68   2.0000      -0.484198       -13.1757
  69   2.0000      -0.467037       -12.7087
  70   2.0000      -0.451210       -12.2780
  71   2.0000      -0.444471       -12.0947
  72   2.0000      -0.360499        -9.8097
  73   2.0000      -0.355746        -9.6803
  74   2.0000      -0.332721        -9.0538
  75   2.0000      -0.328608        -8.9419
  76   2.0000      -0.319241        -8.6870
  77   0.0000       0.069494         1.8910
  78   0.0000       0.098200         2.6722
  79   0.0000       0.119795         3.2598
  80   0.0000       0.126572         3.4442
  81   0.0000       0.129579         3.5260

MULLIKEN ATOMIC CHARGES
-----------------------
   0 C :   -0.256737
   1 C :    0.020449
   2 O :   -0.364680
   3 C :    0.474243
   4 O :   -0.388304
   5 C :   -0.279254
   6 C :    0.152456
   7 C :   -0.270666
   8 N :   -0.126725
   9 C :    0.211644
  10 S :   -0.433381
  11 N :   -0.196001
  12 C :    0.043348
  13 C :    0.057788
  14 C :   -0.210331
  15 C :   -0.125010
  16 C :   -0.273676
  17 C :    0.313209
  18 O :   -0.355576
  19 C :   -0.258277
  20 H :    0.100648
  21 H :    0.085919
  22 H :    0.098340
  23 H :    0.100398
  24 H :    0.111790
  25 H :    0.124839
  26 H :    0.139880
  27 H :    0.093992
  28 H :    0.199191
  29 H :    0.191425
  30 H :    0.150735
  31 H :    0.152896
  32 H :    0.166121
  33 H :    0.134201
  34 H :    0.242419
  35 H :    0.172685
Sum of atomic charges:   -0.0000000

LOEWDIN ATOMIC CHARGES
----------------------
   0 C :    0.106362
   1 C :   -0.025181
   2 O :    0.292091
   3 C :   -0.425070
   4 O :    0.124400
   5 C :   -0.100583
   6 C :   -0.061331
   7 C :    0.130366
   8 N :    0.407027
   9 C :   -0.456119
  10 S :   -0.030161
  11 N :    0.396200
  12 C :   -0.052211
  13 C :   -0.038239
  14 C :    0.013094
  15 C :    0.042456
  16 C :    0.000286
  17 C :   -0.190425
  18 O :    0.396737
  19 C :    0.031942
  20 H :   -0.025484
  21 H :   -0.029618
  22 H :   -0.025736
  23 H :   -0.034127
  24 H :   -0.026644
  25 H :   -0.006427
  26 H :   -0.002261
  27 H :   -0.022843
  28 H :   -0.057150
  29 H :   -0.065629
  30 H :   -0.005486
  31 H :   -0.029519
  32 H :   -0.019335
  33 H :   -0.033727
  34 H :   -0.151983
  35 H :   -0.025675

  Mayer bond orders larger than 0.100000
B(  0-C ,  1-C ) :   0.9788 B(  0-C , 20-H ) :   0.9760 B(  0-C , 21-H ) :   0.9775
B(  0-C , 22-H ) :   0.9807 B(  1-C ,  2-O ) :   0.8740 B(  1-C , 23-H ) :   0.9648
B(  1-C , 24-H ) :   0.9772 B(  2-O ,  3-C ) :   1.1302 B(  3-C ,  4-O ) :   2.0530
B(  3-C ,  5-C ) :   1.0199 B(  5-C ,  6-C ) :   1.6600 B(  5-C , 12-C ) :   0.9693
B(  6-C ,  7-C ) :   0.9717 B(  6-C ,  8-N ) :   1.1515 B(  7-C , 25-H ) :   0.9670
B(  7-C , 26-H ) :   0.9546 B(  7-C , 27-H ) :   0.9867 B(  8-N ,  9-C ) :   1.1778
B(  8-N , 28-H ) :   0.9487 B(  9-C , 10-S ) :   1.6175 B(  9-C , 11-N ) :   1.2986
B( 11-N , 12-C ) :   0.9707 B( 11-N , 29-H ) :   0.9543 B( 12-C , 13-C ) :   0.9548
B( 12-C , 30-H ) :   1.0014 B( 13-C , 14-C ) :   1.3504 B( 13-C , 19-C ) :   1.3579
B( 14-C , 15-C ) :   1.3826 B( 14-C , 31-H ) :   0.9761 B( 15-C , 16-C ) :   1.3701
B( 15-C , 32-H ) :   0.9686 B( 16-C , 17-C ) :   1.3252 B( 16-C , 33-H ) :   0.9832
B( 17-C , 18-O ) :   1.1158 B( 17-C , 19-C ) :   1.3765 B( 18-O , 34-H ) :   0.9786
B( 19-C , 35-H ) :   0.9557

MP2 TOTAL ENERGY:    -1274.329357398 Eh
FINAL SINGLE POINT ENERGY     -1274.329357398168

DIPOLE MOMENT
-------------
                                X             Y             Z
Electronic contribution:     10.60244       9.18587       6.52384
Nuclear contribution   :    -11.73855     -10.70737      -5.98642
                        -----------------------------------------
Total Dipole Moment    :     -1.13611      -1.52149       0.53742
                        -----------------------------------------
Magnitude (a.u.)       :      1.97345
Magnitude (Debye)      :      5.01612

Rotational constants in cm-1:     0.011509     0.009490     0.006412
Rotational constants in MHz :   345.031407   284.497762   192.215833

                             ****ORCA TERMINATED NORMALLY****
TOTAL RUN TIME: 0 days 1 hours 45 minutes 21 seconds 837 msec
