                         Program Version 4.2.0 -  RELEASE  -
|  1> ! ri-mp2 cc-pvtz cc-pvtz/c TightSCF  NoKeepInts
|  2>
|  3> %scf
|  4>   MaxCore 4096
|  5> end
|  6> *xyz  0  1
|  7>     C       15.2377539   15.0956185   17.2773048
|  8>     C       15.6525941   15.0349981   15.7919538
|  9>     O       16.8619650   15.7742419   15.5070707
| 10>     C       17.9170376   15.7848291   16.3733902
| 11>     O       18.5504723   14.7625085   16.5693572
| 12>     C       17.9064413   16.9101175   17.3713156
| 13>     C       17.3178312   18.1156635   17.1574553
| 14>     C       16.5696297   18.5791899   15.9243248
| 15>     N       17.4495778   19.1313794   18.1100168
| 16>     C       18.3009108   19.0893543   19.1827095
| 17>     S       18.5182224   20.3944511   20.1748295
| 18>     N       18.9631561   17.9057235   19.3897695
| 19>     C       18.6796975   16.6490752   18.6706008
| 20>     C       17.9357205   15.6712203   19.5769112
| 21>     C       18.3821031   14.3430244   19.7064647
| 22>     C       17.6963694   13.4324509   20.5275586
| 23>     C       16.5526853   13.8520900   21.2276294
| 24>     C       16.1032840   15.1732729   21.1012824
| 25>     O       14.9931672   15.5792049   21.7673827
| 26>     C       16.7880189   16.0775026   20.2835049
| 27>     H       15.9584563   14.5608468   17.9075860
| 28>     H       14.2632383   14.6122883   17.4163325
| 29>     H       15.1512521   16.1302509   17.6292897
| 30>     H       15.8084209   13.9821447   15.5210454
| 31>     H       14.8383211   15.4202815   15.1650594
| 32>     H       15.5788441   18.1125017   15.8706655
| 33>     H       17.1179563   18.3145790   15.0113780
| 34>     H       16.4253792   19.6663425   15.9034397
| 35>     H       16.9755956   20.0096769   17.9716439
| 36>     H       19.5655427   17.8905059   20.2028201
| 37>     H       19.6452281   16.1967476   18.4011034
| 38>     H       19.2556863   14.0100778   19.1506352
| 39>     H       18.0493103   12.4061630   20.6124481
| 40>     H       16.0184597   13.1510844   21.8602766
| 41>     H       14.6977667   14.8379567   22.3172378
| 42>     H       16.4209041   17.0946359   20.2022063
| 43> *
| 44>
| 45>                          ****END OF INPUT****

CARTESIAN COORDINATES (ANGSTROEM)
---------------------------------
  C     15.237754   15.095619   17.277305
  C     15.652594   15.034998   15.791954
  O     16.861965   15.774242   15.507071
  C     17.917038   15.784829   16.373390
  O     18.550472   14.762508   16.569357
  C     17.906441   16.910117   17.371316
  C     17.317831   18.115664   17.157455
  C     16.569630   18.579190   15.924325
  N     17.449578   19.131379   18.110017
  C     18.300911   19.089354   19.182710
  S     18.518222   20.394451   20.174830
  N     18.963156   17.905724   19.389769
  C     18.679697   16.649075   18.670601
  C     17.935720   15.671220   19.576911
  C     18.382103   14.343024   19.706465
  C     17.696369   13.432451   20.527559
  C     16.552685   13.852090   21.227629
  C     16.103284   15.173273   21.101282
  O     14.993167   15.579205   21.767383
  C     16.788019   16.077503   20.283505
  H     15.958456   14.560847   17.907586
  H     14.263238   14.612288   17.416332
  H     15.151252   16.130251   17.629290
  H     15.808421   13.982145   15.521045
  H     14.838321   15.420281   15.165059
  H     15.578844   18.112502   15.870665
  H     17.117956   18.314579   15.011378
  H     16.425379   19.666342   15.903440
  H     16.975596   20.009677   17.971644
  H     19.565543   17.890506   20.202820
  H     19.645228   16.196748   18.401103
  H     19.255686   14.010078   19.150635
  H     18.049310   12.406163   20.612448
  H     16.018460   13.151084   21.860277
  H     14.697767   14.837957   22.317238
  H     16.420904   17.094636   20.202206

 Total Charge           Charge          ....    0
 Multiplicity           Mult            ....    1
 Number of Electrons    NEL             ....  154
 Basis Dimension        Dim             ....  828

ORBITAL ENERGIES
----------------

  NO   OCC          E(Eh)            E(eV)
   0   2.0000     -91.890645     -2500.4716
   1   2.0000     -20.595272      -560.4259
   2   2.0000     -20.581428      -560.0491
   3   2.0000     -20.552517      -559.2624
   4   2.0000     -15.631368      -425.3511
   5   2.0000     -15.608946      -424.7410
   6   2.0000     -11.395272      -310.0811
   7   2.0000     -11.385490      -309.8149
   8   2.0000     -11.338194      -308.5280
   9   2.0000     -11.311293      -307.7959
  10   2.0000     -11.308470      -307.7191
  11   2.0000     -11.305085      -307.6270
  12   2.0000     -11.262290      -306.4625
  13   2.0000     -11.262232      -306.4609
  14   2.0000     -11.256966      -306.3176
  15   2.0000     -11.251643      -306.1728
  16   2.0000     -11.241378      -305.8934
  17   2.0000     -11.236700      -305.7661
  18   2.0000     -11.233758      -305.6861
  19   2.0000     -11.228424      -305.5409
  20   2.0000      -8.895691      -242.0641
  21   2.0000      -6.577262      -178.9764
  22   2.0000      -6.575259      -178.9219
  23   2.0000      -6.574668      -178.9058
  24   2.0000      -1.447402       -39.3858
  25   2.0000      -1.415080       -38.5063
  26   2.0000      -1.353583       -36.8329
  27   2.0000      -1.342148       -36.5217
  28   2.0000      -1.239492       -33.7283
  29   2.0000      -1.155638       -31.4465
  30   2.0000      -1.121473       -30.5168
  31   2.0000      -1.043976       -28.4080
  32   2.0000      -1.032870       -28.1058
  33   2.0000      -1.013403       -27.5761
  34   2.0000      -1.001486       -27.2518
  35   2.0000      -0.987407       -26.8687
  36   2.0000      -0.924790       -25.1648
  37   2.0000      -0.895913       -24.3790
  38   2.0000      -0.850503       -23.1434
  39   2.0000      -0.839300       -22.8385
  40   2.0000      -0.831713       -22.6321
  41   2.0000      -0.818368       -22.2689
  42   2.0000      -0.746989       -20.3266
  43   2.0000      -0.732442       -19.9308
  44   2.0000      -0.727770       -19.8036
  45   2.0000      -0.693672       -18.8758
  46   2.0000      -0.687521       -18.7084
  47   2.0000      -0.676387       -18.4054
  48   2.0000      -0.672452       -18.2984
  49   2.0000      -0.661479       -17.9997
  50   2.0000      -0.653171       -17.7737
  51   2.0000      -0.647138       -17.6095
  52   2.0000      -0.638480       -17.3739
  53   2.0000      -0.619413       -16.8551
  54   2.0000      -0.603268       -16.4158
  55   2.0000      -0.603134       -16.4121
  56   2.0000      -0.599346       -16.3090
  57   2.0000      -0.581735       -15.8298
  58   2.0000      -0.575553       -15.6616
  59   2.0000      -0.563091       -15.3225
  60   2.0000      -0.554802       -15.0969
  61   2.0000      -0.547091       -14.8871
  62   2.0000      -0.542149       -14.7526
  63   2.0000      -0.531896       -14.4736
  64   2.0000      -0.520847       -14.1730
  65   2.0000      -0.512526       -13.9465
  66   2.0000      -0.499689       -13.5972
  67   2.0000      -0.492388       -13.3985
  68   2.0000      -0.480910       -13.0862
  69   2.0000      -0.465434       -12.6651
  70   2.0000      -0.453927       -12.3520
  71   2.0000      -0.450132       -12.2487
  72   2.0000      -0.356600        -9.7036
  73   2.0000      -0.346729        -9.4350
  74   2.0000      -0.329688        -8.9713
  75   2.0000      -0.319680        -8.6989
  76   2.0000      -0.317344        -8.6354
  77   0.0000       0.068051         1.8518
  78   0.0000       0.107554         2.9267
  79   0.0000       0.118368         3.2210
  80   0.0000       0.132594         3.6081
  81   0.0000       0.136494         3.7142

MULLIKEN ATOMIC CHARGES
-----------------------
   0 C :   -0.347829
   1 C :    0.040030
   2 O :   -0.388319
   3 C :    0.480547
   4 O :   -0.400363
   5 C :   -0.210216
   6 C :    0.144345
   7 C :   -0.289754
   8 N :   -0.123019
   9 C :    0.190966
  10 S :   -0.434932
  11 N :   -0.197402
  12 C :    0.043340
  13 C :    0.035453
  14 C :   -0.167758
  15 C :   -0.135768
  16 C :   -0.278864
  17 C :    0.312971
  18 O :   -0.360148
  19 C :   -0.267642
  20 H :    0.131200
  21 H :    0.120603
  22 H :    0.103595
  23 H :    0.114398
  24 H :    0.111031
  25 H :    0.117061
  26 H :    0.135807
  27 H :    0.108568
  28 H :    0.197502
  29 H :    0.193426
  30 H :    0.156830
  31 H :    0.160966
  32 H :    0.161377
  33 H :    0.130756
  34 H :    0.240752
  35 H :    0.170490
Sum of atomic charges:   -0.0000000

LOEWDIN ATOMIC CHARGES
----------------------
   0 C :    0.104607
   1 C :   -0.016579
   2 O :    0.280393
   3 C :   -0.419647
   4 O :    0.124797
   5 C :   -0.093674
   6 C :   -0.068891
   7 C :    0.126478
   8 N :    0.405813
   9 C :   -0.460084
  10 S :   -0.033290
  11 N :    0.397724
  12 C :   -0.045618
  13 C :   -0.041579
  14 C :    0.020341
  15 C :    0.040869
  16 C :   -0.002312
  17 C :   -0.193837
  18 O :    0.394125
  19 C :    0.030740
  20 H :   -0.020611
  21 H :   -0.022507
  22 H :   -0.033086
  23 H :   -0.025552
  24 H :   -0.025633
  25 H :   -0.012600
  26 H :   -0.005586
  27 H :   -0.019390
  28 H :   -0.058746
  29 H :   -0.063672
  30 H :   -0.003235
  31 H :   -0.024026
  32 H :   -0.020129
  33 H :   -0.035610
  34 H :   -0.154178
  35 H :   -0.025815

  Mayer bond orders larger than 0.100000
B(  0-C ,  1-C ) :   0.9596 B(  0-C , 20-H ) :   0.9655 B(  0-C , 21-H ) :   0.9761
B(  0-C , 22-H ) :   0.9702 B(  1-C ,  2-O ) :   0.8912 B(  1-C , 23-H ) :   0.9863
B(  1-C , 24-H ) :   0.9817 B(  2-O ,  3-C ) :   1.0902 B(  3-C ,  4-O ) :   2.0292
B(  3-C ,  5-C ) :   1.0245 B(  5-C ,  6-C ) :   1.6576 B(  5-C , 12-C ) :   0.9644
B(  6-C ,  7-C ) :   0.9561 B(  6-C ,  8-N ) :   1.1379 B(  7-C , 25-H ) :   0.9654
B(  7-C , 26-H ) :   0.9648 B(  7-C , 27-H ) :   0.9900 B(  8-N ,  9-C ) :   1.1776
B(  8-N , 28-H ) :   0.9487 B(  9-C , 10-S ) :   1.6166 B(  9-C , 11-N ) :   1.3011
B( 11-N , 12-C ) :   0.9872 B( 11-N , 29-H ) :   0.9525 B( 12-C , 13-C ) :   0.9465
B( 12-C , 30-H ) :   0.9993 B( 13-C , 14-C ) :   1.3852 B( 13-C , 19-C ) :   1.3556
B( 14-C , 15-C ) :   1.3950 B( 14-C , 31-H ) :   0.9615 B( 15-C , 16-C ) :   1.3623
B( 15-C , 32-H ) :   0.9711 B( 16-C , 17-C ) :   1.3304 B( 16-C , 33-H ) :   0.9850
B( 17-C , 18-O ) :   1.1101 B( 17-C , 19-C ) :   1.3763 B( 18-O , 34-H ) :   0.9802
B( 19-C , 35-H ) :   0.9583

MP2 TOTAL ENERGY:    -1274.326832668 Eh
FINAL SINGLE POINT ENERGY     -1274.326832667769

DIPOLE MOMENT
-------------
                                X             Y             Z
Electronic contribution:      9.77506       7.85916       6.19828
Nuclear contribution   :    -11.19179      -8.98303      -6.85827
                        -----------------------------------------
Total Dipole Moment    :     -1.41673      -1.12387      -0.65999
                        -----------------------------------------
Magnitude (a.u.)       :      1.92504
Magnitude (Debye)      :      4.89307

Rotational constants in cm-1:     0.011419     0.009909     0.006797
Rotational constants in MHz :   342.347572   297.059438   203.755480

                             ****ORCA TERMINATED NORMALLY****
TOTAL RUN TIME: 0 days 1 hours 50 minutes 52 seconds 806 msec
