                         Program Version 4.2.0 -  RELEASE  -
|  1> ! ri-mp2 cc-pvtz cc-pvtz/c TightSCF  NoKeepInts
|  2>
|  3> %scf
|  4>   MaxCore 4096
|  5> end
|  6> *xyz  0  1
|  7>     C       15.0416578   14.8293501   16.7613920
|  8>     C       16.4186808   14.1265582   16.7886757
|  9>     O       17.5045416   14.9512025   16.2919687
| 10>     C       17.3743546   16.2977837   16.0964013
| 11>     O       16.8327845   16.7206717   15.0907540
| 12>     C       17.7217607   17.1431648   17.2934337
| 13>     C       17.3990555   18.4607682   17.3651018
| 14>     C       16.5836007   19.2645809   16.3749849
| 15>     N       17.8746275   19.2403778   18.4242763
| 16>     C       18.8416527   18.8401194   19.3079476
| 17>     S       19.5013966   19.8756660   20.4161264
| 18>     N       19.2498945   17.5340782   19.2112706
| 19>     C       18.5656763   16.5032605   18.4102987
| 20>     C       17.7654122   15.6118774   19.3530234
| 21>     C       18.2943048   14.3750172   19.7688174
| 22>     C       17.5708662   13.5450733   20.6417590
| 23>     C       16.3121010   13.9582948   21.1102015
| 24>     C       15.7907369   15.1970674   20.7133269
| 25>     O       14.5776719   15.6014980   21.1661278
| 26>     C       16.5129431   16.0213522   19.8452769
| 27>     H       15.0299979   15.7215939   17.3984892
| 28>     H       14.2644490   14.1489372   17.1296442
| 29>     H       14.7712317   15.1226634   15.7388767
| 30>     H       16.6285669   13.8039246   17.8135065
| 31>     H       16.3632324   13.2168756   16.1770359
| 32>     H       15.6201730   18.7766324   16.1798731
| 33>     H       17.1108067   19.3411765   15.4152505
| 34>     H       16.3715072   20.2830298   16.7207590
| 35>     H       17.5979310   20.2066890   18.4943534
| 36>     H       19.9490399   17.2612164   19.8898342
| 37>     H       19.3380381   15.8870938   17.9282282
| 38>     H       19.2681162   14.0528751   19.4090113
| 39>     H       17.9868311   12.5886640   20.9548128
| 40>     H       15.7498713   13.3209224   21.7850457
| 41>     H       14.2680895   14.9402019   21.8036443
| 42>     H       16.0953978   16.9817417   19.5644706
| 43> *
| 44>
| 45>                          ****END OF INPUT****

CARTESIAN COORDINATES (ANGSTROEM)
---------------------------------
  C     15.041658   14.829350   16.761392
  C     16.418681   14.126558   16.788676
  O     17.504542   14.951203   16.291969
  C     17.374355   16.297784   16.096401
  O     16.832784   16.720672   15.090754
  C     17.721761   17.143165   17.293434
  C     17.399055   18.460768   17.365102
  C     16.583601   19.264581   16.374985
  N     17.874627   19.240378   18.424276
  C     18.841653   18.840119   19.307948
  S     19.501397   19.875666   20.416126
  N     19.249894   17.534078   19.211271
  C     18.565676   16.503260   18.410299
  C     17.765412   15.611877   19.353023
  C     18.294305   14.375017   19.768817
  C     17.570866   13.545073   20.641759
  C     16.312101   13.958295   21.110201
  C     15.790737   15.197067   20.713327
  O     14.577672   15.601498   21.166128
  C     16.512943   16.021352   19.845277
  H     15.029998   15.721594   17.398489
  H     14.264449   14.148937   17.129644
  H     14.771232   15.122663   15.738877
  H     16.628567   13.803925   17.813506
  H     16.363232   13.216876   16.177036
  H     15.620173   18.776632   16.179873
  H     17.110807   19.341176   15.415251
  H     16.371507   20.283030   16.720759
  H     17.597931   20.206689   18.494353
  H     19.949040   17.261216   19.889834
  H     19.338038   15.887094   17.928228
  H     19.268116   14.052875   19.409011
  H     17.986831   12.588664   20.954813
  H     15.749871   13.320922   21.785046
  H     14.268090   14.940202   21.803644
  H     16.095398   16.981742   19.564471

 Total Charge           Charge          ....    0
 Multiplicity           Mult            ....    1
 Number of Electrons    NEL             ....  154
 Basis Dimension        Dim             ....  828

ORBITAL ENERGIES
----------------

  NO   OCC          E(Eh)            E(eV)
   0   2.0000     -91.891010     -2500.4815
   1   2.0000     -20.603636      -560.6534
   2   2.0000     -20.579202      -559.9885
   3   2.0000     -20.546108      -559.0880
   4   2.0000     -15.631521      -425.3553
   5   2.0000     -15.610015      -424.7701
   6   2.0000     -11.392857      -310.0154
   7   2.0000     -11.385593      -309.8177
   8   2.0000     -11.337762      -308.5162
   9   2.0000     -11.321207      -308.0657
  10   2.0000     -11.312633      -307.8324
  11   2.0000     -11.297301      -307.4152
  12   2.0000     -11.265795      -306.5579
  13   2.0000     -11.262473      -306.4675
  14   2.0000     -11.259263      -306.3801
  15   2.0000     -11.253801      -306.2315
  16   2.0000     -11.250002      -306.1281
  17   2.0000     -11.244541      -305.9795
  18   2.0000     -11.244487      -305.9780
  19   2.0000     -11.225817      -305.4700
  20   2.0000      -8.896031      -242.0733
  21   2.0000      -6.577596      -178.9855
  22   2.0000      -6.575603      -178.9312
  23   2.0000      -6.575007      -178.9150
  24   2.0000      -1.441006       -39.2118
  25   2.0000      -1.423243       -38.7284
  26   2.0000      -1.349078       -36.7103
  27   2.0000      -1.342722       -36.5373
  28   2.0000      -1.241247       -33.7760
  29   2.0000      -1.163783       -31.6682
  30   2.0000      -1.121804       -30.5259
  31   2.0000      -1.047356       -28.5000
  32   2.0000      -1.030047       -28.0290
  33   2.0000      -1.022253       -27.8169
  34   2.0000      -0.999746       -27.2045
  35   2.0000      -0.986803       -26.8523
  36   2.0000      -0.926319       -25.2064
  37   2.0000      -0.894616       -24.3437
  38   2.0000      -0.850003       -23.1298
  39   2.0000      -0.844909       -22.9912
  40   2.0000      -0.839960       -22.8565
  41   2.0000      -0.822666       -22.3859
  42   2.0000      -0.745776       -20.2936
  43   2.0000      -0.736242       -20.0342
  44   2.0000      -0.716903       -19.5079
  45   2.0000      -0.702201       -19.1079
  46   2.0000      -0.692282       -18.8380
  47   2.0000      -0.673569       -18.3288
  48   2.0000      -0.670463       -18.2442
  49   2.0000      -0.660431       -17.9712
  50   2.0000      -0.655345       -17.8328
  51   2.0000      -0.647390       -17.6164
  52   2.0000      -0.637899       -17.3581
  53   2.0000      -0.626060       -17.0360
  54   2.0000      -0.614166       -16.7123
  55   2.0000      -0.605206       -16.4685
  56   2.0000      -0.602131       -16.3848
  57   2.0000      -0.583310       -15.8727
  58   2.0000      -0.572967       -15.5912
  59   2.0000      -0.567239       -15.4354
  60   2.0000      -0.544779       -14.8242
  61   2.0000      -0.541448       -14.7335
  62   2.0000      -0.536642       -14.6028
  63   2.0000      -0.532026       -14.4772
  64   2.0000      -0.527853       -14.3636
  65   2.0000      -0.516227       -14.0472
  66   2.0000      -0.506627       -13.7860
  67   2.0000      -0.493433       -13.4270
  68   2.0000      -0.484423       -13.1818
  69   2.0000      -0.464881       -12.6501
  70   2.0000      -0.452671       -12.3178
  71   2.0000      -0.441408       -12.0113
  72   2.0000      -0.358099        -9.7444
  73   2.0000      -0.356336        -9.6964
  74   2.0000      -0.331865        -9.0305
  75   2.0000      -0.327575        -8.9138
  76   2.0000      -0.318109        -8.6562
  77   0.0000       0.069475         1.8905
  78   0.0000       0.101530         2.7628
  79   0.0000       0.120587         3.2813
  80   0.0000       0.126560         3.4439
  81   0.0000       0.130753         3.5580

MULLIKEN ATOMIC CHARGES
-----------------------
   0 C :   -0.325842
   1 C :    0.035023
   2 O :   -0.397125
   3 C :    0.516291
   4 O :   -0.406393
   5 C :   -0.292286
   6 C :    0.159471
   7 C :   -0.271530
   8 N :   -0.123550
   9 C :    0.215352
  10 S :   -0.437627
  11 N :   -0.204120
  12 C :    0.055735
  13 C :    0.059953
  14 C :   -0.188070
  15 C :   -0.130710
  16 C :   -0.274777
  17 C :    0.320756
  18 O :   -0.358028
  19 C :   -0.285542
  20 H :    0.096975
  21 H :    0.110381
  22 H :    0.127735
  23 H :    0.108736
  24 H :    0.118870
  25 H :    0.127600
  26 H :    0.137810
  27 H :    0.094742
  28 H :    0.198378
  29 H :    0.192618
  30 H :    0.151322
  31 H :    0.149756
  32 H :    0.163501
  33 H :    0.133734
  34 H :    0.242733
  35 H :    0.178127
Sum of atomic charges:   -0.0000000

LOEWDIN ATOMIC CHARGES
----------------------
   0 C :    0.105099
   1 C :   -0.008761
   2 O :    0.276803
   3 C :   -0.422372
   4 O :    0.120819
   5 C :   -0.099802
   6 C :   -0.059177
   7 C :    0.130917
   8 N :    0.407605
   9 C :   -0.455205
  10 S :   -0.032773
  11 N :    0.396259
  12 C :   -0.052978
  13 C :   -0.037129
  14 C :    0.011847
  15 C :    0.042146
  16 C :   -0.001194
  17 C :   -0.189344
  18 O :    0.396669
  19 C :    0.032721
  20 H :   -0.033034
  21 H :   -0.022752
  22 H :   -0.024183
  23 H :   -0.033838
  24 H :   -0.025691
  25 H :   -0.006278
  26 H :   -0.002431
  27 H :   -0.023188
  28 H :   -0.057310
  29 H :   -0.065962
  30 H :   -0.006248
  31 H :   -0.029445
  32 H :   -0.019344
  33 H :   -0.034075
  34 H :   -0.152017
  35 H :   -0.026354

  Mayer bond orders larger than 0.100000
B(  0-C ,  1-C ) :   0.9676 B(  0-C , 20-H ) :   0.9716 B(  0-C , 21-H ) :   0.9748
B(  0-C , 22-H ) :   0.9710 B(  1-C ,  2-O ) :   0.8894 B(  1-C , 23-H ) :   0.9690
B(  1-C , 24-H ) :   0.9838 B(  2-O ,  3-C ) :   1.0957 B(  3-C ,  4-O ) :   2.0210
B(  3-C ,  5-C ) :   1.0542 B(  5-C ,  6-C ) :   1.6471 B(  5-C , 12-C ) :   0.9726
B(  6-C ,  7-C ) :   0.9705 B(  6-C ,  8-N ) :   1.1589 B(  7-C , 25-H ) :   0.9642
B(  7-C , 26-H ) :   0.9563 B(  7-C , 27-H ) :   0.9883 B(  8-N ,  9-C ) :   1.1804
B(  8-N , 28-H ) :   0.9482 B(  9-C , 10-S ) :   1.6094 B(  9-C , 11-N ) :   1.3046
B( 11-N , 12-C ) :   0.9615 B( 11-N , 29-H ) :   0.9537 B( 12-C , 13-C ) :   0.9518
B( 12-C , 30-H ) :   1.0009 B( 13-C , 14-C ) :   1.3435 B( 13-C , 19-C ) :   1.3600
B( 14-C , 15-C ) :   1.3971 B( 14-C , 31-H ) :   0.9749 B( 15-C , 16-C ) :   1.3630
B( 15-C , 32-H ) :   0.9699 B( 16-C , 17-C ) :   1.3302 B( 16-C , 33-H ) :   0.9836
B( 17-C , 18-O ) :   1.1134 B( 17-C , 19-C ) :   1.3669 B( 18-O , 34-H ) :   0.9789
B( 19-C , 35-H ) :   0.9531

MP2 TOTAL ENERGY:    -1274.329960127 Eh
FINAL SINGLE POINT ENERGY     -1274.329960126509

DIPOLE MOMENT
-------------
                                X             Y             Z
Electronic contribution:      9.96180       8.16365       5.36006
Nuclear contribution   :    -11.05255      -9.74363      -4.98611
                        -----------------------------------------
Total Dipole Moment    :     -1.09075      -1.57997       0.37395
                        -----------------------------------------
Magnitude (a.u.)       :      1.95599
Magnitude (Debye)      :      4.97172

Rotational constants in cm-1:     0.012061     0.009482     0.006719
Rotational constants in MHz :   361.577085   284.268996   201.420115

                             ****ORCA TERMINATED NORMALLY****
TOTAL RUN TIME: 0 days 1 hours 49 minutes 21 seconds 660 msec
