                         Program Version 4.2.0 -  RELEASE  -
|  1> ! ri-mp2 cc-pvtz cc-pvtz/c TightSCF  NoKeepInts
|  2>
|  3> %scf
|  4>   MaxCore 4096
|  5> end
|  6> *xyz  0  1
|  7>     C       15.3628411   13.7368530   15.7178535
|  8>     C       15.4639473   15.1471103   15.0947361
|  9>     O       16.2908074   16.0922277   15.8233585
| 10>     C       17.2496094   15.7982922   16.7565697
| 11>     O       17.7791367   14.7050478   16.8606926
| 12>     C       17.6743498   16.9636873   17.6095730
| 13>     C       17.2809571   18.2558534   17.4448496
| 14>     C       16.3440213   18.8316433   16.4020287
| 15>     N       17.8047490   19.2521218   18.2764332
| 16>     C       18.8178344   19.0700652   19.1797942
| 17>     S       19.4691472   20.3329473   20.0263704
| 18>     N       19.2619674   17.7837095   19.3457691
| 19>     C       18.6268081   16.5920702   18.7535930
| 20>     C       17.9049710   15.7819936   19.8278488
| 21>     C       18.1919613   14.4154713   20.0023161
| 22>     C       17.5286560   13.6634824   20.9863884
| 23>     C       16.5688241   14.2823847   21.8050502
| 24>     C       16.2770991   15.6422216   21.6325107
| 25>     O       15.3462071   16.2413535   22.4173032
| 26>     C       16.9384973   16.3879061   20.6516773
| 27>     H       16.2903415   13.1690002   15.5734182
| 28>     H       14.5558431   13.1693247   15.2392125
| 29>     H       15.1449801   13.7933551   16.7918923
| 30>     H       15.8620795   15.0407640   14.0772863
| 31>     H       14.4546591   15.5684032   15.0029767
| 32>     H       15.3387521   18.4050727   16.5067546
| 33>     H       16.7052487   18.6090033   15.3902605
| 34>     H       16.2435509   19.9212387   16.4759591
| 35>     H       17.4922449   20.2038176   18.1698760
| 36>     H       19.9879578   17.6691432   20.0412057
| 37>     H       19.4281752   15.9674621   18.3328700
| 38>     H       18.9212787   13.9302269   19.3580826
| 39>     H       17.7557091   12.6057140   21.1061547
| 40>     H       16.0528297   13.7049401   22.5647694
| 41>     H       15.0313794   15.5784828   23.0499319
| 42>     H       16.6995785   17.4396091   20.5386333
| 43> *
| 44>
| 45>                          ****END OF INPUT****

CARTESIAN COORDINATES (ANGSTROEM)
---------------------------------
  C     15.362841   13.736853   15.717854
  C     15.463947   15.147110   15.094736
  O     16.290807   16.092228   15.823358
  C     17.249609   15.798292   16.756570
  O     17.779137   14.705048   16.860693
  C     17.674350   16.963687   17.609573
  C     17.280957   18.255853   17.444850
  C     16.344021   18.831643   16.402029
  N     17.804749   19.252122   18.276433
  C     18.817834   19.070065   19.179794
  S     19.469147   20.332947   20.026370
  N     19.261967   17.783710   19.345769
  C     18.626808   16.592070   18.753593
  C     17.904971   15.781994   19.827849
  C     18.191961   14.415471   20.002316
  C     17.528656   13.663482   20.986388
  C     16.568824   14.282385   21.805050
  C     16.277099   15.642222   21.632511
  O     15.346207   16.241353   22.417303
  C     16.938497   16.387906   20.651677
  H     16.290342   13.169000   15.573418
  H     14.555843   13.169325   15.239213
  H     15.144980   13.793355   16.791892
  H     15.862080   15.040764   14.077286
  H     14.454659   15.568403   15.002977
  H     15.338752   18.405073   16.506755
  H     16.705249   18.609003   15.390261
  H     16.243551   19.921239   16.475959
  H     17.492245   20.203818   18.169876
  H     19.987958   17.669143   20.041206
  H     19.428175   15.967462   18.332870
  H     18.921279   13.930227   19.358083
  H     17.755709   12.605714   21.106155
  H     16.052830   13.704940   22.564769
  H     15.031379   15.578483   23.049932
  H     16.699579   17.439609   20.538633

 Total Charge           Charge          ....    0
 Multiplicity           Mult            ....    1
 Number of Electrons    NEL             ....  154
 Basis Dimension        Dim             ....  828

ORBITAL ENERGIES
----------------

  NO   OCC          E(Eh)            E(eV)
   0   2.0000     -91.887434     -2500.3842
   1   2.0000     -20.600638      -560.5719
   2   2.0000     -20.591056      -560.3111
   3   2.0000     -20.543073      -559.0054
   4   2.0000     -15.627736      -425.2523
   5   2.0000     -15.605887      -424.6578
   6   2.0000     -11.398261      -310.1624
   7   2.0000     -11.382018      -309.7205
   8   2.0000     -11.336207      -308.4739
   9   2.0000     -11.307060      -307.6808
  10   2.0000     -11.306787      -307.6733
  11   2.0000     -11.304059      -307.5991
  12   2.0000     -11.260066      -306.4020
  13   2.0000     -11.258019      -306.3463
  14   2.0000     -11.252590      -306.1985
  15   2.0000     -11.246901      -306.0437
  16   2.0000     -11.236584      -305.7630
  17   2.0000     -11.232680      -305.6568
  18   2.0000     -11.229478      -305.5696
  19   2.0000     -11.225873      -305.4715
  20   2.0000      -8.892500      -241.9772
  21   2.0000      -6.574079      -178.8898
  22   2.0000      -6.572072      -178.8352
  23   2.0000      -6.571487      -178.8192
  24   2.0000      -1.446193       -39.3529
  25   2.0000      -1.410796       -38.3897
  26   2.0000      -1.356023       -36.8993
  27   2.0000      -1.338757       -36.4294
  28   2.0000      -1.236254       -33.6402
  29   2.0000      -1.151179       -31.3252
  30   2.0000      -1.117897       -30.4195
  31   2.0000      -1.041498       -28.3406
  32   2.0000      -1.034389       -28.1472
  33   2.0000      -1.008704       -27.4482
  34   2.0000      -0.996553       -27.1176
  35   2.0000      -0.981812       -26.7165
  36   2.0000      -0.920802       -25.0563
  37   2.0000      -0.897725       -24.4283
  38   2.0000      -0.847536       -23.0626
  39   2.0000      -0.835158       -22.7258
  40   2.0000      -0.827106       -22.5067
  41   2.0000      -0.816666       -22.2226
  42   2.0000      -0.743096       -20.2207
  43   2.0000      -0.727988       -19.8096
  44   2.0000      -0.723771       -19.6948
  45   2.0000      -0.689300       -18.7568
  46   2.0000      -0.683995       -18.6125
  47   2.0000      -0.677565       -18.4375
  48   2.0000      -0.672705       -18.3052
  49   2.0000      -0.662461       -18.0265
  50   2.0000      -0.647678       -17.6242
  51   2.0000      -0.643302       -17.5051
  52   2.0000      -0.633077       -17.2269
  53   2.0000      -0.610421       -16.6104
  54   2.0000      -0.600000       -16.3268
  55   2.0000      -0.598705       -16.2916
  56   2.0000      -0.594565       -16.1789
  57   2.0000      -0.579180       -15.7603
  58   2.0000      -0.572755       -15.5855
  59   2.0000      -0.567042       -15.4300
  60   2.0000      -0.557549       -15.1717
  61   2.0000      -0.541228       -14.7276
  62   2.0000      -0.538353       -14.6493
  63   2.0000      -0.524802       -14.2806
  64   2.0000      -0.516154       -14.0453
  65   2.0000      -0.510872       -13.9015
  66   2.0000      -0.500374       -13.6159
  67   2.0000      -0.494596       -13.4586
  68   2.0000      -0.478588       -13.0230
  69   2.0000      -0.462927       -12.5969
  70   2.0000      -0.453492       -12.3402
  71   2.0000      -0.447745       -12.1838
  72   2.0000      -0.353377        -9.6159
  73   2.0000      -0.343302        -9.3417
  74   2.0000      -0.326577        -8.8866
  75   2.0000      -0.315029        -8.5724
  76   2.0000      -0.312834        -8.5126
  77   0.0000       0.076270         2.0754
  78   0.0000       0.114030         3.1029
  79   0.0000       0.121999         3.3198
  80   0.0000       0.136412         3.7120
  81   0.0000       0.139735         3.8024

MULLIKEN ATOMIC CHARGES
-----------------------
   0 C :   -0.297972
   1 C :    0.049332
   2 O :   -0.354747
   3 C :    0.454942
   4 O :   -0.431211
   5 C :   -0.175903
   6 C :    0.142982
   7 C :   -0.282318
   8 N :   -0.120791
   9 C :    0.200821
  10 S :   -0.439947
  11 N :   -0.196919
  12 C :    0.035230
  13 C :    0.058732
  14 C :   -0.162752
  15 C :   -0.134370
  16 C :   -0.279285
  17 C :    0.311635
  18 O :   -0.359240
  19 C :   -0.274586
  20 H :    0.123703
  21 H :    0.096447
  22 H :    0.104061
  23 H :    0.092048
  24 H :    0.094761
  25 H :    0.124921
  26 H :    0.128445
  27 H :    0.102034
  28 H :    0.196440
  29 H :    0.193521
  30 H :    0.154439
  31 H :    0.154038
  32 H :    0.158948
  33 H :    0.127888
  34 H :    0.239967
  35 H :    0.164705
Sum of atomic charges:   -0.0000000

LOEWDIN ATOMIC CHARGES
----------------------
   0 C :    0.103885
   1 C :   -0.008348
   2 O :    0.294592
   3 C :   -0.414676
   4 O :    0.110767
   5 C :   -0.090735
   6 C :   -0.063850
   7 C :    0.124361
   8 N :    0.404826
   9 C :   -0.459578
  10 S :   -0.036574
  11 N :    0.398205
  12 C :   -0.046923
  13 C :   -0.038805
  14 C :    0.022087
  15 C :    0.040331
  16 C :   -0.002703
  17 C :   -0.192870
  18 O :    0.392861
  19 C :    0.028053
  20 H :   -0.024101
  21 H :   -0.027557
  22 H :   -0.025100
  23 H :   -0.028877
  24 H :   -0.027245
  25 H :   -0.010100
  26 H :   -0.008138
  27 H :   -0.021677
  28 H :   -0.059525
  29 H :   -0.063598
  30 H :   -0.005631
  31 H :   -0.025242
  32 H :   -0.021368
  33 H :   -0.036537
  34 H :   -0.155000
  35 H :   -0.025209

  Mayer bond orders larger than 0.100000
B(  0-C ,  1-C ) :   0.9723 B(  0-C , 20-H ) :   0.9718 B(  0-C , 21-H ) :   0.9742
B(  0-C , 22-H ) :   0.9749 B(  1-C ,  2-O ) :   0.9004 B(  1-C , 23-H ) :   0.9799
B(  1-C , 24-H ) :   0.9810 B(  2-O ,  3-C ) :   1.1587 B(  3-C ,  4-O ) :   1.9709
B(  3-C ,  5-C ) :   1.0555 B(  5-C ,  6-C ) :   1.6452 B(  5-C , 12-C ) :   0.9670
B(  6-C ,  7-C ) :   0.9557 B(  6-C ,  8-N ) :   1.1504 B(  7-C , 25-H ) :   0.9652
B(  7-C , 26-H ) :   0.9638 B(  7-C , 27-H ) :   0.9923 B(  8-N ,  9-C ) :   1.1777
B(  8-N , 28-H ) :   0.9486 B(  9-C , 10-S ) :   1.6101 B(  9-C , 11-N ) :   1.3056
B( 11-N , 12-C ) :   0.9918 B( 11-N , 29-H ) :   0.9521 B( 12-C , 13-C ) :   0.9455
B( 12-C , 30-H ) :   1.0010 B( 13-C , 14-C ) :   1.3749 B( 13-C , 19-C ) :   1.3692
B( 14-C , 15-C ) :   1.3946 B( 14-C , 31-H ) :   0.9646 B( 15-C , 16-C ) :   1.3619
B( 15-C , 32-H ) :   0.9715 B( 16-C , 17-C ) :   1.3318 B( 16-C , 33-H ) :   0.9860
B( 17-C , 18-O ) :   1.1079 B( 17-C , 19-C ) :   1.3789 B( 18-O , 34-H ) :   0.9807
B( 19-C , 35-H ) :   0.9583

MP2 TOTAL ENERGY:    -1274.338764388 Eh
FINAL SINGLE POINT ENERGY     -1274.338764387594

DIPOLE MOMENT
-------------
                                X             Y             Z
Electronic contribution:     10.13447      10.32348      10.26510
Nuclear contribution   :    -11.78298     -11.53078     -11.35000
                        -----------------------------------------
Total Dipole Moment    :     -1.64851      -1.20729      -1.08489
                        -----------------------------------------
Magnitude (a.u.)       :      2.31347
Magnitude (Debye)      :      5.88037

Rotational constants in cm-1:     0.010638     0.009021     0.005874
Rotational constants in MHz :   318.932104   270.443005   176.084785

                             ****ORCA TERMINATED NORMALLY****
TOTAL RUN TIME: 0 days 1 hours 38 minutes 49 seconds 413 msec
