                         Program Version 5.0.0 -  RELEASE  -
|  1> ! ri-mp2 cc-pvtz cc-pvtz/c TightSCF NoKeepInts
|  2>
|  3> %scf
|  4>   MaxCore 4096
|  5> end
|  6> *xyz  0  1
|  7>     C       15.1457259   15.4973605   17.4545107
|  8>     C       15.5254485   15.3429886   15.9663250
|  9>     O       16.9469333   15.2042394   15.7067842
| 10>     C       18.0263099   15.5735774   16.4761146
| 11>     O       18.9963639   14.8396335   16.5267724
| 12>     C       17.9226304   16.7676316   17.3774147
| 13>     C       17.3847306   17.9525010   16.9939405
| 14>     C       16.8201016   18.3223108   15.6388937
| 15>     N       17.4203956   19.0472621   17.8613891
| 16>     C       18.1234146   19.0904781   19.0361388
| 17>     S       18.2019282   20.4646619   19.9523777
| 18>     N       18.7616696   17.9352375   19.4112568
| 19>     C       18.6207932   16.6300225   18.7360908
| 20>     C       17.9085708   15.6195305   19.6323336
| 21>     C       18.3458622   14.2825843   19.6716734
| 22>     C       17.6920643   13.3367181   20.4785382
| 23>     C       16.5893190   13.7290463   21.2556625
| 24>     C       16.1487274   15.0586111   21.2200150
| 25>     O       15.0773538   15.4385887   21.9605015
| 26>     C       16.8013241   15.9983611   20.4158001
| 27>     H       15.6845826   14.7663224   18.0697599
| 28>     H       14.0740402   15.3034159   17.5841768
| 29>     H       15.3315107   16.5047662   17.8383088
| 30>     H       15.0271305   14.4465127   15.5746683
| 31>     H       15.1213147   16.1919014   15.4032917
| 32>     H       17.1178345   17.6137776   14.8568798
| 33>     H       17.1882760   19.3043604   15.3152866
| 34>     H       15.7253247   18.3712206   15.6660964
| 35>     H       16.9743820   19.9108081   17.5945821
| 36>     H       19.2612669   17.9892346   20.2899315
| 37>     H       19.6360197   16.2497046   18.5489158
| 38>     H       19.1915583   13.9717725   19.0615550
| 39>     H       18.0392542   12.3049467   20.4946432
| 40>     H       16.0801442   13.0007470   21.8781851
| 41>     H       14.7980399   14.6711731   22.4823133
| 42>     H       16.4366541   17.0199912   20.4028722
| 43> *
| 44>
| 45>                          ****END OF INPUT****

CARTESIAN COORDINATES (ANGSTROEM)
---------------------------------
  C     15.145726   15.497360   17.454511
  C     15.525448   15.342989   15.966325
  O     16.946933   15.204239   15.706784
  C     18.026310   15.573577   16.476115
  O     18.996364   14.839633   16.526772
  C     17.922630   16.767632   17.377415
  C     17.384731   17.952501   16.993941
  C     16.820102   18.322311   15.638894
  N     17.420396   19.047262   17.861389
  C     18.123415   19.090478   19.036139
  S     18.201928   20.464662   19.952378
  N     18.761670   17.935237   19.411257
  C     18.620793   16.630022   18.736091
  C     17.908571   15.619530   19.632334
  C     18.345862   14.282584   19.671673
  C     17.692064   13.336718   20.478538
  C     16.589319   13.729046   21.255662
  C     16.148727   15.058611   21.220015
  O     15.077354   15.438589   21.960501
  C     16.801324   15.998361   20.415800
  H     15.684583   14.766322   18.069760
  H     14.074040   15.303416   17.584177
  H     15.331511   16.504766   17.838309
  H     15.027130   14.446513   15.574668
  H     15.121315   16.191901   15.403292
  H     17.117834   17.613778   14.856880
  H     17.188276   19.304360   15.315287
  H     15.725325   18.371221   15.666096
  H     16.974382   19.910808   17.594582
  H     19.261267   17.989235   20.289932
  H     19.636020   16.249705   18.548916
  H     19.191558   13.971772   19.061555
  H     18.039254   12.304947   20.494643
  H     16.080144   13.000747   21.878185
  H     14.798040   14.671173   22.482313
  H     16.436654   17.019991   20.402872

 Total Charge           Charge          ....    0
 Multiplicity           Mult            ....    1
 Number of Electrons    NEL             ....  154
 Basis Dimension        Dim             ....  828

ORBITAL ENERGIES
----------------

  NO   OCC          E(Eh)            E(eV)
   0   2.0000     -91.891039     -2500.4823
   1   2.0000     -20.597498      -560.4864
   2   2.0000     -20.595512      -560.4324
   3   2.0000     -20.547387      -559.1228
   4   2.0000     -15.629914      -425.3116
   5   2.0000     -15.610762      -424.7904
   6   2.0000     -11.399766      -310.2034
   7   2.0000     -11.386927      -309.8540
   8   2.0000     -11.335084      -308.4433
   9   2.0000     -11.313958      -307.8685
  10   2.0000     -11.311790      -307.8094
  11   2.0000     -11.311679      -307.8064
  12   2.0000     -11.268325      -306.6267
  13   2.0000     -11.266483      -306.5766
  14   2.0000     -11.260639      -306.4176
  15   2.0000     -11.254375      -306.2471
  16   2.0000     -11.243839      -305.9604
  17   2.0000     -11.239180      -305.8336
  18   2.0000     -11.235963      -305.7461
  19   2.0000     -11.233914      -305.6903
  20   2.0000      -8.896126      -242.0759
  21   2.0000      -6.577709      -178.9886
  22   2.0000      -6.575689      -178.9336
  23   2.0000      -6.575108      -178.9178
  24   2.0000      -1.442402       -39.2497
  25   2.0000      -1.417314       -38.5671
  26   2.0000      -1.355010       -36.8717
  27   2.0000      -1.342517       -36.5317
  28   2.0000      -1.240837       -33.7649
  29   2.0000      -1.158654       -31.5286
  30   2.0000      -1.124438       -30.5975
  31   2.0000      -1.046910       -28.4879
  32   2.0000      -1.039688       -28.2914
  33   2.0000      -1.016759       -27.6674
  34   2.0000      -1.005698       -27.3664
  35   2.0000      -0.989942       -26.9377
  36   2.0000      -0.927909       -25.2497
  37   2.0000      -0.900278       -24.4978
  38   2.0000      -0.854707       -23.2578
  39   2.0000      -0.841016       -22.8852
  40   2.0000      -0.834339       -22.7035
  41   2.0000      -0.826965       -22.5029
  42   2.0000      -0.744992       -20.2723
  43   2.0000      -0.734739       -19.9933
  44   2.0000      -0.730449       -19.8765
  45   2.0000      -0.695076       -18.9140
  46   2.0000      -0.686723       -18.6867
  47   2.0000      -0.679899       -18.5010
  48   2.0000      -0.674612       -18.3571
  49   2.0000      -0.660025       -17.9602
  50   2.0000      -0.658474       -17.9180
  51   2.0000      -0.651785       -17.7360
  52   2.0000      -0.641426       -17.4541
  53   2.0000      -0.619849       -16.8670
  54   2.0000      -0.608777       -16.5657
  55   2.0000      -0.605415       -16.4742
  56   2.0000      -0.601956       -16.3801
  57   2.0000      -0.588480       -16.0133
  58   2.0000      -0.576452       -15.6861
  59   2.0000      -0.567121       -15.4321
  60   2.0000      -0.565342       -15.3838
  61   2.0000      -0.554231       -15.0814
  62   2.0000      -0.543458       -14.7882
  63   2.0000      -0.532332       -14.4855
  64   2.0000      -0.522337       -14.2135
  65   2.0000      -0.513416       -13.9708
  66   2.0000      -0.501026       -13.6336
  67   2.0000      -0.494641       -13.4599
  68   2.0000      -0.483365       -13.1530
  69   2.0000      -0.470412       -12.8006
  70   2.0000      -0.456431       -12.4201
  71   2.0000      -0.448187       -12.1958
  72   2.0000      -0.357162        -9.7189
  73   2.0000      -0.348627        -9.4866
  74   2.0000      -0.330469        -8.9925
  75   2.0000      -0.322729        -8.7819
  76   2.0000      -0.319182        -8.6854
  77   0.0000       0.077717         2.1148
  78   0.0000       0.107871         2.9353
  79   0.0000       0.114990         3.1290
  80   0.0000       0.131009         3.5649
  81   0.0000       0.132238         3.5984

MULLIKEN ATOMIC CHARGES
-----------------------
   0 C :   -0.343699
   1 C :    0.037712
   2 O :   -0.339304
   3 C :    0.438583
   4 O :   -0.386918
   5 C :   -0.218107
   6 C :    0.151167
   7 C :   -0.341248
   8 N :   -0.133962
   9 C :    0.195389
  10 S :   -0.438151
  11 N :   -0.214356
  12 C :    0.069307
  13 C :    0.022986
  14 C :   -0.202164
  15 C :   -0.134723
  16 C :   -0.278551
  17 C :    0.316995
  18 O :   -0.358574
  19 C :   -0.270563
  20 H :    0.130692
  21 H :    0.121588
  22 H :    0.110930
  23 H :    0.130653
  24 H :    0.087083
  25 H :    0.141325
  26 H :    0.135053
  27 H :    0.121213
  28 H :    0.197714
  29 H :    0.199249
  30 H :    0.165470
  31 H :    0.174615
  32 H :    0.163601
  33 H :    0.131850
  34 H :    0.241056
  35 H :    0.176088
Sum of atomic charges:   -0.0000000

LOEWDIN ATOMIC CHARGES
----------------------
   0 C :    0.104058
   1 C :   -0.015380
   2 O :    0.289176
   3 C :   -0.415895
   4 O :    0.121366
   5 C :   -0.083690
   6 C :   -0.087886
   7 C :    0.125353
   8 N :    0.403610
   9 C :   -0.459480
  10 S :   -0.035711
  11 N :    0.398193
  12 C :   -0.043812
  13 C :   -0.043651
  14 C :    0.019613
  15 C :    0.042524
  16 C :   -0.001775
  17 C :   -0.194051
  18 O :    0.394938
  19 C :    0.029237
  20 H :   -0.019230
  21 H :   -0.021894
  22 H :   -0.035542
  23 H :   -0.018820
  24 H :   -0.037695
  25 H :   -0.006884
  26 H :   -0.010598
  27 H :   -0.018529
  28 H :   -0.057142
  29 H :   -0.063120
  30 H :   -0.002136
  31 H :   -0.022013
  32 H :   -0.018916
  33 H :   -0.035061
  34 H :   -0.153649
  35 H :   -0.025505

  Mayer bond orders larger than 0.100000
B(  0-C ,  1-C ) :   0.9594 B(  0-C , 20-H ) :   0.9669 B(  0-C , 21-H ) :   0.9765
B(  0-C , 22-H ) :   0.9717 B(  1-C ,  2-O ) :   0.9023 B(  1-C , 23-H ) :   0.9803
B(  1-C , 24-H ) :   0.9742 B(  2-O ,  3-C ) :   1.1717 B(  3-C ,  4-O ) :   2.0725
B(  3-C ,  5-C ) :   0.9403 B(  5-C ,  6-C ) :   1.6852 B(  5-C , 12-C ) :   0.9587
B(  6-C ,  7-C ) :   0.9430 B(  6-C ,  8-N ) :   1.1139 B(  7-C , 25-H ) :   0.9754
B(  7-C , 26-H ) :   0.9759 B(  7-C , 27-H ) :   0.9645 B(  8-N ,  9-C ) :   1.1888
B(  8-N , 28-H ) :   0.9512 B(  9-C , 10-S ) :   1.6130 B(  9-C , 11-N ) :   1.2921
B( 11-N , 12-C ) :   0.9895 B( 11-N , 29-H ) :   0.9499 B( 12-C , 13-C ) :   0.9461
B( 12-C , 30-H ) :   0.9967 B( 13-C , 14-C ) :   1.3911 B( 13-C , 19-C ) :   1.3434
B( 14-C , 15-C ) :   1.3975 B( 14-C , 31-H ) :   0.9577 B( 15-C , 16-C ) :   1.3604
B( 15-C , 32-H ) :   0.9704 B( 16-C , 17-C ) :   1.3296 B( 16-C , 33-H ) :   0.9848
B( 17-C , 18-O ) :   1.1106 B( 17-C , 19-C ) :   1.3722 B( 18-O , 34-H ) :   0.9798
B( 19-C , 35-H ) :   0.9573

MP2 TOTAL ENERGY:    -1274.329788905 Eh
FINAL SINGLE POINT ENERGY     -1274.329788904559

DIPOLE MOMENT
-------------
                                X             Y             Z
Electronic contribution:      9.45766       6.10436       6.23536
Nuclear contribution   :    -11.07601      -7.08968      -6.78992
                        -----------------------------------------
Total Dipole Moment    :     -1.61834      -0.98532      -0.55456
                        -----------------------------------------
Magnitude (a.u.)       :      1.97419
Magnitude (Debye)      :      5.01798

Rotational constants in cm-1:     0.011520     0.009732     0.006823
Rotational constants in MHz :   345.366209   291.768666   204.546533

                             ****ORCA TERMINATED NORMALLY****
TOTAL RUN TIME: 0 days 2 hours 14 minutes 10 seconds 959 msec
