                         Program Version 5.0.0 -  RELEASE  -
|  1> ! ri-mp2 cc-pvtz cc-pvtz/c TightSCF NoKeepInts
|  2>
|  3> %scf
|  4>   MaxCore 4096
|  5> end
|  6> *xyz  0  1
|  7>     C       15.8084020   14.4270629   14.2348973
|  8>     C       15.1242438   14.7683884   15.5713235
|  9>     O       15.8719460   15.8241443   16.2023300
| 10>     C       16.9031474   15.5202394   17.0449745
| 11>     O       17.2637332   14.3720846   17.2490962
| 12>     C       17.5414964   16.6992368   17.7262376
| 13>     C       17.3062288   18.0058491   17.4306877
| 14>     C       16.3741189   18.5800622   16.3829886
| 15>     N       18.0205440   19.0072608   18.0977248
| 16>     C       19.0756260   18.7886656   18.9433467
| 17>     S       19.9542266   20.0357301   19.5825442
| 18>     N       19.3644712   17.4795972   19.2318781
| 19>     C       18.5324636   16.3281027   18.8364064
| 20>     C       17.8089387   15.7503053   20.0502823
| 21>     C       17.9343169   14.3858976   20.3710252
| 22>     C       17.2700212   13.8475802   21.4858602
| 23>     C       16.4723360   14.6802377   22.2889340
| 24>     C       16.3416307   16.0389168   21.9712231
| 25>     O       15.5673524   16.8444129   22.7413487
| 26>     C       17.0036715   16.5717206   20.8606600
| 27>     H       15.8836838   15.3168150   13.5977400
| 28>     H       15.2353466   13.6639929   13.6944012
| 29>     H       16.8190700   14.0352090   14.4064085
| 30>     H       14.1056715   15.1213541   15.3653122
| 31>     H       15.0513493   13.8807965   16.2151407
| 32>     H       16.6064455   18.1731613   15.3909330
| 33>     H       16.4407913   19.6720990   16.3072791
| 34>     H       15.3308519   18.3325408   16.6156354
| 35>     H       17.8236285   19.9750759   17.8992629
| 36>     H       20.1262660   17.3447212   19.8840752
| 37>     H       19.2064450   15.5554411   18.4389256
| 38>     H       18.5368395   13.7359402   19.7410964
| 39>     H       17.3703736   12.7890761   21.7188064
| 40>     H       15.9559409   14.2682085   23.1494194
| 41>     H       15.2240128   16.3053714   23.4695386
| 42>     H       16.8913684   17.6267018   20.6362562
| 43> *
| 44>
| 45>                          ****END OF INPUT****

CARTESIAN COORDINATES (ANGSTROEM)
---------------------------------
  C     15.808402   14.427063   14.234897
  C     15.124244   14.768388   15.571324
  O     15.871946   15.824144   16.202330
  C     16.903147   15.520239   17.044974
  O     17.263733   14.372085   17.249096
  C     17.541496   16.699237   17.726238
  C     17.306229   18.005849   17.430688
  C     16.374119   18.580062   16.382989
  N     18.020544   19.007261   18.097725
  C     19.075626   18.788666   18.943347
  S     19.954227   20.035730   19.582544
  N     19.364471   17.479597   19.231878
  C     18.532464   16.328103   18.836406
  C     17.808939   15.750305   20.050282
  C     17.934317   14.385898   20.371025
  C     17.270021   13.847580   21.485860
  C     16.472336   14.680238   22.288934
  C     16.341631   16.038917   21.971223
  O     15.567352   16.844413   22.741349
  C     17.003671   16.571721   20.860660
  H     15.883684   15.316815   13.597740
  H     15.235347   13.663993   13.694401
  H     16.819070   14.035209   14.406408
  H     14.105671   15.121354   15.365312
  H     15.051349   13.880797   16.215141
  H     16.606445   18.173161   15.390933
  H     16.440791   19.672099   16.307279
  H     15.330852   18.332541   16.615635
  H     17.823628   19.975076   17.899263
  H     20.126266   17.344721   19.884075
  H     19.206445   15.555441   18.438926
  H     18.536839   13.735940   19.741096
  H     17.370374   12.789076   21.718806
  H     15.955941   14.268209   23.149419
  H     15.224013   16.305371   23.469539
  H     16.891368   17.626702   20.636256

 Total Charge           Charge          ....    0
 Multiplicity           Mult            ....    1
 Number of Electrons    NEL             ....  154
 Basis Dimension        Dim             ....  828

ORBITAL ENERGIES
----------------

  NO   OCC          E(Eh)            E(eV)
   0   2.0000     -91.888124     -2500.4030
   1   2.0000     -20.605065      -560.6923
   2   2.0000     -20.590585      -560.2983
   3   2.0000     -20.544870      -559.0543
   4   2.0000     -15.628720      -425.2791
   5   2.0000     -15.606539      -424.6755
   6   2.0000     -11.396910      -310.1257
   7   2.0000     -11.382831      -309.7426
   8   2.0000     -11.337473      -308.5083
   9   2.0000     -11.306363      -307.6618
  10   2.0000     -11.304922      -307.6226
  11   2.0000     -11.300204      -307.4942
  12   2.0000     -11.261076      -306.4295
  13   2.0000     -11.258949      -306.3716
  14   2.0000     -11.252412      -306.1937
  15   2.0000     -11.246477      -306.0322
  16   2.0000     -11.236155      -305.7513
  17   2.0000     -11.232370      -305.6483
  18   2.0000     -11.229240      -305.5631
  19   2.0000     -11.228999      -305.5566
  20   2.0000      -8.893181      -241.9958
  21   2.0000      -6.574757      -178.9082
  22   2.0000      -6.572752      -178.8537
  23   2.0000      -6.572165      -178.8377
  24   2.0000      -1.454596       -39.5816
  25   2.0000      -1.410317       -38.3767
  26   2.0000      -1.357403       -36.9368
  27   2.0000      -1.339566       -36.4514
  28   2.0000      -1.236971       -33.6597
  29   2.0000      -1.151198       -31.3257
  30   2.0000      -1.119166       -30.4541
  31   2.0000      -1.042466       -28.3670
  32   2.0000      -1.035356       -28.1735
  33   2.0000      -1.008497       -27.4426
  34   2.0000      -0.997158       -27.1340
  35   2.0000      -0.982728       -26.7414
  36   2.0000      -0.920868       -25.0581
  37   2.0000      -0.893426       -24.3114
  38   2.0000      -0.847601       -23.0644
  39   2.0000      -0.834602       -22.7107
  40   2.0000      -0.826767       -22.4975
  41   2.0000      -0.816455       -22.2169
  42   2.0000      -0.757208       -20.6047
  43   2.0000      -0.735530       -20.0148
  44   2.0000      -0.724187       -19.7061
  45   2.0000      -0.689883       -18.7727
  46   2.0000      -0.684863       -18.6361
  47   2.0000      -0.679854       -18.4998
  48   2.0000      -0.671805       -18.2807
  49   2.0000      -0.656783       -17.8720
  50   2.0000      -0.647853       -17.6290
  51   2.0000      -0.642053       -17.4711
  52   2.0000      -0.629881       -17.1399
  53   2.0000      -0.613088       -16.6830
  54   2.0000      -0.599791       -16.3211
  55   2.0000      -0.598503       -16.2861
  56   2.0000      -0.593859       -16.1597
  57   2.0000      -0.584506       -15.9052
  58   2.0000      -0.572114       -15.5680
  59   2.0000      -0.564485       -15.3604
  60   2.0000      -0.560729       -15.2582
  61   2.0000      -0.545420       -14.8416
  62   2.0000      -0.533933       -14.5291
  63   2.0000      -0.532975       -14.5030
  64   2.0000      -0.516264       -14.0483
  65   2.0000      -0.509657       -13.8685
  66   2.0000      -0.499378       -13.5888
  67   2.0000      -0.494788       -13.4639
  68   2.0000      -0.480237       -13.0679
  69   2.0000      -0.464388       -12.6366
  70   2.0000      -0.456380       -12.4187
  71   2.0000      -0.454880       -12.3779
  72   2.0000      -0.354450        -9.6451
  73   2.0000      -0.343124        -9.3369
  74   2.0000      -0.327177        -8.9029
  75   2.0000      -0.315444        -8.5837
  76   2.0000      -0.312702        -8.5091
  77   0.0000       0.075894         2.0652
  78   0.0000       0.114750         3.1225
  79   0.0000       0.121292         3.3005
  80   0.0000       0.136722         3.7204
  81   0.0000       0.140733         3.8295

MULLIKEN ATOMIC CHARGES
-----------------------
   0 C :   -0.287631
   1 C :    0.027885
   2 O :   -0.343604
   3 C :    0.458268
   4 O :   -0.439962
   5 C :   -0.183038
   6 C :    0.146383
   7 C :   -0.283900
   8 N :   -0.119698
   9 C :    0.200620
  10 S :   -0.438781
  11 N :   -0.196092
  12 C :    0.031999
  13 C :    0.059204
  14 C :   -0.160011
  15 C :   -0.133887
  16 C :   -0.278524
  17 C :    0.311729
  18 O :   -0.359271
  19 C :   -0.272505
  20 H :    0.091128
  21 H :    0.096777
  22 H :    0.111036
  23 H :    0.106191
  24 H :    0.112385
  25 H :    0.126504
  26 H :    0.101554
  27 H :    0.128908
  28 H :    0.196590
  29 H :    0.193443
  30 H :    0.153223
  31 H :    0.152792
  32 H :    0.158575
  33 H :    0.127621
  34 H :    0.239937
  35 H :    0.164151
Sum of atomic charges:    0.0000000

LOEWDIN ATOMIC CHARGES
----------------------
   0 C :    0.104317
   1 C :   -0.016289
   2 O :    0.308185
   3 C :   -0.414056
   4 O :    0.099743
   5 C :   -0.090652
   6 C :   -0.063662
   7 C :    0.124856
   8 N :    0.405065
   9 C :   -0.459293
  10 S :   -0.035606
  11 N :    0.398107
  12 C :   -0.046819
  13 C :   -0.038728
  14 C :    0.022398
  15 C :    0.040909
  16 C :   -0.002182
  17 C :   -0.192441
  18 O :    0.392946
  19 C :    0.028422
  20 H :   -0.030379
  21 H :   -0.026044
  22 H :   -0.024241
  23 H :   -0.026963
  24 H :   -0.026256
  25 H :   -0.009164
  26 H :   -0.021349
  27 H :   -0.009089
  28 H :   -0.059248
  29 H :   -0.063526
  30 H :   -0.005354
  31 H :   -0.025441
  32 H :   -0.021361
  33 H :   -0.036486
  34 H :   -0.154998
  35 H :   -0.025321

  Mayer bond orders larger than 0.100000
B(  0-C ,  1-C ) :   0.9644 B(  0-C , 20-H ) :   0.9782 B(  0-C , 21-H ) :   0.9761
B(  0-C , 22-H ) :   0.9763 B(  1-C ,  2-O ) :   0.8925 B(  1-C , 23-H ) :   0.9848
B(  1-C , 24-H ) :   0.9749 B(  2-O ,  3-C ) :   1.1667 B(  3-C ,  4-O ) :   1.9493
B(  3-C ,  5-C ) :   1.0791 B(  5-C ,  6-C ) :   1.6401 B(  5-C , 12-C ) :   0.9681
B(  6-C ,  7-C ) :   0.9561 B(  6-C ,  8-N ) :   1.1548 B(  7-C , 25-H ) :   0.9646
B(  7-C , 26-H ) :   0.9913 B(  7-C , 27-H ) :   0.9641 B(  8-N ,  9-C ) :   1.1761
B(  8-N , 28-H ) :   0.9486 B(  9-C , 10-S ) :   1.6112 B(  9-C , 11-N ) :   1.3054
B( 11-N , 12-C ) :   0.9933 B( 11-N , 29-H ) :   0.9519 B( 12-C , 13-C ) :   0.9471
B( 12-C , 30-H ) :   1.0009 B( 13-C , 14-C ) :   1.3744 B( 13-C , 19-C ) :   1.3695
B( 14-C , 15-C ) :   1.3946 B( 14-C , 31-H ) :   0.9653 B( 15-C , 16-C ) :   1.3624
B( 15-C , 32-H ) :   0.9716 B( 16-C , 17-C ) :   1.3316 B( 16-C , 33-H ) :   0.9861
B( 17-C , 18-O ) :   1.1078 B( 17-C , 19-C ) :   1.3796 B( 18-O , 34-H ) :   0.9807
B( 19-C , 35-H ) :   0.9584

MP2 TOTAL ENERGY:    -1274.349820544 Eh
FINAL SINGLE POINT ENERGY     -1274.349820544124

DIPOLE MOMENT
-------------
                                X             Y             Z
Electronic contribution:      9.52128       8.58147      12.67680
Nuclear contribution   :    -11.22458      -9.62710     -13.59931
                        -----------------------------------------
Total Dipole Moment    :     -1.70330      -1.04563      -0.92250
                        -----------------------------------------
Magnitude (a.u.)       :      2.20127
Magnitude (Debye)      :      5.59518

Rotational constants in cm-1:     0.010612     0.008628     0.005674
Rotational constants in MHz :   318.143296   258.647927   170.096484

                             ****ORCA TERMINATED NORMALLY****
TOTAL RUN TIME: 0 days 2 hours 31 minutes 23 seconds 877 msec
