                         Program Version 4.2.0 -  RELEASE  -
|  1> ! ri-mp2 cc-pvtz cc-pvtz/c TightSCF  NoKeepInts
|  2>
|  3> %scf
|  4>   MaxCore 4096
|  5> end
|  6> *xyz  0  1
|  7>     C       14.6248746   14.4382175   17.0144278
|  8>     C       15.5811561   15.6175755   16.7768244
|  9>     O       16.8467034   15.0551850   16.3804123
| 10>     C       18.0705258   15.6503549   16.5663361
| 11>     O       19.0781215   14.9746282   16.4708254
| 12>     C       18.0741307   16.8900537   17.3984766
| 13>     C       17.5742338   18.0670207   16.9580876
| 14>     C       16.9812104   18.3503032   15.5950243
| 15>     N       17.6460890   19.1998870   17.7713053
| 16>     C       18.2780963   19.2473056   18.9872027
| 17>     S       18.3598978   20.6444101   19.8675906
| 18>     N       18.8340218   18.0758227   19.4414618
| 19>     C       18.7275025   16.7632107   18.7728959
| 20>     C       17.9642095   15.7560649   19.6281735
| 21>     C       18.4145182   14.4264964   19.7211915
| 22>     C       17.6997435   13.4786249   20.4720733
| 23>     C       16.5205807   13.8610995   21.1335410
| 24>     C       16.0644946   15.1824798   21.0380173
| 25>     O       14.9176367   15.5517591   21.6615331
| 26>     C       16.7785694   16.1247213   20.2910867
| 27>     H       15.0131031   13.7840276   17.8058221
| 28>     H       14.5084966   13.8428840   16.1001776
| 29>     H       13.6353852   14.7979154   17.3214534
| 30>     H       15.1835380   16.2759351   15.9949852
| 31>     H       15.6610584   16.1788115   17.7160807
| 32>     H       17.0896810   17.5022194   14.9076500
| 33>     H       17.4849288   19.2032885   15.1222207
| 34>     H       15.9134714   18.5900358   15.6698628
| 35>     H       17.2584073   20.0735591   17.4507864
| 36>     H       19.2752673   18.1368682   20.3505313
| 37>     H       19.7479655   16.3805730   18.6223720
| 38>     H       19.3139681   14.1215712   19.1901687
| 39>     H       18.0565258   12.4516407   20.5300250
| 40>     H       15.9631884   13.1303027   21.7101490
| 41>     H       14.6029481   14.7866835   22.1667305
| 42>     H       16.4027508   17.1404639   20.2284975
| 43> *
| 44>
| 45>                          ****END OF INPUT****

CARTESIAN COORDINATES (ANGSTROEM)
---------------------------------
  C     14.624875   14.438217   17.014428
  C     15.581156   15.617575   16.776824
  O     16.846703   15.055185   16.380412
  C     18.070526   15.650355   16.566336
  O     19.078121   14.974628   16.470825
  C     18.074131   16.890054   17.398477
  C     17.574234   18.067021   16.958088
  C     16.981210   18.350303   15.595024
  N     17.646089   19.199887   17.771305
  C     18.278096   19.247306   18.987203
  S     18.359898   20.644410   19.867591
  N     18.834022   18.075823   19.441462
  C     18.727502   16.763211   18.772896
  C     17.964209   15.756065   19.628173
  C     18.414518   14.426496   19.721191
  C     17.699744   13.478625   20.472073
  C     16.520581   13.861099   21.133541
  C     16.064495   15.182480   21.038017
  O     14.917637   15.551759   21.661533
  C     16.778569   16.124721   20.291087
  H     15.013103   13.784028   17.805822
  H     14.508497   13.842884   16.100178
  H     13.635385   14.797915   17.321453
  H     15.183538   16.275935   15.994985
  H     15.661058   16.178811   17.716081
  H     17.089681   17.502219   14.907650
  H     17.484929   19.203288   15.122221
  H     15.913471   18.590036   15.669863
  H     17.258407   20.073559   17.450786
  H     19.275267   18.136868   20.350531
  H     19.747965   16.380573   18.622372
  H     19.313968   14.121571   19.190169
  H     18.056526   12.451641   20.530025
  H     15.963188   13.130303   21.710149
  H     14.602948   14.786684   22.166730
  H     16.402751   17.140464   20.228497

 Total Charge           Charge          ....    0
 Multiplicity           Mult            ....    1
 Number of Electrons    NEL             ....  154
 Basis Dimension        Dim             ....  828

ORBITAL ENERGIES
----------------

  NO   OCC          E(Eh)            E(eV)
   0   2.0000     -91.890165     -2500.4585
   1   2.0000     -20.602334      -560.6180
   2   2.0000     -20.600194      -560.5598
   3   2.0000     -20.549581      -559.1825
   4   2.0000     -15.626942      -425.2307
   5   2.0000     -15.612011      -424.8244
   6   2.0000     -11.397456      -310.1405
   7   2.0000     -11.387081      -309.8582
   8   2.0000     -11.328682      -308.2691
   9   2.0000     -11.317044      -307.9524
  10   2.0000     -11.315503      -307.9105
  11   2.0000     -11.303103      -307.5731
  12   2.0000     -11.270523      -306.6865
  13   2.0000     -11.264751      -306.5295
  14   2.0000     -11.263897      -306.5062
  15   2.0000     -11.256805      -306.3132
  16   2.0000     -11.246132      -306.0228
  17   2.0000     -11.242610      -305.9270
  18   2.0000     -11.239209      -305.8344
  19   2.0000     -11.230691      -305.6027
  20   2.0000      -8.895283      -242.0530
  21   2.0000      -6.576872      -178.9658
  22   2.0000      -6.574845      -178.9106
  23   2.0000      -6.574271      -178.8950
  24   2.0000      -1.448648       -39.4197
  25   2.0000      -1.420002       -38.6402
  26   2.0000      -1.359567       -36.9957
  27   2.0000      -1.340321       -36.4720
  28   2.0000      -1.240177       -33.7469
  29   2.0000      -1.161656       -31.6103
  30   2.0000      -1.125998       -30.6400
  31   2.0000      -1.049482       -28.5579
  32   2.0000      -1.039735       -28.2926
  33   2.0000      -1.019165       -27.7329
  34   2.0000      -1.005576       -27.3631
  35   2.0000      -0.989675       -26.9304
  36   2.0000      -0.928276       -25.2597
  37   2.0000      -0.880883       -23.9700
  38   2.0000      -0.855918       -23.2907
  39   2.0000      -0.842082       -22.9142
  40   2.0000      -0.837221       -22.7819
  41   2.0000      -0.836849       -22.7718
  42   2.0000      -0.756698       -20.5908
  43   2.0000      -0.740321       -20.1452
  44   2.0000      -0.731682       -19.9101
  45   2.0000      -0.698380       -19.0039
  46   2.0000      -0.688804       -18.7433
  47   2.0000      -0.681727       -18.5507
  48   2.0000      -0.677476       -18.4351
  49   2.0000      -0.660308       -17.9679
  50   2.0000      -0.658819       -17.9274
  51   2.0000      -0.650022       -17.6880
  52   2.0000      -0.640211       -17.4210
  53   2.0000      -0.612316       -16.6620
  54   2.0000      -0.608372       -16.5546
  55   2.0000      -0.604018       -16.4362
  56   2.0000      -0.597321       -16.2539
  57   2.0000      -0.583534       -15.8788
  58   2.0000      -0.578079       -15.7303
  59   2.0000      -0.570850       -15.5336
  60   2.0000      -0.562822       -15.3152
  61   2.0000      -0.557649       -15.1744
  62   2.0000      -0.551277       -15.0010
  63   2.0000      -0.528036       -14.3686
  64   2.0000      -0.518130       -14.0990
  65   2.0000      -0.515790       -14.0354
  66   2.0000      -0.504270       -13.7219
  67   2.0000      -0.502474       -13.6730
  68   2.0000      -0.488669       -13.2974
  69   2.0000      -0.471291       -12.8245
  70   2.0000      -0.453011       -12.3270
  71   2.0000      -0.450839       -12.2680
  72   2.0000      -0.356837        -9.7100
  73   2.0000      -0.352107        -9.5813
  74   2.0000      -0.329852        -8.9757
  75   2.0000      -0.324634        -8.8337
  76   2.0000      -0.318605        -8.6697
  77   0.0000       0.085910         2.3377
  78   0.0000       0.103981         2.8295
  79   0.0000       0.112027         3.0484
  80   0.0000       0.127376         3.4661
  81   0.0000       0.133039         3.6202

MULLIKEN ATOMIC CHARGES
-----------------------
   0 C :   -0.258090
   1 C :    0.006514
   2 O :   -0.304264
   3 C :    0.394729
   4 O :   -0.382667
   5 C :   -0.189812
   6 C :    0.143374
   7 C :   -0.331534
   8 N :   -0.137015
   9 C :    0.204669
  10 S :   -0.440879
  11 N :   -0.216096
  12 C :    0.075219
  13 C :    0.033114
  14 C :   -0.194285
  15 C :   -0.129517
  16 C :   -0.278544
  17 C :    0.321596
  18 O :   -0.358154
  19 C :   -0.296795
  20 H :    0.108779
  21 H :    0.103849
  22 H :    0.088109
  23 H :    0.096796
  24 H :    0.105319
  25 H :    0.126109
  26 H :    0.140467
  27 H :    0.122228
  28 H :    0.196225
  29 H :    0.198996
  30 H :    0.164856
  31 H :    0.167258
  32 H :    0.163942
  33 H :    0.132769
  34 H :    0.241873
  35 H :    0.180861
Sum of atomic charges:   -0.0000000

LOEWDIN ATOMIC CHARGES
----------------------
   0 C :    0.112391
   1 C :   -0.025022
   2 O :    0.312115
   3 C :   -0.417556
   4 O :    0.123482
   5 C :   -0.082170
   6 C :   -0.103272
   7 C :    0.123751
   8 N :    0.401128
   9 C :   -0.455778
  10 S :   -0.037789
  11 N :    0.397237
  12 C :   -0.043911
  13 C :   -0.042790
  14 C :    0.024076
  15 C :    0.046108
  16 C :   -0.000051
  17 C :   -0.193813
  18 O :    0.394674
  19 C :    0.026508
  20 H :   -0.021935
  21 H :   -0.025924
  22 H :   -0.025262
  23 H :   -0.037948
  24 H :   -0.036699
  25 H :   -0.008494
  26 H :   -0.009538
  27 H :   -0.017179
  28 H :   -0.057941
  29 H :   -0.063606
  30 H :   -0.002201
  31 H :   -0.021671
  32 H :   -0.018344
  33 H :   -0.034683
  34 H :   -0.152867
  35 H :   -0.025028

  Mayer bond orders larger than 0.100000
B(  0-C ,  1-C ) :   0.9844 B(  0-C , 20-H ) :   0.9763 B(  0-C , 21-H ) :   0.9800
B(  0-C , 22-H ) :   0.9768 B(  1-C ,  2-O ) :   0.9132 B(  1-C , 23-H ) :   0.9742
B(  1-C , 24-H ) :   0.9577 B(  2-O ,  3-C ) :   1.1858 B(  3-C ,  4-O ) :   2.0908
B(  3-C ,  5-C ) :   0.9203 B(  5-C ,  6-C ) :   1.6872 B(  5-C , 12-C ) :   0.9595
B(  6-C ,  7-C ) :   0.9420 B(  6-C ,  8-N ) :   1.1163 B(  7-C , 25-H ) :   0.9815
B(  7-C , 26-H ) :   0.9691 B(  7-C , 27-H ) :   0.9664 B(  8-N ,  9-C ) :   1.1955
B(  8-N , 28-H ) :   0.9525 B(  9-C , 10-S ) :   1.6113 B(  9-C , 11-N ) :   1.2870
B( 11-N , 12-C ) :   0.9970 B( 11-N , 29-H ) :   0.9488 B( 12-C , 13-C ) :   0.9427
B( 12-C , 30-H ) :   0.9971 B( 13-C , 14-C ) :   1.3885 B( 13-C , 19-C ) :   1.3395
B( 14-C , 15-C ) :   1.3973 B( 14-C , 31-H ) :   0.9613 B( 15-C , 16-C ) :   1.3626
B( 15-C , 32-H ) :   0.9699 B( 16-C , 17-C ) :   1.3296 B( 16-C , 33-H ) :   0.9843
B( 17-C , 18-O ) :   1.1093 B( 17-C , 19-C ) :   1.3656 B( 18-O , 34-H ) :   0.9791
B( 19-C , 35-H ) :   0.9559

MP2 TOTAL ENERGY:    -1274.332730039 Eh
FINAL SINGLE POINT ENERGY     -1274.332730038819

DIPOLE MOMENT
-------------
                                X             Y             Z
Electronic contribution:     10.57608       8.18508       6.55466
Nuclear contribution   :    -12.10587      -9.16845      -7.01652
                        -----------------------------------------
Total Dipole Moment    :     -1.52979      -0.98337      -0.46186
                        -----------------------------------------
Magnitude (a.u.)       :      1.87632
Magnitude (Debye)      :      4.76924

Rotational constants in cm-1:     0.012330     0.009022     0.006860
Rotational constants in MHz :   369.646614   270.486933   205.653949

                             ****ORCA TERMINATED NORMALLY****
TOTAL RUN TIME: 0 days 1 hours 48 minutes 11 seconds 411 msec
