                         Program Version 4.2.0 -  RELEASE  -
|  1> ! ri-mp2 cc-pvtz cc-pvtz/c TightSCF  NoKeepInts
|  2>
|  3> %scf
|  4>   MaxCore 4096
|  5> end
|  6> *xyz  0  1
|  7>     C       15.2214570   14.0354373   14.8580854
|  8>     C       15.1586701   14.8020248   16.1908766
|  9>     O       16.1543822   15.8399091   16.1517807
| 10>     C       17.3370458   15.6518212   16.8073500
| 11>     O       17.7875178   14.5367825   17.0146443
| 12>     C       17.7868740   16.8488315   17.5937512
| 13>     C       17.4529680   18.1332897   17.3038228
| 14>     C       16.6059105   18.6368550   16.1531576
| 15>     N       17.9766837   19.1774603   18.0731482
| 16>     C       18.9428226   19.0344219   19.0338809
| 17>     S       19.6001734   20.3386892   19.8099856
| 18>     N       19.3372046   17.7515321   19.3179771
| 19>     C       18.6928703   16.5344462   18.7894043
| 20>     C       17.9151134   15.8202408   19.8919115
| 21>     C       18.1672758   14.4659932   20.1791467
| 22>     C       17.4514113   13.8022514   21.1895371
| 23>     C       16.4735466   14.4979067   21.9205948
| 24>     C       16.2163448   15.8456775   21.6352569
| 25>     O       15.2680295   16.5184253   22.3348576
| 26>     C       16.9300030   16.5033941   20.6284892
| 27>     H       15.0657029   14.7145947   14.0108573
| 28>     H       14.4483276   13.2583836   14.8242800
| 29>     H       16.1987334   13.5502446   14.7393126
| 30>     H       14.1647350   15.2560676   16.2929505
| 31>     H       15.3109949   14.1222827   17.0411336
| 32>     H       16.9032254   18.1598297   15.2108492
| 33>     H       16.6954067   19.7199170   16.0052704
| 34>     H       15.5460790   18.4115032   16.3253089
| 35>     H       17.7003615   20.1266714   17.8790241
| 36>     H       20.0284931   17.6711890   20.0525627
| 37>     H       19.4892717   15.8620835   18.4388147
| 38>     H       18.9108613   13.9208631   19.6027462
| 39>     H       17.6524071   12.7528667   21.3975022
| 40>     H       15.9172614   13.9886837   22.7004520
| 41>     H       14.9215116   15.9138342   23.0080665
| 42>     H       16.7173228   17.5475953   20.4272107
| 43> *
| 44>
| 45>                          ****END OF INPUT****

CARTESIAN COORDINATES (ANGSTROEM)
---------------------------------
  C     15.221457   14.035437   14.858085
  C     15.158670   14.802025   16.190877
  O     16.154382   15.839909   16.151781
  C     17.337046   15.651821   16.807350
  O     17.787518   14.536782   17.014644
  C     17.786874   16.848831   17.593751
  C     17.452968   18.133290   17.303823
  C     16.605911   18.636855   16.153158
  N     17.976684   19.177460   18.073148
  C     18.942823   19.034422   19.033881
  S     19.600173   20.338689   19.809986
  N     19.337205   17.751532   19.317977
  C     18.692870   16.534446   18.789404
  C     17.915113   15.820241   19.891911
  C     18.167276   14.465993   20.179147
  C     17.451411   13.802251   21.189537
  C     16.473547   14.497907   21.920595
  C     16.216345   15.845678   21.635257
  O     15.268030   16.518425   22.334858
  C     16.930003   16.503394   20.628489
  H     15.065703   14.714595   14.010857
  H     14.448328   13.258384   14.824280
  H     16.198733   13.550245   14.739313
  H     14.164735   15.256068   16.292950
  H     15.310995   14.122283   17.041134
  H     16.903225   18.159830   15.210849
  H     16.695407   19.719917   16.005270
  H     15.546079   18.411503   16.325309
  H     17.700361   20.126671   17.879024
  H     20.028493   17.671189   20.052563
  H     19.489272   15.862083   18.438815
  H     18.910861   13.920863   19.602746
  H     17.652407   12.752867   21.397502
  H     15.917261   13.988684   22.700452
  H     14.921512   15.913834   23.008067
  H     16.717323   17.547595   20.427211

 Total Charge           Charge          ....    0
 Multiplicity           Mult            ....    1
 Number of Electrons    NEL             ....  154
 Basis Dimension        Dim             ....  828

ORBITAL ENERGIES
----------------

  NO   OCC          E(Eh)            E(eV)
   0   2.0000     -91.888187     -2500.4047
   1   2.0000     -20.597289      -560.4807
   2   2.0000     -20.592634      -560.3541
   3   2.0000     -20.549559      -559.1819
   4   2.0000     -15.628277      -425.2670
   5   2.0000     -15.607090      -424.6905
   6   2.0000     -11.396490      -310.1143
   7   2.0000     -11.383249      -309.7540
   8   2.0000     -11.335163      -308.4455
   9   2.0000     -11.308590      -307.7224
  10   2.0000     -11.306522      -307.6661
  11   2.0000     -11.299884      -307.4855
  12   2.0000     -11.260375      -306.4104
  13   2.0000     -11.259161      -306.3774
  14   2.0000     -11.254508      -306.2507
  15   2.0000     -11.248811      -306.0957
  16   2.0000     -11.238410      -305.8127
  17   2.0000     -11.234447      -305.7048
  18   2.0000     -11.231577      -305.6268
  19   2.0000     -11.225304      -305.4561
  20   2.0000      -8.893252      -241.9977
  21   2.0000      -6.574830      -178.9102
  22   2.0000      -6.572822      -178.8556
  23   2.0000      -6.572237      -178.8397
  24   2.0000      -1.454077       -39.5675
  25   2.0000      -1.412374       -38.4327
  26   2.0000      -1.357636       -36.9432
  27   2.0000      -1.339290       -36.4439
  28   2.0000      -1.237109       -33.6635
  29   2.0000      -1.153099       -31.3774
  30   2.0000      -1.120033       -30.4777
  31   2.0000      -1.042871       -28.3780
  32   2.0000      -1.034472       -28.1494
  33   2.0000      -1.010468       -27.4962
  34   2.0000      -0.997606       -27.1462
  35   2.0000      -0.982988       -26.7485
  36   2.0000      -0.921685       -25.0803
  37   2.0000      -0.888268       -24.1710
  38   2.0000      -0.847773       -23.0691
  39   2.0000      -0.836263       -22.7559
  40   2.0000      -0.828952       -22.5569
  41   2.0000      -0.820608       -22.3299
  42   2.0000      -0.756218       -20.5777
  43   2.0000      -0.735096       -20.0030
  44   2.0000      -0.725812       -19.7504
  45   2.0000      -0.691425       -18.8146
  46   2.0000      -0.685595       -18.6560
  47   2.0000      -0.680428       -18.5154
  48   2.0000      -0.672000       -18.2861
  49   2.0000      -0.658743       -17.9253
  50   2.0000      -0.646323       -17.5873
  51   2.0000      -0.641298       -17.4506
  52   2.0000      -0.629549       -17.1309
  53   2.0000      -0.612643       -16.6709
  54   2.0000      -0.600756       -16.3474
  55   2.0000      -0.600662       -16.3449
  56   2.0000      -0.595861       -16.2142
  57   2.0000      -0.584279       -15.8991
  58   2.0000      -0.573977       -15.6187
  59   2.0000      -0.565790       -15.3959
  60   2.0000      -0.561215       -15.2714
  61   2.0000      -0.546740       -14.8775
  62   2.0000      -0.534150       -14.5350
  63   2.0000      -0.522378       -14.2146
  64   2.0000      -0.518020       -14.0960
  65   2.0000      -0.510515       -13.8918
  66   2.0000      -0.501599       -13.6492
  67   2.0000      -0.496076       -13.4989
  68   2.0000      -0.480757       -13.0821
  69   2.0000      -0.462349       -12.5812
  70   2.0000      -0.457223       -12.4417
  71   2.0000      -0.454925       -12.3791
  72   2.0000      -0.353991        -9.6326
  73   2.0000      -0.344909        -9.3855
  74   2.0000      -0.327358        -8.9079
  75   2.0000      -0.316107        -8.6017
  76   2.0000      -0.314634        -8.5616
  77   0.0000       0.074714         2.0331
  78   0.0000       0.111107         3.0234
  79   0.0000       0.121286         3.3004
  80   0.0000       0.135161         3.6779
  81   0.0000       0.139942         3.8080

MULLIKEN ATOMIC CHARGES
-----------------------
   0 C :   -0.276030
   1 C :    0.041429
   2 O :   -0.355484
   3 C :    0.431937
   4 O :   -0.421132
   5 C :   -0.161716
   6 C :    0.142859
   7 C :   -0.283501
   8 N :   -0.123367
   9 C :    0.201904
  10 S :   -0.439565
  11 N :   -0.198195
  12 C :    0.040660
  13 C :    0.053767
  14 C :   -0.163819
  15 C :   -0.134199
  16 C :   -0.279524
  17 C :    0.311338
  18 O :   -0.358803
  19 C :   -0.271941
  20 H :    0.090531
  21 H :    0.090958
  22 H :    0.110051
  23 H :    0.099148
  24 H :    0.105059
  25 H :    0.125472
  26 H :    0.102290
  27 H :    0.127036
  28 H :    0.196968
  29 H :    0.193808
  30 H :    0.153943
  31 H :    0.154428
  32 H :    0.159703
  33 H :    0.128586
  34 H :    0.240166
  35 H :    0.165235
Sum of atomic charges:   -0.0000000

LOEWDIN ATOMIC CHARGES
----------------------
   0 C :    0.104293
   1 C :   -0.014783
   2 O :    0.302162
   3 C :   -0.414373
   4 O :    0.110274
   5 C :   -0.091528
   6 C :   -0.068378
   7 C :    0.125349
   8 N :    0.404574
   9 C :   -0.458487
  10 S :   -0.036219
  11 N :    0.397553
  12 C :   -0.045966
  13 C :   -0.039266
  14 C :    0.021389
  15 C :    0.040511
  16 C :   -0.002386
  17 C :   -0.192735
  18 O :    0.393130
  19 C :    0.028526
  20 H :   -0.029722
  21 H :   -0.028030
  22 H :   -0.023519
  23 H :   -0.028350
  24 H :   -0.025686
  25 H :   -0.008457
  26 H :   -0.020515
  27 H :   -0.009578
  28 H :   -0.058974
  29 H :   -0.063809
  30 H :   -0.004890
  31 H :   -0.025207
  32 H :   -0.021091
  33 H :   -0.036269
  34 H :   -0.154760
  35 H :   -0.024781

  Mayer bond orders larger than 0.100000
B(  0-C ,  1-C ) :   0.9710 B(  0-C , 20-H ) :   0.9778 B(  0-C , 21-H ) :   0.9763
B(  0-C , 22-H ) :   0.9761 B(  1-C ,  2-O ) :   0.8930 B(  1-C , 23-H ) :   0.9833
B(  1-C , 24-H ) :   0.9729 B(  2-O ,  3-C ) :   1.1202 B(  3-C ,  4-O ) :   1.9822
B(  3-C ,  5-C ) :   1.0512 B(  5-C ,  6-C ) :   1.6551 B(  5-C , 12-C ) :   0.9647
B(  6-C ,  7-C ) :   0.9538 B(  6-C ,  8-N ) :   1.1418 B(  7-C , 25-H ) :   0.9678
B(  7-C , 26-H ) :   0.9904 B(  7-C , 27-H ) :   0.9633 B(  8-N ,  9-C ) :   1.1810
B(  8-N , 28-H ) :   0.9491 B(  9-C , 10-S ) :   1.6105 B(  9-C , 11-N ) :   1.3025
B( 11-N , 12-C ) :   0.9918 B( 11-N , 29-H ) :   0.9518 B( 12-C , 13-C ) :   0.9465
B( 12-C , 30-H ) :   0.9991 B( 13-C , 14-C ) :   1.3758 B( 13-C , 19-C ) :   1.3699
B( 14-C , 15-C ) :   1.3944 B( 14-C , 31-H ) :   0.9646 B( 15-C , 16-C ) :   1.3628
B( 15-C , 32-H ) :   0.9712 B( 16-C , 17-C ) :   1.3312 B( 16-C , 33-H ) :   0.9858
B( 17-C , 18-O ) :   1.1084 B( 17-C , 19-C ) :   1.3782 B( 18-O , 34-H ) :   0.9805
B( 19-C , 35-H ) :   0.9584

MP2 TOTAL ENERGY:    -1274.339236135 Eh
FINAL SINGLE POINT ENERGY     -1274.339236135175

DIPOLE MOMENT
-------------
                                X             Y             Z
Electronic contribution:     10.72993      10.02328      10.82769
Nuclear contribution   :    -12.34874     -11.19676     -11.56976
                        -----------------------------------------
Total Dipole Moment    :     -1.61881      -1.17348      -0.74206
                        -----------------------------------------
Magnitude (a.u.)       :      2.13266
Magnitude (Debye)      :      5.42080

Rotational constants in cm-1:     0.010700     0.008948     0.005903
Rotational constants in MHz :   320.776137   268.263775   176.977487

                             ****ORCA TERMINATED NORMALLY****
TOTAL RUN TIME: 0 days 1 hours 27 minutes 31 seconds 959 msec
