                         Program Version 4.2.0 -  RELEASE  -
|  1> ! ri-mp2 cc-pvtz cc-pvtz/c TightSCF  NoKeepInts
|  2>
|  3> %scf
|  4>   MaxCore 4096
|  5> end
|  6> *xyz  0  1
|  7>     C       15.0864041   15.6145837   17.4918307
|  8>     C       15.5531076   15.3164679   16.0511979
|  9>     O       16.9625086   14.9978276   15.9414766
| 10>     C       18.0841694   15.5947514   16.4755492
| 11>     O       19.1272406   14.9671603   16.4714210
| 12>     C       17.9335204   16.7728260   17.3835753
| 13>     C       17.4080922   17.9498884   16.9670533
| 14>     C       16.8929610   18.2879069   15.5848731
| 15>     N       17.4062172   19.0544765   17.8218774
| 16>     C       18.0561617   19.1081625   19.0267886
| 17>     S       18.0849454   20.4879874   19.9374189
| 18>     N       18.6863908   17.9597203   19.4370569
| 19>     C       18.5972365   16.6504845   18.7594591
| 20>     C       17.8926105   15.6145968   19.6326483
| 21>     C       18.3227136   14.2748199   19.6151840
| 22>     C       17.6798917   13.3036996   20.4004898
| 23>     C       16.5954541   13.6732225   21.2136234
| 24>     C       16.1616644   15.0053091   21.2345377
| 25>     O       15.1074911   15.3633896   22.0098048
| 26>     C       16.8028737   15.9703672   20.4512554
| 27>     H       15.5140543   14.8851668   18.1903311
| 28>     H       13.9952413   15.5224162   17.5530044
| 29>     H       15.3354703   16.6245658   17.8274118
| 30>     H       14.9879084   14.4516477   15.6797667
| 31>     H       15.2955088   16.1587989   15.4002862
| 32>     H       17.1565969   17.5235461   14.8438589
| 33>     H       17.3297705   19.2287350   15.2257870
| 34>     H       15.8027172   18.4059540   15.5869628
| 35>     H       16.9688358   19.9139861   17.5288554
| 36>     H       19.1484435   18.0235458   20.3354233
| 37>     H       19.6266691   16.2975515   18.5976288
| 38>     H       19.1551649   13.9821479   18.9783369
| 39>     H       18.0216432   12.2703724   20.3725126
| 40>     H       16.0949079   12.9254883   21.8198731
| 41>     H       14.8314838   14.5777876   22.5056394
| 42>     H       16.4409297   16.9926415   20.4812003
| 43> *
| 44>
| 45>                          ****END OF INPUT****

CARTESIAN COORDINATES (ANGSTROEM)
---------------------------------
  C     15.086404   15.614584   17.491831
  C     15.553108   15.316468   16.051198
  O     16.962509   14.997828   15.941477
  C     18.084169   15.594751   16.475549
  O     19.127241   14.967160   16.471421
  C     17.933520   16.772826   17.383575
  C     17.408092   17.949888   16.967053
  C     16.892961   18.287907   15.584873
  N     17.406217   19.054476   17.821877
  C     18.056162   19.108162   19.026789
  S     18.084945   20.487987   19.937419
  N     18.686391   17.959720   19.437057
  C     18.597236   16.650485   18.759459
  C     17.892610   15.614597   19.632648
  C     18.322714   14.274820   19.615184
  C     17.679892   13.303700   20.400490
  C     16.595454   13.673222   21.213623
  C     16.161664   15.005309   21.234538
  O     15.107491   15.363390   22.009805
  C     16.802874   15.970367   20.451255
  H     15.514054   14.885167   18.190331
  H     13.995241   15.522416   17.553004
  H     15.335470   16.624566   17.827412
  H     14.987908   14.451648   15.679767
  H     15.295509   16.158799   15.400286
  H     17.156597   17.523546   14.843859
  H     17.329770   19.228735   15.225787
  H     15.802717   18.405954   15.586963
  H     16.968836   19.913986   17.528855
  H     19.148443   18.023546   20.335423
  H     19.626669   16.297552   18.597629
  H     19.155165   13.982148   18.978337
  H     18.021643   12.270372   20.372513
  H     16.094908   12.925488   21.819873
  H     14.831484   14.577788   22.505639
  H     16.440930   16.992642   20.481200

 Total Charge           Charge          ....    0
 Multiplicity           Mult            ....    1
 Number of Electrons    NEL             ....  154
 Basis Dimension        Dim             ....  828

ORBITAL ENERGIES
----------------

  NO   OCC          E(Eh)            E(eV)
   0   2.0000     -91.890743     -2500.4743
   1   2.0000     -20.598435      -560.5119
   2   2.0000     -20.597564      -560.4882
   3   2.0000     -20.547152      -559.1164
   4   2.0000     -15.628770      -425.2805
   5   2.0000     -15.611289      -424.8048
   6   2.0000     -11.400673      -310.2281
   7   2.0000     -11.387088      -309.8584
   8   2.0000     -11.331739      -308.3523
   9   2.0000     -11.314150      -307.8737
  10   2.0000     -11.313702      -307.8615
  11   2.0000     -11.311244      -307.7946
  12   2.0000     -11.271250      -306.7063
  13   2.0000     -11.266613      -306.5801
  14   2.0000     -11.261550      -306.4423
  15   2.0000     -11.254713      -306.2563
  16   2.0000     -11.243915      -305.9625
  17   2.0000     -11.239299      -305.8369
  18   2.0000     -11.236257      -305.7541
  19   2.0000     -11.231488      -305.6243
  20   2.0000      -8.895841      -242.0681
  21   2.0000      -6.577428      -178.9809
  22   2.0000      -6.575403      -178.9258
  23   2.0000      -6.574825      -178.9101
  24   2.0000      -1.443167       -39.2706
  25   2.0000      -1.417382       -38.5689
  26   2.0000      -1.355236       -36.8778
  27   2.0000      -1.341767       -36.5113
  28   2.0000      -1.240654       -33.7599
  29   2.0000      -1.159068       -31.5398
  30   2.0000      -1.125444       -30.6249
  31   2.0000      -1.047902       -28.5149
  32   2.0000      -1.039614       -28.2893
  33   2.0000      -1.017230       -27.6802
  34   2.0000      -1.005971       -27.3739
  35   2.0000      -0.990445       -26.9514
  36   2.0000      -0.928232       -25.2585
  37   2.0000      -0.899026       -24.4637
  38   2.0000      -0.855163       -23.2702
  39   2.0000      -0.840959       -22.8836
  40   2.0000      -0.834476       -22.7072
  41   2.0000      -0.828809       -22.5530
  42   2.0000      -0.745930       -20.2978
  43   2.0000      -0.738351       -20.0916
  44   2.0000      -0.730581       -19.8801
  45   2.0000      -0.695186       -18.9170
  46   2.0000      -0.687183       -18.6992
  47   2.0000      -0.678776       -18.4704
  48   2.0000      -0.674641       -18.3579
  49   2.0000      -0.662235       -18.0203
  50   2.0000      -0.653681       -17.7876
  51   2.0000      -0.652080       -17.7440
  52   2.0000      -0.640926       -17.4405
  53   2.0000      -0.616380       -16.7725
  54   2.0000      -0.609641       -16.5892
  55   2.0000      -0.605661       -16.4809
  56   2.0000      -0.602161       -16.3856
  57   2.0000      -0.590886       -16.0788
  58   2.0000      -0.578282       -15.7359
  59   2.0000      -0.572360       -15.5747
  60   2.0000      -0.565711       -15.3938
  61   2.0000      -0.556495       -15.1430
  62   2.0000      -0.542156       -14.7528
  63   2.0000      -0.529907       -14.4195
  64   2.0000      -0.520523       -14.1642
  65   2.0000      -0.513463       -13.9721
  66   2.0000      -0.501279       -13.6405
  67   2.0000      -0.500589       -13.6217
  68   2.0000      -0.483185       -13.1481
  69   2.0000      -0.465903       -12.6779
  70   2.0000      -0.454292       -12.3619
  71   2.0000      -0.449901       -12.2424
  72   2.0000      -0.356960        -9.7134
  73   2.0000      -0.348648        -9.4872
  74   2.0000      -0.330288        -8.9876
  75   2.0000      -0.323042        -8.7904
  76   2.0000      -0.318962        -8.6794
  77   0.0000       0.082658         2.2492
  78   0.0000       0.107614         2.9283
  79   0.0000       0.113461         3.0874
  80   0.0000       0.130493         3.5509
  81   0.0000       0.131022         3.5653

MULLIKEN ATOMIC CHARGES
-----------------------
   0 C :   -0.334465
   1 C :    0.029817
   2 O :   -0.326258
   3 C :    0.420022
   4 O :   -0.385872
   5 C :   -0.200710
   6 C :    0.141595
   7 C :   -0.336845
   8 N :   -0.136545
   9 C :    0.200961
  10 S :   -0.439531
  11 N :   -0.222380
  12 C :    0.079923
  13 C :    0.021114
  14 C :   -0.210567
  15 C :   -0.135370
  16 C :   -0.277335
  17 C :    0.316438
  18 O :   -0.358323
  19 C :   -0.269891
  20 H :    0.129274
  21 H :    0.117171
  22 H :    0.109223
  23 H :    0.134227
  24 H :    0.085513
  25 H :    0.130338
  26 H :    0.139552
  27 H :    0.122284
  28 H :    0.197067
  29 H :    0.201430
  30 H :    0.168052
  31 H :    0.176145
  32 H :    0.163803
  33 H :    0.132007
  34 H :    0.241084
  35 H :    0.177052
Sum of atomic charges:   -0.0000000

LOEWDIN ATOMIC CHARGES
----------------------
   0 C :    0.103961
   1 C :   -0.017206
   2 O :    0.295952
   3 C :   -0.415151
   4 O :    0.121198
   5 C :   -0.079579
   6 C :   -0.097456
   7 C :    0.124041
   8 N :    0.402626
   9 C :   -0.458159
  10 S :   -0.036771
  11 N :    0.398448
  12 C :   -0.042544
  13 C :   -0.042947
  14 C :    0.020138
  15 C :    0.043553
  16 C :   -0.001847
  17 C :   -0.194069
  18 O :    0.395300
  19 C :    0.028713
  20 H :   -0.019353
  21 H :   -0.023680
  22 H :   -0.036935
  23 H :   -0.016837
  24 H :   -0.039831
  25 H :   -0.007814
  26 H :   -0.009036
  27 H :   -0.017842
  28 H :   -0.057557
  29 H :   -0.063291
  30 H :   -0.001529
  31 H :   -0.021714
  32 H :   -0.018610
  33 H :   -0.035006
  34 H :   -0.153593
  35 H :   -0.025573

  Mayer bond orders larger than 0.100000
B(  0-C ,  1-C ) :   0.9545 B(  0-C , 20-H ) :   0.9677 B(  0-C , 21-H ) :   0.9771
B(  0-C , 22-H ) :   0.9731 B(  1-C ,  2-O ) :   0.9080 B(  1-C , 23-H ) :   0.9804
B(  1-C , 24-H ) :   0.9738 B(  2-O ,  3-C ) :   1.1809 B(  3-C ,  4-O ) :   2.0748
B(  3-C ,  5-C ) :   0.9257 B(  5-C ,  6-C ) :   1.6944 B(  5-C , 12-C ) :   0.9559
B(  6-C ,  7-C ) :   0.9447 B(  6-C ,  8-N ) :   1.1036 B(  7-C , 25-H ) :   0.9799
B(  7-C , 26-H ) :   0.9721 B(  7-C , 27-H ) :   0.9648 B(  8-N ,  9-C ) :   1.1934
B(  8-N , 28-H ) :   0.9521 B(  9-C , 10-S ) :   1.6108 B(  9-C , 11-N ) :   1.2889
B( 11-N , 12-C ) :   0.9882 B( 11-N , 29-H ) :   0.9485 B( 12-C , 13-C ) :   0.9477
B( 12-C , 30-H ) :   0.9950 B( 13-C , 14-C ) :   1.3909 B( 13-C , 19-C ) :   1.3420
B( 14-C , 15-C ) :   1.3999 B( 14-C , 31-H ) :   0.9577 B( 15-C , 16-C ) :   1.3592
B( 15-C , 32-H ) :   0.9703 B( 16-C , 17-C ) :   1.3300 B( 16-C , 33-H ) :   0.9849
B( 17-C , 18-O ) :   1.1106 B( 17-C , 19-C ) :   1.3709 B( 18-O , 34-H ) :   0.9797
B( 19-C , 35-H ) :   0.9570

MP2 TOTAL ENERGY:    -1274.326714733 Eh
FINAL SINGLE POINT ENERGY     -1274.326714733469

DIPOLE MOMENT
-------------
                                X             Y             Z
Electronic contribution:      9.35142       5.85213       6.36280
Nuclear contribution   :    -10.94981      -6.84194      -7.01868
                        -----------------------------------------
Total Dipole Moment    :     -1.59839      -0.98981      -0.65589
                        -----------------------------------------
Magnitude (a.u.)       :      1.99117
Magnitude (Debye)      :      5.06116

Rotational constants in cm-1:     0.011699     0.009642     0.006831
Rotational constants in MHz :   350.720186   289.057739   204.791653

                             ****ORCA TERMINATED NORMALLY****
TOTAL RUN TIME: 0 days 1 hours 50 minutes 47 seconds 533 msec
