                         Program Version 4.2.0 -  RELEASE  -
|  1> ! ri-mp2 cc-pvtz cc-pvtz/c TightSCF  NoKeepInts
|  2>
|  3> %scf
|  4>   MaxCore 4096
|  5> end
|  6> *xyz  0  1
|  7>     C       15.7536311   13.7596228   14.9656005
|  8>     C       15.1305857   15.1324955   15.2989032
|  9>     O       15.9422663   16.0257064   16.1084593
| 10>     C       17.0317694   15.7162274   16.8825847
| 11>     O       17.4881272   14.5938987   17.0149148
| 12>     C       17.5772300   16.8790456   17.6676353
| 13>     C       17.2621317   18.1873465   17.4670340
| 14>     C       16.3220156   18.7830819   16.4383117
| 15>     N       17.8937881   19.1780120   18.2271792
| 16>     C       18.9458708   18.9644184   19.0775568
| 17>     S       19.7260257   20.2132378   19.8309576
| 18>     N       19.3176932   17.6589244   19.2704138
| 19>     C       18.5712210   16.4898580   18.7699422
| 20>     C       17.8660693   15.7753416   19.9203564
| 21>     C       18.0771231   14.4017560   20.1415635
| 22>     C       17.4304489   13.7379204   21.1975216
| 23>     C       16.5640780   14.4530288   22.0416503
| 24>     C       16.3479656   15.8203239   21.8229096
| 25>     O       15.5072758   16.5123845   22.6327155
| 26>     C       16.9927544   16.4782050   20.7707937
| 27>     H       16.7597062   13.8743769   14.5430119
| 28>     H       15.1366001   13.2333326   14.2275530
| 29>     H       15.8124970   13.1228804   15.8572599
| 30>     H       14.8831462   15.6450190   14.3604736
| 31>     H       14.1831555   14.9525521   15.8232982
| 32>     H       15.2861400   18.4846418   16.6423173
| 33>     H       16.5826777   18.4412115   15.4290272
| 34>     H       16.3490568   19.8793770   16.4227829
| 35>     H       17.6348774   20.1431898   18.1000963
| 36>     H       20.0752172   17.5235984   19.9274156
| 37>     H       19.3027556   15.7954795   18.3318617
| 38>     H       18.7330584   13.8425116   19.4787747
| 39>     H       17.5974519   12.6736656   21.3530481
| 40>     H       16.0609708   13.9438521   22.8567842
| 41>     H       15.1879126   15.8980646   23.3104256
| 42>     H       16.8137059   17.5374116   20.6228661
| 43> *
| 44>
| 45>                          ****END OF INPUT****

CARTESIAN COORDINATES (ANGSTROEM)
---------------------------------
  C     15.753631   13.759623   14.965601
  C     15.130586   15.132495   15.298903
  O     15.942266   16.025706   16.108459
  C     17.031769   15.716227   16.882585
  O     17.488127   14.593899   17.014915
  C     17.577230   16.879046   17.667635
  C     17.262132   18.187347   17.467034
  C     16.322016   18.783082   16.438312
  N     17.893788   19.178012   18.227179
  C     18.945871   18.964418   19.077557
  S     19.726026   20.213238   19.830958
  N     19.317693   17.658924   19.270414
  C     18.571221   16.489858   18.769942
  C     17.866069   15.775342   19.920356
  C     18.077123   14.401756   20.141564
  C     17.430449   13.737920   21.197522
  C     16.564078   14.453029   22.041650
  C     16.347966   15.820324   21.822910
  O     15.507276   16.512384   22.632715
  C     16.992754   16.478205   20.770794
  H     16.759706   13.874377   14.543012
  H     15.136600   13.233333   14.227553
  H     15.812497   13.122880   15.857260
  H     14.883146   15.645019   14.360474
  H     14.183155   14.952552   15.823298
  H     15.286140   18.484642   16.642317
  H     16.582678   18.441212   15.429027
  H     16.349057   19.879377   16.422783
  H     17.634877   20.143190   18.100096
  H     20.075217   17.523598   19.927416
  H     19.302756   15.795480   18.331862
  H     18.733058   13.842512   19.478775
  H     17.597452   12.673666   21.353048
  H     16.060971   13.943852   22.856784
  H     15.187913   15.898065   23.310426
  H     16.813706   17.537412   20.622866

 Total Charge           Charge          ....    0
 Multiplicity           Mult            ....    1
 Number of Electrons    NEL             ....  154
 Basis Dimension        Dim             ....  828

ORBITAL ENERGIES
----------------

  NO   OCC          E(Eh)            E(eV)
   0   2.0000     -91.887113     -2500.3755
   1   2.0000     -20.601889      -560.6059
   2   2.0000     -20.590281      -560.2900
   3   2.0000     -20.542851      -558.9994
   4   2.0000     -15.627231      -425.2386
   5   2.0000     -15.605548      -424.6486
   6   2.0000     -11.399207      -310.1882
   7   2.0000     -11.381727      -309.7125
   8   2.0000     -11.335393      -308.4517
   9   2.0000     -11.307473      -307.6920
  10   2.0000     -11.305997      -307.6518
  11   2.0000     -11.303863      -307.5938
  12   2.0000     -11.259639      -306.3904
  13   2.0000     -11.257945      -306.3443
  14   2.0000     -11.251897      -306.1797
  15   2.0000     -11.246179      -306.0241
  16   2.0000     -11.235797      -305.7416
  17   2.0000     -11.231864      -305.6346
  18   2.0000     -11.228823      -305.5518
  19   2.0000     -11.225356      -305.4575
  20   2.0000      -8.892183      -241.9686
  21   2.0000      -6.573763      -178.8812
  22   2.0000      -6.571755      -178.8266
  23   2.0000      -6.571171      -178.8107
  24   2.0000      -1.445183       -39.3254
  25   2.0000      -1.410010       -38.3683
  26   2.0000      -1.356807       -36.9206
  27   2.0000      -1.338351       -36.4184
  28   2.0000      -1.235866       -33.6296
  29   2.0000      -1.150451       -31.3054
  30   2.0000      -1.117506       -30.4089
  31   2.0000      -1.041488       -28.3403
  32   2.0000      -1.034581       -28.1524
  33   2.0000      -1.007968       -27.4282
  34   2.0000      -0.996016       -27.1030
  35   2.0000      -0.981389       -26.7049
  36   2.0000      -0.920399       -25.0453
  37   2.0000      -0.897499       -24.4222
  38   2.0000      -0.847230       -23.0543
  39   2.0000      -0.834682       -22.7128
  40   2.0000      -0.826393       -22.4873
  41   2.0000      -0.816707       -22.2237
  42   2.0000      -0.742928       -20.2161
  43   2.0000      -0.725809       -19.7503
  44   2.0000      -0.723250       -19.6806
  45   2.0000      -0.689313       -18.7572
  46   2.0000      -0.683525       -18.5997
  47   2.0000      -0.676722       -18.4145
  48   2.0000      -0.672520       -18.3002
  49   2.0000      -0.665392       -18.1062
  50   2.0000      -0.644985       -17.5509
  51   2.0000      -0.642798       -17.4914
  52   2.0000      -0.633697       -17.2438
  53   2.0000      -0.603482       -16.4216
  54   2.0000      -0.598855       -16.2957
  55   2.0000      -0.597149       -16.2493
  56   2.0000      -0.593457       -16.1488
  57   2.0000      -0.585725       -15.9384
  58   2.0000      -0.570926       -15.5357
  59   2.0000      -0.569432       -15.4950
  60   2.0000      -0.558760       -15.2046
  61   2.0000      -0.541881       -14.7453
  62   2.0000      -0.537211       -14.6183
  63   2.0000      -0.524937       -14.2843
  64   2.0000      -0.516136       -14.0448
  65   2.0000      -0.510184       -13.8828
  66   2.0000      -0.498958       -13.5773
  67   2.0000      -0.494071       -13.4443
  68   2.0000      -0.479536       -13.0488
  69   2.0000      -0.461694       -12.5633
  70   2.0000      -0.452587       -12.3155
  71   2.0000      -0.446774       -12.1573
  72   2.0000      -0.353050        -9.6070
  73   2.0000      -0.342538        -9.3209
  74   2.0000      -0.326259        -8.8780
  75   2.0000      -0.314532        -8.5589
  76   2.0000      -0.312278        -8.4975
  77   0.0000       0.077244         2.1019
  78   0.0000       0.115175         3.1341
  79   0.0000       0.121097         3.2952
  80   0.0000       0.136838         3.7236
  81   0.0000       0.139493         3.7958

MULLIKEN ATOMIC CHARGES
-----------------------
   0 C :   -0.289663
   1 C :    0.050769
   2 O :   -0.356637
   3 C :    0.440188
   4 O :   -0.431789
   5 C :   -0.148965
   6 C :    0.139076
   7 C :   -0.286548
   8 N :   -0.120071
   9 C :    0.200656
  10 S :   -0.440549
  11 N :   -0.196220
  12 C :    0.028453
  13 C :    0.060586
  14 C :   -0.162416
  15 C :   -0.134039
  16 C :   -0.278944
  17 C :    0.311667
  18 O :   -0.359259
  19 C :   -0.271772
  20 H :    0.103657
  21 H :    0.097081
  22 H :    0.119058
  23 H :    0.092566
  24 H :    0.090252
  25 H :    0.128378
  26 H :    0.124635
  27 H :    0.102879
  28 H :    0.196286
  29 H :    0.193242
  30 H :    0.154153
  31 H :    0.153280
  32 H :    0.158447
  33 H :    0.127474
  34 H :    0.239826
  35 H :    0.164262
Sum of atomic charges:   -0.0000000

LOEWDIN ATOMIC CHARGES
----------------------
   0 C :    0.102583
   1 C :   -0.008184
   2 O :    0.294164
   3 C :   -0.413360
   4 O :    0.112011
   5 C :   -0.089950
   6 C :   -0.064653
   7 C :    0.124120
   8 N :    0.404631
   9 C :   -0.459580
  10 S :   -0.037011
  11 N :    0.398050
  12 C :   -0.046799
  13 C :   -0.038421
  14 C :    0.021744
  15 C :    0.040513
  16 C :   -0.002539
  17 C :   -0.192470
  18 O :    0.392906
  19 C :    0.028639
  20 H :   -0.025544
  21 H :   -0.027928
  22 H :   -0.024011
  23 H :   -0.027553
  24 H :   -0.028201
  25 H :   -0.009543
  26 H :   -0.009187
  27 H :   -0.021518
  28 H :   -0.059569
  29 H :   -0.063666
  30 H :   -0.005690
  31 H :   -0.025514
  32 H :   -0.021514
  33 H :   -0.036617
  34 H :   -0.155109
  35 H :   -0.025228

  Mayer bond orders larger than 0.100000
B(  0-C ,  1-C ) :   0.9803 B(  0-C , 20-H ) :   0.9749 B(  0-C , 21-H ) :   0.9735
B(  0-C , 22-H ) :   0.9722 B(  1-C ,  2-O ) :   0.8984 B(  1-C , 23-H ) :   0.9801
B(  1-C , 24-H ) :   0.9783 B(  2-O ,  3-C ) :   1.1542 B(  3-C ,  4-O ) :   1.9722
B(  3-C ,  5-C ) :   1.0627 B(  5-C ,  6-C ) :   1.6472 B(  5-C , 12-C ) :   0.9658
B(  6-C ,  7-C ) :   0.9553 B(  6-C ,  8-N ) :   1.1496 B(  7-C , 25-H ) :   0.9641
B(  7-C , 26-H ) :   0.9657 B(  7-C , 27-H ) :   0.9923 B(  8-N ,  9-C ) :   1.1779
B(  8-N , 28-H ) :   0.9489 B(  9-C , 10-S ) :   1.6097 B(  9-C , 11-N ) :   1.3053
B( 11-N , 12-C ) :   0.9924 B( 11-N , 29-H ) :   0.9521 B( 12-C , 13-C ) :   0.9479
B( 12-C , 30-H ) :   1.0006 B( 13-C , 14-C ) :   1.3749 B( 13-C , 19-C ) :   1.3698
B( 14-C , 15-C ) :   1.3948 B( 14-C , 31-H ) :   0.9651 B( 15-C , 16-C ) :   1.3625
B( 15-C , 32-H ) :   0.9716 B( 16-C , 17-C ) :   1.3316 B( 16-C , 33-H ) :   0.9862
B( 17-C , 18-O ) :   1.1078 B( 17-C , 19-C ) :   1.3795 B( 18-O , 34-H ) :   0.9808
B( 19-C , 35-H ) :   0.9583

MP2 TOTAL ENERGY:    -1274.337601661 Eh
FINAL SINGLE POINT ENERGY     -1274.337601661366

DIPOLE MOMENT
-------------
                                X             Y             Z
Electronic contribution:      9.63954       9.94550      11.56901
Nuclear contribution   :    -11.32504     -11.07801     -12.65761
                        -----------------------------------------
Total Dipole Moment    :     -1.68550      -1.13251      -1.08859
                        -----------------------------------------
Magnitude (a.u.)       :      2.30403
Magnitude (Debye)      :      5.85637

Rotational constants in cm-1:     0.010573     0.008779     0.005759
Rotational constants in MHz :   316.956984   263.199249   172.642089

                             ****ORCA TERMINATED NORMALLY****
TOTAL RUN TIME: 0 days 2 hours 27 minutes 58 seconds 50 msec
