                         Program Version 5.0.0 -  RELEASE  -
|  1> ! ri-mp2 cc-pvtz cc-pvtz/c TightSCF NoKeepInts
|  2>
|  3> %scf
|  4>   MaxCore 4096
|  5> end
|  6> *xyz  0  1
|  7>     C       16.0160895   12.9584721   16.2096654
|  8>     C       15.6870516   14.4107520   15.8252846
|  9>     O       16.4158099   15.2631734   16.7224841
| 10>     C       16.0818895   16.5857314   16.8098987
| 11>     O       15.1286033   17.0539445   16.2102411
| 12>     C       17.1226711   17.3953648   17.5331066
| 13>     C       17.0766497   18.7501869   17.6011008
| 14>     C       16.0281644   19.6633838   17.0026095
| 15>     N       18.0906694   19.4542666   18.2574653
| 16>     C       19.2217647   18.8910985   18.7851245
| 17>     S       20.4174924   19.8067152   19.4690361
| 18>     N       19.3140228   17.5244073   18.7174467
| 19>     C       18.2518491   16.6228433   18.2345511
| 20>     C       17.7248146   15.7758773   19.3893472
| 21>     C       17.8946420   14.3785658   19.3859554
| 22>     C       17.4073279   13.5963280   20.4464702
| 23>     C       16.7473163   14.2161807   21.5212332
| 24>     C       16.5794776   15.6077274   21.5295695
| 25>     O       15.9427007   16.2091004   22.5658827
| 26>     C       17.0651264   16.3835277   20.4724545
| 27>     H       17.0892796   12.7618256   16.0965964
| 28>     H       15.4680340   12.2572752   15.5686661
| 29>     H       15.7353252   12.7630037   17.2523930
| 30>     H       15.9702770   14.6135062   14.7839995
| 31>     H       14.6056031   14.5728635   15.9335365
| 32>     H       15.9900358   19.5445946   15.9122972
| 33>     H       16.2107918   20.7233719   17.2144062
| 34>     H       15.0330591   19.4153783   17.3936532
| 35>     H       18.0404248   20.4587890   18.3161843
| 36>     H       20.1410249   17.1350819   19.1514646
| 37>     H       18.7094269   15.9530015   17.4930784
| 38>     H       18.3977908   13.8961270   18.5523720
| 39>     H       17.5402763   12.5160565   20.4326258
| 40>     H       16.3688495   13.6164252   22.3423529
| 41>     H       15.7019791   15.5175666   23.2003675
| 42>     H       16.9306894   17.4594860   20.5010791
| 43> *
| 44>
| 45>                          ****END OF INPUT****

CARTESIAN COORDINATES (ANGSTROEM)
---------------------------------
  C     16.016089   12.958472   16.209665
  C     15.687052   14.410752   15.825285
  O     16.415810   15.263173   16.722484
  C     16.081889   16.585731   16.809899
  O     15.128603   17.053945   16.210241
  C     17.122671   17.395365   17.533107
  C     17.076650   18.750187   17.601101
  C     16.028164   19.663384   17.002609
  N     18.090669   19.454267   18.257465
  C     19.221765   18.891098   18.785124
  S     20.417492   19.806715   19.469036
  N     19.314023   17.524407   18.717447
  C     18.251849   16.622843   18.234551
  C     17.724815   15.775877   19.389347
  C     17.894642   14.378566   19.385955
  C     17.407328   13.596328   20.446470
  C     16.747316   14.216181   21.521233
  C     16.579478   15.607727   21.529569
  O     15.942701   16.209100   22.565883
  C     17.065126   16.383528   20.472454
  H     17.089280   12.761826   16.096596
  H     15.468034   12.257275   15.568666
  H     15.735325   12.763004   17.252393
  H     15.970277   14.613506   14.784000
  H     14.605603   14.572863   15.933537
  H     15.990036   19.544595   15.912297
  H     16.210792   20.723372   17.214406
  H     15.033059   19.415378   17.393653
  H     18.040425   20.458789   18.316184
  H     20.141025   17.135082   19.151465
  H     18.709427   15.953001   17.493078
  H     18.397791   13.896127   18.552372
  H     17.540276   12.516056   20.432626
  H     16.368849   13.616425   22.342353
  H     15.701979   15.517567   23.200367
  H     16.930689   17.459486   20.501079

 Total Charge           Charge          ....    0
 Multiplicity           Mult            ....    1
 Number of Electrons    NEL             ....  154
 Basis Dimension        Dim             ....  828

ORBITAL ENERGIES
----------------

  NO   OCC          E(Eh)            E(eV)
   0   2.0000     -91.888479     -2500.4126
   1   2.0000     -20.602821      -560.6313
   2   2.0000     -20.595135      -560.4221
   3   2.0000     -20.541985      -558.9758
   4   2.0000     -15.628554      -425.2746
   5   2.0000     -15.607836      -424.7108
   6   2.0000     -11.394572      -310.0621
   7   2.0000     -11.383572      -309.7627
   8   2.0000     -11.335474      -308.4539
   9   2.0000     -11.312148      -307.8192
  10   2.0000     -11.308183      -307.7113
  11   2.0000     -11.297145      -307.4109
  12   2.0000     -11.258811      -306.3678
  13   2.0000     -11.258159      -306.3501
  14   2.0000     -11.253547      -306.2246
  15   2.0000     -11.251602      -306.1716
  16   2.0000     -11.241928      -305.9084
  17   2.0000     -11.237493      -305.7877
  18   2.0000     -11.236983      -305.7738
  19   2.0000     -11.231988      -305.6379
  20   2.0000      -8.893545      -242.0057
  21   2.0000      -6.575121      -178.9182
  22   2.0000      -6.573116      -178.8636
  23   2.0000      -6.572530      -178.8476
  24   2.0000      -1.453246       -39.5448
  25   2.0000      -1.414816       -38.4991
  26   2.0000      -1.355110       -36.8744
  27   2.0000      -1.339546       -36.4509
  28   2.0000      -1.237985       -33.6873
  29   2.0000      -1.156505       -31.4701
  30   2.0000      -1.119901       -30.4741
  31   2.0000      -1.043717       -28.4010
  32   2.0000      -1.039947       -28.2984
  33   2.0000      -1.013778       -27.5863
  34   2.0000      -0.995338       -27.0845
  35   2.0000      -0.984057       -26.7776
  36   2.0000      -0.921785       -25.0831
  37   2.0000      -0.889253       -24.1978
  38   2.0000      -0.846199       -23.0262
  39   2.0000      -0.836386       -22.7592
  40   2.0000      -0.832739       -22.6600
  41   2.0000      -0.817610       -22.2483
  42   2.0000      -0.765782       -20.8380
  43   2.0000      -0.730933       -19.8897
  44   2.0000      -0.720654       -19.6100
  45   2.0000      -0.694965       -18.9110
  46   2.0000      -0.688020       -18.7220
  47   2.0000      -0.679421       -18.4880
  48   2.0000      -0.675039       -18.3687
  49   2.0000      -0.665770       -18.1165
  50   2.0000      -0.645621       -17.5682
  51   2.0000      -0.644644       -17.5417
  52   2.0000      -0.635175       -17.2840
  53   2.0000      -0.605328       -16.4718
  54   2.0000      -0.600060       -16.3285
  55   2.0000      -0.597777       -16.2664
  56   2.0000      -0.591003       -16.0820
  57   2.0000      -0.578112       -15.7312
  58   2.0000      -0.570250       -15.5173
  59   2.0000      -0.569337       -15.4925
  60   2.0000      -0.562235       -15.2992
  61   2.0000      -0.551709       -15.0128
  62   2.0000      -0.538909       -14.6645
  63   2.0000      -0.523824       -14.2540
  64   2.0000      -0.522180       -14.2092
  65   2.0000      -0.512866       -13.9558
  66   2.0000      -0.504622       -13.7315
  67   2.0000      -0.498545       -13.5661
  68   2.0000      -0.484715       -13.1898
  69   2.0000      -0.463098       -12.6015
  70   2.0000      -0.460529       -12.5316
  71   2.0000      -0.448186       -12.1958
  72   2.0000      -0.353793        -9.6272
  73   2.0000      -0.348404        -9.4805
  74   2.0000      -0.327786        -8.9195
  75   2.0000      -0.319810        -8.7025
  76   2.0000      -0.315415        -8.5829
  77   0.0000       0.076437         2.0800
  78   0.0000       0.107247         2.9184
  79   0.0000       0.124497         3.3877
  80   0.0000       0.132929         3.6172
  81   0.0000       0.136544         3.7155

MULLIKEN ATOMIC CHARGES
-----------------------
   0 C :   -0.286458
   1 C :    0.044736
   2 O :   -0.339084
   3 C :    0.459401
   4 O :   -0.432475
   5 C :   -0.214076
   6 C :    0.148887
   7 C :   -0.273297
   8 N :   -0.120491
   9 C :    0.209641
  10 S :   -0.440275
  11 N :   -0.203163
  12 C :    0.042959
  13 C :    0.059888
  14 C :   -0.171521
  15 C :   -0.135526
  16 C :   -0.278084
  17 C :    0.315175
  18 O :   -0.356966
  19 C :   -0.266852
  20 H :    0.092223
  21 H :    0.105115
  22 H :    0.104844
  23 H :    0.089357
  24 H :    0.101760
  25 H :    0.131375
  26 H :    0.094722
  27 H :    0.131446
  28 H :    0.197342
  29 H :    0.194482
  30 H :    0.149329
  31 H :    0.150782
  32 H :    0.160033
  33 H :    0.129416
  34 H :    0.240443
  35 H :    0.164912
Sum of atomic charges:   -0.0000000

LOEWDIN ATOMIC CHARGES
----------------------
   0 C :    0.105990
   1 C :   -0.016827
   2 O :    0.310186
   3 C :   -0.411829
   4 O :    0.096039
   5 C :   -0.094456
   6 C :   -0.059288
   7 C :    0.131436
   8 N :    0.406394
   9 C :   -0.456980
  10 S :   -0.035945
  11 N :    0.396656
  12 C :   -0.053301
  13 C :   -0.039984
  14 C :    0.016363
  15 C :    0.039030
  16 C :   -0.000818
  17 C :   -0.189784
  18 O :    0.394900
  19 C :    0.031823
  20 H :   -0.030546
  21 H :   -0.023989
  22 H :   -0.024984
  23 H :   -0.030549
  24 H :   -0.026988
  25 H :   -0.004058
  26 H :   -0.023496
  27 H :   -0.004521
  28 H :   -0.057646
  29 H :   -0.064453
  30 H :   -0.012521
  31 H :   -0.030711
  32 H :   -0.021803
  33 H :   -0.035605
  34 H :   -0.154137
  35 H :   -0.023598

  Mayer bond orders larger than 0.100000
B(  0-C ,  1-C ) :   0.9718 B(  0-C , 20-H ) :   0.9782 B(  0-C , 21-H ) :   0.9795
B(  0-C , 22-H ) :   0.9736 B(  1-C ,  2-O ) :   0.9066 B(  1-C , 23-H ) :   0.9786
B(  1-C , 24-H ) :   0.9772 B(  2-O ,  3-C ) :   1.1763 B(  3-C ,  4-O ) :   1.9709
B(  3-C ,  5-C ) :   1.0608 B(  5-C ,  6-C ) :   1.6556 B(  5-C , 12-C ) :   0.9718
B(  6-C ,  7-C ) :   0.9678 B(  6-C ,  8-N ) :   1.1623 B(  7-C , 25-H ) :   0.9592
B(  7-C , 26-H ) :   0.9902 B(  7-C , 27-H ) :   0.9617 B(  8-N ,  9-C ) :   1.1833
B(  8-N , 28-H ) :   0.9478 B(  9-C , 10-S ) :   1.6079 B(  9-C , 11-N ) :   1.3045
B( 11-N , 12-C ) :   0.9890 B( 11-N , 29-H ) :   0.9514 B( 12-C , 13-C ) :   0.9373
B( 12-C , 30-H ) :   1.0043 B( 13-C , 14-C ) :   1.3612 B( 13-C , 19-C ) :   1.3808
B( 14-C , 15-C ) :   1.3928 B( 14-C , 31-H ) :   0.9698 B( 15-C , 16-C ) :   1.3641
B( 15-C , 32-H ) :   0.9706 B( 16-C , 17-C ) :   1.3310 B( 16-C , 33-H ) :   0.9852
B( 17-C , 18-O ) :   1.1091 B( 17-C , 19-C ) :   1.3739 B( 18-O , 34-H ) :   0.9801
B( 19-C , 35-H ) :   0.9582

MP2 TOTAL ENERGY:    -1274.350585452 Eh
FINAL SINGLE POINT ENERGY     -1274.350585452382

DIPOLE MOMENT
-------------
                                X             Y             Z
Electronic contribution:      8.44870      11.90626       7.51392
Nuclear contribution   :     -9.49358     -13.61375      -7.87523
                        -----------------------------------------
Total Dipole Moment    :     -1.04487      -1.70748      -0.36131
                        -----------------------------------------
Magnitude (a.u.)       :      2.03416
Magnitude (Debye)      :      5.17042

Rotational constants in cm-1:     0.011277     0.008572     0.006099
Rotational constants in MHz :   338.077471   256.986432   182.857293

                             ****ORCA TERMINATED NORMALLY****
TOTAL RUN TIME: 0 days 1 hours 50 minutes 5 seconds 993 msec
