                         Program Version 4.2.0 -  RELEASE  -
|  1> ! ri-mp2 cc-pvtz cc-pvtz/c TightSCF  NoKeepInts
|  2>
|  3> %scf
|  4>   MaxCore 4096
|  5> end
|  6> *xyz  0  1
|  7>     C       15.2562692   13.7802606   15.6534318
|  8>     C       15.8327680   14.4344930   16.9213205
|  9>     O       16.9478288   15.2564388   16.5318742
| 10>     C       16.7517060   16.6048185   16.4518966
| 11>     O       15.7971994   17.0635430   15.8487935
| 12>     C       17.5364872   17.3724049   17.4817932
| 13>     C       17.4177064   18.7169421   17.6300582
| 14>     C       16.5192109   19.6512758   16.8479128
| 15>     N       18.2102460   19.3925991   18.5627823
| 16>     C       19.2270711   18.8253466   19.2831116
| 17>     S       20.1956349   19.7179707   20.2835486
| 18>     N       19.4085403   17.4752770   19.1253844
| 19>     C       18.5102711   16.5813173   18.3728609
| 20>     C       17.7910642   15.6533195   19.3475567
| 21>     C       18.2019334   14.3139013   19.4836918
| 22>     C       17.5406112   13.4499162   20.3726478
| 23>     C       16.4626035   13.9299763   21.1356488
| 24>     C       16.0572503   15.2657424   21.0102002
| 25>     O       15.0182974   15.7329897   21.7468402
| 26>     C       16.7162979   16.1229354   20.1237189
| 27>     H       14.8805970   14.5446783   14.9612675
| 28>     H       14.4249835   13.1122402   15.9087230
| 29>     H       16.0249966   13.1930548   15.1362253
| 30>     H       15.0628669   15.0220591   17.4408259
| 31>     H       16.1779885   13.6463556   17.6023978
| 32>     H       15.4637556   19.4061164   17.0229166
| 33>     H       16.7028025   19.5529087   15.7703982
| 34>     H       16.6631901   20.7057820   17.1108799
| 35>     H       18.0939499   20.3856200   18.6874753
| 36>     H       20.1451046   17.0804799   19.6958525
| 37>     H       19.1365314   15.9667122   17.7107052
| 38>     H       19.0335405   13.9392668   18.8925474
| 39>     H       17.8650261   12.4150763   20.4697883
| 40>     H       15.9495911   13.2669583   21.8247658
| 41>     H       14.7314189   15.0180594   22.3348922
| 42>     H       16.3916597   17.1551634   20.0492661
| 43> *
| 44>
| 45>                          ****END OF INPUT****

CARTESIAN COORDINATES (ANGSTROEM)
---------------------------------
  C     15.256269   13.780261   15.653432
  C     15.832768   14.434493   16.921321
  O     16.947829   15.256439   16.531874
  C     16.751706   16.604819   16.451897
  O     15.797199   17.063543   15.848793
  C     17.536487   17.372405   17.481793
  C     17.417706   18.716942   17.630058
  C     16.519211   19.651276   16.847913
  N     18.210246   19.392599   18.562782
  C     19.227071   18.825347   19.283112
  S     20.195635   19.717971   20.283549
  N     19.408540   17.475277   19.125384
  C     18.510271   16.581317   18.372861
  C     17.791064   15.653320   19.347557
  C     18.201933   14.313901   19.483692
  C     17.540611   13.449916   20.372648
  C     16.462604   13.929976   21.135649
  C     16.057250   15.265742   21.010200
  O     15.018297   15.732990   21.746840
  C     16.716298   16.122935   20.123719
  H     14.880597   14.544678   14.961267
  H     14.424983   13.112240   15.908723
  H     16.024997   13.193055   15.136225
  H     15.062867   15.022059   17.440826
  H     16.177989   13.646356   17.602398
  H     15.463756   19.406116   17.022917
  H     16.702803   19.552909   15.770398
  H     16.663190   20.705782   17.110880
  H     18.093950   20.385620   18.687475
  H     20.145105   17.080480   19.695852
  H     19.136531   15.966712   17.710705
  H     19.033541   13.939267   18.892547
  H     17.865026   12.415076   20.469788
  H     15.949591   13.266958   21.824766
  H     14.731419   15.018059   22.334892
  H     16.391660   17.155163   20.049266

 Total Charge           Charge          ....    0
 Multiplicity           Mult            ....    1
 Number of Electrons    NEL             ....  154
 Basis Dimension        Dim             ....  828

ORBITAL ENERGIES
----------------

  NO   OCC          E(Eh)            E(eV)
   0   2.0000     -91.890065     -2500.4558
   1   2.0000     -20.600582      -560.5703
   2   2.0000     -20.586650      -560.1912
   3   2.0000     -20.546377      -559.0954
   4   2.0000     -15.630517      -425.3280
   5   2.0000     -15.609496      -424.7560
   6   2.0000     -11.394265      -310.0537
   7   2.0000     -11.385110      -309.8046
   8   2.0000     -11.337152      -308.4996
   9   2.0000     -11.318193      -307.9837
  10   2.0000     -11.311036      -307.7889
  11   2.0000     -11.294038      -307.3264
  12   2.0000     -11.263389      -306.4924
  13   2.0000     -11.259628      -306.3901
  14   2.0000     -11.259507      -306.3867
  15   2.0000     -11.253459      -306.2222
  16   2.0000     -11.246997      -306.0463
  17   2.0000     -11.241940      -305.9087
  18   2.0000     -11.241744      -305.9034
  19   2.0000     -11.217724      -305.2498
  20   2.0000      -8.895119      -242.0485
  21   2.0000      -6.576691      -178.9609
  22   2.0000      -6.574689      -178.9064
  23   2.0000      -6.574099      -178.8903
  24   2.0000      -1.449498       -39.4428
  25   2.0000      -1.420234       -38.6465
  26   2.0000      -1.353329       -36.8260
  27   2.0000      -1.341554       -36.5055
  28   2.0000      -1.240157       -33.7464
  29   2.0000      -1.161152       -31.5965
  30   2.0000      -1.121433       -30.5157
  31   2.0000      -1.045304       -28.4442
  32   2.0000      -1.031920       -28.0800
  33   2.0000      -1.019242       -27.7350
  34   2.0000      -0.996649       -27.1202
  35   2.0000      -0.985063       -26.8049
  36   2.0000      -0.924742       -25.1635
  37   2.0000      -0.882816       -24.0226
  38   2.0000      -0.849081       -23.1047
  39   2.0000      -0.841221       -22.8908
  40   2.0000      -0.837471       -22.7888
  41   2.0000      -0.825017       -22.4498
  42   2.0000      -0.757965       -20.6253
  43   2.0000      -0.734876       -19.9970
  44   2.0000      -0.723305       -19.6821
  45   2.0000      -0.699442       -19.0328
  46   2.0000      -0.690328       -18.7848
  47   2.0000      -0.679075       -18.4786
  48   2.0000      -0.671223       -18.2649
  49   2.0000      -0.656249       -17.8575
  50   2.0000      -0.648287       -17.6408
  51   2.0000      -0.645801       -17.5731
  52   2.0000      -0.633482       -17.2379
  53   2.0000      -0.611342       -16.6354
  54   2.0000      -0.605872       -16.4866
  55   2.0000      -0.601250       -16.3608
  56   2.0000      -0.598695       -16.2913
  57   2.0000      -0.581973       -15.8363
  58   2.0000      -0.574400       -15.6302
  59   2.0000      -0.570330       -15.5195
  60   2.0000      -0.565853       -15.3977
  61   2.0000      -0.539314       -14.6755
  62   2.0000      -0.534381       -14.5412
  63   2.0000      -0.528421       -14.3791
  64   2.0000      -0.516011       -14.0414
  65   2.0000      -0.511429       -13.9167
  66   2.0000      -0.503460       -13.6999
  67   2.0000      -0.496801       -13.5186
  68   2.0000      -0.489102       -13.3092
  69   2.0000      -0.464007       -12.6263
  70   2.0000      -0.453572       -12.3423
  71   2.0000      -0.444946       -12.1076
  72   2.0000      -0.355689        -9.6788
  73   2.0000      -0.353326        -9.6145
  74   2.0000      -0.329932        -8.9779
  75   2.0000      -0.325351        -8.8532
  76   2.0000      -0.317564        -8.6413
  77   0.0000       0.071094         1.9346
  78   0.0000       0.101819         2.7706
  79   0.0000       0.123107         3.3499
  80   0.0000       0.129967         3.5366
  81   0.0000       0.134032         3.6472

MULLIKEN ATOMIC CHARGES
-----------------------
   0 C :   -0.267382
   1 C :    0.029621
   2 O :   -0.379682
   3 C :    0.471471
   4 O :   -0.417203
   5 C :   -0.251341
   6 C :    0.162232
   7 C :   -0.269605
   8 N :   -0.123476
   9 C :    0.215319
  10 S :   -0.439633
  11 N :   -0.208173
  12 C :    0.070889
  13 C :    0.057343
  14 C :   -0.201175
  15 C :   -0.131460
  16 C :   -0.275898
  17 C :    0.310091
  18 O :   -0.355744
  19 C :   -0.254953
  20 H :    0.112947
  21 H :    0.086836
  22 H :    0.090409
  23 H :    0.095574
  24 H :    0.114746
  25 H :    0.131627
  26 H :    0.130871
  27 H :    0.095639
  28 H :    0.197638
  29 H :    0.195048
  30 H :    0.150051
  31 H :    0.150135
  32 H :    0.164831
  33 H :    0.132841
  34 H :    0.241684
  35 H :    0.167881
Sum of atomic charges:    0.0000000

LOEWDIN ATOMIC CHARGES
----------------------
   0 C :    0.104848
   1 C :   -0.017644
   2 O :    0.295081
   3 C :   -0.418226
   4 O :    0.111429
   5 C :   -0.097421
   6 C :   -0.058429
   7 C :    0.131431
   8 N :    0.407059
   9 C :   -0.455624
  10 S :   -0.034633
  11 N :    0.396037
  12 C :   -0.052427
  13 C :   -0.036056
  14 C :    0.013725
  15 C :    0.040316
  16 C :   -0.002264
  17 C :   -0.189720
  18 O :    0.396185
  19 C :    0.031449
  20 H :   -0.024153
  21 H :   -0.030173
  22 H :   -0.029035
  23 H :   -0.029449
  24 H :   -0.027016
  25 H :   -0.004888
  26 H :   -0.003745
  27 H :   -0.023113
  28 H :   -0.057331
  29 H :   -0.065034
  30 H :   -0.009124
  31 H :   -0.029649
  32 H :   -0.020322
  33 H :   -0.034853
  34 H :   -0.152897
  35 H :   -0.024334

  Mayer bond orders larger than 0.100000
B(  0-C ,  1-C ) :   0.9845 B(  0-C , 20-H ) :   0.9760 B(  0-C , 21-H ) :   0.9783
B(  0-C , 22-H ) :   0.9782 B(  1-C ,  2-O ) :   0.8718 B(  1-C , 23-H ) :   0.9693
B(  1-C , 24-H ) :   0.9735 B(  2-O ,  3-C ) :   1.1054 B(  3-C ,  4-O ) :   1.9871
B(  3-C ,  5-C ) :   1.0749 B(  5-C ,  6-C ) :   1.6458 B(  5-C , 12-C ) :   0.9705
B(  6-C ,  7-C ) :   0.9666 B(  6-C ,  8-N ) :   1.1614 B(  7-C , 25-H ) :   0.9596
B(  7-C , 26-H ) :   0.9606 B(  7-C , 27-H ) :   0.9905 B(  8-N ,  9-C ) :   1.1825
B(  8-N , 28-H ) :   0.9476 B(  9-C , 10-S ) :   1.6055 B(  9-C , 11-N ) :   1.3076
B( 11-N , 12-C ) :   0.9714 B( 11-N , 29-H ) :   0.9518 B( 12-C , 13-C ) :   0.9410
B( 12-C , 30-H ) :   1.0018 B( 13-C , 14-C ) :   1.3494 B( 13-C , 19-C ) :   1.3710
B( 14-C , 15-C ) :   1.3906 B( 14-C , 31-H ) :   0.9748 B( 15-C , 16-C ) :   1.3612
B( 15-C , 32-H ) :   0.9694 B( 16-C , 17-C ) :   1.3310 B( 16-C , 33-H ) :   0.9840
B( 17-C , 18-O ) :   1.1130 B( 17-C , 19-C ) :   1.3723 B( 18-O , 34-H ) :   0.9790
B( 19-C , 35-H ) :   0.9587

MP2 TOTAL ENERGY:    -1274.335272871 Eh
FINAL SINGLE POINT ENERGY     -1274.335272870605

DIPOLE MOMENT
-------------
                                X             Y             Z
Electronic contribution:     10.15655      10.08700       7.82690
Nuclear contribution   :    -11.11392     -11.60458      -7.83435
                        -----------------------------------------
Total Dipole Moment    :     -0.95736      -1.51759      -0.00746
                        -----------------------------------------
Magnitude (a.u.)       :      1.79434
Magnitude (Debye)      :      4.56086

Rotational constants in cm-1:     0.012257     0.008663     0.006257
Rotational constants in MHz :   367.463117   259.695554   187.590351

                             ****ORCA TERMINATED NORMALLY****
TOTAL RUN TIME: 0 days 1 hours 43 minutes 52 seconds 62 msec
