                         Program Version 5.0.0 -  RELEASE  -
|  1> ! ri-mp2 cc-pvtz cc-pvtz/c TightSCF NoKeepInts
|  2>
|  3> %scf
|  4>   MaxCore 4096
|  5> end
|  6> *xyz  0  1
|  7>     C       15.3305341   13.6664507   16.5939393
|  8>     C       16.6122344   14.0755091   15.8427890
|  9>     O       17.2691647   15.1080453   16.5985825
| 10>     C       16.8318753   16.4021701   16.5181405
| 11>     O       15.9913004   16.7600614   15.7100374
| 12>     C       17.5424388   17.3127608   17.4806477
| 13>     C       17.3669734   18.6584860   17.4765661
| 14>     C       16.4805574   19.4641528   16.5511022
| 15>     N       18.0714262   19.4602659   18.3796009
| 16>     C       19.0242503   19.0079280   19.2528005
| 17>     S       19.8698456   20.0363474   20.2342615
| 18>     N       19.2436496   17.6542427   19.2728024
| 19>     C       18.4660741   16.6542581   18.5182956
| 20>     C       17.6862001   15.7667388   19.4844463
| 21>     C       18.0012702   14.4008132   19.6121716
| 22>     C       17.2781069   13.5794511   20.4933765
| 23>     C       16.2328260   14.1284729   21.2554897
| 24>     C       15.9193238   15.4892076   21.1341088
| 25>     O       14.9109341   16.0222958   21.8689326
| 26>     C       16.6407512   16.3040777   20.2562753
| 27>     H       15.5635396   13.3690412   17.6242781
| 28>     H       14.8444911   12.8210162   16.0924926
| 29>     H       14.6152083   14.4978862   16.6278954
| 30>     H       17.2746798   13.2036091   15.7702051
| 31>     H       16.3778028   14.4128533   14.8237316
| 32>     H       15.4311645   19.1635923   16.6657782
| 33>     H       16.7574417   19.2910134   15.5034011
| 34>     H       16.5376502   20.5435464   16.7339183
| 35>     H       17.9233964   20.4568185   18.3797689
| 36>     H       19.9234013   17.3468790   19.9564039
| 37>     H       19.1858536   16.0272351   17.9736498
| 38>     H       18.8038989   13.9722605   19.0180975
| 39>     H       17.5274949   12.5236206   20.5827091
| 40>     H       15.6712472   13.4983353   21.9372381
| 41>     H       14.5539720   15.3167984   22.4289252
| 42>     H       16.3860213   17.3557592   20.1811407
| 43> *
| 44>
| 45>                          ****END OF INPUT****

CARTESIAN COORDINATES (ANGSTROEM)
---------------------------------
  C     15.330534   13.666451   16.593939
  C     16.612234   14.075509   15.842789
  O     17.269165   15.108045   16.598582
  C     16.831875   16.402170   16.518141
  O     15.991300   16.760061   15.710037
  C     17.542439   17.312761   17.480648
  C     17.366973   18.658486   17.476566
  C     16.480557   19.464153   16.551102
  N     18.071426   19.460266   18.379601
  C     19.024250   19.007928   19.252800
  S     19.869846   20.036347   20.234261
  N     19.243650   17.654243   19.272802
  C     18.466074   16.654258   18.518296
  C     17.686200   15.766739   19.484446
  C     18.001270   14.400813   19.612172
  C     17.278107   13.579451   20.493377
  C     16.232826   14.128473   21.255490
  C     15.919324   15.489208   21.134109
  O     14.910934   16.022296   21.868933
  C     16.640751   16.304078   20.256275
  H     15.563540   13.369041   17.624278
  H     14.844491   12.821016   16.092493
  H     14.615208   14.497886   16.627895
  H     17.274680   13.203609   15.770205
  H     16.377803   14.412853   14.823732
  H     15.431164   19.163592   16.665778
  H     16.757442   19.291013   15.503401
  H     16.537650   20.543546   16.733918
  H     17.923396   20.456819   18.379769
  H     19.923401   17.346879   19.956404
  H     19.185854   16.027235   17.973650
  H     18.803899   13.972261   19.018097
  H     17.527495   12.523621   20.582709
  H     15.671247   13.498335   21.937238
  H     14.553972   15.316798   22.428925
  H     16.386021   17.355759   20.181141

 Total Charge           Charge          ....    0
 Multiplicity           Mult            ....    1
 Number of Electrons    NEL             ....  154
 Basis Dimension        Dim             ....  828

ORBITAL ENERGIES
----------------

  NO   OCC          E(Eh)            E(eV)
   0   2.0000     -91.888655     -2500.4174
   1   2.0000     -20.601667      -560.5999
   2   2.0000     -20.596251      -560.4525
   3   2.0000     -20.541761      -558.9697
   4   2.0000     -15.628796      -425.2812
   5   2.0000     -15.608103      -424.7181
   6   2.0000     -11.395507      -310.0875
   7   2.0000     -11.383842      -309.7701
   8   2.0000     -11.335779      -308.4622
   9   2.0000     -11.313459      -307.8549
  10   2.0000     -11.308558      -307.7215
  11   2.0000     -11.296740      -307.3999
  12   2.0000     -11.259255      -306.3799
  13   2.0000     -11.258875      -306.3696
  14   2.0000     -11.254762      -306.2576
  15   2.0000     -11.251926      -306.1805
  16   2.0000     -11.243012      -305.9379
  17   2.0000     -11.238412      -305.8127
  18   2.0000     -11.237865      -305.7978
  19   2.0000     -11.222482      -305.3793
  20   2.0000      -8.893720      -242.0104
  21   2.0000      -6.575296      -178.9229
  22   2.0000      -6.573290      -178.8683
  23   2.0000      -6.572704      -178.8524
  24   2.0000      -1.451433       -39.4955
  25   2.0000      -1.415929       -38.5294
  26   2.0000      -1.354807       -36.8662
  27   2.0000      -1.339759       -36.4567
  28   2.0000      -1.238255       -33.6946
  29   2.0000      -1.157505       -31.4973
  30   2.0000      -1.120393       -30.4875
  31   2.0000      -1.042648       -28.3719
  32   2.0000      -1.035861       -28.1872
  33   2.0000      -1.014807       -27.6143
  34   2.0000      -0.995046       -27.0766
  35   2.0000      -0.983967       -26.7751
  36   2.0000      -0.922302       -25.0971
  37   2.0000      -0.893881       -24.3237
  38   2.0000      -0.846770       -23.0418
  39   2.0000      -0.837427       -22.7876
  40   2.0000      -0.833799       -22.6888
  41   2.0000      -0.815943       -22.2029
  42   2.0000      -0.756932       -20.5972
  43   2.0000      -0.732322       -19.9275
  44   2.0000      -0.723103       -19.6766
  45   2.0000      -0.695589       -18.9279
  46   2.0000      -0.688629       -18.7386
  47   2.0000      -0.679390       -18.4871
  48   2.0000      -0.670657       -18.2495
  49   2.0000      -0.659612       -17.9490
  50   2.0000      -0.648158       -17.6373
  51   2.0000      -0.641107       -17.4454
  52   2.0000      -0.631142       -17.1742
  53   2.0000      -0.611066       -16.6279
  54   2.0000      -0.606331       -16.4991
  55   2.0000      -0.599510       -16.3135
  56   2.0000      -0.598547       -16.2873
  57   2.0000      -0.577337       -15.7101
  58   2.0000      -0.570497       -15.5240
  59   2.0000      -0.569059       -15.4849
  60   2.0000      -0.560871       -15.2621
  61   2.0000      -0.543482       -14.7889
  62   2.0000      -0.533805       -14.5256
  63   2.0000      -0.529009       -14.3951
  64   2.0000      -0.524453       -14.2711
  65   2.0000      -0.513055       -13.9609
  66   2.0000      -0.500840       -13.6285
  67   2.0000      -0.499340       -13.5877
  68   2.0000      -0.482342       -13.1252
  69   2.0000      -0.463966       -12.6252
  70   2.0000      -0.454959       -12.3801
  71   2.0000      -0.447640       -12.1809
  72   2.0000      -0.354074        -9.6348
  73   2.0000      -0.349348        -9.5062
  74   2.0000      -0.328039        -8.9264
  75   2.0000      -0.320920        -8.7327
  76   2.0000      -0.315900        -8.5961
  77   0.0000       0.076648         2.0857
  78   0.0000       0.106745         2.9047
  79   0.0000       0.125176         3.4062
  80   0.0000       0.132871         3.6156
  81   0.0000       0.138661         3.7732

MULLIKEN ATOMIC CHARGES
-----------------------
   0 C :   -0.294972
   1 C :    0.016259
   2 O :   -0.352183
   3 C :    0.471035
   4 O :   -0.438063
   5 C :   -0.222019
   6 C :    0.150360
   7 C :   -0.274016
   8 N :   -0.119980
   9 C :    0.211084
  10 S :   -0.440374
  11 N :   -0.204890
  12 C :    0.055731
  13 C :    0.064158
  14 C :   -0.185161
  15 C :   -0.135966
  16 C :   -0.277180
  17 C :    0.315465
  18 O :   -0.356548
  19 C :   -0.266536
  20 H :    0.104320
  21 H :    0.095839
  22 H :    0.110462
  23 H :    0.110581
  24 H :    0.115670
  25 H :    0.131969
  26 H :    0.130790
  27 H :    0.095186
  28 H :    0.197028
  29 H :    0.194822
  30 H :    0.150492
  31 H :    0.148934
  32 H :    0.161412
  33 H :    0.130276
  34 H :    0.240590
  35 H :    0.165425
Sum of atomic charges:    0.0000000

LOEWDIN ATOMIC CHARGES
----------------------
   0 C :    0.105106
   1 C :   -0.018291
   2 O :    0.309164
   3 C :   -0.412821
   4 O :    0.094734
   5 C :   -0.093802
   6 C :   -0.059353
   7 C :    0.131539
   8 N :    0.406483
   9 C :   -0.456419
  10 S :   -0.035844
  11 N :    0.396542
  12 C :   -0.052245
  13 C :   -0.039481
  14 C :    0.014349
  15 C :    0.038956
  16 C :   -0.001732
  17 C :   -0.189550
  18 O :    0.395265
  19 C :    0.031932
  20 H :   -0.026861
  21 H :   -0.028046
  22 H :   -0.025171
  23 H :   -0.026272
  24 H :   -0.027732
  25 H :   -0.004593
  26 H :   -0.004032
  27 H :   -0.023423
  28 H :   -0.057611
  29 H :   -0.064495
  30 H :   -0.011547
  31 H :   -0.030161
  32 H :   -0.021616
  33 H :   -0.035508
  34 H :   -0.153959
  35 H :   -0.023507

  Mayer bond orders larger than 0.100000
B(  0-C ,  1-C ) :   0.9622 B(  0-C , 20-H ) :   0.9720 B(  0-C , 21-H ) :   0.9770
B(  0-C , 22-H ) :   0.9765 B(  1-C ,  2-O ) :   0.8962 B(  1-C , 23-H ) :   0.9849
B(  1-C , 24-H ) :   0.9789 B(  2-O ,  3-C ) :   1.1663 B(  3-C ,  4-O ) :   1.9568
B(  3-C ,  5-C ) :   1.0639 B(  5-C ,  6-C ) :   1.6551 B(  5-C , 12-C ) :   0.9723
B(  6-C ,  7-C ) :   0.9666 B(  6-C ,  8-N ) :   1.1655 B(  7-C , 25-H ) :   0.9605
B(  7-C , 26-H ) :   0.9604 B(  7-C , 27-H ) :   0.9904 B(  8-N ,  9-C ) :   1.1833
B(  8-N , 28-H ) :   0.9478 B(  9-C , 10-S ) :   1.6070 B(  9-C , 11-N ) :   1.3052
B( 11-N , 12-C ) :   0.9886 B( 11-N , 29-H ) :   0.9513 B( 12-C , 13-C ) :   0.9356
B( 12-C , 30-H ) :   1.0023 B( 13-C , 14-C ) :   1.3543 B( 13-C , 19-C ) :   1.3827
B( 14-C , 15-C ) :   1.3923 B( 14-C , 31-H ) :   0.9719 B( 15-C , 16-C ) :   1.3600
B( 15-C , 32-H ) :   0.9708 B( 16-C , 17-C ) :   1.3319 B( 16-C , 33-H ) :   0.9851
B( 17-C , 18-O ) :   1.1102 B( 17-C , 19-C ) :   1.3714 B( 18-O , 34-H ) :   0.9799
B( 19-C , 35-H ) :   0.9580

MP2 TOTAL ENERGY:    -1274.351969511 Eh
FINAL SINGLE POINT ENERGY     -1274.351969511006

DIPOLE MOMENT
-------------
                                X             Y             Z
Electronic contribution:      9.02782      11.07136       7.77758
Nuclear contribution   :     -9.87020     -12.85305      -8.26841
                        -----------------------------------------
Total Dipole Moment    :     -0.84239      -1.78169      -0.49082
                        -----------------------------------------
Magnitude (a.u.)       :      2.03100
Magnitude (Debye)      :      5.16239

Rotational constants in cm-1:     0.012074     0.008665     0.006212
Rotational constants in MHz :   361.966878   259.778743   186.218993

                             ****ORCA TERMINATED NORMALLY****
TOTAL RUN TIME: 0 days 1 hours 40 minutes 49 seconds 940 msec
