                         Program Version 4.2.0 -  RELEASE  -
|  1> ! ri-mp2 cc-pvtz cc-pvtz/c TightSCF  NoKeepInts
|  2>
|  3> %scf
|  4>   MaxCore 4096
|  5> end
|  6> *xyz  0  1
|  7>     C       15.0595744   14.1320897   16.8332193
|  8>     C       16.4369897   13.9879516   16.1481599
|  9>     O       17.3270908   15.0496585   16.5489468
| 10>     C       16.9675510   16.3650642   16.4386492
| 11>     O       16.1554485   16.7523348   15.6156726
| 12>     C       17.6841761   17.2473142   17.4225760
| 13>     C       17.5708767   18.5995116   17.4058357
| 14>     C       16.7589542   19.4387140   16.4426350
| 15>     N       18.2748459   19.3737937   18.3328334
| 16>     C       19.1676069   18.8834535   19.2479526
| 17>     S       20.0163439   19.8777227   20.2613732
| 18>     N       19.3239484   17.5213440   19.2824816
| 19>     C       18.5374242   16.5531676   18.4966234
| 20>     C       17.6848983   15.6992279   19.4310850
| 21>     C       17.9633562   14.3297140   19.5989450
| 22>     C       17.1720573   13.5380510   20.4481984
| 23>     C       16.0950678   14.1207199   21.1377539
| 24>     C       15.8183175   15.4853309   20.9771005
| 25>     O       14.7791207   16.0507325   21.6412806
| 26>     C       16.6073297   16.2705195   20.1309896
| 27>     H       15.1769963   14.2513908   17.9177862
| 28>     H       14.4524717   13.2366992   16.6543266
| 29>     H       14.5004250   14.9924075   16.4461943
| 30>     H       16.8817475   13.0226974   16.4216711
| 31>     H       16.3034798   14.0041773   15.0581550
| 32>     H       17.0595073   19.2369859   15.4065938
| 33>     H       16.8683411   20.5159109   16.6142294
| 34>     H       15.6918616   19.1958342   16.5263051
| 35>     H       18.1729112   20.3760666   18.3226691
| 36>     H       19.9596623   17.1875762   19.9954306
| 37>     H       19.2517609   15.8966946   17.9801150
| 38>     H       18.7914260   13.8755501   19.0614040
| 39>     H       17.3940491   12.4792600   20.5696748
| 40>     H       15.4811051   13.5136266   21.7948882
| 41>     H       14.3804775   15.3649488   22.1977289
| 42>     H       16.3797993   17.3257579   20.0245164
| 43> *
| 44>
| 45>                          ****END OF INPUT****

CARTESIAN COORDINATES (ANGSTROEM)
---------------------------------
  C     15.059574   14.132090   16.833219
  C     16.436990   13.987952   16.148160
  O     17.327091   15.049658   16.548947
  C     16.967551   16.365064   16.438649
  O     16.155448   16.752335   15.615673
  C     17.684176   17.247314   17.422576
  C     17.570877   18.599512   17.405836
  C     16.758954   19.438714   16.442635
  N     18.274846   19.373794   18.332833
  C     19.167607   18.883453   19.247953
  S     20.016344   19.877723   20.261373
  N     19.323948   17.521344   19.282482
  C     18.537424   16.553168   18.496623
  C     17.684898   15.699228   19.431085
  C     17.963356   14.329714   19.598945
  C     17.172057   13.538051   20.448198
  C     16.095068   14.120720   21.137754
  C     15.818317   15.485331   20.977100
  O     14.779121   16.050732   21.641281
  C     16.607330   16.270519   20.130990
  H     15.176996   14.251391   17.917786
  H     14.452472   13.236699   16.654327
  H     14.500425   14.992407   16.446194
  H     16.881747   13.022697   16.421671
  H     16.303480   14.004177   15.058155
  H     17.059507   19.236986   15.406594
  H     16.868341   20.515911   16.614229
  H     15.691862   19.195834   16.526305
  H     18.172911   20.376067   18.322669
  H     19.959662   17.187576   19.995431
  H     19.251761   15.896695   17.980115
  H     18.791426   13.875550   19.061404
  H     17.394049   12.479260   20.569675
  H     15.481105   13.513627   21.794888
  H     14.380477   15.364949   22.197729
  H     16.379799   17.325758   20.024516

 Total Charge           Charge          ....    0
 Multiplicity           Mult            ....    1
 Number of Electrons    NEL             ....  154
 Basis Dimension        Dim             ....  828

ORBITAL ENERGIES
----------------

  NO   OCC          E(Eh)            E(eV)
   0   2.0000     -91.888989     -2500.4265
   1   2.0000     -20.597946      -560.4986
   2   2.0000     -20.596876      -560.4695
   3   2.0000     -20.541503      -558.9627
   4   2.0000     -15.629118      -425.2899
   5   2.0000     -15.608485      -424.7285
   6   2.0000     -11.394818      -310.0688
   7   2.0000     -11.384204      -309.7799
   8   2.0000     -11.335994      -308.4681
   9   2.0000     -11.315412      -307.9080
  10   2.0000     -11.309072      -307.7355
  11   2.0000     -11.298505      -307.4479
  12   2.0000     -11.260974      -306.4267
  13   2.0000     -11.258659      -306.3637
  14   2.0000     -11.256796      -306.3130
  15   2.0000     -11.252132      -306.1861
  16   2.0000     -11.244715      -305.9842
  17   2.0000     -11.239912      -305.8536
  18   2.0000     -11.239544      -305.8435
  19   2.0000     -11.221202      -305.3444
  20   2.0000      -8.894052      -242.0195
  21   2.0000      -6.575627      -178.9319
  22   2.0000      -6.573622      -178.8773
  23   2.0000      -6.573035      -178.8614
  24   2.0000      -1.448131       -39.4057
  25   2.0000      -1.417652       -38.5763
  26   2.0000      -1.353207       -36.8226
  27   2.0000      -1.340084       -36.4655
  28   2.0000      -1.238681       -33.7062
  29   2.0000      -1.159078       -31.5401
  30   2.0000      -1.120782       -30.4980
  31   2.0000      -1.043575       -28.3971
  32   2.0000      -1.033750       -28.1298
  33   2.0000      -1.016590       -27.6628
  34   2.0000      -0.995690       -27.0941
  35   2.0000      -0.984496       -26.7895
  36   2.0000      -0.923048       -25.1174
  37   2.0000      -0.896222       -24.3874
  38   2.0000      -0.847335       -23.0572
  39   2.0000      -0.838842       -22.8260
  40   2.0000      -0.835429       -22.7332
  41   2.0000      -0.816148       -22.2085
  42   2.0000      -0.749969       -20.4077
  43   2.0000      -0.733256       -19.9529
  44   2.0000      -0.723079       -19.6760
  45   2.0000      -0.696943       -18.9648
  46   2.0000      -0.688950       -18.7473
  47   2.0000      -0.676964       -18.4211
  48   2.0000      -0.671062       -18.2605
  49   2.0000      -0.660800       -17.9813
  50   2.0000      -0.649634       -17.6774
  51   2.0000      -0.641005       -17.4426
  52   2.0000      -0.633495       -17.2383
  53   2.0000      -0.615571       -16.7505
  54   2.0000      -0.608133       -16.5481
  55   2.0000      -0.601147       -16.3580
  56   2.0000      -0.599441       -16.3116
  57   2.0000      -0.578513       -15.7421
  58   2.0000      -0.570949       -15.5363
  59   2.0000      -0.567426       -15.4405
  60   2.0000      -0.557310       -15.1652
  61   2.0000      -0.543312       -14.7843
  62   2.0000      -0.534191       -14.5361
  63   2.0000      -0.526091       -14.3157
  64   2.0000      -0.524720       -14.2784
  65   2.0000      -0.513470       -13.9722
  66   2.0000      -0.502066       -13.6619
  67   2.0000      -0.500420       -13.6171
  68   2.0000      -0.482148       -13.1199
  69   2.0000      -0.464857       -12.6494
  70   2.0000      -0.454006       -12.3541
  71   2.0000      -0.444747       -12.1022
  72   2.0000      -0.354315        -9.6414
  73   2.0000      -0.350843        -9.5469
  74   2.0000      -0.328527        -8.9397
  75   2.0000      -0.323008        -8.7895
  76   2.0000      -0.316422        -8.6103
  77   0.0000       0.075568         2.0563
  78   0.0000       0.105078         2.8593
  79   0.0000       0.124690         3.3930
  80   0.0000       0.131803         3.5866
  81   0.0000       0.137385         3.7384

MULLIKEN ATOMIC CHARGES
-----------------------
   0 C :   -0.321391
   1 C :    0.027532
   2 O :   -0.366746
   3 C :    0.471727
   4 O :   -0.434321
   5 C :   -0.232519
   6 C :    0.154801
   7 C :   -0.272468
   8 N :   -0.121066
   9 C :    0.212032
  10 S :   -0.440175
  11 N :   -0.206532
  12 C :    0.068237
  13 C :    0.043156
  14 C :   -0.183478
  15 C :   -0.133779
  16 C :   -0.277178
  17 C :    0.310271
  18 O :   -0.357622
  19 C :   -0.254799
  20 H :    0.110649
  21 H :    0.099272
  22 H :    0.122824
  23 H :    0.112271
  24 H :    0.115740
  25 H :    0.131515
  26 H :    0.095369
  27 H :    0.131678
  28 H :    0.197186
  29 H :    0.195130
  30 H :    0.150757
  31 H :    0.152884
  32 H :    0.160781
  33 H :    0.131120
  34 H :    0.240883
  35 H :    0.166258
Sum of atomic charges:   -0.0000000

LOEWDIN ATOMIC CHARGES
----------------------
   0 C :    0.104912
   1 C :   -0.015686
   2 O :    0.301376
   3 C :   -0.414235
   4 O :    0.098911
   5 C :   -0.094675
   6 C :   -0.059063
   7 C :    0.131716
   8 N :    0.406609
   9 C :   -0.456080
  10 S :   -0.035614
  11 N :    0.396454
  12 C :   -0.051725
  13 C :   -0.039654
  14 C :    0.014527
  15 C :    0.038839
  16 C :   -0.002250
  17 C :   -0.190550
  18 O :    0.396012
  19 C :    0.031252
  20 H :   -0.026148
  21 H :   -0.027192
  22 H :   -0.026421
  23 H :   -0.025121
  24 H :   -0.028138
  25 H :   -0.003732
  26 H :   -0.023383
  27 H :   -0.004745
  28 H :   -0.057550
  29 H :   -0.064575
  30 H :   -0.010952
  31 H :   -0.029669
  32 H :   -0.021125
  33 H :   -0.035302
  34 H :   -0.153607
  35 H :   -0.023414

  Mayer bond orders larger than 0.100000
B(  0-C ,  1-C ) :   0.9567 B(  0-C , 20-H ) :   0.9696 B(  0-C , 21-H ) :   0.9781
B(  0-C , 22-H ) :   0.9739 B(  1-C ,  2-O ) :   0.8921 B(  1-C , 23-H ) :   0.9838
B(  1-C , 24-H ) :   0.9848 B(  2-O ,  3-C ) :   1.1555 B(  3-C ,  4-O ) :   1.9736
B(  3-C ,  5-C ) :   1.0575 B(  5-C ,  6-C ) :   1.6538 B(  5-C , 12-C ) :   0.9703
B(  6-C ,  7-C ) :   0.9658 B(  6-C ,  8-N ) :   1.1651 B(  7-C , 25-H ) :   0.9606
B(  7-C , 26-H ) :   0.9903 B(  7-C , 27-H ) :   0.9603 B(  8-N ,  9-C ) :   1.1836
B(  8-N , 28-H ) :   0.9478 B(  9-C , 10-S ) :   1.6067 B(  9-C , 11-N ) :   1.3058
B( 11-N , 12-C ) :   0.9874 B( 11-N , 29-H ) :   0.9514 B( 12-C , 13-C ) :   0.9350
B( 12-C , 30-H ) :   1.0018 B( 13-C , 14-C ) :   1.3570 B( 13-C , 19-C ) :   1.3857
B( 14-C , 15-C ) :   1.3898 B( 14-C , 31-H ) :   0.9712 B( 15-C , 16-C ) :   1.3607
B( 15-C , 32-H ) :   0.9712 B( 16-C , 17-C ) :   1.3317 B( 16-C , 33-H ) :   0.9850
B( 17-C , 18-O ) :   1.1112 B( 17-C , 19-C ) :   1.3701 B( 18-O , 34-H ) :   0.9796
B( 19-C , 35-H ) :   0.9577

MP2 TOTAL ENERGY:    -1274.348756330 Eh
FINAL SINGLE POINT ENERGY     -1274.348756329761

DIPOLE MOMENT
-------------
                                X             Y             Z
Electronic contribution:     10.03010       9.90478       6.86618
Nuclear contribution   :    -11.01973     -11.64064      -7.18188
                        -----------------------------------------
Total Dipole Moment    :     -0.98963      -1.73586      -0.31570
                        -----------------------------------------
Magnitude (a.u.)       :      2.02293
Magnitude (Debye)      :      5.14188

Rotational constants in cm-1:     0.012496     0.008722     0.006360
Rotational constants in MHz :   374.611538   261.489582   190.678068

                             ****ORCA TERMINATED NORMALLY****
TOTAL RUN TIME: 0 days 1 hours 41 minutes 59 seconds 842 msec
