                         Program Version 4.2.0 -  RELEASE  -
|  1> ! ri-mp2 cc-pvtz cc-pvtz/c TightSCF  NoKeepInts
|  2>
|  3> %scf
|  4>   MaxCore 4096
|  5> end
|  6> *xyz  0  1
|  7>     C       15.8196760   13.5279399   17.3869149
|  8>     C       16.2779194   14.1739491   16.0702562
|  9>     O       17.3850515   15.0620690   16.3346386
| 10>     C       17.2227525   16.4012048   16.1097940
| 11>     O       16.5473096   16.8042768   15.1783096
| 12>     C       17.6393176   17.2593948   17.2738337
| 13>     C       17.3848980   18.5932185   17.3227726
| 14>     C       16.6074056   19.4216861   16.3221448
| 15>     N       17.9148285   19.3677785   18.3598775
| 16>     C       18.8687350   18.9346028   19.2423200
| 17>     S       19.5954233   19.9567088   20.3209298
| 18>     N       19.2051964   17.6067823   19.1695936
| 19>     C       18.4596923   16.5984625   18.3948583
| 20>     C       17.6146092   15.7722331   19.3585697
| 21>     C       18.0708253   14.5130623   19.7918586
| 22>     C       17.3228129   13.7579635   20.7110737
| 23>     C       16.1114671   14.2687315   21.2073828
| 24>     C       15.6608301   15.5282514   20.7893507
| 25>     O       14.4947286   16.0270297   21.2711071
| 26>     C       16.4072388   16.2777012   19.8747570
| 27>     H       16.6492804   12.9976292   17.8688975
| 28>     H       15.0169565   12.8049735   17.1988370
| 29>     H       15.4350563   14.2866146   18.0776771
| 30>     H       16.6039332   13.3879917   15.3769790
| 31>     H       15.4304997   14.6976259   15.6070195
| 32>     H       15.5916411   19.0247790   16.1990915
| 33>     H       17.0917809   19.3921157   15.3377518
| 34>     H       16.5162023   20.4741820   16.6149635
| 35>     H       17.6875000   20.3477181   18.4153916
| 36>     H       19.8922599   17.3091352   19.8499281
| 37>     H       19.1943823   15.9311258   17.9224767
| 38>     H       19.0093095   14.1172034   19.4130908
| 39>     H       17.6832775   12.7839431   21.0374835
| 40>     H       15.5306620   13.6897777   21.9178956
| 41>     H       14.1567539   15.3973265   21.9255992
| 42>     H       16.0467868   17.2568122   19.5805743
| 43> *
| 44>
| 45>                          ****END OF INPUT****

CARTESIAN COORDINATES (ANGSTROEM)
---------------------------------
  C     15.819676   13.527940   17.386915
  C     16.277919   14.173949   16.070256
  O     17.385051   15.062069   16.334639
  C     17.222752   16.401205   16.109794
  O     16.547310   16.804277   15.178310
  C     17.639318   17.259395   17.273834
  C     17.384898   18.593218   17.322773
  C     16.607406   19.421686   16.322145
  N     17.914828   19.367779   18.359877
  C     18.868735   18.934603   19.242320
  S     19.595423   19.956709   20.320930
  N     19.205196   17.606782   19.169594
  C     18.459692   16.598463   18.394858
  C     17.614609   15.772233   19.358570
  C     18.070825   14.513062   19.791859
  C     17.322813   13.757963   20.711074
  C     16.111467   14.268731   21.207383
  C     15.660830   15.528251   20.789351
  O     14.494729   16.027030   21.271107
  C     16.407239   16.277701   19.874757
  H     16.649280   12.997629   17.868897
  H     15.016956   12.804973   17.198837
  H     15.435056   14.286615   18.077677
  H     16.603933   13.387992   15.376979
  H     15.430500   14.697626   15.607019
  H     15.591641   19.024779   16.199092
  H     17.091781   19.392116   15.337752
  H     16.516202   20.474182   16.614964
  H     17.687500   20.347718   18.415392
  H     19.892260   17.309135   19.849928
  H     19.194382   15.931126   17.922477
  H     19.009310   14.117203   19.413091
  H     17.683277   12.783943   21.037484
  H     15.530662   13.689778   21.917896
  H     14.156754   15.397327   21.925599
  H     16.046787   17.256812   19.580574

 Total Charge           Charge          ....    0
 Multiplicity           Mult            ....    1
 Number of Electrons    NEL             ....  154
 Basis Dimension        Dim             ....  828

ORBITAL ENERGIES
----------------

  NO   OCC          E(Eh)            E(eV)
   0   2.0000     -91.889638     -2500.4442
   1   2.0000     -20.599500      -560.5409
   2   2.0000     -20.593441      -560.3760
   3   2.0000     -20.543284      -559.0112
   4   2.0000     -15.630391      -425.3246
   5   2.0000     -15.608326      -424.7241
   6   2.0000     -11.394251      -310.0533
   7   2.0000     -11.384222      -309.7804
   8   2.0000     -11.337110      -308.4984
   9   2.0000     -11.316624      -307.9410
  10   2.0000     -11.310133      -307.7644
  11   2.0000     -11.293601      -307.3145
  12   2.0000     -11.261854      -306.4506
  13   2.0000     -11.259834      -306.3957
  14   2.0000     -11.257838      -306.3413
  15   2.0000     -11.252641      -306.1999
  16   2.0000     -11.245460      -306.0045
  17   2.0000     -11.240025      -305.8566
  18   2.0000     -11.239911      -305.8535
  19   2.0000     -11.220355      -305.3214
  20   2.0000      -8.894666      -242.0362
  21   2.0000      -6.576234      -178.9484
  22   2.0000      -6.574239      -178.8941
  23   2.0000      -6.573646      -178.8780
  24   2.0000      -1.448698       -39.4211
  25   2.0000      -1.419158       -38.6172
  26   2.0000      -1.352102       -36.7926
  27   2.0000      -1.341351       -36.5000
  28   2.0000      -1.239543       -33.7297
  29   2.0000      -1.159490       -31.5513
  30   2.0000      -1.120681       -30.4953
  31   2.0000      -1.043819       -28.4038
  32   2.0000      -1.034496       -28.1501
  33   2.0000      -1.017827       -27.6965
  34   2.0000      -0.996928       -27.1278
  35   2.0000      -0.984795       -26.7976
  36   2.0000      -0.923870       -25.1398
  37   2.0000      -0.887362       -24.1463
  38   2.0000      -0.847749       -23.0684
  39   2.0000      -0.840421       -22.8690
  40   2.0000      -0.835519       -22.7356
  41   2.0000      -0.816201       -22.2099
  42   2.0000      -0.761046       -20.7091
  43   2.0000      -0.734079       -19.9753
  44   2.0000      -0.720817       -19.6144
  45   2.0000      -0.698385       -19.0040
  46   2.0000      -0.689425       -18.7602
  47   2.0000      -0.678403       -18.4603
  48   2.0000      -0.671337       -18.2680
  49   2.0000      -0.666381       -18.1332
  50   2.0000      -0.648059       -17.6346
  51   2.0000      -0.645236       -17.5578
  52   2.0000      -0.637765       -17.3545
  53   2.0000      -0.610430       -16.6106
  54   2.0000      -0.603021       -16.4090
  55   2.0000      -0.599900       -16.3241
  56   2.0000      -0.585651       -15.9364
  57   2.0000      -0.578550       -15.7432
  58   2.0000      -0.571416       -15.5490
  59   2.0000      -0.567188       -15.4340
  60   2.0000      -0.565224       -15.3805
  61   2.0000      -0.550508       -14.9801
  62   2.0000      -0.537204       -14.6181
  63   2.0000      -0.527757       -14.3610
  64   2.0000      -0.521910       -14.2019
  65   2.0000      -0.513329       -13.9684
  66   2.0000      -0.503420       -13.6988
  67   2.0000      -0.495393       -13.4803
  68   2.0000      -0.483353       -13.1527
  69   2.0000      -0.462796       -12.5933
  70   2.0000      -0.451016       -12.2728
  71   2.0000      -0.446738       -12.1564
  72   2.0000      -0.356985        -9.7140
  73   2.0000      -0.352038        -9.5795
  74   2.0000      -0.329247        -8.9593
  75   2.0000      -0.323903        -8.8138
  76   2.0000      -0.316563        -8.6141
  77   0.0000       0.072660         1.9772
  78   0.0000       0.104177         2.8348
  79   0.0000       0.122493         3.3332
  80   0.0000       0.130420         3.5489
  81   0.0000       0.134010         3.6466

MULLIKEN ATOMIC CHARGES
-----------------------
   0 C :   -0.296867
   1 C :    0.039084
   2 O :   -0.371084
   3 C :    0.476722
   4 O :   -0.423248
   5 C :   -0.244525
   6 C :    0.148849
   7 C :   -0.269244
   8 N :   -0.123011
   9 C :    0.215774
  10 S :   -0.439153
  11 N :   -0.204567
  12 C :    0.044605
  13 C :    0.090233
  14 C :   -0.210724
  15 C :   -0.121778
  16 C :   -0.272540
  17 C :    0.306277
  18 O :   -0.359381
  19 C :   -0.258777
  20 H :    0.098331
  21 H :    0.110286
  22 H :    0.104702
  23 H :    0.102400
  24 H :    0.103923
  25 H :    0.129248
  26 H :    0.134221
  27 H :    0.094637
  28 H :    0.198501
  29 H :    0.192728
  30 H :    0.149948
  31 H :    0.149486
  32 H :    0.163531
  33 H :    0.132275
  34 H :    0.241570
  35 H :    0.167570
Sum of atomic charges:   -0.0000000

LOEWDIN ATOMIC CHARGES
----------------------
   0 C :    0.103746
   1 C :   -0.011625
   2 O :    0.292196
   3 C :   -0.416055
   4 O :    0.104558
   5 C :   -0.096364
   6 C :   -0.057648
   7 C :    0.130769
   8 N :    0.407522
   9 C :   -0.455166
  10 S :   -0.034017
  11 N :    0.396301
  12 C :   -0.053447
  13 C :   -0.035027
  14 C :    0.014731
  15 C :    0.044951
  16 C :   -0.001059
  17 C :   -0.190201
  18 O :    0.396128
  19 C :    0.029354
  20 H :   -0.029663
  21 H :   -0.026633
  22 H :   -0.026843
  23 H :   -0.028978
  24 H :   -0.028274
  25 H :   -0.005511
  26 H :   -0.003185
  27 H :   -0.023381
  28 H :   -0.057544
  29 H :   -0.066007
  30 H :   -0.007532
  31 H :   -0.031050
  32 H :   -0.020646
  33 H :   -0.035037
  34 H :   -0.153076
  35 H :   -0.026287

  Mayer bond orders larger than 0.100000
B(  0-C ,  1-C ) :   0.9725 B(  0-C , 20-H ) :   0.9734 B(  0-C , 21-H ) :   0.9782
B(  0-C , 22-H ) :   0.9728 B(  1-C ,  2-O ) :   0.8855 B(  1-C , 23-H ) :   0.9877
B(  1-C , 24-H ) :   0.9725 B(  2-O ,  3-C ) :   1.1372 B(  3-C ,  4-O ) :   1.9865
B(  3-C ,  5-C ) :   1.0662 B(  5-C ,  6-C ) :   1.6500 B(  5-C , 12-C ) :   0.9761
B(  6-C ,  7-C ) :   0.9705 B(  6-C ,  8-N ) :   1.1570 B(  7-C , 25-H ) :   0.9622
B(  7-C , 26-H ) :   0.9578 B(  7-C , 27-H ) :   0.9898 B(  8-N ,  9-C ) :   1.1803
B(  8-N , 28-H ) :   0.9480 B(  9-C , 10-S ) :   1.6074 B(  9-C , 11-N ) :   1.3057
B( 11-N , 12-C ) :   0.9624 B( 11-N , 29-H ) :   0.9537 B( 12-C , 13-C ) :   0.9470
B( 12-C , 30-H ) :   1.0021 B( 13-C , 14-C ) :   1.3438 B( 13-C , 19-C ) :   1.3720
B( 14-C , 15-C ) :   1.3828 B( 14-C , 31-H ) :   0.9757 B( 15-C , 16-C ) :   1.3654
B( 15-C , 32-H ) :   0.9699 B( 16-C , 17-C ) :   1.3300 B( 16-C , 33-H ) :   0.9843
B( 17-C , 18-O ) :   1.1122 B( 17-C , 19-C ) :   1.3733 B( 18-O , 34-H ) :   0.9793
B( 19-C , 35-H ) :   0.9574

MP2 TOTAL ENERGY:    -1274.341155966 Eh
FINAL SINGLE POINT ENERGY     -1274.341155966484

DIPOLE MOMENT
-------------
                                X             Y             Z
Electronic contribution:      8.37712      10.96878       4.98446
Nuclear contribution   :     -9.36980     -12.60715      -5.00866
                        -----------------------------------------
Total Dipole Moment    :     -0.99268      -1.63837      -0.02420
                        -----------------------------------------
Magnitude (a.u.)       :      1.91579
Magnitude (Debye)      :      4.86956

Rotational constants in cm-1:     0.012084     0.009149     0.006485
Rotational constants in MHz :   362.266197   274.279759   194.410570

                             ****ORCA TERMINATED NORMALLY****
TOTAL RUN TIME: 0 days 1 hours 49 minutes 33 seconds 853 msec
