                         Program Version 4.2.0 -  RELEASE  -
|  1> ! ri-mp2 cc-pvtz cc-pvtz/c TightSCF  NoKeepInts
|  2>
|  3> %scf
|  4>   MaxCore 4096
|  5> end
|  6> *xyz  0  1
|  7>     C       16.0349711   13.2243778   17.3563494
|  8>     C       15.9744068   14.3454921   16.3063658
|  9>     O       17.2192420   15.0705863   16.3160529
| 10>     C       17.1616097   16.4151202   16.0845173
| 11>     O       16.4501684   16.8521580   15.1964717
| 12>     C       17.6556267   17.2474219   17.2364852
| 13>     C       17.4962664   18.5962139   17.2812734
| 14>     C       16.7708458   19.4737174   16.2832308
| 15>     N       18.0895816   19.3354626   18.3095743
| 16>     C       19.0233911   18.8404838   19.1807113
| 17>     S       19.8352513   19.8131643   20.2442491
| 18>     N       19.2684137   17.4929889   19.1065988
| 19>     C       18.4402237   16.5354048   18.3518246
| 20>     C       17.5588176   15.7777740   19.3402396
| 21>     C       18.0469031   14.6049517   19.9476488
| 22>     C       17.2760306   13.9158299   20.8992379
| 23>     C       16.0061902   14.4046064   21.2501546
| 24>     C       15.5201286   15.5768548   20.6553492
| 25>     O       14.2969238   16.0546655   20.9960568
| 26>     C       16.2901928   16.2623634   19.7105581
| 27>     H       16.9644608   12.6495111   17.2622181
| 28>     H       15.1908626   12.5363301   17.2276242
| 29>     H       15.9761459   13.6355557   18.3679370
| 30>     H       15.8027049   13.9246457   15.3069316
| 31>     H       15.1313798   15.0081057   16.5477518
| 32>     H       15.7204143   19.1688612   16.1932057
| 33>     H       17.2243322   19.3825646   15.2879565
| 34>     H       16.7839094   20.5354640   16.5559773
| 35>     H       17.9293404   20.3285409   18.3654290
| 36>     H       19.9441539   17.1520279   19.7777139
| 37>     H       19.1160147   15.8113943   17.8746065
| 38>     H       19.0310897   14.2277797   19.6829526
| 39>     H       17.6637719   13.0101010   21.3625597
| 40>     H       15.4072818   13.8767089   21.9850676
| 41>     H       13.9477432   15.4864326   21.6992789
| 42>     H       15.8982095   17.1783388   19.2838400
| 43> *
| 44>
| 45>                          ****END OF INPUT****

CARTESIAN COORDINATES (ANGSTROEM)
---------------------------------
  C     16.034971   13.224378   17.356349
  C     15.974407   14.345492   16.306366
  O     17.219242   15.070586   16.316053
  C     17.161610   16.415120   16.084517
  O     16.450168   16.852158   15.196472
  C     17.655627   17.247422   17.236485
  C     17.496266   18.596214   17.281273
  C     16.770846   19.473717   16.283231
  N     18.089582   19.335463   18.309574
  C     19.023391   18.840484   19.180711
  S     19.835251   19.813164   20.244249
  N     19.268414   17.492989   19.106599
  C     18.440224   16.535405   18.351825
  C     17.558818   15.777774   19.340240
  C     18.046903   14.604952   19.947649
  C     17.276031   13.915830   20.899238
  C     16.006190   14.404606   21.250155
  C     15.520129   15.576855   20.655349
  O     14.296924   16.054665   20.996057
  C     16.290193   16.262363   19.710558
  H     16.964461   12.649511   17.262218
  H     15.190863   12.536330   17.227624
  H     15.976146   13.635556   18.367937
  H     15.802705   13.924646   15.306932
  H     15.131380   15.008106   16.547752
  H     15.720414   19.168861   16.193206
  H     17.224332   19.382565   15.287956
  H     16.783909   20.535464   16.555977
  H     17.929340   20.328541   18.365429
  H     19.944154   17.152028   19.777714
  H     19.116015   15.811394   17.874606
  H     19.031090   14.227780   19.682953
  H     17.663772   13.010101   21.362560
  H     15.407282   13.876709   21.985068
  H     13.947743   15.486433   21.699279
  H     15.898209   17.178339   19.283840

 Total Charge           Charge          ....    0
 Multiplicity           Mult            ....    1
 Number of Electrons    NEL             ....  154
 Basis Dimension        Dim             ....  828

ORBITAL ENERGIES
----------------

  NO   OCC          E(Eh)            E(eV)
   0   2.0000     -91.890049     -2500.4553
   1   2.0000     -20.601321      -560.5905
   2   2.0000     -20.589065      -560.2569
   3   2.0000     -20.544364      -559.0406
   4   2.0000     -15.630995      -425.3410
   5   2.0000     -15.608869      -424.7389
   6   2.0000     -11.392822      -310.0144
   7   2.0000     -11.384693      -309.7932
   8   2.0000     -11.337879      -308.5194
   9   2.0000     -11.318792      -308.0000
  10   2.0000     -11.311052      -307.7894
  11   2.0000     -11.294456      -307.3378
  12   2.0000     -11.264181      -306.5140
  13   2.0000     -11.260031      -306.4010
  14   2.0000     -11.259827      -306.3955
  15   2.0000     -11.253282      -306.2174
  16   2.0000     -11.246809      -306.0412
  17   2.0000     -11.241818      -305.9054
  18   2.0000     -11.241582      -305.8990
  19   2.0000     -11.221543      -305.3537
  20   2.0000      -8.895077      -242.0473
  21   2.0000      -6.576645      -178.9596
  22   2.0000      -6.574648      -178.9053
  23   2.0000      -6.574056      -178.8892
  24   2.0000      -1.449563       -39.4446
  25   2.0000      -1.420945       -38.6659
  26   2.0000      -1.351401       -36.7735
  27   2.0000      -1.341948       -36.5163
  28   2.0000      -1.240275       -33.7496
  29   2.0000      -1.161063       -31.5941
  30   2.0000      -1.121277       -30.5115
  31   2.0000      -1.045008       -28.4361
  32   2.0000      -1.034071       -28.1385
  33   2.0000      -1.019543       -27.7432
  34   2.0000      -0.997898       -27.1542
  35   2.0000      -0.985164       -26.8077
  36   2.0000      -0.924850       -25.1665
  37   2.0000      -0.883380       -24.0380
  38   2.0000      -0.848905       -23.0999
  39   2.0000      -0.841874       -22.9086
  40   2.0000      -0.836295       -22.7567
  41   2.0000      -0.820412       -22.3246
  42   2.0000      -0.762318       -20.7437
  43   2.0000      -0.735463       -20.0130
  44   2.0000      -0.721266       -19.6266
  45   2.0000      -0.699579       -19.0365
  46   2.0000      -0.689152       -18.7528
  47   2.0000      -0.678572       -18.4649
  48   2.0000      -0.673422       -18.3247
  49   2.0000      -0.664559       -18.0836
  50   2.0000      -0.648527       -17.6473
  51   2.0000      -0.645677       -17.5698
  52   2.0000      -0.639255       -17.3950
  53   2.0000      -0.612800       -16.6751
  54   2.0000      -0.604755       -16.4562
  55   2.0000      -0.601002       -16.3541
  56   2.0000      -0.593738       -16.1564
  57   2.0000      -0.581221       -15.8158
  58   2.0000      -0.572509       -15.5788
  59   2.0000      -0.566495       -15.4151
  60   2.0000      -0.555403       -15.1133
  61   2.0000      -0.550168       -14.9708
  62   2.0000      -0.537757       -14.6331
  63   2.0000      -0.529785       -14.4162
  64   2.0000      -0.517292       -14.0762
  65   2.0000      -0.512291       -13.9402
  66   2.0000      -0.504859       -13.7379
  67   2.0000      -0.498272       -13.5587
  68   2.0000      -0.484915       -13.1952
  69   2.0000      -0.463024       -12.5995
  70   2.0000      -0.453389       -12.3373
  71   2.0000      -0.444473       -12.0947
  72   2.0000      -0.357678        -9.7329
  73   2.0000      -0.354312        -9.6413
  74   2.0000      -0.330359        -8.9895
  75   2.0000      -0.325437        -8.8556
  76   2.0000      -0.317420        -8.6374
  77   0.0000       0.071575         1.9477
  78   0.0000       0.103596         2.8190
  79   0.0000       0.120985         3.2922
  80   0.0000       0.127330         3.4648
  81   0.0000       0.131509         3.5785

MULLIKEN ATOMIC CHARGES
-----------------------
   0 C :   -0.281806
   1 C :    0.042402
   2 O :   -0.373382
   3 C :    0.475718
   4 O :   -0.416431
   5 C :   -0.265990
   6 C :    0.159485
   7 C :   -0.266528
   8 N :   -0.124596
   9 C :    0.220942
  10 S :   -0.440808
  11 N :   -0.210083
  12 C :    0.058786
  13 C :    0.070954
  14 C :   -0.211777
  15 C :   -0.127996
  16 C :   -0.274824
  17 C :    0.303969
  18 O :   -0.358490
  19 C :   -0.239740
  20 H :    0.095110
  21 H :    0.103346
  22 H :    0.105293
  23 H :    0.112354
  24 H :    0.088689
  25 H :    0.129887
  26 H :    0.133812
  27 H :    0.095196
  28 H :    0.198076
  29 H :    0.192398
  30 H :    0.148682
  31 H :    0.149964
  32 H :    0.160651
  33 H :    0.131926
  34 H :    0.242350
  35 H :    0.172461
Sum of atomic charges:    0.0000000

LOEWDIN ATOMIC CHARGES
----------------------
   0 C :    0.108181
   1 C :   -0.015624
   2 O :    0.290001
   3 C :   -0.419353
   4 O :    0.110259
   5 C :   -0.097302
   6 C :   -0.056534
   7 C :    0.130947
   8 N :    0.408472
   9 C :   -0.453704
  10 S :   -0.034489
  11 N :    0.395849
  12 C :   -0.053281
  13 C :   -0.033262
  14 C :    0.012035
  15 C :    0.044250
  16 C :   -0.002477
  17 C :   -0.190179
  18 O :    0.396248
  19 C :    0.028250
  20 H :   -0.027854
  21 H :   -0.025689
  22 H :   -0.027852
  23 H :   -0.029280
  24 H :   -0.028989
  25 H :   -0.005554
  26 H :   -0.003070
  27 H :   -0.023208
  28 H :   -0.057360
  29 H :   -0.067055
  30 H :   -0.006940
  31 H :   -0.031030
  32 H :   -0.019776
  33 H :   -0.034883
  34 H :   -0.152520
  35 H :   -0.027226

  Mayer bond orders larger than 0.100000
B(  0-C ,  1-C ) :   0.9704 B(  0-C , 20-H ) :   0.9753 B(  0-C , 21-H ) :   0.9804
B(  0-C , 22-H ) :   0.9747 B(  1-C ,  2-O ) :   0.8874 B(  1-C , 23-H ) :   0.9884
B(  1-C , 24-H ) :   0.9708 B(  2-O ,  3-C ) :   1.1212 B(  3-C ,  4-O ) :   1.9974
B(  3-C ,  5-C ) :   1.0684 B(  5-C ,  6-C ) :   1.6441 B(  5-C , 12-C ) :   0.9756
B(  6-C ,  7-C ) :   0.9683 B(  6-C ,  8-N ) :   1.1585 B(  7-C , 25-H ) :   0.9616
B(  7-C , 26-H ) :   0.9581 B(  7-C , 27-H ) :   0.9898 B(  8-N ,  9-C ) :   1.1838
B(  8-N , 28-H ) :   0.9478 B(  9-C , 10-S ) :   1.6017 B(  9-C , 11-N ) :   1.3064
B( 11-N , 12-C ) :   0.9508 B( 11-N , 29-H ) :   0.9526 B( 12-C , 13-C ) :   0.9512
B( 12-C , 30-H ) :   1.0017 B( 13-C , 14-C ) :   1.3534 B( 13-C , 19-C ) :   1.3705
B( 14-C , 15-C ) :   1.3982 B( 14-C , 31-H ) :   0.9727 B( 15-C , 16-C ) :   1.3607
B( 15-C , 32-H ) :   0.9714 B( 16-C , 17-C ) :   1.3335 B( 16-C , 33-H ) :   0.9853
B( 17-C , 18-O ) :   1.1152 B( 17-C , 19-C ) :   1.3674 B( 18-O , 34-H ) :   0.9787
B( 19-C , 35-H ) :   0.9533

MP2 TOTAL ENERGY:    -1274.336720021 Eh
FINAL SINGLE POINT ENERGY     -1274.336720021336

DIPOLE MOMENT
-------------
                                X             Y             Z
Electronic contribution:      8.22800      10.97338       4.37582
Nuclear contribution   :     -9.26538     -12.43660      -4.20604
                        -----------------------------------------
Total Dipole Moment    :     -1.03738      -1.46322       0.16979
                        -----------------------------------------
Magnitude (a.u.)       :      1.80167
Magnitude (Debye)      :      4.57947

Rotational constants in cm-1:     0.012232     0.008998     0.006514
Rotational constants in MHz :   366.715234   269.767081   195.293679

                             ****ORCA TERMINATED NORMALLY****
TOTAL RUN TIME: 0 days 1 hours 51 minutes 16 seconds 703 msec
