                         Program Version 4.2.0 -  RELEASE  -
|  1> ! ri-mp2 cc-pvtz cc-pvtz/c TightSCF  NoKeepInts
|  2>
|  3> %scf
|  4>   MaxCore 4096
|  5> end
|  6> *xyz  0  1
|  7>     C       15.8813963   13.1458555   16.0402450
|  8>     C       15.4959671   14.5170393   16.6194204
|  9>     O       16.6692126   15.3463381   16.5725219
| 10>     C       16.5211649   16.7032396   16.5279613
| 11>     O       15.5719690   17.2306754   15.9737662
| 12>     C       17.4604589   17.4166879   17.4615469
| 13>     C       17.4814053   18.7688578   17.5775008
| 14>     C       16.6182498   19.7657051   16.8339813
| 15>     N       18.4004176   19.3854542   18.4317927
| 16>     C       19.3934254   18.7359312   19.1151935
| 17>     S       20.5020113   19.5515174   20.0326252
| 18>     N       19.4253188   17.3699058   18.9971364
| 19>     C       18.4100872   16.5523378   18.3084743
| 20>     C       17.6552992   15.7042904   19.3287538
| 21>     C       17.8259968   14.3073438   19.3595200
| 22>     C       17.1237970   13.5213545   20.2885180
| 23>     C       16.2469600   14.1372871   21.1977139
| 24>     C       16.0796487   15.5287382   21.1744058
| 25>     O       15.2345425   16.1263800   22.0515572
| 26>     C       16.7783462   16.3080643   20.2472915
| 27>     H       15.0174144   12.4703500   16.0445928
| 28>     H       16.6804603   12.6864199   16.6349371
| 29>     H       16.2323220   13.2485202   15.0057710
| 30>     H       14.6870587   14.9393065   16.0075391
| 31>     H       15.1385553   14.4189245   17.6531860
| 32>     H       15.5612565   19.6298552   17.0967682
| 33>     H       16.7063839   19.6211199   15.7497056
| 34>     H       16.8830149   20.8074588   17.0495864
| 35>     H       18.3929649   20.3881920   18.5296306
| 36>     H       20.1465946   16.9163481   19.5429441
| 37>     H       18.9431957   15.8777497   17.6237073
| 38>     H       18.4989814   13.8283064   18.6533398
| 39>     H       17.2608993   12.4414545   20.3027429
| 40>     H       15.7033423   13.5348882   21.9181408
| 41>     H       14.8799429   15.4363208   22.6320500
| 42>     H       16.6389382   17.3837817   20.2494319
| 43> *
| 44>
| 45>                          ****END OF INPUT****

CARTESIAN COORDINATES (ANGSTROEM)
---------------------------------
  C     15.881396   13.145855   16.040245
  C     15.495967   14.517039   16.619420
  O     16.669213   15.346338   16.572522
  C     16.521165   16.703240   16.527961
  O     15.571969   17.230675   15.973766
  C     17.460459   17.416688   17.461547
  C     17.481405   18.768858   17.577501
  C     16.618250   19.765705   16.833981
  N     18.400418   19.385454   18.431793
  C     19.393425   18.735931   19.115194
  S     20.502011   19.551517   20.032625
  N     19.425319   17.369906   18.997136
  C     18.410087   16.552338   18.308474
  C     17.655299   15.704290   19.328754
  C     17.825997   14.307344   19.359520
  C     17.123797   13.521354   20.288518
  C     16.246960   14.137287   21.197714
  C     16.079649   15.528738   21.174406
  O     15.234542   16.126380   22.051557
  C     16.778346   16.308064   20.247291
  H     15.017414   12.470350   16.044593
  H     16.680460   12.686420   16.634937
  H     16.232322   13.248520   15.005771
  H     14.687059   14.939306   16.007539
  H     15.138555   14.418924   17.653186
  H     15.561256   19.629855   17.096768
  H     16.706384   19.621120   15.749706
  H     16.883015   20.807459   17.049586
  H     18.392965   20.388192   18.529631
  H     20.146595   16.916348   19.542944
  H     18.943196   15.877750   17.623707
  H     18.498981   13.828306   18.653340
  H     17.260899   12.441455   20.302743
  H     15.703342   13.534888   21.918141
  H     14.879943   15.436321   22.632050
  H     16.638938   17.383782   20.249432

 Total Charge           Charge          ....    0
 Multiplicity           Mult            ....    1
 Number of Electrons    NEL             ....  154
 Basis Dimension        Dim             ....  828

ORBITAL ENERGIES
----------------

  NO   OCC          E(Eh)            E(eV)
   0   2.0000     -91.889386     -2500.4373
   1   2.0000     -20.598269      -560.5074
   2   2.0000     -20.595095      -560.4210
   3   2.0000     -20.543276      -559.0110
   4   2.0000     -15.629532      -425.3012
   5   2.0000     -15.608875      -424.7391
   6   2.0000     -11.394011      -310.0468
   7   2.0000     -11.384524      -309.7886
   8   2.0000     -11.336061      -308.4699
   9   2.0000     -11.315829      -307.9194
  10   2.0000     -11.310011      -307.7611
  11   2.0000     -11.293669      -307.3164
  12   2.0000     -11.261418      -306.4388
  13   2.0000     -11.258835      -306.3685
  14   2.0000     -11.257246      -306.3252
  15   2.0000     -11.252412      -306.1937
  16   2.0000     -11.244942      -305.9904
  17   2.0000     -11.240218      -305.8619
  18   2.0000     -11.239862      -305.8522
  19   2.0000     -11.228502      -305.5431
  20   2.0000      -8.894445      -242.0302
  21   2.0000      -6.576018      -178.9426
  22   2.0000      -6.574015      -178.8880
  23   2.0000      -6.573427      -178.8720
  24   2.0000      -1.450564       -39.4719
  25   2.0000      -1.417933       -38.5839
  26   2.0000      -1.354198       -36.8496
  27   2.0000      -1.340531       -36.4777
  28   2.0000      -1.239134       -33.7186
  29   2.0000      -1.159271       -31.5454
  30   2.0000      -1.120834       -30.4994
  31   2.0000      -1.043969       -28.4078
  32   2.0000      -1.038362       -28.2553
  33   2.0000      -1.017061       -27.6756
  34   2.0000      -0.996203       -27.1081
  35   2.0000      -0.984830       -26.7986
  36   2.0000      -0.923440       -25.1281
  37   2.0000      -0.885454       -24.0944
  38   2.0000      -0.847445       -23.0602
  39   2.0000      -0.838949       -22.8290
  40   2.0000      -0.835711       -22.7409
  41   2.0000      -0.820466       -22.3260
  42   2.0000      -0.763630       -20.7794
  43   2.0000      -0.733999       -19.9731
  44   2.0000      -0.723306       -19.6822
  45   2.0000      -0.697215       -18.9722
  46   2.0000      -0.687990       -18.7212
  47   2.0000      -0.678940       -18.4749
  48   2.0000      -0.674551       -18.3555
  49   2.0000      -0.657413       -17.8891
  50   2.0000      -0.647116       -17.6089
  51   2.0000      -0.643735       -17.5169
  52   2.0000      -0.634845       -17.2750
  53   2.0000      -0.610759       -16.6196
  54   2.0000      -0.608490       -16.5578
  55   2.0000      -0.601268       -16.3613
  56   2.0000      -0.599249       -16.3064
  57   2.0000      -0.579088       -15.7578
  58   2.0000      -0.571342       -15.5470
  59   2.0000      -0.565525       -15.3887
  60   2.0000      -0.560352       -15.2480
  61   2.0000      -0.540430       -14.7058
  62   2.0000      -0.537627       -14.6296
  63   2.0000      -0.526620       -14.3301
  64   2.0000      -0.524698       -14.2778
  65   2.0000      -0.514303       -13.9949
  66   2.0000      -0.502989       -13.6870
  67   2.0000      -0.497683       -13.5426
  68   2.0000      -0.487110       -13.2549
  69   2.0000      -0.465610       -12.6699
  70   2.0000      -0.457831       -12.4582
  71   2.0000      -0.445896       -12.1334
  72   2.0000      -0.354604        -9.6493
  73   2.0000      -0.351172        -9.5559
  74   2.0000      -0.328879        -8.9493
  75   2.0000      -0.323335        -8.7984
  76   2.0000      -0.316696        -8.6177
  77   0.0000       0.073744         2.0067
  78   0.0000       0.104207         2.8356
  79   0.0000       0.124354         3.3839
  80   0.0000       0.130847         3.5605
  81   0.0000       0.135765         3.6943

MULLIKEN ATOMIC CHARGES
-----------------------
   0 C :   -0.262701
   1 C :    0.009348
   2 O :   -0.366138
   3 C :    0.475695
   4 O :   -0.423974
   5 C :   -0.245954
   6 C :    0.157081
   7 C :   -0.271055
   8 N :   -0.122823
   9 C :    0.211900
  10 S :   -0.439411
  11 N :   -0.205569
  12 C :    0.065312
  13 C :    0.046190
  14 C :   -0.182784
  15 C :   -0.132266
  16 C :   -0.279357
  17 C :    0.313534
  18 O :   -0.355635
  19 C :   -0.261645
  20 H :    0.089973
  21 H :    0.088853
  22 H :    0.099663
  23 H :    0.129742
  24 H :    0.109073
  25 H :    0.132816
  26 H :    0.130092
  27 H :    0.095219
  28 H :    0.197665
  29 H :    0.194958
  30 H :    0.149599
  31 H :    0.152044
  32 H :    0.161695
  33 H :    0.131672
  34 H :    0.240954
  35 H :    0.166234
Sum of atomic charges:   -0.0000000

LOEWDIN ATOMIC CHARGES
----------------------
   0 C :    0.107061
   1 C :   -0.016149
   2 O :    0.304476
   3 C :   -0.415000
   4 O :    0.102658
   5 C :   -0.096391
   6 C :   -0.059058
   7 C :    0.131636
   8 N :    0.406644
   9 C :   -0.456269
  10 S :   -0.035021
  11 N :    0.396261
  12 C :   -0.052235
  13 C :   -0.038300
  14 C :    0.014654
  15 C :    0.038705
  16 C :   -0.002561
  17 C :   -0.189768
  18 O :    0.395866
  19 C :    0.031227
  20 H :   -0.025285
  21 H :   -0.031676
  22 H :   -0.025419
  23 H :   -0.027812
  24 H :   -0.030295
  25 H :   -0.004442
  26 H :   -0.003997
  27 H :   -0.023288
  28 H :   -0.057473
  29 H :   -0.064630
  30 H :   -0.010251
  31 H :   -0.030640
  32 H :   -0.021050
  33 H :   -0.035270
  34 H :   -0.153563
  35 H :   -0.023344

  Mayer bond orders larger than 0.100000
B(  0-C ,  1-C ) :   0.9753 B(  0-C , 20-H ) :   0.9768 B(  0-C , 21-H ) :   0.9793
B(  0-C , 22-H ) :   0.9780 B(  1-C ,  2-O ) :   0.8756 B(  1-C , 23-H ) :   0.9773
B(  1-C , 24-H ) :   0.9693 B(  2-O ,  3-C ) :   1.1455 B(  3-C ,  4-O ) :   1.9961
B(  3-C ,  5-C ) :   1.0588 B(  5-C ,  6-C ) :   1.6527 B(  5-C , 12-C ) :   0.9720
B(  6-C ,  7-C ) :   0.9664 B(  6-C ,  8-N ) :   1.1617 B(  7-C , 25-H ) :   0.9592
B(  7-C , 26-H ) :   0.9613 B(  7-C , 27-H ) :   0.9905 B(  8-N ,  9-C ) :   1.1833
B(  8-N , 28-H ) :   0.9478 B(  9-C , 10-S ) :   1.6076 B(  9-C , 11-N ) :   1.3054
B( 11-N , 12-C ) :   0.9847 B( 11-N , 29-H ) :   0.9517 B( 12-C , 13-C ) :   0.9345
B( 12-C , 30-H ) :   1.0021 B( 13-C , 14-C ) :   1.3596 B( 13-C , 19-C ) :   1.3829
B( 14-C , 15-C ) :   1.3894 B( 14-C , 31-H ) :   0.9725 B( 15-C , 16-C ) :   1.3624
B( 15-C , 32-H ) :   0.9704 B( 16-C , 17-C ) :   1.3311 B( 16-C , 33-H ) :   0.9846
B( 17-C , 18-O ) :   1.1121 B( 17-C , 19-C ) :   1.3718 B( 18-O , 34-H ) :   0.9796
B( 19-C , 35-H ) :   0.9578

MP2 TOTAL ENERGY:    -1274.344485099 Eh
FINAL SINGLE POINT ENERGY     -1274.344485099445

DIPOLE MOMENT
-------------
                                X             Y             Z
Electronic contribution:      9.31924      11.15857       7.31824
Nuclear contribution   :    -10.46655     -12.71650      -7.51964
                        -----------------------------------------
Total Dipole Moment    :     -1.14730      -1.55793      -0.20139
                        -----------------------------------------
Magnitude (a.u.)       :      1.94525
Magnitude (Debye)      :      4.94444

Rotational constants in cm-1:     0.012235     0.008441     0.006252
Rotational constants in MHz :   366.782221   253.040915   187.436996

                             ****ORCA TERMINATED NORMALLY****
TOTAL RUN TIME: 0 days 1 hours 49 minutes 27 seconds 362 msec
