                         Program Version 4.2.0 -  RELEASE  -
|  1> ! ri-mp2 cc-pvtz cc-pvtz/c TightSCF  NoKeepInts
|  2>
|  3> %scf
|  4>   MaxCore 4096
|  5> end
|  6> *xyz  0  1
|  7>     C       15.0740066   14.6884596   17.1618858
|  8>     C       15.6833361   14.8297756   15.7521617
|  9>     O       16.5692583   15.9646620   15.7295638
| 10>     C       17.7401354   15.9074379   16.4288383
| 11>     O       18.3593827   14.8626247   16.5458158
| 12>     C       17.8935549   17.0312461   17.4112585
| 13>     C       17.3677339   18.2718620   17.2440973
| 14>     C       16.5691955   18.7883450   16.0651333
| 15>     N       17.6132795   19.2646049   18.1981167
| 16>     C       18.4827545   19.1413026   19.2498658
| 17>     S       18.8115420   20.4075589   20.2617785
| 18>     N       19.0670506   17.9114660   19.4197047
| 19>     C       18.7090860   16.6959986   18.6643145
| 20>     C       17.9512668   15.7161404   19.5560643
| 21>     C       18.4001772   14.3905482   19.7013131
| 22>     C       17.6958299   13.4797034   20.5063484
| 23>     C       16.5308070   13.8965597   21.1723490
| 24>     C       16.0783942   15.2150283   21.0280056
| 25>     O       14.9480688   15.6179723   21.6612343
| 26>     C       16.7817504   16.1194059   20.2264555
| 27>     H       15.8386943   14.3938308   17.8914958
| 28>     H       14.2944982   13.9172445   17.1659542
| 29>     H       14.6241857   15.6331449   17.4915727
| 30>     H       16.2163318   13.9106232   15.4722579
| 31>     H       14.8757874   14.9888655   15.0262358
| 32>     H       15.5458278   18.3935062   16.0888167
| 33>     H       17.0269429   18.4797687   15.1169442
| 34>     H       16.5040105   19.8830406   16.0473830
| 35>     H       17.1944364   20.1745447   18.0900731
| 36>     H       19.6808566   17.8384636   20.2208630
| 37>     H       19.6438585   16.2166310   18.3393158
| 38>     H       19.2894604   14.0600623   19.1699798
| 39>     H       18.0504674   12.4552687   20.6048394
| 40>     H       15.9822325   13.1954133   21.7923926
| 41>     H       14.6386642   14.8758451   22.2020297
| 42>     H       16.4141353   17.1350448   20.1295414
| 43> *
| 44>
| 45>                          ****END OF INPUT****

CARTESIAN COORDINATES (ANGSTROEM)
---------------------------------
  C     15.074007   14.688460   17.161886
  C     15.683336   14.829776   15.752162
  O     16.569258   15.964662   15.729564
  C     17.740135   15.907438   16.428838
  O     18.359383   14.862625   16.545816
  C     17.893555   17.031246   17.411258
  C     17.367734   18.271862   17.244097
  C     16.569195   18.788345   16.065133
  N     17.613280   19.264605   18.198117
  C     18.482754   19.141303   19.249866
  S     18.811542   20.407559   20.261778
  N     19.067051   17.911466   19.419705
  C     18.709086   16.695999   18.664314
  C     17.951267   15.716140   19.556064
  C     18.400177   14.390548   19.701313
  C     17.695830   13.479703   20.506348
  C     16.530807   13.896560   21.172349
  C     16.078394   15.215028   21.028006
  O     14.948069   15.617972   21.661234
  C     16.781750   16.119406   20.226456
  H     15.838694   14.393831   17.891496
  H     14.294498   13.917245   17.165954
  H     14.624186   15.633145   17.491573
  H     16.216332   13.910623   15.472258
  H     14.875787   14.988865   15.026236
  H     15.545828   18.393506   16.088817
  H     17.026943   18.479769   15.116944
  H     16.504010   19.883041   16.047383
  H     17.194436   20.174545   18.090073
  H     19.680857   17.838464   20.220863
  H     19.643859   16.216631   18.339316
  H     19.289460   14.060062   19.169980
  H     18.050467   12.455269   20.604839
  H     15.982233   13.195413   21.792393
  H     14.638664   14.875845   22.202030
  H     16.414135   17.135045   20.129541

 Total Charge           Charge          ....    0
 Multiplicity           Mult            ....    1
 Number of Electrons    NEL             ....  154
 Basis Dimension        Dim             ....  828

ORBITAL ENERGIES
----------------

  NO   OCC          E(Eh)            E(eV)
   0   2.0000     -91.888781     -2500.4208
   1   2.0000     -20.594715      -560.4107
   2   2.0000     -20.591929      -560.3349
   3   2.0000     -20.550428      -559.2056
   4   2.0000     -15.628718      -425.2790
   5   2.0000     -15.607866      -424.7116
   6   2.0000     -11.395482      -310.0868
   7   2.0000     -11.383949      -309.7730
   8   2.0000     -11.334880      -308.4378
   9   2.0000     -11.310743      -307.7810
  10   2.0000     -11.307721      -307.6987
  11   2.0000     -11.298680      -307.4527
  12   2.0000     -11.260393      -306.4109
  13   2.0000     -11.259387      -306.3835
  14   2.0000     -11.256302      -306.2995
  15   2.0000     -11.251252      -306.1621
  16   2.0000     -11.240867      -305.8795
  17   2.0000     -11.236287      -305.7549
  18   2.0000     -11.233871      -305.6892
  19   2.0000     -11.224234      -305.4269
  20   2.0000      -8.893843      -242.0138
  21   2.0000      -6.575420      -178.9263
  22   2.0000      -6.573413      -178.8717
  23   2.0000      -6.572827      -178.8557
  24   2.0000      -1.452204       -39.5165
  25   2.0000      -1.414489       -38.4902
  26   2.0000      -1.355975       -36.8980
  27   2.0000      -1.339795       -36.4577
  28   2.0000      -1.237764       -33.6813
  29   2.0000      -1.155282       -31.4368
  30   2.0000      -1.120824       -30.4992
  31   2.0000      -1.043506       -28.3952
  32   2.0000      -1.031404       -28.0659
  33   2.0000      -1.012617       -27.5547
  34   2.0000      -0.998996       -27.1841
  35   2.0000      -0.984709       -26.7953
  36   2.0000      -0.923134       -25.1198
  37   2.0000      -0.892855       -24.2958
  38   2.0000      -0.847972       -23.0745
  39   2.0000      -0.837418       -22.7873
  40   2.0000      -0.831133       -22.6163
  41   2.0000      -0.814973       -22.1766
  42   2.0000      -0.751444       -20.4478
  43   2.0000      -0.735560       -20.0156
  44   2.0000      -0.727234       -19.7890
  45   2.0000      -0.693224       -18.8636
  46   2.0000      -0.686245       -18.6737
  47   2.0000      -0.677850       -18.4452
  48   2.0000      -0.672500       -18.2997
  49   2.0000      -0.659005       -17.9324
  50   2.0000      -0.653126       -17.7725
  51   2.0000      -0.645441       -17.5633
  52   2.0000      -0.634707       -17.2713
  53   2.0000      -0.609905       -16.5963
  54   2.0000      -0.601976       -16.3806
  55   2.0000      -0.601583       -16.3699
  56   2.0000      -0.598491       -16.2858
  57   2.0000      -0.580064       -15.7843
  58   2.0000      -0.575556       -15.6617
  59   2.0000      -0.562812       -15.3149
  60   2.0000      -0.553958       -15.0740
  61   2.0000      -0.549774       -14.9601
  62   2.0000      -0.536929       -14.6106
  63   2.0000      -0.529976       -14.4214
  64   2.0000      -0.520210       -14.1556
  65   2.0000      -0.511038       -13.9061
  66   2.0000      -0.498714       -13.5707
  67   2.0000      -0.492278       -13.3956
  68   2.0000      -0.481534       -13.1032
  69   2.0000      -0.464036       -12.6271
  70   2.0000      -0.459694       -12.5089
  71   2.0000      -0.449121       -12.2212
  72   2.0000      -0.354487        -9.6461
  73   2.0000      -0.346889        -9.4393
  74   2.0000      -0.327990        -8.9251
  75   2.0000      -0.318412        -8.6644
  76   2.0000      -0.315705        -8.5908
  77   0.0000       0.072935         1.9847
  78   0.0000       0.108064         2.9406
  79   0.0000       0.119173         3.2429
  80   0.0000       0.133035         3.6201
  81   0.0000       0.141429         3.8485

MULLIKEN ATOMIC CHARGES
-----------------------
   0 C :   -0.315214
   1 C :    0.037167
   2 O :   -0.370240
   3 C :    0.437515
   4 O :   -0.413862
   5 C :   -0.168130
   6 C :    0.138508
   7 C :   -0.282418
   8 N :   -0.123829
   9 C :    0.201410
  10 S :   -0.438922
  11 N :   -0.199273
  12 C :    0.050801
  13 C :    0.028123
  14 C :   -0.154926
  15 C :   -0.136174
  16 C :   -0.277933
  17 C :    0.309859
  18 O :   -0.360380
  19 C :   -0.262315
  20 H :    0.123541
  21 H :    0.105819
  22 H :    0.098175
  23 H :    0.111612
  24 H :    0.106795
  25 H :    0.124599
  26 H :    0.126237
  27 H :    0.102704
  28 H :    0.197196
  29 H :    0.193683
  30 H :    0.154465
  31 H :    0.156412
  32 H :    0.160401
  33 H :    0.130211
  34 H :    0.240678
  35 H :    0.167707
Sum of atomic charges:    0.0000000

LOEWDIN ATOMIC CHARGES
----------------------
   0 C :    0.105615
   1 C :   -0.018582
   2 O :    0.295115
   3 C :   -0.414885
   4 O :    0.114696
   5 C :   -0.092408
   6 C :   -0.070083
   7 C :    0.125834
   8 N :    0.404635
   9 C :   -0.458275
  10 S :   -0.035792
  11 N :    0.397578
  12 C :   -0.045481
  13 C :   -0.041634
  14 C :    0.020718
  15 C :    0.040617
  16 C :   -0.002322
  17 C :   -0.193319
  18 O :    0.394064
  19 C :    0.030573
  20 H :   -0.022592
  21 H :   -0.025878
  22 H :   -0.029228
  23 H :   -0.027390
  24 H :   -0.025588
  25 H :   -0.010612
  26 H :   -0.007683
  27 H :   -0.020291
  28 H :   -0.058850
  29 H :   -0.063927
  30 H :   -0.004456
  31 H :   -0.024678
  32 H :   -0.020533
  33 H :   -0.035770
  34 H :   -0.154301
  35 H :   -0.024887

  Mayer bond orders larger than 0.100000
B(  0-C ,  1-C ) :   0.9608 B(  0-C , 20-H ) :   0.9676 B(  0-C , 21-H ) :   0.9773
B(  0-C , 22-H ) :   0.9751 B(  1-C ,  2-O ) :   0.8925 B(  1-C , 23-H ) :   0.9798
B(  1-C , 24-H ) :   0.9846 B(  2-O ,  3-C ) :   1.1071 B(  3-C ,  4-O ) :   2.0043
B(  3-C ,  5-C ) :   1.0378 B(  5-C ,  6-C ) :   1.6603 B(  5-C , 12-C ) :   0.9645
B(  6-C ,  7-C ) :   0.9543 B(  6-C ,  8-N ) :   1.1405 B(  7-C , 25-H ) :   0.9632
B(  7-C , 26-H ) :   0.9681 B(  7-C , 27-H ) :   0.9896 B(  8-N ,  9-C ) :   1.1817
B(  8-N , 28-H ) :   0.9493 B(  9-C , 10-S ) :   1.6117 B(  9-C , 11-N ) :   1.3014
B( 11-N , 12-C ) :   0.9914 B( 11-N , 29-H ) :   0.9521 B( 12-C , 13-C ) :   0.9427
B( 12-C , 30-H ) :   0.9990 B( 13-C , 14-C ) :   1.3809 B( 13-C , 19-C ) :   1.3700
B( 14-C , 15-C ) :   1.3934 B( 14-C , 31-H ) :   0.9637 B( 15-C , 16-C ) :   1.3621
B( 15-C , 32-H ) :   0.9716 B( 16-C , 17-C ) :   1.3317 B( 16-C , 33-H ) :   0.9853
B( 17-C , 18-O ) :   1.1088 B( 17-C , 19-C ) :   1.3753 B( 18-O , 34-H ) :   0.9802
B( 19-C , 35-H ) :   0.9577

MP2 TOTAL ENERGY:    -1274.337816624 Eh
FINAL SINGLE POINT ENERGY     -1274.337816623843

DIPOLE MOMENT
-------------
                                X             Y             Z
Electronic contribution:      9.98583       9.06413       6.58781
Nuclear contribution   :    -11.35285     -10.34376      -7.42100
                        -----------------------------------------
Total Dipole Moment    :     -1.36702      -1.27963      -0.83320
                        -----------------------------------------
Magnitude (a.u.)       :      2.04949
Magnitude (Debye)      :      5.20939

Rotational constants in cm-1:     0.011803     0.009435     0.006653
Rotational constants in MHz :   353.855066   282.847517   199.459186

                             ****ORCA TERMINATED NORMALLY****
TOTAL RUN TIME: 0 days 1 hours 48 minutes 1 seconds 327 msec
