                         Program Version 4.2.0 -  RELEASE  -
|  1> ! ri-mp2 cc-pvtz cc-pvtz/c TightSCF  NoKeepInts
|  2>
|  3> %scf
|  4>   MaxCore 4096
|  5> end
|  6> *xyz  0  1
|  7>     C       14.8316044   15.7430364   17.2485936
|  8>     C       15.8066524   14.8135613   16.5000479
|  9>     O       16.7818378   15.5730847   15.7549242
| 10>     C       17.9885455   15.8373706   16.3394386
| 11>     O       18.8046577   14.9386019   16.4413081
| 12>     C       17.9399813   16.9431338   17.3466947
| 13>     C       17.3255528   18.1256938   17.1030578
| 14>     C       16.6351120   18.5477772   15.8231030
| 15>     N       17.3742981   19.1439780   18.0587585
| 16>     C       18.1431664   19.1110965   19.1930249
| 17>     S       18.2356191   20.4045827   20.2190716
| 18>     N       18.8321142   17.9481391   19.4355400
| 19>     C       18.6837809   16.6982402   18.6636747
| 20>     C       17.9902814   15.6196783   19.4947374
| 21>     C       18.4832566   14.3015924   19.4990527
| 22>     C       17.8412391   13.2965909   20.2413994
| 23>     C       16.6942026   13.6101399   20.9895614
| 24>     C       16.1997246   14.9210426   20.9907883
| 25>     O       15.0864897   15.2260314   21.7036624
| 26>     C       16.8417975   15.9192888   20.2515271
| 27>     H       15.3455207   16.3717247   17.9811380
| 28>     H       14.0877003   15.1469707   17.7912567
| 29>     H       14.2940980   16.3884642   16.5442783
| 30>     H       16.3037704   14.1360235   17.2089960
| 31>     H       15.2298329   14.1948680   15.8006141
| 32>     H       15.5780865   18.2597651   15.8326380
| 33>     H       17.0999430   18.0827407   14.9448478
| 34>     H       16.6864911   19.6326152   15.6683252
| 35>     H       16.8810687   20.0074590   17.8951548
| 36>     H       19.3736179   17.9441195   20.2906137
| 37>     H       19.6936502   16.3397007   18.4159877
| 38>     H       19.3617704   14.0512735   18.9082823
| 39>     H       18.2316442   12.2803450   20.2298402
| 40>     H       16.1936454   12.8363289   21.5622027
| 41>     H       14.8275903   14.4306706   22.1931858
| 42>     H       16.4386558   16.9262701   20.2686727
| 43> *
| 44>
| 45>                          ****END OF INPUT****

CARTESIAN COORDINATES (ANGSTROEM)
---------------------------------
  C     14.831604   15.743036   17.248594
  C     15.806652   14.813561   16.500048
  O     16.781838   15.573085   15.754924
  C     17.988546   15.837371   16.339439
  O     18.804658   14.938602   16.441308
  C     17.939981   16.943134   17.346695
  C     17.325553   18.125694   17.103058
  C     16.635112   18.547777   15.823103
  N     17.374298   19.143978   18.058758
  C     18.143166   19.111096   19.193025
  S     18.235619   20.404583   20.219072
  N     18.832114   17.948139   19.435540
  C     18.683781   16.698240   18.663675
  C     17.990281   15.619678   19.494737
  C     18.483257   14.301592   19.499053
  C     17.841239   13.296591   20.241399
  C     16.694203   13.610140   20.989561
  C     16.199725   14.921043   20.990788
  O     15.086490   15.226031   21.703662
  C     16.841797   15.919289   20.251527
  H     15.345521   16.371725   17.981138
  H     14.087700   15.146971   17.791257
  H     14.294098   16.388464   16.544278
  H     16.303770   14.136024   17.208996
  H     15.229833   14.194868   15.800614
  H     15.578086   18.259765   15.832638
  H     17.099943   18.082741   14.944848
  H     16.686491   19.632615   15.668325
  H     16.881069   20.007459   17.895155
  H     19.373618   17.944119   20.290614
  H     19.693650   16.339701   18.415988
  H     19.361770   14.051274   18.908282
  H     18.231644   12.280345   20.229840
  H     16.193645   12.836329   21.562203
  H     14.827590   14.430671   22.193186
  H     16.438656   16.926270   20.268673

 Total Charge           Charge          ....    0
 Multiplicity           Mult            ....    1
 Number of Electrons    NEL             ....  154
 Basis Dimension        Dim             ....  828

ORBITAL ENERGIES
----------------

  NO   OCC          E(Eh)            E(eV)
   0   2.0000     -91.891001     -2500.4813
   1   2.0000     -20.598049      -560.5014
   2   2.0000     -20.579618      -559.9999
   3   2.0000     -20.556977      -559.3838
   4   2.0000     -15.630181      -425.3188
   5   2.0000     -15.610651      -424.7874
   6   2.0000     -11.394510      -310.0604
   7   2.0000     -11.386737      -309.8489
   8   2.0000     -11.333842      -308.4095
   9   2.0000     -11.314500      -307.8832
  10   2.0000     -11.312049      -307.8165
  11   2.0000     -11.301496      -307.5293
  12   2.0000     -11.262170      -306.4592
  13   2.0000     -11.261197      -306.4327
  14   2.0000     -11.261064      -306.4291
  15   2.0000     -11.254527      -306.2512
  16   2.0000     -11.244324      -305.9736
  17   2.0000     -11.240407      -305.8670
  18   2.0000     -11.236686      -305.7658
  19   2.0000     -11.228227      -305.5356
  20   2.0000      -8.896066      -242.0743
  21   2.0000      -6.577642      -178.9868
  22   2.0000      -6.575633      -178.9321
  23   2.0000      -6.575045      -178.9161
  24   2.0000      -1.449587       -39.4453
  25   2.0000      -1.417851       -38.5817
  26   2.0000      -1.354613       -36.8609
  27   2.0000      -1.341565       -36.5058
  28   2.0000      -1.239970       -33.7413
  29   2.0000      -1.158707       -31.5300
  30   2.0000      -1.123509       -30.5722
  31   2.0000      -1.046384       -28.4736
  32   2.0000      -1.032933       -28.1075
  33   2.0000      -1.016528       -27.6611
  34   2.0000      -1.001972       -27.2650
  35   2.0000      -0.988961       -26.9110
  36   2.0000      -0.926107       -25.2007
  37   2.0000      -0.887674       -24.1548
  38   2.0000      -0.850472       -23.1425
  39   2.0000      -0.840851       -22.8807
  40   2.0000      -0.834980       -22.7210
  41   2.0000      -0.825536       -22.4640
  42   2.0000      -0.754473       -20.5302
  43   2.0000      -0.735612       -20.0170
  44   2.0000      -0.729876       -19.8609
  45   2.0000      -0.696758       -18.9597
  46   2.0000      -0.687474       -18.7071
  47   2.0000      -0.678209       -18.4550
  48   2.0000      -0.674998       -18.3676
  49   2.0000      -0.660583       -17.9754
  50   2.0000      -0.654631       -17.8134
  51   2.0000      -0.646051       -17.5799
  52   2.0000      -0.638673       -17.3792
  53   2.0000      -0.609387       -16.5823
  54   2.0000      -0.605620       -16.4798
  55   2.0000      -0.602035       -16.3822
  56   2.0000      -0.592869       -16.1328
  57   2.0000      -0.588284       -16.0080
  58   2.0000      -0.576682       -15.6923
  59   2.0000      -0.573624       -15.6091
  60   2.0000      -0.563931       -15.3454
  61   2.0000      -0.553187       -15.0530
  62   2.0000      -0.544088       -14.8054
  63   2.0000      -0.524065       -14.2605
  64   2.0000      -0.518247       -14.1022
  65   2.0000      -0.512107       -13.9352
  66   2.0000      -0.501928       -13.6582
  67   2.0000      -0.495938       -13.4952
  68   2.0000      -0.484198       -13.1757
  69   2.0000      -0.466105       -12.6834
  70   2.0000      -0.454800       -12.3757
  71   2.0000      -0.453155       -12.3310
  72   2.0000      -0.355778        -9.6812
  73   2.0000      -0.349935        -9.5222
  74   2.0000      -0.330237        -8.9862
  75   2.0000      -0.322186        -8.7671
  76   2.0000      -0.318512        -8.6671
  77   0.0000       0.069664         1.8957
  78   0.0000       0.103277         2.8103
  79   0.0000       0.119291         3.2461
  80   0.0000       0.129301         3.5185
  81   0.0000       0.132658         3.6098

MULLIKEN ATOMIC CHARGES
-----------------------
   0 C :   -0.331058
   1 C :    0.045319
   2 O :   -0.380532
   3 C :    0.457700
   4 O :   -0.387755
   5 C :   -0.209585
   6 C :    0.141894
   7 C :   -0.285152
   8 N :   -0.126797
   9 C :    0.192249
  10 S :   -0.435860
  11 N :   -0.209939
  12 C :    0.065825
  13 C :    0.043374
  14 C :   -0.196899
  15 C :   -0.134276
  16 C :   -0.279898
  17 C :    0.323846
  18 O :   -0.358610
  19 C :   -0.294370
  20 H :    0.108718
  21 H :    0.122629
  22 H :    0.103136
  23 H :    0.102808
  24 H :    0.118550
  25 H :    0.124947
  26 H :    0.126093
  27 H :    0.112442
  28 H :    0.198289
  29 H :    0.196343
  30 H :    0.161335
  31 H :    0.168069
  32 H :    0.163716
  33 H :    0.132200
  34 H :    0.241050
  35 H :    0.180198
Sum of atomic charges:   -0.0000000

LOEWDIN ATOMIC CHARGES
----------------------
   0 C :    0.104411
   1 C :   -0.010131
   2 O :    0.276085
   3 C :   -0.418602
   4 O :    0.135995
   5 C :   -0.092735
   6 C :   -0.077715
   7 C :    0.128661
   8 N :    0.404884
   9 C :   -0.458137
  10 S :   -0.034330
  11 N :    0.397046
  12 C :   -0.044364
  13 C :   -0.042540
  14 C :    0.020534
  15 C :    0.040832
  16 C :   -0.002199
  17 C :   -0.193735
  18 O :    0.394741
  19 C :    0.029594
  20 H :   -0.036413
  21 H :   -0.021490
  22 H :   -0.033475
  23 H :   -0.025986
  24 H :   -0.022190
  25 H :   -0.013276
  26 H :   -0.007271
  27 H :   -0.016936
  28 H :   -0.057747
  29 H :   -0.063845
  30 H :   -0.003265
  31 H :   -0.023248
  32 H :   -0.019545
  33 H :   -0.035114
  34 H :   -0.153522
  35 H :   -0.024973

  Mayer bond orders larger than 0.100000
B(  0-C ,  1-C ) :   0.9620 B(  0-C , 20-H ) :   0.9711 B(  0-C , 21-H ) :   0.9774
B(  0-C , 22-H ) :   0.9782 B(  1-C ,  2-O ) :   0.8880 B(  1-C , 23-H ) :   0.9705
B(  1-C , 24-H ) :   0.9844 B(  2-O ,  3-C ) :   1.0977 B(  3-C ,  4-O ) :   2.0537
B(  3-C ,  5-C ) :   0.9887 B(  5-C ,  6-C ) :   1.6712 B(  5-C , 12-C ) :   0.9553
B(  6-C ,  7-C ) :   0.9551 B(  6-C ,  8-N ) :   1.1297 B(  7-C , 25-H ) :   0.9621
B(  7-C , 26-H ) :   0.9708 B(  7-C , 27-H ) :   0.9846 B(  8-N ,  9-C ) :   1.1849
B(  8-N , 28-H ) :   0.9502 B(  9-C , 10-S ) :   1.6167 B(  9-C , 11-N ) :   1.2919
B( 11-N , 12-C ) :   0.9869 B( 11-N , 29-H ) :   0.9510 B( 12-C , 13-C ) :   0.9478
B( 12-C , 30-H ) :   0.9976 B( 13-C , 14-C ) :   1.3833 B( 13-C , 19-C ) :   1.3410
B( 14-C , 15-C ) :   1.3985 B( 14-C , 31-H ) :   0.9600 B( 15-C , 16-C ) :   1.3609
B( 15-C , 32-H ) :   0.9703 B( 16-C , 17-C ) :   1.3315 B( 16-C , 33-H ) :   0.9844
B( 17-C , 18-O ) :   1.1101 B( 17-C , 19-C ) :   1.3675 B( 18-O , 34-H ) :   0.9798
B( 19-C , 35-H ) :   0.9541

MP2 TOTAL ENERGY:    -1274.321044854 Eh
FINAL SINGLE POINT ENERGY     -1274.321044854099

DIPOLE MOMENT
-------------
                                X             Y             Z
Electronic contribution:      9.91181       6.75594       5.81156
Nuclear contribution   :    -11.13854      -7.97463      -6.32440
                        -----------------------------------------
Total Dipole Moment    :     -1.22673      -1.21869      -0.51284
                        -----------------------------------------
Magnitude (a.u.)       :      1.80363
Magnitude (Debye)      :      4.58445

Rotational constants in cm-1:     0.012028     0.009615     0.007021
Rotational constants in MHz :   360.586943   288.243392   210.490211

                             ****ORCA TERMINATED NORMALLY****
TOTAL RUN TIME: 0 days 1 hours 50 minutes 32 seconds 340 msec
