                         Program Version 4.2.0 -  RELEASE  -
|  1> ! ri-mp2 cc-pvtz cc-pvtz/c TightSCF  NoKeepInts
|  2>
|  3> %scf
|  4>   MaxCore 4096
|  5> end
|  6> *xyz  0  1
|  7>     C       15.0131789   16.0288921   17.3561199
|  8>     C       15.7121352   14.6718171   17.1112492
|  9>     O       17.0915944   14.7151231   16.6525105
| 10>     C       17.8647444   15.8071866   16.3530488
| 11>     O       18.3589826   15.9064946   15.2452467
| 12>     C       17.8495591   16.9537592   17.3162054
| 13>     C       17.5883058   18.2143769   16.8947709
| 14>     C       17.1699517   18.6323908   15.5013629
| 15>     N       17.6904986   19.2885217   17.7814823
| 16>     C       18.0647927   19.1863733   19.0946306
| 17>     S       18.1148632   20.5029068   20.0938187
| 18>     N       18.3889514   17.9321180   19.5467726
| 19>     C       18.3820030   16.6955235   18.7406297
| 20>     C       17.7512936   15.5359434   19.5136630
| 21>     C       18.3064977   14.2454359   19.4145740
| 22>     C       17.7576444   13.1689518   20.1309993
| 23>     C       16.6497493   13.3831402   20.9675437
| 24>     C       16.1039069   14.6677564   21.0861380
| 25>     O       15.0346262   14.8797755   21.8932453
| 26>     C       16.6522005   15.7375623   20.3715182
| 27>     H       15.4388834   16.5866535   18.1929453
| 28>     H       13.9569283   15.8569723   17.5966565
| 29>     H       15.0425910   16.6524877   16.4557026
| 30>     H       15.6666920   14.0816902   18.0357100
| 31>     H       15.1275842   14.1225686   16.3618925
| 32>     H       16.5306432   17.8767999   15.0292038
| 33>     H       18.0530869   18.7494460   14.8600615
| 34>     H       16.6154256   19.5782487   15.4955061
| 35>     H       17.4755558   20.2199822   17.4624084
| 36>     H       18.6395981   17.8853368   20.5266595
| 37>     H       19.4390341   16.4234824   18.6080685
| 38>     H       19.1609051   14.0715212   18.7648511
| 39>     H       18.1912242   12.1746546   20.0352492
| 40>     H       16.2223676   12.5541420   21.5223907
| 41>     H       14.8312454   14.0419069   22.3363289
| 42>     H       16.2097553   16.7220578   20.4848361
| 43> *
| 44>
| 45>                          ****END OF INPUT****

CARTESIAN COORDINATES (ANGSTROEM)
---------------------------------
  C     15.013179   16.028892   17.356120
  C     15.712135   14.671817   17.111249
  O     17.091594   14.715123   16.652511
  C     17.864744   15.807187   16.353049
  O     18.358983   15.906495   15.245247
  C     17.849559   16.953759   17.316205
  C     17.588306   18.214377   16.894771
  C     17.169952   18.632391   15.501363
  N     17.690499   19.288522   17.781482
  C     18.064793   19.186373   19.094631
  S     18.114863   20.502907   20.093819
  N     18.388951   17.932118   19.546773
  C     18.382003   16.695524   18.740630
  C     17.751294   15.535943   19.513663
  C     18.306498   14.245436   19.414574
  C     17.757644   13.168952   20.130999
  C     16.649749   13.383140   20.967544
  C     16.103907   14.667756   21.086138
  O     15.034626   14.879775   21.893245
  C     16.652200   15.737562   20.371518
  H     15.438883   16.586654   18.192945
  H     13.956928   15.856972   17.596657
  H     15.042591   16.652488   16.455703
  H     15.666692   14.081690   18.035710
  H     15.127584   14.122569   16.361892
  H     16.530643   17.876800   15.029204
  H     18.053087   18.749446   14.860062
  H     16.615426   19.578249   15.495506
  H     17.475556   20.219982   17.462408
  H     18.639598   17.885337   20.526660
  H     19.439034   16.423482   18.608069
  H     19.160905   14.071521   18.764851
  H     18.191224   12.174655   20.035249
  H     16.222368   12.554142   21.522391
  H     14.831245   14.041907   22.336329
  H     16.209755   16.722058   20.484836

 Total Charge           Charge          ....    0
 Multiplicity           Mult            ....    1
 Number of Electrons    NEL             ....  154
 Basis Dimension        Dim             ....  828

ORBITAL ENERGIES
----------------

  NO   OCC          E(Eh)            E(eV)
   0   2.0000     -91.890641     -2500.4715
   1   2.0000     -20.603555      -560.6512
   2   2.0000     -20.584957      -560.1452
   3   2.0000     -20.551204      -559.2267
   4   2.0000     -15.627296      -425.2403
   5   2.0000     -15.612268      -424.8314
   6   2.0000     -11.395765      -310.0945
   7   2.0000     -11.386765      -309.8496
   8   2.0000     -11.328925      -308.2757
   9   2.0000     -11.320971      -308.0593
  10   2.0000     -11.318692      -307.9973
  11   2.0000     -11.305689      -307.6435
  12   2.0000     -11.270549      -306.6872
  13   2.0000     -11.261555      -306.4425
  14   2.0000     -11.259993      -306.4000
  15   2.0000     -11.256360      -306.3011
  16   2.0000     -11.250756      -306.1486
  17   2.0000     -11.247278      -306.0540
  18   2.0000     -11.245922      -306.0171
  19   2.0000     -11.234970      -305.7191
  20   2.0000      -8.895744      -242.0655
  21   2.0000      -6.577329      -178.9782
  22   2.0000      -6.575307      -178.9232
  23   2.0000      -6.574728      -178.9074
  24   2.0000      -1.440230       -39.1907
  25   2.0000      -1.423438       -38.7337
  26   2.0000      -1.351905       -36.7872
  27   2.0000      -1.340292       -36.4712
  28   2.0000      -1.240941       -33.7677
  29   2.0000      -1.164449       -31.6863
  30   2.0000      -1.122794       -30.5528
  31   2.0000      -1.049307       -28.5531
  32   2.0000      -1.036595       -28.2072
  33   2.0000      -1.022940       -27.8356
  34   2.0000      -1.003147       -27.2970
  35   2.0000      -0.989336       -26.9212
  36   2.0000      -0.927500       -25.2386
  37   2.0000      -0.900428       -24.5019
  38   2.0000      -0.851604       -23.1733
  39   2.0000      -0.843710       -22.9585
  40   2.0000      -0.839901       -22.8549
  41   2.0000      -0.827618       -22.5206
  42   2.0000      -0.747140       -20.3307
  43   2.0000      -0.737454       -20.0671
  44   2.0000      -0.723118       -19.6770
  45   2.0000      -0.701964       -19.1014
  46   2.0000      -0.688257       -18.7284
  47   2.0000      -0.676871       -18.4186
  48   2.0000      -0.674085       -18.3428
  49   2.0000      -0.661132       -17.9903
  50   2.0000      -0.657638       -17.8952
  51   2.0000      -0.650229       -17.6936
  52   2.0000      -0.638661       -17.3788
  53   2.0000      -0.620063       -16.8728
  54   2.0000      -0.612888       -16.6775
  55   2.0000      -0.606690       -16.5089
  56   2.0000      -0.603140       -16.4123
  57   2.0000      -0.581919       -15.8348
  58   2.0000      -0.578088       -15.7306
  59   2.0000      -0.567739       -15.4490
  60   2.0000      -0.565654       -15.3922
  61   2.0000      -0.555644       -15.1198
  62   2.0000      -0.542561       -14.7638
  63   2.0000      -0.531073       -14.4512
  64   2.0000      -0.525554       -14.3010
  65   2.0000      -0.515773       -14.0349
  66   2.0000      -0.505225       -13.7479
  67   2.0000      -0.492348       -13.3975
  68   2.0000      -0.486242       -13.2313
  69   2.0000      -0.468868       -12.7585
  70   2.0000      -0.453964       -12.3530
  71   2.0000      -0.446517       -12.1503
  72   2.0000      -0.359215        -9.7747
  73   2.0000      -0.348396        -9.4803
  74   2.0000      -0.330339        -8.9890
  75   2.0000      -0.327623        -8.9151
  76   2.0000      -0.319651        -8.6981
  77   0.0000       0.083457         2.2710
  78   0.0000       0.098617         2.6835
  79   0.0000       0.119254         3.2451
  80   0.0000       0.125473         3.4143
  81   0.0000       0.128350         3.4926

MULLIKEN ATOMIC CHARGES
-----------------------
   0 C :   -0.339734
   1 C :    0.033302
   2 O :   -0.348203
   3 C :    0.398666
   4 O :   -0.366997
   5 C :   -0.233575
   6 C :    0.168387
   7 C :   -0.290237
   8 N :   -0.135659
   9 C :    0.214871
  10 S :   -0.441873
  11 N :   -0.233158
  12 C :    0.097652
  13 C :   -0.001252
  14 C :   -0.183853
  15 C :   -0.132017
  16 C :   -0.282842
  17 C :    0.325509
  18 O :   -0.356483
  19 C :   -0.276936
  20 H :    0.113551
  21 H :    0.128772
  22 H :    0.103726
  23 H :    0.108490
  24 H :    0.127163
  25 H :    0.118666
  26 H :    0.146225
  27 H :    0.099237
  28 H :    0.196638
  29 H :    0.206967
  30 H :    0.159644
  31 H :    0.149092
  32 H :    0.163951
  33 H :    0.134049
  34 H :    0.242379
  35 H :    0.185881
Sum of atomic charges:   -0.0000000

LOEWDIN ATOMIC CHARGES
----------------------
   0 C :    0.103915
   1 C :   -0.009953
   2 O :    0.288132
   3 C :   -0.423632
   4 O :    0.131427
   5 C :   -0.089062
   6 C :   -0.080137
   7 C :    0.128621
   8 N :    0.405128
   9 C :   -0.456153
  10 S :   -0.037104
  11 N :    0.396183
  12 C :   -0.050772
  13 C :   -0.040334
  14 C :    0.023861
  15 C :    0.043507
  16 C :   -0.001027
  17 C :   -0.195367
  18 O :    0.396271
  19 C :    0.027031
  20 H :   -0.035422
  21 H :   -0.019225
  22 H :   -0.031111
  23 H :   -0.025357
  24 H :   -0.023851
  25 H :   -0.012122
  26 H :   -0.003684
  27 H :   -0.020982
  28 H :   -0.057541
  29 H :   -0.064736
  30 H :   -0.011455
  31 H :   -0.026153
  32 H :   -0.018217
  33 H :   -0.033775
  34 H :   -0.152195
  35 H :   -0.024706

  Mayer bond orders larger than 0.100000
B(  0-C ,  1-C ) :   0.9628 B(  0-C , 20-H ) :   0.9676 B(  0-C , 21-H ) :   0.9747
B(  0-C , 22-H ) :   0.9747 B(  1-C ,  2-O ) :   0.8982 B(  1-C , 23-H ) :   0.9708
B(  1-C , 24-H ) :   0.9822 B(  2-O ,  3-C ) :   1.1573 B(  3-C ,  4-O ) :   2.1047
B(  3-C ,  5-C ) :   0.9193 B(  5-C ,  6-C ) :   1.7024 B(  5-C , 12-C ) :   0.9551
B(  6-C ,  7-C ) :   0.9501 B(  6-C ,  8-N ) :   1.1388 B(  7-C , 25-H ) :   0.9726
B(  7-C , 26-H ) :   0.9588 B(  7-C , 27-H ) :   0.9851 B(  8-N ,  9-C ) :   1.2023
B(  8-N , 28-H ) :   0.9502 B(  9-C , 10-S ) :   1.6041 B(  9-C , 11-N ) :   1.2913
B( 11-N , 12-C ) :   0.9843 B( 11-N , 29-H ) :   0.9417 B( 12-C , 13-C ) :   0.9490
B( 12-C , 30-H ) :   1.0002 B( 13-C , 14-C ) :   1.3733 B( 13-C , 19-C ) :   1.3397
B( 14-C , 15-C ) :   1.4076 B( 14-C , 31-H ) :   0.9743 B( 15-C , 16-C ) :   1.3504
B( 15-C , 32-H ) :   0.9701 B( 16-C , 17-C ) :   1.3361 B( 16-C , 33-H ) :   0.9843
B( 17-C , 18-O ) :   1.1089 B( 17-C , 19-C ) :   1.3585 B( 18-O , 34-H ) :   0.9783
B( 19-C , 35-H ) :   0.9519

MP2 TOTAL ENERGY:    -1274.317327236 Eh
FINAL SINGLE POINT ENERGY     -1274.317327236487

DIPOLE MOMENT
-------------
                                X             Y             Z
Electronic contribution:      8.38324       5.64022       5.88106
Nuclear contribution   :     -9.49677      -7.19112      -5.80514
                        -----------------------------------------
Total Dipole Moment    :     -1.11353      -1.55090       0.07592
                        -----------------------------------------
Magnitude (a.u.)       :      1.91076
Magnitude (Debye)      :      4.85677

Rotational constants in cm-1:     0.012932     0.009065     0.006457
Rotational constants in MHz :   387.679390   271.775108   193.577683

                             ****ORCA TERMINATED NORMALLY****
TOTAL RUN TIME: 0 days 2 hours 45 minutes 6 seconds 262 msec
