                         Program Version 4.2.0 -  RELEASE  -
|  1> ! ri-mp2 cc-pvtz cc-pvtz/c TightSCF  NoKeepInts
|  2>
|  3> %scf
|  4>   MaxCore 4096
|  5> end
|  6> *xyz  0  1
|  7>     C       15.0133576   14.0559344   16.6089432
|  8>     C       16.4524051   13.9933222   16.0500014
|  9>     O       17.2645462   15.0573251   16.5875880
| 10>     C       16.8863953   16.3706225   16.5093137
| 11>     O       16.0782481   16.7720545   15.6893437
| 12>     C       17.6523247   17.2475691   17.4604389
| 13>     C       17.5621333   18.6015045   17.4388476
| 14>     C       16.7331357   19.4497862   16.4983717
| 15>     N       18.3087009   19.3685604   18.3381425
| 16>     C       19.2164208   18.8675652   19.2325043
| 17>     S       20.1106785   19.8524421   20.2155001
| 18>     N       19.3470722   17.5029709   19.2737399
| 19>     C       18.5251324   16.5444560   18.5125864
| 20>     C       17.6842207   15.7054455   19.4708154
| 21>     C       17.9272910   14.3264569   19.6141787
| 22>     C       17.1452484   13.5493429   20.4851566
| 23>     C       16.1133342   14.1561397   21.2212549
| 24>     C       15.8717202   15.5300040   21.0845597
| 25>     O       14.8761980   16.1187588   21.7939054
| 26>     C       16.6513811   16.3006661   20.2166772
| 27>     H       15.0270373   14.1421174   17.7030521
| 28>     H       14.4657591   13.1427595   16.3470199
| 29>     H       14.4528530   14.9045017   16.1989368
| 30>     H       16.9041541   13.0286946   16.3141245
| 31>     H       16.4197876   14.0646097   14.9545629
| 32>     H       17.0026369   19.2446123   15.4544961
| 33>     H       16.8590178   20.5256916   16.6666825
| 34>     H       15.6661271   19.2189034   16.6117021
| 35>     H       18.2257163   20.3725097   18.3232254
| 36>     H       19.9946854   17.1618534   19.9723634
| 37>     H       19.2161496   15.8766020   17.9792645
| 38>     H       18.7199547   13.8537388   19.0405126
| 39>     H       17.3393579   12.4830775   20.5872188
| 40>     H       15.5066692   13.5603353   21.8952498
| 41>     H       14.4755579   15.4378237   22.3548153
| 42>     H       16.4515916   17.3632424   20.1289043
| 43> *
| 44>
| 45>                          ****END OF INPUT****

CARTESIAN COORDINATES (ANGSTROEM)
---------------------------------
  C     15.013358   14.055934   16.608943
  C     16.452405   13.993322   16.050001
  O     17.264546   15.057325   16.587588
  C     16.886395   16.370622   16.509314
  O     16.078248   16.772054   15.689344
  C     17.652325   17.247569   17.460439
  C     17.562133   18.601505   17.438848
  C     16.733136   19.449786   16.498372
  N     18.308701   19.368560   18.338143
  C     19.216421   18.867565   19.232504
  S     20.110678   19.852442   20.215500
  N     19.347072   17.502971   19.273740
  C     18.525132   16.544456   18.512586
  C     17.684221   15.705445   19.470815
  C     17.927291   14.326457   19.614179
  C     17.145248   13.549343   20.485157
  C     16.113334   14.156140   21.221255
  C     15.871720   15.530004   21.084560
  O     14.876198   16.118759   21.793905
  C     16.651381   16.300666   20.216677
  H     15.027037   14.142117   17.703052
  H     14.465759   13.142759   16.347020
  H     14.452853   14.904502   16.198937
  H     16.904154   13.028695   16.314124
  H     16.419788   14.064610   14.954563
  H     17.002637   19.244612   15.454496
  H     16.859018   20.525692   16.666683
  H     15.666127   19.218903   16.611702
  H     18.225716   20.372510   18.323225
  H     19.994685   17.161853   19.972363
  H     19.216150   15.876602   17.979264
  H     18.719955   13.853739   19.040513
  H     17.339358   12.483078   20.587219
  H     15.506669   13.560335   21.895250
  H     14.475558   15.437824   22.354815
  H     16.451592   17.363242   20.128904

 Total Charge           Charge          ....    0
 Multiplicity           Mult            ....    1
 Number of Electrons    NEL             ....  154
 Basis Dimension        Dim             ....  828

ORBITAL ENERGIES
----------------

  NO   OCC          E(Eh)            E(eV)
   0   2.0000     -91.888621     -2500.4165
   1   2.0000     -20.598640      -560.5175
   2   2.0000     -20.597156      -560.4771
   3   2.0000     -20.541448      -558.9612
   4   2.0000     -15.628687      -425.2782
   5   2.0000     -15.608092      -424.7178
   6   2.0000     -11.395323      -310.0825
   7   2.0000     -11.383831      -309.7698
   8   2.0000     -11.335596      -308.4572
   9   2.0000     -11.314480      -307.8827
  10   2.0000     -11.308469      -307.7191
  11   2.0000     -11.299374      -307.4716
  12   2.0000     -11.260130      -306.4037
  13   2.0000     -11.258525      -306.3600
  14   2.0000     -11.255821      -306.2865
  15   2.0000     -11.251830      -306.1779
  16   2.0000     -11.243885      -305.9617
  17   2.0000     -11.239188      -305.8339
  18   2.0000     -11.238759      -305.8222
  19   2.0000     -11.221838      -305.3617
  20   2.0000      -8.893689      -242.0096
  21   2.0000      -6.575265      -178.9221
  22   2.0000      -6.573259      -178.8675
  23   2.0000      -6.572673      -178.8515
  24   2.0000      -1.448432       -39.4138
  25   2.0000      -1.416846       -38.5543
  26   2.0000      -1.353763       -36.8378
  27   2.0000      -1.339668       -36.4542
  28   2.0000      -1.238238       -33.6942
  29   2.0000      -1.158274       -31.5182
  30   2.0000      -1.120356       -30.4864
  31   2.0000      -1.042977       -28.3809
  32   2.0000      -1.034648       -28.1542
  33   2.0000      -1.015686       -27.6382
  34   2.0000      -0.995242       -27.0819
  35   2.0000      -0.984012       -26.7763
  36   2.0000      -0.922503       -25.1026
  37   2.0000      -0.896583       -24.3973
  38   2.0000      -0.846951       -23.0467
  39   2.0000      -0.838081       -22.8053
  40   2.0000      -0.834656       -22.7121
  41   2.0000      -0.816466       -22.2172
  42   2.0000      -0.750246       -20.4152
  43   2.0000      -0.732591       -19.9348
  44   2.0000      -0.722689       -19.6654
  45   2.0000      -0.696165       -18.9436
  46   2.0000      -0.688491       -18.7348
  47   2.0000      -0.677647       -18.4397
  48   2.0000      -0.670950       -18.2575
  49   2.0000      -0.659305       -17.9406
  50   2.0000      -0.649547       -17.6751
  51   2.0000      -0.640907       -17.4400
  52   2.0000      -0.633271       -17.2322
  53   2.0000      -0.614736       -16.7278
  54   2.0000      -0.607153       -16.5215
  55   2.0000      -0.600373       -16.3370
  56   2.0000      -0.598941       -16.2980
  57   2.0000      -0.577807       -15.7229
  58   2.0000      -0.570650       -15.5282
  59   2.0000      -0.568522       -15.4703
  60   2.0000      -0.559285       -15.2189
  61   2.0000      -0.542891       -14.7728
  62   2.0000      -0.534749       -14.5512
  63   2.0000      -0.525520       -14.3001
  64   2.0000      -0.523048       -14.2328
  65   2.0000      -0.513194       -13.9647
  66   2.0000      -0.501819       -13.6552
  67   2.0000      -0.499895       -13.6028
  68   2.0000      -0.483500       -13.1567
  69   2.0000      -0.464220       -12.6321
  70   2.0000      -0.454646       -12.3715
  71   2.0000      -0.444722       -12.1015
  72   2.0000      -0.353847        -9.6287
  73   2.0000      -0.350024        -9.5246
  74   2.0000      -0.328109        -8.9283
  75   2.0000      -0.321970        -8.7613
  76   2.0000      -0.315989        -8.5985
  77   0.0000       0.076312         2.0766
  78   0.0000       0.105906         2.8818
  79   0.0000       0.125015         3.4018
  80   0.0000       0.132394         3.6026
  81   0.0000       0.137620         3.7448

MULLIKEN ATOMIC CHARGES
-----------------------
   0 C :   -0.317029
   1 C :    0.028317
   2 O :   -0.361169
   3 C :    0.470959
   4 O :   -0.436311
   5 C :   -0.225069
   6 C :    0.152070
   7 C :   -0.273345
   8 N :   -0.120010
   9 C :    0.211659
  10 S :   -0.440674
  11 N :   -0.206154
  12 C :    0.065929
  13 C :    0.052561
  14 C :   -0.186225
  15 C :   -0.132359
  16 C :   -0.278783
  17 C :    0.314424
  18 O :   -0.356551
  19 C :   -0.264561
  20 H :    0.108504
  21 H :    0.096759
  22 H :    0.124562
  23 H :    0.111048
  24 H :    0.111379
  25 H :    0.131417
  26 H :    0.095209
  27 H :    0.131396
  28 H :    0.196935
  29 H :    0.195111
  30 H :    0.150644
  31 H :    0.151840
  32 H :    0.160373
  33 H :    0.130628
  34 H :    0.240722
  35 H :    0.165795
Sum of atomic charges:   -0.0000000

LOEWDIN ATOMIC CHARGES
----------------------
   0 C :    0.104884
   1 C :   -0.015273
   2 O :    0.302752
   3 C :   -0.412941
   4 O :    0.098629
   5 C :   -0.094033
   6 C :   -0.059346
   7 C :    0.131520
   8 N :    0.406489
   9 C :   -0.456255
  10 S :   -0.036055
  11 N :    0.396476
  12 C :   -0.051977
  13 C :   -0.039702
  14 C :    0.014484
  15 C :    0.038688
  16 C :   -0.002053
  17 C :   -0.190273
  18 O :    0.395582
  19 C :    0.031278
  20 H :   -0.026293
  21 H :   -0.027562
  22 H :   -0.026250
  23 H :   -0.025122
  24 H :   -0.028102
  25 H :   -0.003873
  26 H :   -0.023455
  27 H :   -0.004778
  28 H :   -0.057632
  29 H :   -0.064542
  30 H :   -0.011476
  31 H :   -0.029864
  32 H :   -0.021348
  33 H :   -0.035406
  34 H :   -0.153802
  35 H :   -0.023366

  Mayer bond orders larger than 0.100000
B(  0-C ,  1-C ) :   0.9581 B(  0-C , 20-H ) :   0.9717 B(  0-C , 21-H ) :   0.9778
B(  0-C , 22-H ) :   0.9733 B(  1-C ,  2-O ) :   0.8970 B(  1-C , 23-H ) :   0.9842
B(  1-C , 24-H ) :   0.9839 B(  2-O ,  3-C ) :   1.1600 B(  3-C ,  4-O ) :   1.9665
B(  3-C ,  5-C ) :   1.0566 B(  5-C ,  6-C ) :   1.6542 B(  5-C , 12-C ) :   0.9706
B(  6-C ,  7-C ) :   0.9664 B(  6-C ,  8-N ) :   1.1652 B(  7-C , 25-H ) :   0.9605
B(  7-C , 26-H ) :   0.9903 B(  7-C , 27-H ) :   0.9605 B(  8-N ,  9-C ) :   1.1839
B(  8-N , 28-H ) :   0.9478 B(  9-C , 10-S ) :   1.6065 B(  9-C , 11-N ) :   1.3055
B( 11-N , 12-C ) :   0.9893 B( 11-N , 29-H ) :   0.9512 B( 12-C , 13-C ) :   0.9343
B( 12-C , 30-H ) :   1.0021 B( 13-C , 14-C ) :   1.3558 B( 13-C , 19-C ) :   1.3835
B( 14-C , 15-C ) :   1.3912 B( 14-C , 31-H ) :   0.9712 B( 15-C , 16-C ) :   1.3618
B( 15-C , 32-H ) :   0.9709 B( 16-C , 17-C ) :   1.3315 B( 16-C , 33-H ) :   0.9850
B( 17-C , 18-O ) :   1.1107 B( 17-C , 19-C ) :   1.3706 B( 18-O , 34-H ) :   0.9798
B( 19-C , 35-H ) :   0.9581

MP2 TOTAL ENERGY:    -1274.348512657 Eh
FINAL SINGLE POINT ENERGY     -1274.348512657353

DIPOLE MOMENT
-------------
                                X             Y             Z
Electronic contribution:     10.13237      10.02007       7.48842
Nuclear contribution   :    -11.14568     -11.77186      -7.87456
                        -----------------------------------------
Total Dipole Moment    :     -1.01331      -1.75178      -0.38614
                        -----------------------------------------
Magnitude (a.u.)       :      2.06026
Magnitude (Debye)      :      5.23675

Rotational constants in cm-1:     0.012236     0.008677     0.006271
Rotational constants in MHz :   366.836528   260.143617   187.985159

                             ****ORCA TERMINATED NORMALLY****
TOTAL RUN TIME: 0 days 1 hours 42 minutes 53 seconds 873 msec
