                         Program Version 4.2.0 -  RELEASE  -
|  1> ! ri-mp2 cc-pvtz cc-pvtz/c TightSCF  NoKeepInts
|  2>
|  3> %scf
|  4>   MaxCore 4096
|  5> end
|  6> *xyz  0  1
|  7>     C       14.9937118   13.9642240   15.8510439
|  8>     C       15.6752283   15.0427220   14.9786090
|  9>     O       16.3129334   16.0579607   15.7845315
| 10>     C       17.2232940   15.7618726   16.7604080
| 11>     O       17.7400931   14.6614959   16.8631229
| 12>     C       17.6674059   16.9322030   17.5955994
| 13>     C       17.2697672   18.2229032   17.4312178
| 14>     C       16.3006748   18.7887999   16.4128484
| 15>     N       17.8143196   19.2251686   18.2419626
| 16>     C       18.8477138   19.0484672   19.1232462
| 17>     S       19.5211236   20.3169318   19.9437693
| 18>     N       19.2928784   17.7624786   19.2901801
| 19>     C       18.6422180   16.5672949   18.7224181
| 20>     C       17.9409903   15.7687880   19.8186851
| 21>     C       18.2291342   14.4034204   20.0001634
| 22>     C       17.5847788   13.6620582   21.0046879
| 23>     C       16.6429526   14.2905164   21.8368716
| 24>     C       16.3501554   15.6492326   21.6574926
| 25>     O       15.4365924   16.2575798   22.4554417
| 26>     C       16.9927268   16.3843593   20.6563886
| 27>     H       15.7251461   13.2974673   16.3229702
| 28>     H       14.3348807   13.3410797   15.2344544
| 29>     H       14.3848865   14.4268893   16.6376244
| 30>     H       16.4181700   14.5630064   14.3274243
| 31>     H       14.9224751   15.5181188   14.3368583
| 32>     H       16.6558122   18.5996200   15.3921745
| 33>     H       16.1633852   19.8722620   16.5127476
| 34>     H       15.3115988   18.3263246   16.5203692
| 35>     H       17.5013647   20.1766067   18.1342932
| 36>     H       20.0341021   17.6523112   19.9700980
| 37>     H       19.4326216   15.9365982   18.2902317
| 38>     H       18.9443171   13.9106665   19.3459058
| 39>     H       17.8122943   12.6050146   21.1298390
| 40>     H       16.1415215   13.7212575   22.6123592
| 41>     H       15.1323119   15.6008687   23.0995516
| 42>     H       16.7534197   17.4354312   20.5384105
| 43> *
| 44>
| 45>                          ****END OF INPUT****

CARTESIAN COORDINATES (ANGSTROEM)
---------------------------------
  C     14.993712   13.964224   15.851044
  C     15.675228   15.042722   14.978609
  O     16.312933   16.057961   15.784531
  C     17.223294   15.761873   16.760408
  O     17.740093   14.661496   16.863123
  C     17.667406   16.932203   17.595599
  C     17.269767   18.222903   17.431218
  C     16.300675   18.788800   16.412848
  N     17.814320   19.225169   18.241963
  C     18.847714   19.048467   19.123246
  S     19.521124   20.316932   19.943769
  N     19.292878   17.762479   19.290180
  C     18.642218   16.567295   18.722418
  C     17.940990   15.768788   19.818685
  C     18.229134   14.403420   20.000163
  C     17.584779   13.662058   21.004688
  C     16.642953   14.290516   21.836872
  C     16.350155   15.649233   21.657493
  O     15.436592   16.257580   22.455442
  C     16.992727   16.384359   20.656389
  H     15.725146   13.297467   16.322970
  H     14.334881   13.341080   15.234454
  H     14.384886   14.426889   16.637624
  H     16.418170   14.563006   14.327424
  H     14.922475   15.518119   14.336858
  H     16.655812   18.599620   15.392174
  H     16.163385   19.872262   16.512748
  H     15.311599   18.326325   16.520369
  H     17.501365   20.176607   18.134293
  H     20.034102   17.652311   19.970098
  H     19.432622   15.936598   18.290232
  H     18.944317   13.910666   19.345906
  H     17.812294   12.605015   21.129839
  H     16.141521   13.721258   22.612359
  H     15.132312   15.600869   23.099552
  H     16.753420   17.435431   20.538411

 Total Charge           Charge          ....    0
 Multiplicity           Mult            ....    1
 Number of Electrons    NEL             ....  154
 Basis Dimension        Dim             ....  828

ORBITAL ENERGIES
----------------

  NO   OCC          E(Eh)            E(eV)
   0   2.0000     -91.887905     -2500.3970
   1   2.0000     -20.602935      -560.6344
   2   2.0000     -20.590970      -560.3088
   3   2.0000     -20.544022      -559.0313
   4   2.0000     -15.628433      -425.2713
   5   2.0000     -15.606345      -424.6702
   6   2.0000     -11.397186      -310.1332
   7   2.0000     -11.382519      -309.7341
   8   2.0000     -11.337204      -308.5010
   9   2.0000     -11.306713      -307.6713
  10   2.0000     -11.304534      -307.6120
  11   2.0000     -11.304059      -307.5991
  12   2.0000     -11.260876      -306.4240
  13   2.0000     -11.258425      -306.3573
  14   2.0000     -11.252630      -306.1996
  15   2.0000     -11.246805      -306.0411
  16   2.0000     -11.236489      -305.7604
  17   2.0000     -11.232694      -305.6571
  18   2.0000     -11.229473      -305.5695
  19   2.0000     -11.225533      -305.4623
  20   2.0000      -8.892964      -241.9899
  21   2.0000      -6.574541      -178.9024
  22   2.0000      -6.572536      -178.8478
  23   2.0000      -6.571949      -178.8318
  24   2.0000      -1.451310       -39.4922
  25   2.0000      -1.410708       -38.3873
  26   2.0000      -1.356460       -36.9112
  27   2.0000      -1.339323       -36.4448
  28   2.0000      -1.236749       -33.6536
  29   2.0000      -1.151328       -31.3292
  30   2.0000      -1.118631       -30.4395
  31   2.0000      -1.041393       -28.3377
  32   2.0000      -1.033923       -28.1345
  33   2.0000      -1.008725       -27.4488
  34   2.0000      -0.996864       -27.1260
  35   2.0000      -0.982286       -26.7293
  36   2.0000      -0.920954       -25.0604
  37   2.0000      -0.896480       -24.3945
  38   2.0000      -0.847705       -23.0672
  39   2.0000      -0.835062       -22.7232
  40   2.0000      -0.827067       -22.5056
  41   2.0000      -0.816084       -22.2068
  42   2.0000      -0.748402       -20.3650
  43   2.0000      -0.733629       -19.9631
  44   2.0000      -0.724103       -19.7038
  45   2.0000      -0.689930       -18.7739
  46   2.0000      -0.685089       -18.6422
  47   2.0000      -0.678686       -18.4680
  48   2.0000      -0.670929       -18.2569
  49   2.0000      -0.656695       -17.8696
  50   2.0000      -0.650100       -17.6901
  51   2.0000      -0.643766       -17.5178
  52   2.0000      -0.631124       -17.1738
  53   2.0000      -0.613707       -16.6998
  54   2.0000      -0.599839       -16.3224
  55   2.0000      -0.598834       -16.2951
  56   2.0000      -0.594445       -16.1757
  57   2.0000      -0.581887       -15.8340
  58   2.0000      -0.572789       -15.5864
  59   2.0000      -0.565330       -15.3834
  60   2.0000      -0.558225       -15.1901
  61   2.0000      -0.542155       -14.7528
  62   2.0000      -0.538594       -14.6559
  63   2.0000      -0.524414       -14.2700
  64   2.0000      -0.515933       -14.0393
  65   2.0000      -0.509993       -13.8776
  66   2.0000      -0.501207       -13.6385
  67   2.0000      -0.494908       -13.4671
  68   2.0000      -0.479611       -13.0509
  69   2.0000      -0.463617       -12.6156
  70   2.0000      -0.456591       -12.4245
  71   2.0000      -0.450446       -12.2573
  72   2.0000      -0.354018        -9.6333
  73   2.0000      -0.343367        -9.3435
  74   2.0000      -0.326987        -8.8978
  75   2.0000      -0.315341        -8.5809
  76   2.0000      -0.312832        -8.5126
  77   0.0000       0.075517         2.0549
  78   0.0000       0.114245         3.1088
  79   0.0000       0.121925         3.3178
  80   0.0000       0.136649         3.7184
  81   0.0000       0.140946         3.8353

MULLIKEN ATOMIC CHARGES
-----------------------
   0 C :   -0.308343
   1 C :    0.040470
   2 O :   -0.347801
   3 C :    0.459820
   4 O :   -0.439569
   5 C :   -0.177634
   6 C :    0.143360
   7 C :   -0.281160
   8 N :   -0.119801
   9 C :    0.201057
  10 S :   -0.439004
  11 N :   -0.196765
  12 C :    0.033982
  13 C :    0.060147
  14 C :   -0.162015
  15 C :   -0.134006
  16 C :   -0.278728
  17 C :    0.311632
  18 O :   -0.359319
  19 C :   -0.274635
  20 H :    0.130395
  21 H :    0.096327
  22 H :    0.094716
  23 H :    0.097961
  24 H :    0.105922
  25 H :    0.128453
  26 H :    0.101016
  27 H :    0.124970
  28 H :    0.196616
  29 H :    0.193503
  30 H :    0.153969
  31 H :    0.153453
  32 H :    0.158768
  33 H :    0.127746
  34 H :    0.240005
  35 H :    0.164491
Sum of atomic charges:   -0.0000000

LOEWDIN ATOMIC CHARGES
----------------------
   0 C :    0.105389
   1 C :   -0.013365
   2 O :    0.300700
   3 C :   -0.413574
   4 O :    0.104720
   5 C :   -0.090595
   6 C :   -0.063183
   7 C :    0.124750
   8 N :    0.405049
   9 C :   -0.459406
  10 S :   -0.035839
  11 N :    0.398274
  12 C :   -0.046900
  13 C :   -0.038709
  14 C :    0.022318
  15 C :    0.040611
  16 C :   -0.002372
  17 C :   -0.192730
  18 O :    0.392864
  19 C :    0.028039
  20 H :   -0.024636
  21 H :   -0.027254
  22 H :   -0.028935
  23 H :   -0.028364
  24 H :   -0.025087
  25 H :   -0.008175
  26 H :   -0.021626
  27 H :   -0.010029
  28 H :   -0.059353
  29 H :   -0.063512
  30 H :   -0.005555
  31 H :   -0.025354
  32 H :   -0.021376
  33 H :   -0.036496
  34 H :   -0.154968
  35 H :   -0.025320

  Mayer bond orders larger than 0.100000
B(  0-C ,  1-C ) :   0.9629 B(  0-C , 20-H ) :   0.9712 B(  0-C , 21-H ) :   0.9768
B(  0-C , 22-H ) :   0.9756 B(  1-C ,  2-O ) :   0.9019 B(  1-C , 23-H ) :   0.9802
B(  1-C , 24-H ) :   0.9843 B(  2-O ,  3-C ) :   1.1624 B(  3-C ,  4-O ) :   1.9535
B(  3-C ,  5-C ) :   1.0692 B(  5-C ,  6-C ) :   1.6380 B(  5-C , 12-C ) :   0.9675
B(  6-C ,  7-C ) :   0.9580 B(  6-C ,  8-N ) :   1.1545 B(  7-C , 25-H ) :   0.9630
B(  7-C , 26-H ) :   0.9917 B(  7-C , 27-H ) :   0.9652 B(  8-N ,  9-C ) :   1.1761
B(  8-N , 28-H ) :   0.9486 B(  9-C , 10-S ) :   1.6111 B(  9-C , 11-N ) :   1.3057
B( 11-N , 12-C ) :   0.9925 B( 11-N , 29-H ) :   0.9520 B( 12-C , 13-C ) :   0.9456
B( 12-C , 30-H ) :   1.0016 B( 13-C , 14-C ) :   1.3750 B( 13-C , 19-C ) :   1.3688
B( 14-C , 15-C ) :   1.3946 B( 14-C , 31-H ) :   0.9649 B( 15-C , 16-C ) :   1.3621
B( 15-C , 32-H ) :   0.9715 B( 16-C , 17-C ) :   1.3319 B( 16-C , 33-H ) :   0.9861
B( 17-C , 18-O ) :   1.1078 B( 17-C , 19-C ) :   1.3793 B( 18-O , 34-H ) :   0.9806
B( 19-C , 35-H ) :   0.9583

MP2 TOTAL ENERGY:    -1274.345788183 Eh
FINAL SINGLE POINT ENERGY     -1274.345788183381

DIPOLE MOMENT
-------------
                                X             Y             Z
Electronic contribution:     10.70436      10.00243       9.90433
Nuclear contribution   :    -12.30168     -11.18459     -10.97420
                        -----------------------------------------
Total Dipole Moment    :     -1.59731      -1.18216      -1.06987
                        -----------------------------------------
Magnitude (a.u.)       :      2.25689
Magnitude (Debye)      :      5.73656

Rotational constants in cm-1:     0.010569     0.009070     0.005877
Rotational constants in MHz :   316.863373   271.897376   176.186566

                             ****ORCA TERMINATED NORMALLY****
TOTAL RUN TIME: 0 days 1 hours 37 minutes 55 seconds 434 msec
