                         Program Version 4.2.0 -  RELEASE  -
|  1> ! ri-mp2 cc-pvtz cc-pvtz/c TightSCF  NoKeepInts
|  2>
|  3> %scf
|  4>   MaxCore 4096
|  5> end
|  6> *xyz  0  1
|  7>     C       15.5837610   13.8194364   17.3652647
|  8>     C       16.3508025   14.1431824   16.0731433
|  9>     O       17.4438765   15.0372076   16.3735594
| 10>     C       17.2950228   16.3718614   16.1149445
| 11>     O       16.6469568   16.7602619   15.1581459
| 12>     C       17.6620209   17.2453385   17.2843540
| 13>     C       17.3629937   18.5699873   17.3273260
| 14>     C       16.5708219   19.3705267   16.3155597
| 15>     N       17.8510141   19.3628183   18.3710735
| 16>     C       18.8032330   18.9621359   19.2704438
| 17>     S       19.4756400   20.0084346   20.3609765
| 18>     N       19.1851447   17.6462877   19.2053741
| 19>     C       18.4909203   16.6129700   18.4159895
| 20>     C       17.6690971   15.7462653   19.3640460
| 21>     C       18.1584319   14.4913222   19.7732031
| 22>     C       17.4324998   13.7012033   20.6806803
| 23>     C       16.2079175   14.1704625   21.1856056
| 24>     C       15.7231550   15.4243709   20.7892897
| 25>     O       14.5436149   15.8825343   21.2785961
| 26>     C       16.4497165   16.2105631   19.8897679
| 27>     H       16.2401480   13.3333760   18.0951997
| 28>     H       14.7501273   13.1390541   17.1542771
| 29>     H       15.1715046   14.7321735   17.8116029
| 30>     H       16.7569751   13.2085018   15.6658490
| 31>     H       15.6686684   14.5617451   15.3207282
| 32>     H       15.5760111   18.9308145   16.1691642
| 33>     H       17.0761653   19.3683271   15.3413127
| 34>     H       16.4276944   20.4160231   16.6126202
| 35>     H       17.5905323   20.3347526   18.4213776
| 36>     H       19.8691526   17.3720916   19.8985617
| 37>     H       19.2584363   15.9786565   17.9504098
| 38>     H       19.1062325   14.1268345   19.3862422
| 39>     H       17.8191479   12.7315693   20.9897675
| 40>     H       15.6430169   13.5636925   21.8856423
| 41>     H       14.2224921   15.2320938   21.9211732
| 42>     H       16.0640540   17.1851240   19.6127284
| 43> *
| 44>
| 45>                          ****END OF INPUT****

CARTESIAN COORDINATES (ANGSTROEM)
---------------------------------
  C     15.583761   13.819436   17.365265
  C     16.350803   14.143182   16.073143
  O     17.443876   15.037208   16.373559
  C     17.295023   16.371861   16.114945
  O     16.646957   16.760262   15.158146
  C     17.662021   17.245338   17.284354
  C     17.362994   18.569987   17.327326
  C     16.570822   19.370527   16.315560
  N     17.851014   19.362818   18.371074
  C     18.803233   18.962136   19.270444
  S     19.475640   20.008435   20.360976
  N     19.185145   17.646288   19.205374
  C     18.490920   16.612970   18.415989
  C     17.669097   15.746265   19.364046
  C     18.158432   14.491322   19.773203
  C     17.432500   13.701203   20.680680
  C     16.207918   14.170462   21.185606
  C     15.723155   15.424371   20.789290
  O     14.543615   15.882534   21.278596
  C     16.449717   16.210563   19.889768
  H     16.240148   13.333376   18.095200
  H     14.750127   13.139054   17.154277
  H     15.171505   14.732173   17.811603
  H     16.756975   13.208502   15.665849
  H     15.668668   14.561745   15.320728
  H     15.576011   18.930815   16.169164
  H     17.076165   19.368327   15.341313
  H     16.427694   20.416023   16.612620
  H     17.590532   20.334753   18.421378
  H     19.869153   17.372092   19.898562
  H     19.258436   15.978656   17.950410
  H     19.106232   14.126834   19.386242
  H     17.819148   12.731569   20.989767
  H     15.643017   13.563692   21.885642
  H     14.222492   15.232094   21.921173
  H     16.064054   17.185124   19.612728

 Total Charge           Charge          ....    0
 Multiplicity           Mult            ....    1
 Number of Electrons    NEL             ....  154
 Basis Dimension        Dim             ....  828

ORBITAL ENERGIES
----------------

  NO   OCC          E(Eh)            E(eV)
   0   2.0000     -91.889626     -2500.4439
   1   2.0000     -20.599286      -560.5351
   2   2.0000     -20.593204      -560.3696
   3   2.0000     -20.543930      -559.0288
   4   2.0000     -15.630319      -425.3226
   5   2.0000     -15.608355      -424.7249
   6   2.0000     -11.394609      -310.0631
   7   2.0000     -11.384236      -309.7808
   8   2.0000     -11.337094      -308.4980
   9   2.0000     -11.316178      -307.9288
  10   2.0000     -11.310197      -307.7661
  11   2.0000     -11.293269      -307.3055
  12   2.0000     -11.261556      -306.4425
  13   2.0000     -11.259972      -306.3994
  14   2.0000     -11.257560      -306.3338
  15   2.0000     -11.252751      -306.2029
  16   2.0000     -11.245078      -305.9941
  17   2.0000     -11.239792      -305.8503
  18   2.0000     -11.239472      -305.8416
  19   2.0000     -11.219591      -305.3006
  20   2.0000      -8.894656      -242.0359
  21   2.0000      -6.576224      -178.9481
  22   2.0000      -6.574228      -178.8938
  23   2.0000      -6.573636      -178.8777
  24   2.0000      -1.448799       -39.4238
  25   2.0000      -1.418903       -38.6103
  26   2.0000      -1.352437       -36.8017
  27   2.0000      -1.341315       -36.4990
  28   2.0000      -1.239534       -33.7294
  29   2.0000      -1.159153       -31.5422
  30   2.0000      -1.120620       -30.4936
  31   2.0000      -1.043660       -28.3994
  32   2.0000      -1.033735       -28.1294
  33   2.0000      -1.017432       -27.6857
  34   2.0000      -0.996962       -27.1287
  35   2.0000      -0.984752       -26.7965
  36   2.0000      -0.923802       -25.1379
  37   2.0000      -0.889156       -24.1952
  38   2.0000      -0.847693       -23.0669
  39   2.0000      -0.840300       -22.8657
  40   2.0000      -0.835412       -22.7327
  41   2.0000      -0.815063       -22.1790
  42   2.0000      -0.758949       -20.6520
  43   2.0000      -0.733840       -19.9688
  44   2.0000      -0.721542       -19.6341
  45   2.0000      -0.698241       -19.0001
  46   2.0000      -0.689628       -18.7657
  47   2.0000      -0.678437       -18.4612
  48   2.0000      -0.668971       -18.2036
  49   2.0000      -0.666950       -18.1486
  50   2.0000      -0.648346       -17.6424
  51   2.0000      -0.644888       -17.5483
  52   2.0000      -0.637166       -17.3382
  53   2.0000      -0.610107       -16.6019
  54   2.0000      -0.602716       -16.4007
  55   2.0000      -0.599917       -16.3246
  56   2.0000      -0.590489       -16.0680
  57   2.0000      -0.579507       -15.7692
  58   2.0000      -0.571301       -15.5459
  59   2.0000      -0.565677       -15.3928
  60   2.0000      -0.562960       -15.3189
  61   2.0000      -0.549294       -14.9470
  62   2.0000      -0.537080       -14.6147
  63   2.0000      -0.527477       -14.3534
  64   2.0000      -0.523233       -14.2379
  65   2.0000      -0.513485       -13.9726
  66   2.0000      -0.503404       -13.6983
  67   2.0000      -0.497655       -13.5419
  68   2.0000      -0.480572       -13.0770
  69   2.0000      -0.462819       -12.5939
  70   2.0000      -0.450854       -12.2684
  71   2.0000      -0.446397       -12.1471
  72   2.0000      -0.356832        -9.7099
  73   2.0000      -0.351347        -9.5606
  74   2.0000      -0.329147        -8.9566
  75   2.0000      -0.323774        -8.8103
  76   2.0000      -0.316603        -8.6152
  77   0.0000       0.072429         1.9709
  78   0.0000       0.103823         2.8252
  79   0.0000       0.122326         3.3287
  80   0.0000       0.131116         3.5678
  81   0.0000       0.134812         3.6684

MULLIKEN ATOMIC CHARGES
-----------------------
   0 C :   -0.308585
   1 C :    0.033437
   2 O :   -0.372567
   3 C :    0.475795
   4 O :   -0.424013
   5 C :   -0.240952
   6 C :    0.150113
   7 C :   -0.269393
   8 N :   -0.123363
   9 C :    0.215226
  10 S :   -0.438915
  11 N :   -0.203899
  12 C :    0.043582
  13 C :    0.103001
  14 C :   -0.199481
  15 C :   -0.136785
  16 C :   -0.271621
  17 C :    0.321791
  18 O :   -0.359526
  19 C :   -0.284898
  20 H :    0.104791
  21 H :    0.111806
  22 H :    0.104819
  23 H :    0.102703
  24 H :    0.114066
  25 H :    0.128723
  26 H :    0.134509
  27 H :    0.094577
  28 H :    0.198435
  29 H :    0.193120
  30 H :    0.149495
  31 H :    0.146996
  32 H :    0.163934
  33 H :    0.131919
  34 H :    0.241706
  35 H :    0.169453
Sum of atomic charges:   -0.0000000

LOEWDIN ATOMIC CHARGES
----------------------
   0 C :    0.103780
   1 C :   -0.013015
   2 O :    0.292654
   3 C :   -0.415402
   4 O :    0.105232
   5 C :   -0.096400
   6 C :   -0.058073
   7 C :    0.130663
   8 N :    0.407374
   9 C :   -0.455391
  10 S :   -0.033964
  11 N :    0.396398
  12 C :   -0.053238
  13 C :   -0.034464
  14 C :    0.012014
  15 C :    0.042177
  16 C :   -0.001189
  17 C :   -0.188666
  18 O :    0.396062
  19 C :    0.032281
  20 H :   -0.027495
  21 H :   -0.026839
  22 H :   -0.028783
  23 H :   -0.027610
  24 H :   -0.028886
  25 H :   -0.005612
  26 H :   -0.003249
  27 H :   -0.023371
  28 H :   -0.057576
  29 H :   -0.065794
  30 H :   -0.007542
  31 H :   -0.030630
  32 H :   -0.020743
  33 H :   -0.035181
  34 H :   -0.153068
  35 H :   -0.026453

  Mayer bond orders larger than 0.100000
B(  0-C ,  1-C ) :   0.9677 B(  0-C , 20-H ) :   0.9721 B(  0-C , 21-H ) :   0.9777
B(  0-C , 22-H ) :   0.9740 B(  1-C ,  2-O ) :   0.8837 B(  1-C , 23-H ) :   0.9869
B(  1-C , 24-H ) :   0.9750 B(  2-O ,  3-C ) :   1.1325 B(  3-C ,  4-O ) :   1.9863
B(  3-C ,  5-C ) :   1.0642 B(  5-C ,  6-C ) :   1.6514 B(  5-C , 12-C ) :   0.9770
B(  6-C ,  7-C ) :   0.9705 B(  6-C ,  8-N ) :   1.1570 B(  7-C , 25-H ) :   0.9627
B(  7-C , 26-H ) :   0.9577 B(  7-C , 27-H ) :   0.9896 B(  8-N ,  9-C ) :   1.1801
B(  8-N , 28-H ) :   0.9481 B(  9-C , 10-S ) :   1.6078 B(  9-C , 11-N ) :   1.3056
B( 11-N , 12-C ) :   0.9649 B( 11-N , 29-H ) :   0.9535 B( 12-C , 13-C ) :   0.9455
B( 12-C , 30-H ) :   1.0032 B( 13-C , 14-C ) :   1.3482 B( 13-C , 19-C ) :   1.3613
B( 14-C , 15-C ) :   1.3871 B( 14-C , 31-H ) :   0.9753 B( 15-C , 16-C ) :   1.3624
B( 15-C , 32-H ) :   0.9705 B( 16-C , 17-C ) :   1.3303 B( 16-C , 33-H ) :   0.9845
B( 17-C , 18-O ) :   1.1104 B( 17-C , 19-C ) :   1.3682 B( 18-O , 34-H ) :   0.9793
B( 19-C , 35-H ) :   0.9582

MP2 TOTAL ENERGY:    -1274.340991534 Eh
FINAL SINGLE POINT ENERGY     -1274.340991534396

DIPOLE MOMENT
-------------
                                X             Y             Z
Electronic contribution:      8.75814      10.48723       5.15249
Nuclear contribution   :     -9.71923     -12.14962      -5.22162
                        -----------------------------------------
Total Dipole Moment    :     -0.96110      -1.66239      -0.06913
                        -----------------------------------------
Magnitude (a.u.)       :      1.92146
Magnitude (Debye)      :      4.88396

Rotational constants in cm-1:     0.012100     0.009234     0.006506
Rotational constants in MHz :   362.748815   276.822496   195.043095

                             ****ORCA TERMINATED NORMALLY****
TOTAL RUN TIME: 0 days 1 hours 50 minutes 30 seconds 837 msec
