                         Program Version 4.2.0 -  RELEASE  -
|  1> ! ri-mp2 cc-pvtz cc-pvtz/c TightSCF  NoKeepInts
|  2>
|  3> %scf
|  4>   MaxCore 4096
|  5> end
|  6> *xyz  0  1
|  7>     C       15.1664759   15.4225336   17.1274808
|  8>     C       16.1335414   14.3177797   16.6482123
|  9>     O       17.5209995   14.7161722   16.4957604
| 10>     C       17.9013410   15.9773990   16.1374916
| 11>     O       17.7588026   16.3133818   14.9760314
| 12>     C       17.8493157   16.9624598   17.2740148
| 13>     C       17.4282484   18.2438039   17.1191955
| 14>     C       16.8000855   18.8669081   15.8905251
| 15>     N       17.6220541   19.1692793   18.1488168
| 16>     C       18.4397382   18.9652824   19.2287914
| 17>     S       18.7776618   20.1682106   20.3119262
| 18>     N       18.9689923   17.7062308   19.3639805
| 19>     C       18.5437313   16.5291386   18.5815869
| 20>     C       17.7396174   15.5800723   19.4706245
| 21>     C       18.0327179   14.2027486   19.4809636
| 22>     C       17.3155228   13.3211232   20.3067016
| 23>     C       16.3019490   13.8201592   21.1415631
| 24>     C       16.0173677   15.1920377   21.1501920
| 25>     O       15.0398924   15.6776744   21.9557411
| 26>     C       16.7331979   16.0671851   20.3272501
| 27>     H       15.4462767   15.8302669   18.0989819
| 28>     H       14.1553084   15.0100913   17.2281860
| 29>     H       15.1124715   16.2402219   16.4002853
| 30>     H       16.0824143   13.4685257   17.3417759
| 31>     H       15.7730308   13.9600661   15.6747584
| 32>     H       17.5568242   19.0150826   15.1093632
| 33>     H       16.3343033   19.8375977   16.0968360
| 34>     H       16.0247279   18.2164670   15.4692529
| 35>     H       17.2581405   20.1038645   18.0521038
| 36>     H       19.5508138   17.5788649   20.1824050
| 37>     H       19.4600068   15.9962130   18.2906484
| 38>     H       18.8145068   13.8106514   18.8352218
| 39>     H       17.5478748   12.2574494   20.2991776
| 40>     H       15.7450923   13.1432896   21.7813255
| 41>     H       14.6997677   14.9385474   22.4820841
| 42>     H       16.4941872   17.1252201   20.3547444
| 43> *
| 44>
| 45>                          ****END OF INPUT****

CARTESIAN COORDINATES (ANGSTROEM)
---------------------------------
  C     15.166476   15.422534   17.127481
  C     16.133541   14.317780   16.648212
  O     17.520999   14.716172   16.495760
  C     17.901341   15.977399   16.137492
  O     17.758803   16.313382   14.976031
  C     17.849316   16.962460   17.274015
  C     17.428248   18.243804   17.119196
  C     16.800086   18.866908   15.890525
  N     17.622054   19.169279   18.148817
  C     18.439738   18.965282   19.228791
  S     18.777662   20.168211   20.311926
  N     18.968992   17.706231   19.363981
  C     18.543731   16.529139   18.581587
  C     17.739617   15.580072   19.470624
  C     18.032718   14.202749   19.480964
  C     17.315523   13.321123   20.306702
  C     16.301949   13.820159   21.141563
  C     16.017368   15.192038   21.150192
  O     15.039892   15.677674   21.955741
  C     16.733198   16.067185   20.327250
  H     15.446277   15.830267   18.098982
  H     14.155308   15.010091   17.228186
  H     15.112471   16.240222   16.400285
  H     16.082414   13.468526   17.341776
  H     15.773031   13.960066   15.674758
  H     17.556824   19.015083   15.109363
  H     16.334303   19.837598   16.096836
  H     16.024728   18.216467   15.469253
  H     17.258140   20.103865   18.052104
  H     19.550814   17.578865   20.182405
  H     19.460007   15.996213   18.290648
  H     18.814507   13.810651   18.835222
  H     17.547875   12.257449   20.299178
  H     15.745092   13.143290   21.781325
  H     14.699768   14.938547   22.482084
  H     16.494187   17.125220   20.354744

 Total Charge           Charge          ....    0
 Multiplicity           Mult            ....    1
 Number of Electrons    NEL             ....  154
 Basis Dimension        Dim             ....  828

ORBITAL ENERGIES
----------------

  NO   OCC          E(Eh)            E(eV)
   0   2.0000     -91.891362     -2500.4911
   1   2.0000     -20.599300      -560.5355
   2   2.0000     -20.575706      -559.8934
   3   2.0000     -20.555751      -559.3504
   4   2.0000     -15.630001      -425.3139
   5   2.0000     -15.610344      -424.7790
   6   2.0000     -11.394939      -310.0721
   7   2.0000     -11.385899      -309.8261
   8   2.0000     -11.335003      -308.4411
   9   2.0000     -11.316735      -307.9440
  10   2.0000     -11.314966      -307.8959
  11   2.0000     -11.302731      -307.5629
  12   2.0000     -11.263706      -306.5010
  13   2.0000     -11.261043      -306.4286
  14   2.0000     -11.257952      -306.3444
  15   2.0000     -11.255115      -306.2672
  16   2.0000     -11.246615      -306.0360
  17   2.0000     -11.241896      -305.9076
  18   2.0000     -11.240658      -305.8738
  19   2.0000     -11.227918      -305.5272
  20   2.0000      -8.896398      -242.0833
  21   2.0000      -6.577969      -178.9956
  22   2.0000      -6.575968      -178.9412
  23   2.0000      -6.575374      -178.9250
  24   2.0000      -1.446072       -39.3496
  25   2.0000      -1.419127       -38.6164
  26   2.0000      -1.350324       -36.7442
  27   2.0000      -1.341803       -36.5123
  28   2.0000      -1.240614       -33.7588
  29   2.0000      -1.159824       -31.5604
  30   2.0000      -1.120854       -30.5000
  31   2.0000      -1.045214       -28.4417
  32   2.0000      -1.033163       -28.1138
  33   2.0000      -1.018676       -27.7196
  34   2.0000      -1.001156       -27.2428
  35   2.0000      -0.987468       -26.8704
  36   2.0000      -0.925676       -25.1889
  37   2.0000      -0.897268       -24.4159
  38   2.0000      -0.849177       -23.1073
  39   2.0000      -0.842620       -22.9289
  40   2.0000      -0.837484       -22.7891
  41   2.0000      -0.819982       -22.3128
  42   2.0000      -0.747326       -20.3358
  43   2.0000      -0.734666       -19.9913
  44   2.0000      -0.723750       -19.6942
  45   2.0000      -0.698103       -18.9963
  46   2.0000      -0.690526       -18.7902
  47   2.0000      -0.674172       -18.3451
  48   2.0000      -0.670634       -18.2489
  49   2.0000      -0.663622       -18.0581
  50   2.0000      -0.652557       -17.7570
  51   2.0000      -0.646358       -17.5883
  52   2.0000      -0.638821       -17.3832
  53   2.0000      -0.622192       -16.9307
  54   2.0000      -0.609219       -16.5777
  55   2.0000      -0.602249       -16.3880
  56   2.0000      -0.601365       -16.3640
  57   2.0000      -0.579808       -15.7774
  58   2.0000      -0.574050       -15.6207
  59   2.0000      -0.565425       -15.3860
  60   2.0000      -0.552963       -15.0469
  61   2.0000      -0.552212       -15.0265
  62   2.0000      -0.541680       -14.7399
  63   2.0000      -0.527644       -14.3579
  64   2.0000      -0.525073       -14.2880
  65   2.0000      -0.515314       -14.0224
  66   2.0000      -0.503749       -13.7077
  67   2.0000      -0.496771       -13.5178
  68   2.0000      -0.478031       -13.0079
  69   2.0000      -0.467150       -12.7118
  70   2.0000      -0.452541       -12.3143
  71   2.0000      -0.445778       -12.1302
  72   2.0000      -0.358021        -9.7422
  73   2.0000      -0.349057        -9.4983
  74   2.0000      -0.330520        -8.9939
  75   2.0000      -0.324729        -8.8363
  76   2.0000      -0.318889        -8.6774
  77   0.0000       0.068160         1.8547
  78   0.0000       0.102019         2.7761
  79   0.0000       0.116966         3.1828
  80   0.0000       0.128265         3.4903
  81   0.0000       0.131855         3.5879

MULLIKEN ATOMIC CHARGES
-----------------------
   0 C :   -0.340099
   1 C :    0.041461
   2 O :   -0.388702
   3 C :    0.454488
   4 O :   -0.381530
   5 C :   -0.244691
   6 C :    0.171486
   7 C :   -0.279472
   8 N :   -0.124312
   9 C :    0.189073
  10 S :   -0.432268
  11 N :   -0.203240
  12 C :    0.055904
  13 C :    0.049733
  14 C :   -0.201739
  15 C :   -0.142011
  16 C :   -0.273980
  17 C :    0.311021
  18 O :   -0.355798
  19 C :   -0.257032
  20 H :    0.120588
  21 H :    0.121456
  22 H :    0.100555
  23 H :    0.114986
  24 H :    0.120592
  25 H :    0.140962
  26 H :    0.094540
  27 H :    0.125584
  28 H :    0.197893
  29 H :    0.194097
  30 H :    0.149591
  31 H :    0.154443
  32 H :    0.166275
  33 H :    0.133326
  34 H :    0.240620
  35 H :    0.176201
Sum of atomic charges:   -0.0000000

LOEWDIN ATOMIC CHARGES
----------------------
   0 C :    0.107137
   1 C :   -0.009026
   2 O :    0.274030
   3 C :   -0.423303
   4 O :    0.135887
   5 C :   -0.093940
   6 C :   -0.064885
   7 C :    0.129503
   8 N :    0.406783
   9 C :   -0.459915
  10 S :   -0.032309
  11 N :    0.396177
  12 C :   -0.051366
  13 C :   -0.040391
  14 C :    0.019769
  15 C :    0.039213
  16 C :   -0.002272
  17 C :   -0.192638
  18 O :    0.396451
  19 C :    0.030564
  20 H :   -0.035091
  21 H :   -0.020954
  22 H :   -0.031359
  23 H :   -0.023849
  24 H :   -0.027139
  25 H :   -0.003120
  26 H :   -0.022346
  27 H :   -0.011904
  28 H :   -0.057943
  29 H :   -0.064682
  30 H :   -0.007224
  31 H :   -0.027821
  32 H :   -0.020267
  33 H :   -0.034809
  34 H :   -0.153402
  35 H :   -0.023562

  Mayer bond orders larger than 0.100000
B(  0-C ,  1-C ) :   0.9622 B(  0-C , 20-H ) :   0.9671 B(  0-C , 21-H ) :   0.9773
B(  0-C , 22-H ) :   0.9732 B(  1-C ,  2-O ) :   0.8782 B(  1-C , 23-H ) :   0.9762
B(  1-C , 24-H ) :   0.9851 B(  2-O ,  3-C ) :   1.1079 B(  3-C ,  4-O ) :   2.0523
B(  3-C ,  5-C ) :   1.0084 B(  5-C ,  6-C ) :   1.6695 B(  5-C , 12-C ) :   0.9609
B(  6-C ,  7-C ) :   0.9637 B(  6-C ,  8-N ) :   1.1367 B(  7-C , 25-H ) :   0.9567
B(  7-C , 26-H ) :   0.9864 B(  7-C , 27-H ) :   0.9685 B(  8-N ,  9-C ) :   1.1826
B(  8-N , 28-H ) :   0.9493 B(  9-C , 10-S ) :   1.6202 B(  9-C , 11-N ) :   1.2904
B( 11-N , 12-C ) :   0.9880 B( 11-N , 29-H ) :   0.9514 B( 12-C , 13-C ) :   0.9419
B( 12-C , 30-H ) :   1.0085 B( 13-C , 14-C ) :   1.3601 B( 13-C , 19-C ) :   1.3507
B( 14-C , 15-C ) :   1.3962 B( 14-C , 31-H ) :   0.9702 B( 15-C , 16-C ) :   1.3583
B( 15-C , 32-H ) :   0.9695 B( 16-C , 17-C ) :   1.3313 B( 16-C , 33-H ) :   0.9839
B( 17-C , 18-O ) :   1.1132 B( 17-C , 19-C ) :   1.3724 B( 18-O , 34-H ) :   0.9798
B( 19-C , 35-H ) :   0.9592

MP2 TOTAL ENERGY:    -1274.310931124 Eh
FINAL SINGLE POINT ENERGY     -1274.310931123701

DIPOLE MOMENT
-------------
                                X             Y             Z
Electronic contribution:      9.86005       7.05695       6.10140
Nuclear contribution   :    -11.03856      -8.63495      -6.09240
                        -----------------------------------------
Total Dipole Moment    :     -1.17851      -1.57799       0.00900
                        -----------------------------------------
Magnitude (a.u.)       :      1.96952
Magnitude (Debye)      :      5.00613

Rotational constants in cm-1:     0.011790     0.010020     0.006561
Rotational constants in MHz :   353.450454   300.393229   196.704421

                             ****ORCA TERMINATED NORMALLY****
TOTAL RUN TIME: 0 days 1 hours 53 minutes 59 seconds 451 msec
