                         Program Version 4.2.0 -  RELEASE  -
|  1> ! ri-mp2 cc-pvtz cc-pvtz/c TightSCF  NoKeepInts
|  2>
|  3> %scf
|  4>   MaxCore 4096
|  5> end
|  6> *xyz  0  1
|  7>     C       14.5783806   14.3862116   16.0935151
|  8>     C       15.6491707   15.1067184   16.9284213
|  9>     O       16.7152457   15.4762322   16.0374126
| 10>     C       17.9505577   15.6190931   16.5925127
| 11>     O       18.6308500   14.6355283   16.8242052
| 12>     C       18.0616992   16.8617846   17.4217121
| 13>     C       17.5409367   18.0559320   17.0472347
| 14>     C       16.8161065   18.3711321   15.7556858
| 15>     N       17.7173995   19.1772944   17.8628381
| 16>     C       18.5036359   19.2097960   18.9851863
| 17>     S       18.7440925   20.6057138   19.8384495
| 18>     N       19.0786432   18.0229140   19.3673344
| 19>     C       18.8016191   16.7103497   18.7521889
| 20>     C       17.9995249   15.8257771   19.7027410
| 21>     C       18.4380468   14.5238934   20.0059004
| 22>     C       17.6882200   13.6954052   20.8573688
| 23>     C       16.4870280   14.1710096   21.4100683
| 24>     C       16.0440959   15.4653602   21.1070844
| 25>     O       14.8778253   15.9235153   21.6270344
| 26>     C       16.7921734   16.2875205   20.2587628
| 27>     H       15.0016753   13.4957948   15.6115635
| 28>     H       14.1845502   15.0484870   15.3127505
| 29>     H       13.7436389   14.0679556   16.7297408
| 30>     H       15.2284040   15.9920844   17.4227772
| 31>     H       16.0175031   14.4175985   17.7022016
| 32>     H       17.2691473   17.8398233   14.9090356
| 33>     H       16.8455269   19.4403215   15.5121466
| 34>     H       15.7635347   18.0683137   15.8148892
| 35>     H       17.3070920   20.0587162   17.5974491
| 36>     H       19.6316694   18.0705414   20.2136648
| 37>     H       19.7659270   16.2215364   18.5500689
| 38>     H       19.3555780   14.1452947   19.5612159
| 39>     H       18.0361465   12.6877710   21.0785631
| 40>     H       15.9035015   13.5326666   22.0653032
| 41>     H       14.5465257   15.2472803   22.2374204
| 42>     H       16.4313281   17.2866331   20.0395529
| 43> *
| 44>
| 45>                          ****END OF INPUT****

CARTESIAN COORDINATES (ANGSTROEM)
---------------------------------
  C     14.578381   14.386212   16.093515
  C     15.649171   15.106718   16.928421
  O     16.715246   15.476232   16.037413
  C     17.950558   15.619093   16.592513
  O     18.630850   14.635528   16.824205
  C     18.061699   16.861785   17.421712
  C     17.540937   18.055932   17.047235
  C     16.816107   18.371132   15.755686
  N     17.717399   19.177294   17.862838
  C     18.503636   19.209796   18.985186
  S     18.744092   20.605714   19.838449
  N     19.078643   18.022914   19.367334
  C     18.801619   16.710350   18.752189
  C     17.999525   15.825777   19.702741
  C     18.438047   14.523893   20.005900
  C     17.688220   13.695405   20.857369
  C     16.487028   14.171010   21.410068
  C     16.044096   15.465360   21.107084
  O     14.877825   15.923515   21.627034
  C     16.792173   16.287520   20.258763
  H     15.001675   13.495795   15.611564
  H     14.184550   15.048487   15.312750
  H     13.743639   14.067956   16.729741
  H     15.228404   15.992084   17.422777
  H     16.017503   14.417598   17.702202
  H     17.269147   17.839823   14.909036
  H     16.845527   19.440321   15.512147
  H     15.763535   18.068314   15.814889
  H     17.307092   20.058716   17.597449
  H     19.631669   18.070541   20.213665
  H     19.765927   16.221536   18.550069
  H     19.355578   14.145295   19.561216
  H     18.036147   12.687771   21.078563
  H     15.903502   13.532667   22.065303
  H     14.546526   15.247280   22.237420
  H     16.431328   17.286633   20.039553

 Total Charge           Charge          ....    0
 Multiplicity           Mult            ....    1
 Number of Electrons    NEL             ....  154
 Basis Dimension        Dim             ....  828

ORBITAL ENERGIES
----------------

  NO   OCC          E(Eh)            E(eV)
   0   2.0000     -91.890354     -2500.4637
   1   2.0000     -20.597857      -560.4962
   2   2.0000     -20.582031      -560.0655
   3   2.0000     -20.557491      -559.3978
   4   2.0000     -15.630069      -425.3158
   5   2.0000     -15.609851      -424.7656
   6   2.0000     -11.393604      -310.0357
   7   2.0000     -11.386000      -309.8288
   8   2.0000     -11.334707      -308.4331
   9   2.0000     -11.314018      -307.8701
  10   2.0000     -11.310149      -307.7648
  11   2.0000     -11.300303      -307.4969
  12   2.0000     -11.263243      -306.4884
  13   2.0000     -11.260233      -306.4065
  14   2.0000     -11.259437      -306.3848
  15   2.0000     -11.254098      -306.2396
  16   2.0000     -11.243875      -305.9614
  17   2.0000     -11.239567      -305.8442
  18   2.0000     -11.236730      -305.7670
  19   2.0000     -11.230260      -305.5909
  20   2.0000      -8.895424      -242.0568
  21   2.0000      -6.577000      -178.9693
  22   2.0000      -6.574991      -178.9146
  23   2.0000      -6.574405      -178.8987
  24   2.0000      -1.452590       -39.5270
  25   2.0000      -1.417659       -38.5764
  26   2.0000      -1.358047       -36.9543
  27   2.0000      -1.341118       -36.4937
  28   2.0000      -1.239359       -33.7247
  29   2.0000      -1.158325       -31.5196
  30   2.0000      -1.122987       -30.5580
  31   2.0000      -1.046312       -28.4716
  32   2.0000      -1.034882       -28.1606
  33   2.0000      -1.015734       -27.6395
  34   2.0000      -1.001474       -27.2515
  35   2.0000      -0.986959       -26.8565
  36   2.0000      -0.925207       -25.1762
  37   2.0000      -0.877357       -23.8741
  38   2.0000      -0.851732       -23.1768
  39   2.0000      -0.841563       -22.9001
  40   2.0000      -0.834297       -22.7024
  41   2.0000      -0.832315       -22.6485
  42   2.0000      -0.756789       -20.5933
  43   2.0000      -0.736102       -20.0304
  44   2.0000      -0.730217       -19.8702
  45   2.0000      -0.695761       -18.9326
  46   2.0000      -0.688007       -18.7216
  47   2.0000      -0.681598       -18.5472
  48   2.0000      -0.675291       -18.3756
  49   2.0000      -0.660182       -17.9645
  50   2.0000      -0.649611       -17.6768
  51   2.0000      -0.643391       -17.5076
  52   2.0000      -0.637226       -17.3398
  53   2.0000      -0.615520       -16.7492
  54   2.0000      -0.606248       -16.4968
  55   2.0000      -0.604815       -16.4579
  56   2.0000      -0.601488       -16.3673
  57   2.0000      -0.581211       -15.8155
  58   2.0000      -0.577352       -15.7105
  59   2.0000      -0.565085       -15.3767
  60   2.0000      -0.558733       -15.2039
  61   2.0000      -0.552948       -15.0465
  62   2.0000      -0.537745       -14.6328
  63   2.0000      -0.523745       -14.2518
  64   2.0000      -0.515848       -14.0369
  65   2.0000      -0.514201       -13.9921
  66   2.0000      -0.503259       -13.6944
  67   2.0000      -0.498599       -13.5676
  68   2.0000      -0.483822       -13.1655
  69   2.0000      -0.466373       -12.6906
  70   2.0000      -0.458522       -12.4770
  71   2.0000      -0.454206       -12.3596
  72   2.0000      -0.356427        -9.6989
  73   2.0000      -0.349692        -9.5156
  74   2.0000      -0.329639        -8.9699
  75   2.0000      -0.321477        -8.7478
  76   2.0000      -0.317576        -8.6417
  77   0.0000       0.069583         1.8935
  78   0.0000       0.103115         2.8059
  79   0.0000       0.116765         3.1773
  80   0.0000       0.130548         3.5524
  81   0.0000       0.134028         3.6471

MULLIKEN ATOMIC CHARGES
-----------------------
   0 C :   -0.255243
   1 C :    0.021042
   2 O :   -0.368421
   3 C :    0.459879
   4 O :   -0.384630
   5 C :   -0.222677
   6 C :    0.145414
   7 C :   -0.283172
   8 N :   -0.125640
   9 C :    0.200099
  10 S :   -0.437507
  11 N :   -0.201320
  12 C :    0.047475
  13 C :    0.034034
  14 C :   -0.161135
  15 C :   -0.135143
  16 C :   -0.279219
  17 C :    0.309362
  18 O :   -0.358969
  19 C :   -0.275495
  20 H :    0.106311
  21 H :    0.092134
  22 H :    0.089185
  23 H :    0.093617
  24 H :    0.115393
  25 H :    0.128573
  26 H :    0.109697
  27 H :    0.121585
  28 H :    0.197219
  29 H :    0.194285
  30 H :    0.156865
  31 H :    0.160122
  32 H :    0.161936
  33 H :    0.131825
  34 H :    0.241501
  35 H :    0.171015
Sum of atomic charges:   -0.0000000

LOEWDIN ATOMIC CHARGES
----------------------
   0 C :    0.111602
   1 C :   -0.021784
   2 O :    0.288470
   3 C :   -0.422290
   4 O :    0.135877
   5 C :   -0.094490
   6 C :   -0.077638
   7 C :    0.127278
   8 N :    0.404155
   9 C :   -0.457543
  10 S :   -0.034747
  11 N :    0.397009
  12 C :   -0.045685
  13 C :   -0.042185
  14 C :    0.021449
  15 C :    0.042207
  16 C :   -0.001896
  17 C :   -0.195186
  18 O :    0.393567
  19 C :    0.029003
  20 H :   -0.021872
  21 H :   -0.029191
  22 H :   -0.025144
  23 H :   -0.038251
  24 H :   -0.023097
  25 H :   -0.006635
  26 H :   -0.018053
  27 H :   -0.011517
  28 H :   -0.058474
  29 H :   -0.063938
  30 H :   -0.003979
  31 H :   -0.023758
  32 H :   -0.019660
  33 H :   -0.035142
  34 H :   -0.153400
  35 H :   -0.025064

  Mayer bond orders larger than 0.100000
B(  0-C ,  1-C ) :   0.9800 B(  0-C , 20-H ) :   0.9785 B(  0-C , 21-H ) :   0.9799
B(  0-C , 22-H ) :   0.9763 B(  1-C ,  2-O ) :   0.8847 B(  1-C , 23-H ) :   0.9704
B(  1-C , 24-H ) :   0.9708 B(  2-O ,  3-C ) :   1.1079 B(  3-C ,  4-O ) :   2.0640
B(  3-C ,  5-C ) :   0.9891 B(  5-C ,  6-C ) :   1.6646 B(  5-C , 12-C ) :   0.9688
B(  6-C ,  7-C ) :   0.9510 B(  6-C ,  8-N ) :   1.1374 B(  7-C , 25-H ) :   0.9706
B(  7-C , 26-H ) :   0.9861 B(  7-C , 27-H ) :   0.9639 B(  8-N ,  9-C ) :   1.1835
B(  8-N , 28-H ) :   0.9497 B(  9-C , 10-S ) :   1.6136 B(  9-C , 11-N ) :   1.2982
B( 11-N , 12-C ) :   0.9942 B( 11-N , 29-H ) :   0.9519 B( 12-C , 13-C ) :   0.9456
B( 12-C , 30-H ) :   0.9986 B( 13-C , 14-C ) :   1.3819 B( 13-C , 19-C ) :   1.3588
B( 14-C , 15-C ) :   1.3945 B( 14-C , 31-H ) :   0.9621 B( 15-C , 16-C ) :   1.3642
B( 15-C , 32-H ) :   0.9708 B( 16-C , 17-C ) :   1.3292 B( 16-C , 33-H ) :   0.9846
B( 17-C , 18-O ) :   1.1113 B( 17-C , 19-C ) :   1.3746 B( 18-O , 34-H ) :   0.9796
B( 19-C , 35-H ) :   0.9587

MP2 TOTAL ENERGY:    -1274.323935578 Eh
FINAL SINGLE POINT ENERGY     -1274.323935577760

DIPOLE MOMENT
-------------
                                X             Y             Z
Electronic contribution:     11.20936       9.26068       7.38472
Nuclear contribution   :    -12.54488     -10.37358      -7.77866
                        -----------------------------------------
Total Dipole Moment    :     -1.33552      -1.11291      -0.39394
                        -----------------------------------------
Magnitude (a.u.)       :      1.78251
Magnitude (Debye)      :      4.53079

Rotational constants in cm-1:     0.011645     0.009197     0.006683
Rotational constants in MHz :   349.105368   275.718567   200.361540

                             ****ORCA TERMINATED NORMALLY****
TOTAL RUN TIME: 0 days 1 hours 41 minutes 36 seconds 575 msec
