                         Program Version 4.2.0 -  RELEASE  -
|  1> ! ri-mp2 cc-pvtz cc-pvtz/c TightSCF  NoKeepInts
|  2>
|  3> %scf
|  4>   MaxCore 4096
|  5> end
|  6> *xyz  0  1
|  7>     C       15.6586987   14.2097614   14.7796158
|  8>     C       15.5538238   14.1313485   16.3171761
|  9>     O       16.4728526   15.0622476   16.9204051
| 10>     C       16.2431304   16.4113202   16.8752723
| 11>     O       15.2749704   16.8961366   16.3143508
| 12>     C       17.2714994   17.1991599   17.6395389
| 13>     C       17.2739286   18.5562245   17.6713171
| 14>     C       16.2971863   19.4915419   16.9910812
| 15>     N       18.2810127   19.2396165   18.3595839
| 16>     C       19.3727708   18.6502298   18.9390591
| 17>     S       20.5753905   19.5393920   19.6454905
| 18>     N       19.4207505   17.2801031   18.9006025
| 19>     C       18.3381331   16.4061747   18.4125503
| 20>     C       17.7346797   15.6319407   19.5810399
| 21>     C       17.8839445   14.2347585   19.6645218
| 22>     C       17.3300101   13.5193846   20.7395571
| 23>     C       16.6231840   14.2064861   21.7411839
| 24>     C       16.4759537   15.5981928   21.6632688
| 25>     O       15.7950595   16.2645742   22.6294116
| 26>     C       17.0283273   16.3073677   20.5922702
| 27>     H       15.3039934   15.1760538   14.4010262
| 28>     H       15.0472046   13.4259815   14.3165862
| 29>     H       16.6968155   14.0696167   14.4543316
| 30>     H       14.5249934   14.3427933   16.6392363
| 31>     H       15.8086950   13.1143374   16.6414794
| 32>     H       15.2788488   19.3207980   17.3633434
| 33>     H       16.2832579   19.3147607   15.9081123
| 34>     H       16.5344401   20.5499255   17.1501475
| 35>     H       18.2627555   20.2462572   18.3965198
| 36>     H       20.2188794   16.8726169   19.3704420
| 37>     H       18.7904146   15.6869299   17.7154173
| 38>     H       18.4255720   13.7005379   18.8886207
| 39>     H       17.4488018   12.4387122   20.7939594
| 40>     H       16.1936270   13.6585660   22.5733298
| 41>     H       15.5138129   15.6133280   23.2893263
| 42>     H       16.9095814   17.3848236   20.5548250
| 43> *
| 44>
| 45>                          ****END OF INPUT****

CARTESIAN COORDINATES (ANGSTROEM)
---------------------------------
  C     15.658699   14.209761   14.779616
  C     15.553824   14.131348   16.317176
  O     16.472853   15.062248   16.920405
  C     16.243130   16.411320   16.875272
  O     15.274970   16.896137   16.314351
  C     17.271499   17.199160   17.639539
  C     17.273929   18.556224   17.671317
  C     16.297186   19.491542   16.991081
  N     18.281013   19.239617   18.359584
  C     19.372771   18.650230   18.939059
  S     20.575391   19.539392   19.645490
  N     19.420751   17.280103   18.900603
  C     18.338133   16.406175   18.412550
  C     17.734680   15.631941   19.581040
  C     17.883944   14.234758   19.664522
  C     17.330010   13.519385   20.739557
  C     16.623184   14.206486   21.741184
  C     16.475954   15.598193   21.663269
  O     15.795059   16.264574   22.629412
  C     17.028327   16.307368   20.592270
  H     15.303993   15.176054   14.401026
  H     15.047205   13.425982   14.316586
  H     16.696815   14.069617   14.454332
  H     14.524993   14.342793   16.639236
  H     15.808695   13.114337   16.641479
  H     15.278849   19.320798   17.363343
  H     16.283258   19.314761   15.908112
  H     16.534440   20.549925   17.150147
  H     18.262756   20.246257   18.396520
  H     20.218879   16.872617   19.370442
  H     18.790415   15.686930   17.715417
  H     18.425572   13.700538   18.888621
  H     17.448802   12.438712   20.793959
  H     16.193627   13.658566   22.573330
  H     15.513813   15.613328   23.289326
  H     16.909581   17.384824   20.554825

 Total Charge           Charge          ....    0
 Multiplicity           Mult            ....    1
 Number of Electrons    NEL             ....  154
 Basis Dimension        Dim             ....  828

ORBITAL ENERGIES
----------------

  NO   OCC          E(Eh)            E(eV)
   0   2.0000     -91.888462     -2500.4122
   1   2.0000     -20.602171      -560.6136
   2   2.0000     -20.594852      -560.4144
   3   2.0000     -20.542088      -558.9786
   4   2.0000     -15.628732      -425.2794
   5   2.0000     -15.607659      -424.7060
   6   2.0000     -11.396220      -310.1069
   7   2.0000     -11.383509      -309.7610
   8   2.0000     -11.335712      -308.4604
   9   2.0000     -11.311807      -307.8099
  10   2.0000     -11.308157      -307.7106
  11   2.0000     -11.299372      -307.4715
  12   2.0000     -11.258888      -306.3699
  13   2.0000     -11.257861      -306.3420
  14   2.0000     -11.253266      -306.2169
  15   2.0000     -11.251893      -306.1796
  16   2.0000     -11.241185      -305.8882
  17   2.0000     -11.236712      -305.7665
  18   2.0000     -11.236483      -305.7602
  19   2.0000     -11.224095      -305.4232
  20   2.0000      -8.893524      -242.0051
  21   2.0000      -6.575099      -178.9175
  22   2.0000      -6.573094      -178.8630
  23   2.0000      -6.572508      -178.8470
  24   2.0000      -1.450771       -39.4775
  25   2.0000      -1.414498       -38.4905
  26   2.0000      -1.355270       -36.8788
  27   2.0000      -1.339652       -36.4538
  28   2.0000      -1.237961       -33.6866
  29   2.0000      -1.155977       -31.4557
  30   2.0000      -1.119753       -30.4700
  31   2.0000      -1.041751       -28.3475
  32   2.0000      -1.036344       -28.2004
  33   2.0000      -1.013204       -27.5707
  34   2.0000      -0.994880       -27.0720
  35   2.0000      -0.983470       -26.7616
  36   2.0000      -0.921690       -25.0805
  37   2.0000      -0.895485       -24.3674
  38   2.0000      -0.846622       -23.0378
  39   2.0000      -0.836474       -22.7616
  40   2.0000      -0.832293       -22.6478
  41   2.0000      -0.817429       -22.2434
  42   2.0000      -0.755328       -20.5535
  43   2.0000      -0.730680       -19.8828
  44   2.0000      -0.722367       -19.6566
  45   2.0000      -0.694226       -18.8908
  46   2.0000      -0.687582       -18.7101
  47   2.0000      -0.680377       -18.5140
  48   2.0000      -0.670685       -18.2503
  49   2.0000      -0.654030       -17.7970
  50   2.0000      -0.647488       -17.6190
  51   2.0000      -0.644807       -17.5461
  52   2.0000      -0.631014       -17.1708
  53   2.0000      -0.612600       -16.6697
  54   2.0000      -0.605022       -16.4635
  55   2.0000      -0.598472       -16.2853
  56   2.0000      -0.597409       -16.2563
  57   2.0000      -0.578561       -15.7434
  58   2.0000      -0.570805       -15.5324
  59   2.0000      -0.570335       -15.5196
  60   2.0000      -0.562414       -15.3041
  61   2.0000      -0.538524       -14.6540
  62   2.0000      -0.537312       -14.6210
  63   2.0000      -0.527206       -14.3460
  64   2.0000      -0.523464       -14.2442
  65   2.0000      -0.512774       -13.9533
  66   2.0000      -0.500309       -13.6141
  67   2.0000      -0.498016       -13.5517
  68   2.0000      -0.484440       -13.1823
  69   2.0000      -0.463316       -12.6075
  70   2.0000      -0.456173       -12.4131
  71   2.0000      -0.446185       -12.1413
  72   2.0000      -0.353999        -9.6328
  73   2.0000      -0.347805        -9.4642
  74   2.0000      -0.327727        -8.9179
  75   2.0000      -0.319528        -8.6948
  76   2.0000      -0.315352        -8.5812
  77   0.0000       0.076721         2.0877
  78   0.0000       0.108979         2.9655
  79   0.0000       0.124675         3.3926
  80   0.0000       0.133344         3.6285
  81   0.0000       0.136917         3.7257

MULLIKEN ATOMIC CHARGES
-----------------------
   0 C :   -0.295668
   1 C :    0.039455
   2 O :   -0.350501
   3 C :    0.471806
   4 O :   -0.439584
   5 C :   -0.212687
   6 C :    0.147505
   7 C :   -0.275101
   8 N :   -0.119755
   9 C :    0.210702
  10 S :   -0.440212
  11 N :   -0.202831
  12 C :    0.044592
  13 C :    0.070517
  14 C :   -0.176110
  15 C :   -0.132807
  16 C :   -0.277691
  17 C :    0.315044
  18 O :   -0.357041
  19 C :   -0.268541
  20 H :    0.121322
  21 H :    0.094879
  22 H :    0.090946
  23 H :    0.097467
  24 H :    0.107389
  25 H :    0.132684
  26 H :    0.129878
  27 H :    0.095301
  28 H :    0.197190
  29 H :    0.194171
  30 H :    0.149817
  31 H :    0.145654
  32 H :    0.158794
  33 H :    0.128867
  34 H :    0.240458
  35 H :    0.164089
Sum of atomic charges:   -0.0000000

LOEWDIN ATOMIC CHARGES
----------------------
   0 C :    0.104866
   1 C :   -0.014625
   2 O :    0.306216
   3 C :   -0.411476
   4 O :    0.096862
   5 C :   -0.093417
   6 C :   -0.058974
   7 C :    0.131279
   8 N :    0.406500
   9 C :   -0.456747
  10 S :   -0.035715
  11 N :    0.396573
  12 C :   -0.052866
  13 C :   -0.038474
  14 C :    0.014219
  15 C :    0.039248
  16 C :   -0.001446
  17 C :   -0.189468
  18 O :    0.394908
  19 C :    0.031522
  20 H :   -0.025674
  21 H :   -0.027257
  22 H :   -0.030644
  23 H :   -0.027733
  24 H :   -0.025258
  25 H :   -0.004463
  26 H :   -0.004416
  27 H :   -0.023423
  28 H :   -0.057642
  29 H :   -0.064597
  30 H :   -0.011496
  31 H :   -0.030651
  32 H :   -0.021724
  33 H :   -0.035821
  34 H :   -0.154166
  35 H :   -0.024021

  Mayer bond orders larger than 0.100000
B(  0-C ,  1-C ) :   0.9661 B(  0-C , 20-H ) :   0.9733 B(  0-C , 21-H ) :   0.9770
B(  0-C , 22-H ) :   0.9765 B(  1-C ,  2-O ) :   0.9009 B(  1-C , 23-H ) :   0.9776
B(  1-C , 24-H ) :   0.9838 B(  2-O ,  3-C ) :   1.1653 B(  3-C ,  4-O ) :   1.9489
B(  3-C ,  5-C ) :   1.0662 B(  5-C ,  6-C ) :   1.6564 B(  5-C , 12-C ) :   0.9736
B(  6-C ,  7-C ) :   0.9674 B(  6-C ,  8-N ) :   1.1648 B(  7-C , 25-H ) :   0.9606
B(  7-C , 26-H ) :   0.9602 B(  7-C , 27-H ) :   0.9906 B(  8-N ,  9-C ) :   1.1821
B(  8-N , 28-H ) :   0.9480 B(  9-C , 10-S ) :   1.6074 B(  9-C , 11-N ) :   1.3050
B( 11-N , 12-C ) :   0.9876 B( 11-N , 29-H ) :   0.9517 B( 12-C , 13-C ) :   0.9382
B( 12-C , 30-H ) :   1.0029 B( 13-C , 14-C ) :   1.3562 B( 13-C , 19-C ) :   1.3819
B( 14-C , 15-C ) :   1.3939 B( 14-C , 31-H ) :   0.9722 B( 15-C , 16-C ) :   1.3645
B( 15-C , 32-H ) :   0.9711 B( 16-C , 17-C ) :   1.3317 B( 16-C , 33-H ) :   0.9854
B( 17-C , 18-O ) :   1.1096 B( 17-C , 19-C ) :   1.3743 B( 18-O , 34-H ) :   0.9801
B( 19-C , 35-H ) :   0.9583

MP2 TOTAL ENERGY:    -1274.349901051 Eh
FINAL SINGLE POINT ENERGY     -1274.349901051293

DIPOLE MOMENT
-------------
                                X             Y             Z
Electronic contribution:      9.59730       9.01680      10.35118
Nuclear contribution   :    -10.74006     -10.65345     -10.69911
                        -----------------------------------------
Total Dipole Moment    :     -1.14276      -1.63664      -0.34793
                        -----------------------------------------
Magnitude (a.u.)       :      2.02622
Magnitude (Debye)      :      5.15024

Rotational constants in cm-1:     0.010635     0.008945     0.006010
Rotational constants in MHz :   318.830012   268.163886   180.169542

                             ****ORCA TERMINATED NORMALLY****
TOTAL RUN TIME: 0 days 1 hours 44 minutes 53 seconds 717 msec
