                         Program Version 5.0.0 -  RELEASE  -
|  1> ! ri-mp2 cc-pvtz cc-pvtz/c TightSCF NoKeepInts
|  2>
|  3> %scf
|  4>   MaxCore 4096
|  5> end
|  6> *xyz  0  1
|  7>     C       15.6382926   13.7849346   15.0841191
|  8>     C       15.0628681   14.9877102   15.8642669
|  9>     O       16.0507648   16.0079338   16.1409452
| 10>     C       17.2466973   15.7731541   16.7662011
| 11>     O       17.7180976   14.6591939   16.9171298
| 12>     C       17.7096222   16.9320506   17.6029321
| 13>     C       17.3733866   18.2301086   17.3821830
| 14>     C       16.5097529   18.7935736   16.2720535
| 15>     N       17.9125948   19.2349784   18.1922765
| 16>     C       18.8983063   19.0455569   19.1244839
| 17>     S       19.5738599   20.3107312   19.9483168
| 18>     N       19.2964680   17.7503730   19.3376595
| 19>     C       18.6368160   16.5610889   18.7665790
| 20>     C       17.8781901   15.7998124   19.8508848
| 21>     C       18.1299738   14.4328569   20.0703411
| 22>     C       17.4329905   13.7261777   21.0646923
| 23>     C       16.4745686   14.3912958   21.8480396
| 24>     C       16.2176894   15.7516944   21.6302777
| 25>     O       15.2881695   16.3952494   22.3807882
| 26>     C       16.9126758   16.4522452   20.6394732
| 27>     H       16.3107854   14.1215772   14.2854573
| 28>     H       14.8261803   13.2086561   14.6249714
| 29>     H       16.1884865   13.1023159   15.7428870
| 30>     H       14.2528027   15.4377781   15.2762933
| 31>     H       14.6286701   14.6277959   16.8065018
| 32>     H       15.4520807   18.5627712   16.4501563
| 33>     H       16.7907715   18.3644706   15.3022025
| 34>     H       16.6004385   19.8825271   16.1778120
| 35>     H       17.6333416   20.1925086   18.0505443
| 36>     H       20.0025687   17.6338123   20.0529855
| 37>     H       19.4241951   15.9030931   18.3712931
| 38>     H       18.8581284   13.9119781   19.4532947
| 39>     H       17.6331519   12.6675574   21.2196904
| 40>     H       15.9327208   13.8489430   22.6155813
| 41>     H       14.9502891   15.7601901   23.0298359
| 42>     H       16.7006039   17.5053051   20.4908501
| 43> *
| 44>
| 45>                          ****END OF INPUT****

CARTESIAN COORDINATES (ANGSTROEM)
---------------------------------
  C     15.638293   13.784935   15.084119
  C     15.062868   14.987710   15.864267
  O     16.050765   16.007934   16.140945
  C     17.246697   15.773154   16.766201
  O     17.718098   14.659194   16.917130
  C     17.709622   16.932051   17.602932
  C     17.373387   18.230109   17.382183
  C     16.509753   18.793574   16.272053
  N     17.912595   19.234978   18.192276
  C     18.898306   19.045557   19.124484
  S     19.573860   20.310731   19.948317
  N     19.296468   17.750373   19.337660
  C     18.636816   16.561089   18.766579
  C     17.878190   15.799812   19.850885
  C     18.129974   14.432857   20.070341
  C     17.432990   13.726178   21.064692
  C     16.474569   14.391296   21.848040
  C     16.217689   15.751694   21.630278
  O     15.288170   16.395249   22.380788
  C     16.912676   16.452245   20.639473
  H     16.310785   14.121577   14.285457
  H     14.826180   13.208656   14.624971
  H     16.188486   13.102316   15.742887
  H     14.252803   15.437778   15.276293
  H     14.628670   14.627796   16.806502
  H     15.452081   18.562771   16.450156
  H     16.790772   18.364471   15.302202
  H     16.600438   19.882527   16.177812
  H     17.633342   20.192509   18.050544
  H     20.002569   17.633812   20.052985
  H     19.424195   15.903093   18.371293
  H     18.858128   13.911978   19.453295
  H     17.633152   12.667557   21.219690
  H     15.932721   13.848943   22.615581
  H     14.950289   15.760190   23.029836
  H     16.700604   17.505305   20.490850

 Total Charge           Charge          ....    0
 Multiplicity           Mult            ....    1
 Number of Electrons    NEL             ....  154
 Basis Dimension        Dim             ....  828

ORBITAL ENERGIES
----------------

  NO   OCC          E(Eh)            E(eV)
   0   2.0000     -91.887277     -2500.3799
   1   2.0000     -20.598935      -560.5255
   2   2.0000     -20.591757      -560.3302
   3   2.0000     -20.547616      -559.1291
   4   2.0000     -15.627015      -425.2327
   5   2.0000     -15.606154      -424.6650
   6   2.0000     -11.397970      -310.1545
   7   2.0000     -11.382234      -309.7263
   8   2.0000     -11.333705      -308.4058
   9   2.0000     -11.307629      -307.6962
  10   2.0000     -11.305476      -307.6376
  11   2.0000     -11.304580      -307.6133
  12   2.0000     -11.259423      -306.3845
  13   2.0000     -11.258070      -306.3476
  14   2.0000     -11.253500      -306.2233
  15   2.0000     -11.247886      -306.0705
  16   2.0000     -11.237463      -305.7869
  17   2.0000     -11.233404      -305.6765
  18   2.0000     -11.230605      -305.6003
  19   2.0000     -11.222607      -305.3827
  20   2.0000      -8.892350      -241.9731
  21   2.0000      -6.573930      -178.8857
  22   2.0000      -6.571921      -178.8311
  23   2.0000      -6.571338      -178.8152
  24   2.0000      -1.449033       -39.4302
  25   2.0000      -1.411493       -38.4087
  26   2.0000      -1.357890       -36.9501
  27   2.0000      -1.338246       -36.4155
  28   2.0000      -1.236104       -33.6361
  29   2.0000      -1.151979       -31.3469
  30   2.0000      -1.118640       -30.4397
  31   2.0000      -1.041652       -28.3448
  32   2.0000      -1.033412       -28.1206
  33   2.0000      -1.009454       -27.4686
  34   2.0000      -0.996368       -27.1125
  35   2.0000      -0.981786       -26.7158
  36   2.0000      -0.920958       -25.0605
  37   2.0000      -0.893900       -24.3242
  38   2.0000      -0.847158       -23.0523
  39   2.0000      -0.835547       -22.7364
  40   2.0000      -0.828004       -22.5311
  41   2.0000      -0.818402       -22.2699
  42   2.0000      -0.746376       -20.3099
  43   2.0000      -0.729670       -19.8553
  44   2.0000      -0.724732       -19.7210
  45   2.0000      -0.690768       -18.7968
  46   2.0000      -0.684339       -18.6218
  47   2.0000      -0.679571       -18.4921
  48   2.0000      -0.670412       -18.2428
  49   2.0000      -0.664435       -18.0802
  50   2.0000      -0.645100       -17.5541
  51   2.0000      -0.641868       -17.4661
  52   2.0000      -0.633580       -17.2406
  53   2.0000      -0.603981       -16.4352
  54   2.0000      -0.599598       -16.3159
  55   2.0000      -0.597502       -16.2588
  56   2.0000      -0.594769       -16.1845
  57   2.0000      -0.587188       -15.9782
  58   2.0000      -0.572612       -15.5816
  59   2.0000      -0.568959       -15.4821
  60   2.0000      -0.559481       -15.2243
  61   2.0000      -0.544457       -14.8154
  62   2.0000      -0.536049       -14.5866
  63   2.0000      -0.520633       -14.1672
  64   2.0000      -0.517251       -14.0751
  65   2.0000      -0.510499       -13.8914
  66   2.0000      -0.500774       -13.6268
  67   2.0000      -0.495073       -13.4716
  68   2.0000      -0.479366       -13.0442
  69   2.0000      -0.461098       -12.5471
  70   2.0000      -0.457740       -12.4558
  71   2.0000      -0.447426       -12.1751
  72   2.0000      -0.352969        -9.6048
  73   2.0000      -0.343889        -9.3577
  74   2.0000      -0.326494        -8.8843
  75   2.0000      -0.315197        -8.5770
  76   2.0000      -0.313669        -8.5354
  77   0.0000       0.076797         2.0897
  78   0.0000       0.112380         3.0580
  79   0.0000       0.121674         3.3109
  80   0.0000       0.136015         3.7012
  81   0.0000       0.140387         3.8201

MULLIKEN ATOMIC CHARGES
-----------------------
   0 C :   -0.295374
   1 C :    0.050802
   2 O :   -0.358513
   3 C :    0.436171
   4 O :   -0.424854
   5 C :   -0.143967
   6 C :    0.135735
   7 C :   -0.285640
   8 N :   -0.121935
   9 C :    0.201731
  10 S :   -0.440944
  11 N :   -0.197628
  12 C :    0.036033
  13 C :    0.055260
  14 C :   -0.163624
  15 C :   -0.134233
  16 C :   -0.279459
  17 C :    0.311227
  18 O :   -0.358857
  19 C :   -0.270644
  20 H :    0.094741
  21 H :    0.094195
  22 H :    0.125246
  23 H :    0.098873
  24 H :    0.092000
  25 H :    0.127208
  26 H :    0.123836
  27 H :    0.102005
  28 H :    0.196621
  29 H :    0.193408
  30 H :    0.154390
  31 H :    0.153935
  32 H :    0.159128
  33 H :    0.128132
  34 H :    0.239971
  35 H :    0.165025
Sum of atomic charges:   -0.0000000

LOEWDIN ATOMIC CHARGES
----------------------
   0 C :    0.103158
   1 C :   -0.010756
   2 O :    0.293947
   3 C :   -0.411595
   4 O :    0.116632
   5 C :   -0.090196
   6 C :   -0.068686
   7 C :    0.124709
   8 N :    0.404290
   9 C :   -0.458739
  10 S :   -0.037297
  11 N :    0.397613
  12 C :   -0.046043
  13 C :   -0.038778
  14 C :    0.021174
  15 C :    0.040441
  16 C :   -0.002565
  17 C :   -0.192637
  18 O :    0.393089
  19 C :    0.028920
  20 H :   -0.026983
  21 H :   -0.029748
  22 H :   -0.025910
  23 H :   -0.024790
  24 H :   -0.028165
  25 H :   -0.009801
  26 H :   -0.009070
  27 H :   -0.020838
  28 H :   -0.059254
  29 H :   -0.063874
  30 H :   -0.005274
  31 H :   -0.025460
  32 H :   -0.021336
  33 H :   -0.036441
  34 H :   -0.154949
  35 H :   -0.024791

  Mayer bond orders larger than 0.100000
B(  0-C ,  1-C ) :   0.9690 B(  0-C , 20-H ) :   0.9758 B(  0-C , 21-H ) :   0.9766
B(  0-C , 22-H ) :   0.9716 B(  1-C ,  2-O ) :   0.9068 B(  1-C , 23-H ) :   0.9838
B(  1-C , 24-H ) :   0.9793 B(  2-O ,  3-C ) :   1.1252 B(  3-C ,  4-O ) :   1.9758
B(  3-C ,  5-C ) :   1.0530 B(  5-C ,  6-C ) :   1.6535 B(  5-C , 12-C ) :   0.9641
B(  6-C ,  7-C ) :   0.9555 B(  6-C ,  8-N ) :   1.1421 B(  7-C , 25-H ) :   0.9630
B(  7-C , 26-H ) :   0.9676 B(  7-C , 27-H ) :   0.9909 B(  8-N ,  9-C ) :   1.1812
B(  8-N , 28-H ) :   0.9494 B(  9-C , 10-S ) :   1.6094 B(  9-C , 11-N ) :   1.3028
B( 11-N , 12-C ) :   0.9931 B( 11-N , 29-H ) :   0.9520 B( 12-C , 13-C ) :   0.9468
B( 12-C , 30-H ) :   0.9992 B( 13-C , 14-C ) :   1.3759 B( 13-C , 19-C ) :   1.3699
B( 14-C , 15-C ) :   1.3946 B( 14-C , 31-H ) :   0.9649 B( 15-C , 16-C ) :   1.3629
B( 15-C , 32-H ) :   0.9714 B( 16-C , 17-C ) :   1.3312 B( 16-C , 33-H ) :   0.9860
B( 17-C , 18-O ) :   1.1082 B( 17-C , 19-C ) :   1.3787 B( 18-O , 34-H ) :   0.9806
B( 19-C , 35-H ) :   0.9583

MP2 TOTAL ENERGY:    -1274.336261693 Eh
FINAL SINGLE POINT ENERGY     -1274.336261693039

DIPOLE MOMENT
-------------
                                X             Y             Z
Electronic contribution:      9.85870      10.37030      10.80123
Nuclear contribution   :    -11.50766     -11.57344     -11.72702
                        -----------------------------------------
Total Dipole Moment    :     -1.64895      -1.20314      -0.92579
                        -----------------------------------------
Magnitude (a.u.)       :      2.24136
Magnitude (Debye)      :      5.69708

Rotational constants in cm-1:     0.010771     0.008938     0.005916
Rotational constants in MHz :   322.898943   267.964922   177.358752

                             ****ORCA TERMINATED NORMALLY****
TOTAL RUN TIME: 0 days 1 hours 50 minutes 39 seconds 643 msec
