                         Program Version 4.2.0 -  RELEASE  -
|  1> ! ri-mp2 cc-pvtz cc-pvtz/c TightSCF  NoKeepInts
|  2>
|  3> %scf
|  4>   MaxCore 4096
|  5> end
|  6> *xyz  0  1
|  7>     C       15.0541209   14.3803404   17.2922004
|  8>     C       15.4421773   15.6737790   16.5549290
|  9>     O       16.6954828   15.4298952   15.8821980
| 10>     C       17.9056199   15.6718436   16.4789016
| 11>     O       18.7664705   14.8111832   16.4901737
| 12>     C       17.9956759   16.8833060   17.3546516
| 13>     C       17.5308352   18.1030048   16.9903377
| 14>     C       16.8945551   18.4836243   15.6697827
| 15>     N       17.6935610   19.1938933   17.8476748
| 16>     C       18.4057537   19.1672746   19.0183459
| 17>     S       18.6097955   20.5239291   19.9412727
| 18>     N       18.9374822   17.9566012   19.3884434
| 19>     C       18.7086848   16.6760295   18.6906928
| 20>     C       17.9187071   15.7090117   19.5663827
| 21>     C       18.3557845   14.3821305   19.7316483
| 22>     C       17.6194690   13.4782689   20.5155697
| 23>     C       16.4326537   13.9027824   21.1368987
| 24>     C       15.9901809   15.2217434   20.9689492
| 25>     O       14.8364850   15.6309624   21.5536695
| 26>     C       16.7255219   16.1197640   20.1889858
| 27>     H       15.8151156   14.1112122   18.0350179
| 28>     H       14.9575929   13.5468346   16.5852490
| 29>     H       14.0969380   14.5038607   17.8129764
| 30>     H       14.6685269   15.8983296   15.8094059
| 31>     H       15.4842074   16.5082953   17.2641236
| 32>     H       17.1778229   17.7919522   14.8664408
| 33>     H       17.2139039   19.4820214   15.3449288
| 34>     H       15.8006002   18.4888351   15.7425741
| 35>     H       17.3217126   20.0944033   17.5890048
| 36>     H       19.4379596   17.9616972   20.2683094
| 37>     H       19.6911833   16.2279825   18.4805828
| 38>     H       19.2621702   14.0450612   19.2332604
| 39>     H       17.9660982   12.4526394   20.6310020
| 40>     H       15.8590086   13.2060487   21.7392202
| 41>     H       14.5104872   14.8973288   22.0969472
| 42>     H       16.3646558   17.1361303   20.0732486
| 43> *
| 44>
| 45>                          ****END OF INPUT****

CARTESIAN COORDINATES (ANGSTROEM)
---------------------------------
  C     15.054121   14.380340   17.292200
  C     15.442177   15.673779   16.554929
  O     16.695483   15.429895   15.882198
  C     17.905620   15.671844   16.478902
  O     18.766470   14.811183   16.490174
  C     17.995676   16.883306   17.354652
  C     17.530835   18.103005   16.990338
  C     16.894555   18.483624   15.669783
  N     17.693561   19.193893   17.847675
  C     18.405754   19.167275   19.018346
  S     18.609796   20.523929   19.941273
  N     18.937482   17.956601   19.388443
  C     18.708685   16.676029   18.690693
  C     17.918707   15.709012   19.566383
  C     18.355784   14.382131   19.731648
  C     17.619469   13.478269   20.515570
  C     16.432654   13.902782   21.136899
  C     15.990181   15.221743   20.968949
  O     14.836485   15.630962   21.553670
  C     16.725522   16.119764   20.188986
  H     15.815116   14.111212   18.035018
  H     14.957593   13.546835   16.585249
  H     14.096938   14.503861   17.812976
  H     14.668527   15.898330   15.809406
  H     15.484207   16.508295   17.264124
  H     17.177823   17.791952   14.866441
  H     17.213904   19.482021   15.344929
  H     15.800600   18.488835   15.742574
  H     17.321713   20.094403   17.589005
  H     19.437960   17.961697   20.268309
  H     19.691183   16.227982   18.480583
  H     19.262170   14.045061   19.233260
  H     17.966098   12.452639   20.631002
  H     15.859009   13.206049   21.739220
  H     14.510487   14.897329   22.096947
  H     16.364656   17.136130   20.073249

 Total Charge           Charge          ....    0
 Multiplicity           Mult            ....    1
 Number of Electrons    NEL             ....  154
 Basis Dimension        Dim             ....  828

ORBITAL ENERGIES
----------------

  NO   OCC          E(Eh)            E(eV)
   0   2.0000     -91.891197     -2500.4866
   1   2.0000     -20.600040      -560.5556
   2   2.0000     -20.595854      -560.4417
   3   2.0000     -20.550523      -559.2082
   4   2.0000     -15.630069      -425.3158
   5   2.0000     -15.611566      -424.8123
   6   2.0000     -11.396711      -310.1203
   7   2.0000     -11.387442      -309.8681
   8   2.0000     -11.334755      -308.4344
   9   2.0000     -11.316611      -307.9406
  10   2.0000     -11.312548      -307.8301
  11   2.0000     -11.304456      -307.6099
  12   2.0000     -11.266915      -306.5883
  13   2.0000     -11.264065      -306.5108
  14   2.0000     -11.262612      -306.4712
  15   2.0000     -11.256626      -306.3084
  16   2.0000     -11.246055      -306.0207
  17   2.0000     -11.242346      -305.9198
  18   2.0000     -11.239197      -305.8341
  19   2.0000     -11.224595      -305.4367
  20   2.0000      -8.896287      -242.0803
  21   2.0000      -6.577867      -178.9929
  22   2.0000      -6.575850      -178.9380
  23   2.0000      -6.575268      -178.9221
  24   2.0000      -1.447579       -39.3906
  25   2.0000      -1.419787       -38.6344
  26   2.0000      -1.358933       -36.9785
  27   2.0000      -1.342201       -36.5232
  28   2.0000      -1.240958       -33.7682
  29   2.0000      -1.161300       -31.6006
  30   2.0000      -1.125508       -30.6266
  31   2.0000      -1.048559       -28.5327
  32   2.0000      -1.034782       -28.1578
  33   2.0000      -1.018562       -27.7165
  34   2.0000      -1.005108       -27.3504
  35   2.0000      -0.989655       -26.9299
  36   2.0000      -0.927851       -25.2481
  37   2.0000      -0.885575       -24.0977
  38   2.0000      -0.855136       -23.2694
  39   2.0000      -0.842501       -22.9256
  40   2.0000      -0.836912       -22.7735
  41   2.0000      -0.834305       -22.7026
  42   2.0000      -0.750239       -20.4150
  43   2.0000      -0.739722       -20.1289
  44   2.0000      -0.731208       -19.8972
  45   2.0000      -0.698109       -18.9965
  46   2.0000      -0.688311       -18.7299
  47   2.0000      -0.679972       -18.5030
  48   2.0000      -0.677534       -18.4366
  49   2.0000      -0.660685       -17.9781
  50   2.0000      -0.656798       -17.8724
  51   2.0000      -0.648911       -17.6578
  52   2.0000      -0.640502       -17.4289
  53   2.0000      -0.613104       -16.6834
  54   2.0000      -0.609291       -16.5797
  55   2.0000      -0.606019       -16.4906
  56   2.0000      -0.600723       -16.3465
  57   2.0000      -0.583381       -15.8746
  58   2.0000      -0.578185       -15.7332
  59   2.0000      -0.569531       -15.4977
  60   2.0000      -0.560145       -15.2423
  61   2.0000      -0.555907       -15.1270
  62   2.0000      -0.544984       -14.8298
  63   2.0000      -0.528780       -14.3888
  64   2.0000      -0.520101       -14.1527
  65   2.0000      -0.513775       -13.9805
  66   2.0000      -0.502642       -13.6776
  67   2.0000      -0.498419       -13.5627
  68   2.0000      -0.487517       -13.2660
  69   2.0000      -0.470658       -12.8073
  70   2.0000      -0.457113       -12.4387
  71   2.0000      -0.447613       -12.1802
  72   2.0000      -0.357981        -9.7412
  73   2.0000      -0.352588        -9.5944
  74   2.0000      -0.330670        -8.9980
  75   2.0000      -0.324385        -8.8270
  76   2.0000      -0.319314        -8.6890
  77   0.0000       0.076053         2.0695
  78   0.0000       0.102906         2.8002
  79   0.0000       0.115989         3.1562
  80   0.0000       0.127738         3.4759
  81   0.0000       0.136040         3.7018

MULLIKEN ATOMIC CHARGES
-----------------------
   0 C :   -0.273253
   1 C :    0.004700
   2 O :   -0.337070
   3 C :    0.423763
   4 O :   -0.384493
   5 C :   -0.218003
   6 C :    0.148845
   7 C :   -0.312065
   8 N :   -0.131997
   9 C :    0.201169
  10 S :   -0.438173
  11 N :   -0.205619
  12 C :    0.064385
  13 C :    0.019658
  14 C :   -0.178204
  15 C :   -0.130625
  16 C :   -0.276544
  17 C :    0.314542
  18 O :   -0.361087
  19 C :   -0.272399
  20 H :    0.107369
  21 H :    0.110857
  22 H :    0.092598
  23 H :    0.118155
  24 H :    0.098499
  25 H :    0.138685
  26 H :    0.124829
  27 H :    0.120552
  28 H :    0.197720
  29 H :    0.196256
  30 H :    0.161030
  31 H :    0.164545
  32 H :    0.163230
  33 H :    0.132041
  34 H :    0.241930
  35 H :    0.174175
Sum of atomic charges:   -0.0000000

LOEWDIN ATOMIC CHARGES
----------------------
   0 C :    0.108467
   1 C :   -0.023561
   2 O :    0.299994
   3 C :   -0.417435
   4 O :    0.124957
   5 C :   -0.089603
   6 C :   -0.089228
   7 C :    0.127916
   8 N :    0.402907
   9 C :   -0.457374
  10 S :   -0.035188
  11 N :    0.397358
  12 C :   -0.045647
  13 C :   -0.044754
  14 C :    0.021881
  15 C :    0.044094
  16 C :   -0.000197
  17 C :   -0.193036
  18 O :    0.394690
  19 C :    0.027643
  20 H :   -0.023548
  21 H :   -0.024285
  22 H :   -0.026778
  23 H :   -0.026739
  24 H :   -0.040023
  25 H :   -0.006168
  26 H :   -0.013188
  27 H :   -0.015584
  28 H :   -0.057541
  29 H :   -0.063390
  30 H :   -0.003130
  31 H :   -0.022234
  32 H :   -0.018788
  33 H :   -0.034688
  34 H :   -0.152837
  35 H :   -0.024962

  Mayer bond orders larger than 0.100000
B(  0-C ,  1-C ) :   0.9819 B(  0-C , 20-H ) :   0.9694 B(  0-C , 21-H ) :   0.9798
B(  0-C , 22-H ) :   0.9755 B(  1-C ,  2-O ) :   0.8932 B(  1-C , 23-H ) :   0.9800
B(  1-C , 24-H ) :   0.9619 B(  2-O ,  3-C ) :   1.1626 B(  3-C ,  4-O ) :   2.0853
B(  3-C ,  5-C ) :   0.9429 B(  5-C ,  6-C ) :   1.6741 B(  5-C , 12-C ) :   0.9605
B(  6-C ,  7-C ) :   0.9459 B(  6-C ,  8-N ) :   1.1291 B(  7-C , 25-H ) :   0.9736
B(  7-C , 26-H ) :   0.9800 B(  7-C , 27-H ) :   0.9631 B(  8-N ,  9-C ) :   1.1875
B(  8-N , 28-H ) :   0.9505 B(  9-C , 10-S ) :   1.6136 B(  9-C , 11-N ) :   1.2938
B( 11-N , 12-C ) :   0.9988 B( 11-N , 29-H ) :   0.9507 B( 12-C , 13-C ) :   0.9410
B( 12-C , 30-H ) :   0.9974 B( 13-C , 14-C ) :   1.3880 B( 13-C , 19-C ) :   1.3548
B( 14-C , 15-C ) :   1.3925 B( 14-C , 31-H ) :   0.9615 B( 15-C , 16-C ) :   1.3623
B( 15-C , 32-H ) :   0.9709 B( 16-C , 17-C ) :   1.3306 B( 16-C , 33-H ) :   0.9849
B( 17-C , 18-O ) :   1.1071 B( 17-C , 19-C ) :   1.3713 B( 18-O , 34-H ) :   0.9790
B( 19-C , 35-H ) :   0.9571

MP2 TOTAL ENERGY:    -1274.337242877 Eh
FINAL SINGLE POINT ENERGY     -1274.337242877200

DIPOLE MOMENT
-------------
                                X             Y             Z
Electronic contribution:     10.00360       8.26837       5.62038
Nuclear contribution   :    -11.50384      -9.15024      -5.95524
                        -----------------------------------------
Total Dipole Moment    :     -1.50024      -0.88188      -0.33486
                        -----------------------------------------
Magnitude (a.u.)       :      1.77216
Magnitude (Debye)      :      4.50448

Rotational constants in cm-1:     0.012365     0.009259     0.006866
Rotational constants in MHz :   370.685340   277.566513   205.838530

                             ****ORCA TERMINATED NORMALLY****
TOTAL RUN TIME: 0 days 1 hours 54 minutes 50 seconds 891 msec
