                         Program Version 4.2.0 -  RELEASE  -
|  1> ! ri-mp2 cc-pvtz cc-pvtz/c TightSCF  NoKeepInts
|  2>
|  3> %scf
|  4>   MaxCore 4096
|  5> end
|  6> *xyz  0  1
|  7>     C       14.8994874   14.5217294   16.0583059
|  8>     C       16.0736252   14.5605653   17.0535678
|  9>     O       17.2532018   14.9883052   16.3437831
| 10>     C       17.4471901   16.3200922   16.1167937
| 11>     O       17.1408006   16.7961772   15.0392734
| 12>     C       17.7073402   17.1440208   17.3496124
| 13>     C       17.3476623   18.4501759   17.4296690
| 14>     C       16.5091861   19.2315297   16.4414878
| 15>     N       17.8049213   19.2363456   18.4917001
| 16>     C       18.8072516   18.8660565   19.3496729
| 17>     S       19.4486935   19.9161286   20.4544524
| 18>     N       19.2597786   17.5750846   19.2359565
| 19>     C       18.5905830   16.5226854   18.4484423
| 20>     C       17.8499493   15.5925589   19.4031696
| 21>     C       18.2265537   14.2402956   19.5108599
| 22>     C       17.5474869   13.3765023   20.3864278
| 23>     C       16.4878647   13.8693693   21.1667594
| 24>     C       16.1179614   15.2177184   21.0720126
| 25>     O       15.0948059   15.6968714   21.8226388
| 26>     C       16.7937257   16.0747673   20.1979588
| 27>     H       14.6791157   15.5244718   15.6710162
| 28>     H       13.9950054   14.1371966   16.5448068
| 29>     H       15.1361528   13.8697971   15.2080178
| 30>     H       15.8201257   15.2355974   17.8779288
| 31>     H       16.2337115   13.5544405   17.4621413
| 32>     H       15.6221292   18.6582810   16.1438971
| 33>     H       17.0845571   19.4377890   15.5295767
| 34>     H       16.1596462   20.1896750   16.8435114
| 35>     H       17.4989662   20.1932912   18.5704315
| 36>     H       19.9858024   17.3239813   19.8948905
| 37>     H       19.3741490   15.9385788   17.9450536
| 38>     H       19.0439845   13.8541432   18.9069780
| 39>     H       17.8445215   12.3314077   20.4601390
| 40>     H       15.9613049   13.2058460   21.8452551
| 41>     H       14.8042728   14.9841356   22.4118438
| 42>     H       16.4954858   17.1163878   20.1459683
| 43> *
| 44>
| 45>                          ****END OF INPUT****

CARTESIAN COORDINATES (ANGSTROEM)
---------------------------------
  C     14.899487   14.521729   16.058306
  C     16.073625   14.560565   17.053568
  O     17.253202   14.988305   16.343783
  C     17.447190   16.320092   16.116794
  O     17.140801   16.796177   15.039273
  C     17.707340   17.144021   17.349612
  C     17.347662   18.450176   17.429669
  C     16.509186   19.231530   16.441488
  N     17.804921   19.236346   18.491700
  C     18.807252   18.866056   19.349673
  S     19.448694   19.916129   20.454452
  N     19.259779   17.575085   19.235956
  C     18.590583   16.522685   18.448442
  C     17.849949   15.592559   19.403170
  C     18.226554   14.240296   19.510860
  C     17.547487   13.376502   20.386428
  C     16.487865   13.869369   21.166759
  C     16.117961   15.217718   21.072013
  O     15.094806   15.696871   21.822639
  C     16.793726   16.074767   20.197959
  H     14.679116   15.524472   15.671016
  H     13.995005   14.137197   16.544807
  H     15.136153   13.869797   15.208018
  H     15.820126   15.235597   17.877929
  H     16.233711   13.554441   17.462141
  H     15.622129   18.658281   16.143897
  H     17.084557   19.437789   15.529577
  H     16.159646   20.189675   16.843511
  H     17.498966   20.193291   18.570432
  H     19.985802   17.323981   19.894890
  H     19.374149   15.938579   17.945054
  H     19.043985   13.854143   18.906978
  H     17.844521   12.331408   20.460139
  H     15.961305   13.205846   21.845255
  H     14.804273   14.984136   22.411844
  H     16.495486   17.116388   20.145968

 Total Charge           Charge          ....    0
 Multiplicity           Mult            ....    1
 Number of Electrons    NEL             ....  154
 Basis Dimension        Dim             ....  828

ORBITAL ENERGIES
----------------

  NO   OCC          E(Eh)            E(eV)
   0   2.0000     -91.892094     -2500.5110
   1   2.0000     -20.602782      -560.6302
   2   2.0000     -20.582660      -560.0827
   3   2.0000     -20.551074      -559.2232
   4   2.0000     -15.631789      -425.3626
   5   2.0000     -15.611252      -424.8038
   6   2.0000     -11.393489      -310.0326
   7   2.0000     -11.386759      -309.8495
   8   2.0000     -11.337326      -308.5043
   9   2.0000     -11.320859      -308.0562
  10   2.0000     -11.315606      -307.9133
  11   2.0000     -11.295874      -307.3763
  12   2.0000     -11.265668      -306.5544
  13   2.0000     -11.261954      -306.4533
  14   2.0000     -11.260435      -306.4120
  15   2.0000     -11.255295      -306.2721
  16   2.0000     -11.250129      -306.1316
  17   2.0000     -11.244368      -305.9748
  18   2.0000     -11.244316      -305.9734
  19   2.0000     -11.220979      -305.3384
  20   2.0000      -8.897106      -242.1026
  21   2.0000      -6.578668      -179.0147
  22   2.0000      -6.576677      -178.9605
  23   2.0000      -6.576077      -178.9442
  24   2.0000      -1.446881       -39.3716
  25   2.0000      -1.422512       -38.7085
  26   2.0000      -1.354540       -36.8589
  27   2.0000      -1.343311       -36.5534
  28   2.0000      -1.241957       -33.7954
  29   2.0000      -1.163468       -31.6596
  30   2.0000      -1.122633       -30.5484
  31   2.0000      -1.047977       -28.5169
  32   2.0000      -1.030394       -28.0384
  33   2.0000      -1.021987       -27.8097
  34   2.0000      -1.000462       -27.2239
  35   2.0000      -0.987694       -26.8765
  36   2.0000      -0.927274       -25.2324
  37   2.0000      -0.883220       -24.0336
  38   2.0000      -0.851379       -23.1672
  39   2.0000      -0.845566       -23.0090
  40   2.0000      -0.840541       -22.8723
  41   2.0000      -0.831790       -22.6342
  42   2.0000      -0.754718       -20.5369
  43   2.0000      -0.736502       -20.0412
  44   2.0000      -0.718806       -19.5597
  45   2.0000      -0.701988       -19.1021
  46   2.0000      -0.692849       -18.8534
  47   2.0000      -0.681199       -18.5364
  48   2.0000      -0.668814       -18.1993
  49   2.0000      -0.668302       -18.1854
  50   2.0000      -0.652230       -17.7481
  51   2.0000      -0.649340       -17.6694
  52   2.0000      -0.639217       -17.3940
  53   2.0000      -0.612894       -16.6777
  54   2.0000      -0.607818       -16.5396
  55   2.0000      -0.602793       -16.4028
  56   2.0000      -0.596601       -16.2343
  57   2.0000      -0.582549       -15.8520
  58   2.0000      -0.575194       -15.6518
  59   2.0000      -0.571067       -15.5395
  60   2.0000      -0.560721       -15.2580
  61   2.0000      -0.546627       -14.8745
  62   2.0000      -0.538984       -14.6665
  63   2.0000      -0.530294       -14.4300
  64   2.0000      -0.520384       -14.1604
  65   2.0000      -0.518108       -14.0984
  66   2.0000      -0.506456       -13.7814
  67   2.0000      -0.498929       -13.5765
  68   2.0000      -0.480224       -13.0676
  69   2.0000      -0.467757       -12.7283
  70   2.0000      -0.453645       -12.3443
  71   2.0000      -0.444930       -12.1071
  72   2.0000      -0.359556        -9.7840
  73   2.0000      -0.354238        -9.6393
  74   2.0000      -0.331893        -9.0313
  75   2.0000      -0.328367        -8.9353
  76   2.0000      -0.319375        -8.6906
  77   0.0000       0.069862         1.9010
  78   0.0000       0.098870         2.6904
  79   0.0000       0.119804         3.2600
  80   0.0000       0.127042         3.4570
  81   0.0000       0.130623         3.5544

MULLIKEN ATOMIC CHARGES
-----------------------
   0 C :   -0.262429
   1 C :    0.021945
   2 O :   -0.367407
   3 C :    0.462332
   4 O :   -0.384071
   5 C :   -0.266098
   6 C :    0.158584
   7 C :   -0.271924
   8 N :   -0.126750
   9 C :    0.202702
  10 S :   -0.432438
  11 N :   -0.190038
  12 C :    0.037120
  13 C :    0.044886
  14 C :   -0.176255
  15 C :   -0.137196
  16 C :   -0.272024
  17 C :    0.308384
  18 O :   -0.355135
  19 C :   -0.261440
  20 H :    0.095042
  21 H :    0.090288
  22 H :    0.103070
  23 H :    0.104193
  24 H :    0.113037
  25 H :    0.123800
  26 H :    0.139935
  27 H :    0.094684
  28 H :    0.198556
  29 H :    0.191067
  30 H :    0.149688
  31 H :    0.149199
  32 H :    0.165967
  33 H :    0.134474
  34 H :    0.241795
  35 H :    0.172458
Sum of atomic charges:   -0.0000000

LOEWDIN ATOMIC CHARGES
----------------------
   0 C :    0.106272
   1 C :   -0.022862
   2 O :    0.287349
   3 C :   -0.423031
   4 O :    0.129491
   5 C :   -0.099401
   6 C :   -0.064076
   7 C :    0.130215
   8 N :    0.406233
   9 C :   -0.457852
  10 S :   -0.030413
  11 N :    0.396455
  12 C :   -0.051970
  13 C :   -0.040675
  14 C :    0.016812
  15 C :    0.042536
  16 C :   -0.000321
  17 C :   -0.191278
  18 O :    0.396846
  19 C :    0.031062
  20 H :   -0.029226
  21 H :   -0.029108
  22 H :   -0.024086
  23 H :   -0.036635
  24 H :   -0.023019
  25 H :   -0.007307
  26 H :   -0.002632
  27 H :   -0.022572
  28 H :   -0.057335
  29 H :   -0.064898
  30 H :   -0.006023
  31 H :   -0.028424
  32 H :   -0.019519
  33 H :   -0.033994
  34 H :   -0.152408
  35 H :   -0.024206

  Mayer bond orders larger than 0.100000
B(  0-C ,  1-C ) :   0.9803 B(  0-C , 20-H ) :   0.9738 B(  0-C , 21-H ) :   0.9767
B(  0-C , 22-H ) :   0.9799 B(  1-C ,  2-O ) :   0.8766 B(  1-C , 23-H ) :   0.9613
B(  1-C , 24-H ) :   0.9800 B(  2-O ,  3-C ) :   1.1283 B(  3-C ,  4-O ) :   2.0600
B(  3-C ,  5-C ) :   1.0048 B(  5-C ,  6-C ) :   1.6702 B(  5-C , 12-C ) :   0.9680
B(  6-C ,  7-C ) :   0.9665 B(  6-C ,  8-N ) :   1.1440 B(  7-C , 25-H ) :   0.9687
B(  7-C , 26-H ) :   0.9553 B(  7-C , 27-H ) :   0.9864 B(  8-N ,  9-C ) :   1.1789
B(  8-N , 28-H ) :   0.9490 B(  9-C , 10-S ) :   1.6205 B(  9-C , 11-N ) :   1.2954
B( 11-N , 12-C ) :   0.9876 B( 11-N , 29-H ) :   0.9540 B( 12-C , 13-C ) :   0.9504
B( 12-C , 30-H ) :   1.0048 B( 13-C , 14-C ) :   1.3517 B( 13-C , 19-C ) :   1.3607
B( 14-C , 15-C ) :   1.3870 B( 14-C , 31-H ) :   0.9764 B( 15-C , 16-C ) :   1.3684
B( 15-C , 32-H ) :   0.9691 B( 16-C , 17-C ) :   1.3254 B( 16-C , 33-H ) :   0.9831
B( 17-C , 18-O ) :   1.1157 B( 17-C , 19-C ) :   1.3782 B( 18-O , 34-H ) :   0.9789
B( 19-C , 35-H ) :   0.9564

MP2 TOTAL ENERGY:    -1274.327582557 Eh
FINAL SINGLE POINT ENERGY     -1274.327582556705

DIPOLE MOMENT
-------------
                                X             Y             Z
Electronic contribution:     10.93914       8.44774       6.97355
Nuclear contribution   :    -12.11438      -9.97894      -6.57666
                        -----------------------------------------
Total Dipole Moment    :     -1.17523      -1.53120       0.39689
                        -----------------------------------------
Magnitude (a.u.)       :      1.97060
Magnitude (Debye)      :      5.00886

Rotational constants in cm-1:     0.011439     0.009687     0.006424
Rotational constants in MHz :   342.939086   290.416196   192.576546

                             ****ORCA TERMINATED NORMALLY****
TOTAL RUN TIME: 0 days 1 hours 46 minutes 10 seconds 196 msec
