                         Program Version 4.2.0 -  RELEASE  -
|  1> ! ri-mp2 cc-pvtz cc-pvtz/c TightSCF  NoKeepInts
|  2>
|  3> %scf
|  4>   MaxCore 4096
|  5> end
|  6> *xyz  0  1
|  7>     C       15.4039304   14.4259842   17.1620098
|  8>     C       15.4569795   15.3878643   15.9561034
|  9>     O       16.8097914   15.7028117   15.5485897
| 10>     C       17.8555422   15.7149521   16.4279912
| 11>     O       18.5528854   14.7270847   16.5766177
| 12>     C       17.9041734   16.8849931   17.3698401
| 13>     C       17.4054828   18.1177467   17.0914051
| 14>     C       16.7449075   18.5946931   15.8133637
| 15>     N       17.5827000   19.1608069   18.0059973
| 16>     C       18.4022568   19.1085546   19.1023201
| 17>     S       18.6720181   20.4348209   20.0524333
| 18>     N       18.9873010   17.8969796   19.3694409
| 19>     C       18.6552531   16.6332609   18.6841731
| 20>     C       17.8701300   15.7088610   19.6111235
| 21>     C       18.2282805   14.3531221   19.7289101
| 22>     C       17.5040378   13.4898707   20.5677106
| 23>     C       16.4109079   13.9852490   21.2983042
| 24>     C       16.0492275   15.3341599   21.1840350
| 25>     O       14.9878002   15.8133916   21.8800118
| 26>     C       16.7708942   16.1910484   20.3469178
| 27>     H       16.0315756   13.5420707   16.9891017
| 28>     H       14.3761547   14.0817364   17.3282899
| 29>     H       15.7371675   14.9185438   18.0800733
| 30>     H       14.9269687   14.9376172   15.1067487
| 31>     H       14.9235903   16.3064624   16.2274630
| 32>     H       17.1838790   18.1129098   14.9308881
| 33>     H       16.8715188   19.6744917   15.6653066
| 34>     H       15.6694096   18.3876616   15.8196128
| 35>     H       17.1685232   20.0608704   17.8221506
| 36>     H       19.5701314   17.8774989   20.1966526
| 37>     H       19.6043203   16.1358323   18.4356846
| 38>     H       19.0635372   13.9625244   19.1516635
| 39>     H       17.7889232   12.4419040   20.6436708
| 40>     H       15.8476762   13.3211482   21.9455131
| 41>     H       14.6586363   15.0937343   22.4393978
| 42>     H       16.4704883   17.2307382   20.2744843
| 43> *
| 44>
| 45>                          ****END OF INPUT****

CARTESIAN COORDINATES (ANGSTROEM)
---------------------------------
  C     15.403930   14.425984   17.162010
  C     15.456979   15.387864   15.956103
  O     16.809791   15.702812   15.548590
  C     17.855542   15.714952   16.427991
  O     18.552885   14.727085   16.576618
  C     17.904173   16.884993   17.369840
  C     17.405483   18.117747   17.091405
  C     16.744908   18.594693   15.813364
  N     17.582700   19.160807   18.005997
  C     18.402257   19.108555   19.102320
  S     18.672018   20.434821   20.052433
  N     18.987301   17.896980   19.369441
  C     18.655253   16.633261   18.684173
  C     17.870130   15.708861   19.611124
  C     18.228281   14.353122   19.728910
  C     17.504038   13.489871   20.567711
  C     16.410908   13.985249   21.298304
  C     16.049228   15.334160   21.184035
  O     14.987800   15.813392   21.880012
  C     16.770894   16.191048   20.346918
  H     16.031576   13.542071   16.989102
  H     14.376155   14.081736   17.328290
  H     15.737167   14.918544   18.080073
  H     14.926969   14.937617   15.106749
  H     14.923590   16.306462   16.227463
  H     17.183879   18.112910   14.930888
  H     16.871519   19.674492   15.665307
  H     15.669410   18.387662   15.819613
  H     17.168523   20.060870   17.822151
  H     19.570131   17.877499   20.196653
  H     19.604320   16.135832   18.435685
  H     19.063537   13.962524   19.151664
  H     17.788923   12.441904   20.643671
  H     15.847676   13.321148   21.945513
  H     14.658636   15.093734   22.439398
  H     16.470488   17.230738   20.274484

 Total Charge           Charge          ....    0
 Multiplicity           Mult            ....    1
 Number of Electrons    NEL             ....  154
 Basis Dimension        Dim             ....  828

ORBITAL ENERGIES
----------------

  NO   OCC          E(Eh)            E(eV)
   0   2.0000     -91.890882     -2500.4780
   1   2.0000     -20.596425      -560.4572
   2   2.0000     -20.584736      -560.1392
   3   2.0000     -20.553409      -559.2867
   4   2.0000     -15.630989      -425.3408
   5   2.0000     -15.609470      -424.7553
   6   2.0000     -11.396433      -310.1127
   7   2.0000     -11.385962      -309.8278
   8   2.0000     -11.339370      -308.5599
   9   2.0000     -11.313022      -307.8430
  10   2.0000     -11.309196      -307.7389
  11   2.0000     -11.307867      -307.7027
  12   2.0000     -11.264041      -306.5101
  13   2.0000     -11.263334      -306.4909
  14   2.0000     -11.258724      -306.3655
  15   2.0000     -11.252944      -306.2082
  16   2.0000     -11.242610      -305.9270
  17   2.0000     -11.238435      -305.8134
  18   2.0000     -11.234585      -305.7086
  19   2.0000     -11.225647      -305.4654
  20   2.0000      -8.895942      -242.0709
  21   2.0000      -6.577516      -178.9833
  22   2.0000      -6.575508      -178.9287
  23   2.0000      -6.574919      -178.9127
  24   2.0000      -1.446190       -39.3528
  25   2.0000      -1.416251       -38.5382
  26   2.0000      -1.356278       -36.9062
  27   2.0000      -1.342552       -36.5327
  28   2.0000      -1.240137       -33.7458
  29   2.0000      -1.157013       -31.4839
  30   2.0000      -1.122333       -30.5402
  31   2.0000      -1.044939       -28.4342
  32   2.0000      -1.033230       -28.1156
  33   2.0000      -1.015007       -27.6197
  34   2.0000      -1.002699       -27.2848
  35   2.0000      -0.987607       -26.8742
  36   2.0000      -0.925759       -25.1912
  37   2.0000      -0.894957       -24.3530
  38   2.0000      -0.852700       -23.2031
  39   2.0000      -0.840634       -22.8748
  40   2.0000      -0.832949       -22.6657
  41   2.0000      -0.824786       -22.4436
  42   2.0000      -0.744251       -20.2521
  43   2.0000      -0.729766       -19.8580
  44   2.0000      -0.728744       -19.8301
  45   2.0000      -0.694345       -18.8941
  46   2.0000      -0.686676       -18.6854
  47   2.0000      -0.680580       -18.5195
  48   2.0000      -0.675420       -18.3791
  49   2.0000      -0.663718       -18.0607
  50   2.0000      -0.651980       -17.7413
  51   2.0000      -0.649212       -17.6660
  52   2.0000      -0.637936       -17.3591
  53   2.0000      -0.625775       -17.0282
  54   2.0000      -0.606113       -16.4932
  55   2.0000      -0.604266       -16.4429
  56   2.0000      -0.600320       -16.3356
  57   2.0000      -0.580898       -15.8070
  58   2.0000      -0.574576       -15.6350
  59   2.0000      -0.565202       -15.3799
  60   2.0000      -0.555322       -15.1111
  61   2.0000      -0.545996       -14.8573
  62   2.0000      -0.539151       -14.6710
  63   2.0000      -0.531569       -14.4647
  64   2.0000      -0.519855       -14.1460
  65   2.0000      -0.512378       -13.9425
  66   2.0000      -0.500313       -13.6142
  67   2.0000      -0.489936       -13.3318
  68   2.0000      -0.486562       -13.2400
  69   2.0000      -0.468301       -12.7431
  70   2.0000      -0.457097       -12.4383
  71   2.0000      -0.449013       -12.2183
  72   2.0000      -0.358392        -9.7524
  73   2.0000      -0.348441        -9.4816
  74   2.0000      -0.330083        -8.9820
  75   2.0000      -0.320922        -8.7327
  76   2.0000      -0.318397        -8.6640
  77   0.0000       0.070697         1.9238
  78   0.0000       0.106552         2.8994
  79   0.0000       0.119205         3.2437
  80   0.0000       0.131884         3.5887
  81   0.0000       0.136569         3.7162

MULLIKEN ATOMIC CHARGES
-----------------------
   0 C :   -0.316247
   1 C :    0.044319
   2 O :   -0.380028
   3 C :    0.489952
   4 O :   -0.393674
   5 C :   -0.225737
   6 C :    0.147113
   7 C :   -0.312865
   8 N :   -0.125296
   9 C :    0.190148
  10 S :   -0.435814
  11 N :   -0.202058
  12 C :    0.052056
  13 C :    0.011550
  14 C :   -0.167448
  15 C :   -0.143436
  16 C :   -0.267907
  17 C :    0.303023
  18 O :   -0.359188
  19 C :   -0.244417
  20 H :    0.119799
  21 H :    0.107992
  22 H :    0.110817
  23 H :    0.116779
  24 H :    0.077903
  25 H :    0.141414
  26 H :    0.115587
  27 H :    0.122186
  28 H :    0.197749
  29 H :    0.195085
  30 H :    0.159768
  31 H :    0.166474
  32 H :    0.162252
  33 H :    0.131640
  34 H :    0.240648
  35 H :    0.169859
Sum of atomic charges:   -0.0000000

LOEWDIN ATOMIC CHARGES
----------------------
   0 C :    0.109630
   1 C :   -0.016126
   2 O :    0.283110
   3 C :   -0.420409
   4 O :    0.127927
   5 C :   -0.092760
   6 C :   -0.071158
   7 C :    0.127611
   8 N :    0.404921
   9 C :   -0.460590
  10 S :   -0.033841
  11 N :    0.397603
  12 C :   -0.045469
  13 C :   -0.043333
  14 C :    0.022178
  15 C :    0.042925
  16 C :   -0.001466
  17 C :   -0.193963
  18 O :    0.394614
  19 C :    0.025927
  20 H :   -0.020797
  21 H :   -0.024161
  22 H :   -0.029015
  23 H :   -0.021839
  24 H :   -0.039829
  25 H :   -0.006468
  26 H :   -0.016678
  27 H :   -0.016793
  28 H :   -0.057941
  29 H :   -0.063439
  30 H :   -0.003147
  31 H :   -0.023494
  32 H :   -0.019712
  33 H :   -0.035329
  34 H :   -0.153852
  35 H :   -0.024841

  Mayer bond orders larger than 0.100000
B(  0-C ,  1-C ) :   0.9691 B(  0-C , 20-H ) :   0.9701 B(  0-C , 21-H ) :   0.9763
B(  0-C , 22-H ) :   0.9670 B(  1-C ,  2-O ) :   0.8983 B(  1-C , 23-H ) :   0.9805
B(  1-C , 24-H ) :   0.9746 B(  2-O ,  3-C ) :   1.0998 B(  3-C ,  4-O ) :   2.0473
B(  3-C ,  5-C ) :   1.0068 B(  5-C ,  6-C ) :   1.6631 B(  5-C , 12-C ) :   0.9568
B(  6-C ,  7-C ) :   0.9461 B(  6-C ,  8-N ) :   1.1381 B(  7-C , 25-H ) :   0.9660
B(  7-C , 26-H ) :   0.9867 B(  7-C , 27-H ) :   0.9671 B(  8-N ,  9-C ) :   1.1813
B(  8-N , 28-H ) :   0.9499 B(  9-C , 10-S ) :   1.6156 B(  9-C , 11-N ) :   1.2994
B( 11-N , 12-C ) :   0.9892 B( 11-N , 29-H ) :   0.9518 B( 12-C , 13-C ) :   0.9475
B( 12-C , 30-H ) :   0.9985 B( 13-C , 14-C ) :   1.3898 B( 13-C , 19-C ) :   1.3571
B( 14-C , 15-C ) :   1.3950 B( 14-C , 31-H ) :   0.9591 B( 15-C , 16-C ) :   1.3625
B( 15-C , 32-H ) :   0.9706 B( 16-C , 17-C ) :   1.3313 B( 16-C , 33-H ) :   0.9844
B( 17-C , 18-O ) :   1.1119 B( 17-C , 19-C ) :   1.3727 B( 18-O , 34-H ) :   0.9799
B( 19-C , 35-H ) :   0.9591

MP2 TOTAL ENERGY:    -1274.330722649 Eh
FINAL SINGLE POINT ENERGY     -1274.330722648707

DIPOLE MOMENT
-------------
                                X             Y             Z
Electronic contribution:      9.64653       8.49528       6.32792
Nuclear contribution   :    -11.17592      -9.51886      -6.87721
                        -----------------------------------------
Total Dipole Moment    :     -1.52939      -1.02357      -0.54929
                        -----------------------------------------
Magnitude (a.u.)       :      1.92054
Magnitude (Debye)      :      4.88161

Rotational constants in cm-1:     0.011480     0.009760     0.006646
Rotational constants in MHz :   344.172003   292.599460   199.253732

                             ****ORCA TERMINATED NORMALLY****
TOTAL RUN TIME: 0 days 2 hours 57 minutes 11 seconds 182 msec
