                         Program Version 4.2.0 -  RELEASE  -
|  1> ! ri-mp2 cc-pvtz cc-pvtz/c TightSCF  NoKeepInts
|  2>
|  3> %scf
|  4>   MaxCore 4096
|  5> end
|  6> *xyz  0  1
|  7>     C       15.5805920   13.6481084   17.2536260
|  8>     C       16.3704971   14.1277552   16.0238595
|  9>     O       17.3177666   15.1240464   16.4564890
| 10>     C       17.0378220   16.4502402   16.2713229
| 11>     O       16.2560693   16.8345961   15.4181784
| 12>     C       17.6109573   17.3265286   17.3517843
| 13>     C       17.4051947   18.6684518   17.3851924
| 14>     C       16.5874591   19.4976330   16.4178231
| 15>     N       18.0139368   19.4467690   18.3743111
| 16>     C       18.9414776   18.9874858   19.2705383
| 17>     S       19.7098549   19.9978380   20.3312242
| 18>     N       19.2106462   17.6433503   19.2359292
| 19>     C       18.4710537   16.6518298   18.4344247
| 20>     C       17.6595264   15.7595873   19.3689687
| 21>     C       18.1520509   14.4938804   19.7387717
| 22>     C       17.4249267   13.6712009   20.6157089
| 23>     C       16.1946518   14.1174512   21.1275001
| 24>     C       15.7049146   15.3803967   20.7676419
| 25>     O       14.5192206   15.8156252   21.2630707
| 26>     C       16.4328017   16.1990453   19.8987267
| 27>     H       16.2518465   13.1991925   17.9946684
| 28>     H       14.8390784   12.8941166   16.9637441
| 29>     H       15.0510112   14.4851688   17.7255550
| 30>     H       16.9135759   13.2737879   15.5993398
| 31>     H       15.6881147   14.5072239   15.2513205
| 32>     H       15.5410439   19.1665110   16.4159820
| 33>     H       16.9680093   19.3845155   15.3946981
| 34>     H       16.5951130   20.5676243   16.6563182
| 35>     H       17.8321710   20.4370626   18.4098625
| 36>     H       19.8730558   17.3290968   19.9330813
| 37>     H       19.2133608   16.0243188   17.9212166
| 38>     H       19.1023116   14.1457161   19.3430209
| 39>     H       17.8143520   12.6937028   20.8949970
| 40>     H       15.6285741   13.4854246   21.8038077
| 41>     H       14.1926515   15.1383708   21.8743439
| 42>     H       16.0413101   17.1783478   19.6469525
| 43> *
| 44>
| 45>                          ****END OF INPUT****

CARTESIAN COORDINATES (ANGSTROEM)
---------------------------------
  C     15.580592   13.648108   17.253626
  C     16.370497   14.127755   16.023860
  O     17.317767   15.124046   16.456489
  C     17.037822   16.450240   16.271323
  O     16.256069   16.834596   15.418178
  C     17.610957   17.326529   17.351784
  C     17.405195   18.668452   17.385192
  C     16.587459   19.497633   16.417823
  N     18.013937   19.446769   18.374311
  C     18.941478   18.987486   19.270538
  S     19.709855   19.997838   20.331224
  N     19.210646   17.643350   19.235929
  C     18.471054   16.651830   18.434425
  C     17.659526   15.759587   19.368969
  C     18.152051   14.493880   19.738772
  C     17.424927   13.671201   20.615709
  C     16.194652   14.117451   21.127500
  C     15.704915   15.380397   20.767642
  O     14.519221   15.815625   21.263071
  C     16.432802   16.199045   19.898727
  H     16.251846   13.199192   17.994668
  H     14.839078   12.894117   16.963744
  H     15.051011   14.485169   17.725555
  H     16.913576   13.273788   15.599340
  H     15.688115   14.507224   15.251320
  H     15.541044   19.166511   16.415982
  H     16.968009   19.384515   15.394698
  H     16.595113   20.567624   16.656318
  H     17.832171   20.437063   18.409862
  H     19.873056   17.329097   19.933081
  H     19.213361   16.024319   17.921217
  H     19.102312   14.145716   19.343021
  H     17.814352   12.693703   20.894997
  H     15.628574   13.485425   21.803808
  H     14.192652   15.138371   21.874344
  H     16.041310   17.178348   19.646953

 Total Charge           Charge          ....    0
 Multiplicity           Mult            ....    1
 Number of Electrons    NEL             ....  154
 Basis Dimension        Dim             ....  828

ORBITAL ENERGIES
----------------

  NO   OCC          E(Eh)            E(eV)
   0   2.0000     -91.889027     -2500.4275
   1   2.0000     -20.598794      -560.5217
   2   2.0000     -20.597930      -560.4982
   3   2.0000     -20.541735      -558.9690
   4   2.0000     -15.629519      -425.3008
   5   2.0000     -15.608374      -424.7255
   6   2.0000     -11.394820      -310.0688
   7   2.0000     -11.384049      -309.7757
   8   2.0000     -11.336721      -308.4879
   9   2.0000     -11.315781      -307.9181
  10   2.0000     -11.309612      -307.7502
  11   2.0000     -11.292897      -307.2954
  12   2.0000     -11.261515      -306.4414
  13   2.0000     -11.259388      -306.3835
  14   2.0000     -11.257163      -306.3230
  15   2.0000     -11.252353      -306.1921
  16   2.0000     -11.244493      -305.9782
  17   2.0000     -11.239382      -305.8391
  18   2.0000     -11.239215      -305.8346
  19   2.0000     -11.220612      -305.3284
  20   2.0000      -8.894081      -242.0202
  21   2.0000      -6.575654      -178.9326
  22   2.0000      -6.573651      -178.8781
  23   2.0000      -6.573064      -178.8622
  24   2.0000      -1.449411       -39.4405
  25   2.0000      -1.418414       -38.5970
  26   2.0000      -1.353441       -36.8290
  27   2.0000      -1.340580       -36.4790
  28   2.0000      -1.239102       -33.7177
  29   2.0000      -1.158968       -31.5371
  30   2.0000      -1.120682       -30.4953
  31   2.0000      -1.043510       -28.3954
  32   2.0000      -1.034786       -28.1580
  33   2.0000      -1.016957       -27.6728
  34   2.0000      -0.996149       -27.1066
  35   2.0000      -0.984437       -26.7879
  36   2.0000      -0.923357       -25.1258
  37   2.0000      -0.890072       -24.2201
  38   2.0000      -0.847515       -23.0621
  39   2.0000      -0.839240       -22.8369
  40   2.0000      -0.834999       -22.7215
  41   2.0000      -0.814374       -22.1603
  42   2.0000      -0.759788       -20.6749
  43   2.0000      -0.733536       -19.9605
  44   2.0000      -0.722348       -19.6561
  45   2.0000      -0.697559       -18.9816
  46   2.0000      -0.688839       -18.7443
  47   2.0000      -0.678600       -18.4656
  48   2.0000      -0.669207       -18.2101
  49   2.0000      -0.666139       -18.1266
  50   2.0000      -0.648223       -17.6390
  51   2.0000      -0.643432       -17.5087
  52   2.0000      -0.635164       -17.2837
  53   2.0000      -0.609639       -16.5891
  54   2.0000      -0.602120       -16.3845
  55   2.0000      -0.599819       -16.3219
  56   2.0000      -0.594531       -16.1780
  57   2.0000      -0.579199       -15.7608
  58   2.0000      -0.570894       -15.5348
  59   2.0000      -0.566370       -15.4117
  60   2.0000      -0.560839       -15.2612
  61   2.0000      -0.548275       -14.9193
  62   2.0000      -0.536163       -14.5897
  63   2.0000      -0.527090       -14.3428
  64   2.0000      -0.526433       -14.3250
  65   2.0000      -0.512955       -13.9582
  66   2.0000      -0.502671       -13.6784
  67   2.0000      -0.497077       -13.5261
  68   2.0000      -0.481514       -13.1027
  69   2.0000      -0.463369       -12.6089
  70   2.0000      -0.451561       -12.2876
  71   2.0000      -0.447228       -12.1697
  72   2.0000      -0.355058        -9.6616
  73   2.0000      -0.351217        -9.5571
  74   2.0000      -0.328683        -8.9439
  75   2.0000      -0.323243        -8.7959
  76   2.0000      -0.316634        -8.6161
  77   0.0000       0.075700         2.0599
  78   0.0000       0.104128         2.8335
  79   0.0000       0.123409         3.3581
  80   0.0000       0.131739         3.5848
  81   0.0000       0.135378         3.6838

MULLIKEN ATOMIC CHARGES
-----------------------
   0 C :   -0.302996
   1 C :    0.024597
   2 O :   -0.361294
   3 C :    0.466822
   4 O :   -0.429990
   5 C :   -0.248481
   6 C :    0.157811
   7 C :   -0.269851
   8 N :   -0.123017
   9 C :    0.217285
  10 S :   -0.441438
  11 N :   -0.210058
  12 C :    0.065735
  13 C :    0.093836
  14 C :   -0.202797
  15 C :   -0.138913
  16 C :   -0.270780
  17 C :    0.318472
  18 O :   -0.359039
  19 C :   -0.275891
  20 H :    0.101419
  21 H :    0.109156
  22 H :    0.105676
  23 H :    0.102291
  24 H :    0.119555
  25 H :    0.130719
  26 H :    0.132221
  27 H :    0.095063
  28 H :    0.197449
  29 H :    0.194998
  30 H :    0.148876
  31 H :    0.147573
  32 H :    0.163943
  33 H :    0.131633
  34 H :    0.241492
  35 H :    0.167924
Sum of atomic charges:    0.0000000

LOEWDIN ATOMIC CHARGES
----------------------
   0 C :    0.103684
   1 C :   -0.013452
   2 O :    0.302316
   3 C :   -0.415109
   4 O :    0.098468
   5 C :   -0.095478
   6 C :   -0.058310
   7 C :    0.131284
   8 N :    0.407243
   9 C :   -0.454837
  10 S :   -0.035709
  11 N :    0.396282
  12 C :   -0.052441
  13 C :   -0.034771
  14 C :    0.011668
  15 C :    0.042055
  16 C :   -0.001568
  17 C :   -0.188598
  18 O :    0.396041
  19 C :    0.031377
  20 H :   -0.027984
  21 H :   -0.027411
  22 H :   -0.026982
  23 H :   -0.028221
  24 H :   -0.029017
  25 H :   -0.004995
  26 H :   -0.003591
  27 H :   -0.023396
  28 H :   -0.057480
  29 H :   -0.065387
  30 H :   -0.009664
  31 H :   -0.030811
  32 H :   -0.020895
  33 H :   -0.035381
  34 H :   -0.153248
  35 H :   -0.025682

  Mayer bond orders larger than 0.100000
B(  0-C ,  1-C ) :   0.9666 B(  0-C , 20-H ) :   0.9726 B(  0-C , 21-H ) :   0.9781
B(  0-C , 22-H ) :   0.9745 B(  1-C ,  2-O ) :   0.8855 B(  1-C , 23-H ) :   0.9859
B(  1-C , 24-H ) :   0.9751 B(  2-O ,  3-C ) :   1.1612 B(  3-C ,  4-O ) :   1.9817
B(  3-C ,  5-C ) :   1.0538 B(  5-C ,  6-C ) :   1.6515 B(  5-C , 12-C ) :   0.9759
B(  6-C ,  7-C ) :   0.9675 B(  6-C ,  8-N ) :   1.1639 B(  7-C , 25-H ) :   0.9605
B(  7-C , 26-H ) :   0.9596 B(  7-C , 27-H ) :   0.9904 B(  8-N ,  9-C ) :   1.1834
B(  8-N , 28-H ) :   0.9478 B(  9-C , 10-S ) :   1.6021 B(  9-C , 11-N ) :   1.3088
B( 11-N , 12-C ) :   0.9675 B( 11-N , 29-H ) :   0.9520 B( 12-C , 13-C ) :   0.9423
B( 12-C , 30-H ) :   1.0019 B( 13-C , 14-C ) :   1.3479 B( 13-C , 19-C ) :   1.3674
B( 14-C , 15-C ) :   1.3893 B( 14-C , 31-H ) :   0.9746 B( 15-C , 16-C ) :   1.3601
B( 15-C , 32-H ) :   0.9708 B( 16-C , 17-C ) :   1.3309 B( 16-C , 33-H ) :   0.9847
B( 17-C , 18-O ) :   1.1093 B( 17-C , 19-C ) :   1.3692 B( 18-O , 34-H ) :   0.9793
B( 19-C , 35-H ) :   0.9588

MP2 TOTAL ENERGY:    -1274.348406239 Eh
FINAL SINGLE POINT ENERGY     -1274.348406239092

DIPOLE MOMENT
-------------
                                X             Y             Z
Electronic contribution:      8.54898      10.91371       5.64117
Nuclear contribution   :     -9.42371     -12.62243      -5.86898
                        -----------------------------------------
Total Dipole Moment    :     -0.87474      -1.70872      -0.22781
                        -----------------------------------------
Magnitude (a.u.)       :      1.93307
Magnitude (Debye)      :      4.91348

Rotational constants in cm-1:     0.012516     0.008790     0.006414
Rotational constants in MHz :   375.233151   263.529355   192.292177

                             ****ORCA TERMINATED NORMALLY****
TOTAL RUN TIME: 0 days 1 hours 44 minutes 54 seconds 418 msec
