                         Program Version 4.2.0 -  RELEASE  -
|  1> ! ri-mp2 cc-pvtz cc-pvtz/c TightSCF  NoKeepInts
|  2>
|  3> %scf
|  4>   MaxCore 4096
|  5> end
|  6> *xyz  0  1
|  7>     C       14.1718959   15.3054499   16.2499447
|  8>     C       15.4182095   15.5018519   17.1282475
|  9>     O       16.5671074   15.2090925   16.3059704
| 10>     C       17.8243267   15.7226641   16.5079988
| 11>     O       18.8003169   15.0447777   16.2452499
| 12>     C       17.9333562   16.8929596   17.4293216
| 13>     C       17.3580550   18.0882117   17.1621908
| 14>     C       16.5499555   18.4539390   15.9352380
| 15>     N       17.5397187   19.1587345   18.0401223
| 16>     C       18.3535158   19.1316994   19.1432960
| 17>     S       18.5528442   20.4605336   20.1067394
| 18>     N       18.9895524   17.9441395   19.4134632
| 19>     C       18.7973823   16.6827720   18.6697979
| 20>     C       18.1840618   15.6013522   19.5531126
| 21>     C       18.6946891   14.2909608   19.5237039
| 22>     C       18.1146402   13.2788922   20.3064034
| 23>     C       17.0105997   13.5774972   21.1228188
| 24>     C       16.4935282   14.8795404   21.1484176
| 25>     O       15.4171069   15.1681115   21.9219137
| 26>     C       17.0725239   15.8852906   20.3681309
| 27>     H       13.2588417   15.4888047   16.8293826
| 28>     H       14.1320042   14.2792550   15.8630656
| 29>     H       14.1842319   15.9954037   15.3972375
| 30>     H       15.4084545   16.5260389   17.5117795
| 31>     H       15.3923345   14.8182001   17.9876130
| 32>     H       16.6063409   17.6845194   15.1552584
| 33>     H       16.9192971   19.3845558   15.4857647
| 34>     H       15.4919096   18.5969135   16.1865456
| 35>     H       17.0934544   20.0430236   17.8524608
| 36>     H       19.5659645   17.9486060   20.2456483
| 37>     H       19.7860458   16.3353805   18.3347090
| 38>     H       19.5351155   14.0520464   18.8752179
| 39>     H       18.5167083   12.2676716   20.2706688
| 40>     H       16.5575369   12.7970931   21.7254011
| 41>     H       15.2015881   14.3704623   22.4289827
| 42>     H       16.6537858   16.8855552   20.4021834
| 43> *
| 44>
| 45>                          ****END OF INPUT****

CARTESIAN COORDINATES (ANGSTROEM)
---------------------------------
  C     14.171896   15.305450   16.249945
  C     15.418209   15.501852   17.128247
  O     16.567107   15.209092   16.305970
  C     17.824327   15.722664   16.507999
  O     18.800317   15.044778   16.245250
  C     17.933356   16.892960   17.429322
  C     17.358055   18.088212   17.162191
  C     16.549955   18.453939   15.935238
  N     17.539719   19.158735   18.040122
  C     18.353516   19.131699   19.143296
  S     18.552844   20.460534   20.106739
  N     18.989552   17.944139   19.413463
  C     18.797382   16.682772   18.669798
  C     18.184062   15.601352   19.553113
  C     18.694689   14.290961   19.523704
  C     18.114640   13.278892   20.306403
  C     17.010600   13.577497   21.122819
  C     16.493528   14.879540   21.148418
  O     15.417107   15.168111   21.921914
  C     17.072524   15.885291   20.368131
  H     13.258842   15.488805   16.829383
  H     14.132004   14.279255   15.863066
  H     14.184232   15.995404   15.397237
  H     15.408454   16.526039   17.511779
  H     15.392334   14.818200   17.987613
  H     16.606341   17.684519   15.155258
  H     16.919297   19.384556   15.485765
  H     15.491910   18.596913   16.186546
  H     17.093454   20.043024   17.852461
  H     19.565964   17.948606   20.245648
  H     19.786046   16.335380   18.334709
  H     19.535115   14.052046   18.875218
  H     18.516708   12.267672   20.270669
  H     16.557537   12.797093   21.725401
  H     15.201588   14.370462   22.428983
  H     16.653786   16.885555   20.402183

 Total Charge           Charge          ....    0
 Multiplicity           Mult            ....    1
 Number of Electrons    NEL             ....  154
 Basis Dimension        Dim             ....  828

ORBITAL ENERGIES
----------------

  NO   OCC          E(Eh)            E(eV)
   0   2.0000     -91.890449     -2500.4662
   1   2.0000     -20.600210      -560.5602
   2   2.0000     -20.599604      -560.5437
   3   2.0000     -20.550420      -559.2054
   4   2.0000     -15.627949      -425.2581
   5   2.0000     -15.611837      -424.8197
   6   2.0000     -11.397479      -310.1412
   7   2.0000     -11.387274      -309.8635
   8   2.0000     -11.330260      -308.3120
   9   2.0000     -11.316820      -307.9463
  10   2.0000     -11.314432      -307.8813
  11   2.0000     -11.303239      -307.5768
  12   2.0000     -11.269468      -306.6578
  13   2.0000     -11.264295      -306.5170
  14   2.0000     -11.263282      -306.4895
  15   2.0000     -11.256880      -306.3153
  16   2.0000     -11.246416      -306.0305
  17   2.0000     -11.242392      -305.9210
  18   2.0000     -11.239604      -305.8452
  19   2.0000     -11.234879      -305.7166
  20   2.0000      -8.895559      -242.0605
  21   2.0000      -6.577144      -178.9732
  22   2.0000      -6.575121      -178.9181
  23   2.0000      -6.574544      -178.9024
  24   2.0000      -1.447507       -39.3887
  25   2.0000      -1.420025       -38.6409
  26   2.0000      -1.359164       -36.9847
  27   2.0000      -1.340814       -36.4854
  28   2.0000      -1.240335       -33.7512
  29   2.0000      -1.161710       -31.6117
  30   2.0000      -1.126127       -30.6435
  31   2.0000      -1.049353       -28.5543
  32   2.0000      -1.041354       -28.3367
  33   2.0000      -1.018972       -27.7276
  34   2.0000      -1.005393       -27.3581
  35   2.0000      -0.989892       -26.9363
  36   2.0000      -0.928117       -25.2554
  37   2.0000      -0.882710       -24.0198
  38   2.0000      -0.855188       -23.2708
  39   2.0000      -0.842544       -22.9268
  40   2.0000      -0.837414       -22.7872
  41   2.0000      -0.836595       -22.7649
  42   2.0000      -0.757964       -20.6253
  43   2.0000      -0.740031       -20.1373
  44   2.0000      -0.732327       -19.9276
  45   2.0000      -0.697762       -18.9871
  46   2.0000      -0.688382       -18.7318
  47   2.0000      -0.681669       -18.5492
  48   2.0000      -0.676803       -18.4167
  49   2.0000      -0.665347       -18.1050
  50   2.0000      -0.652939       -17.7674
  51   2.0000      -0.646526       -17.5929
  52   2.0000      -0.640577       -17.4310
  53   2.0000      -0.612761       -16.6741
  54   2.0000      -0.608448       -16.5567
  55   2.0000      -0.604362       -16.4455
  56   2.0000      -0.602909       -16.4060
  57   2.0000      -0.587525       -15.9874
  58   2.0000      -0.578620       -15.7450
  59   2.0000      -0.568911       -15.4809
  60   2.0000      -0.562094       -15.2954
  61   2.0000      -0.559954       -15.2371
  62   2.0000      -0.543561       -14.7910
  63   2.0000      -0.531432       -14.4610
  64   2.0000      -0.524467       -14.2715
  65   2.0000      -0.516186       -14.0461
  66   2.0000      -0.502782       -13.6814
  67   2.0000      -0.501993       -13.6599
  68   2.0000      -0.489730       -13.3262
  69   2.0000      -0.470312       -12.7978
  70   2.0000      -0.455983       -12.4079
  71   2.0000      -0.449169       -12.2225
  72   2.0000      -0.357340        -9.7237
  73   2.0000      -0.352182        -9.5834
  74   2.0000      -0.330077        -8.9818
  75   2.0000      -0.324742        -8.8367
  76   2.0000      -0.318648        -8.6709
  77   0.0000       0.082736         2.2514
  78   0.0000       0.104430         2.8417
  79   0.0000       0.113369         3.0849
  80   0.0000       0.128144         3.4870
  81   0.0000       0.131442         3.5767

MULLIKEN ATOMIC CHARGES
-----------------------
   0 C :   -0.261018
   1 C :    0.013215
   2 O :   -0.319146
   3 C :    0.403272
   4 O :   -0.381832
   5 C :   -0.198688
   6 C :    0.137175
   7 C :   -0.322873
   8 N :   -0.134771
   9 C :    0.204520
  10 S :   -0.440136
  11 N :   -0.210950
  12 C :    0.064841
  13 C :    0.030654
  14 C :   -0.190064
  15 C :   -0.130243
  16 C :   -0.276560
  17 C :    0.316343
  18 O :   -0.359125
  19 C :   -0.282544
  20 H :    0.091280
  21 H :    0.109658
  22 H :    0.091057
  23 H :    0.092863
  24 H :    0.128431
  25 H :    0.129952
  26 H :    0.138237
  27 H :    0.120974
  28 H :    0.196583
  29 H :    0.197521
  30 H :    0.163262
  31 H :    0.166710
  32 H :    0.163640
  33 H :    0.132784
  34 H :    0.241949
  35 H :    0.173029
Sum of atomic charges:    0.0000000

LOEWDIN ATOMIC CHARGES
----------------------
   0 C :    0.108532
   1 C :   -0.019090
   2 O :    0.304812
   3 C :   -0.416349
   4 O :    0.125351
   5 C :   -0.084581
   6 C :   -0.101956
   7 C :    0.126062
   8 N :    0.401470
   9 C :   -0.455787
  10 S :   -0.037014
  11 N :    0.397162
  12 C :   -0.044834
  13 C :   -0.044093
  14 C :    0.022798
  15 C :    0.045532
  16 C :   -0.000427
  17 C :   -0.194847
  18 O :    0.394263
  19 C :    0.028264
  20 H :   -0.024624
  21 H :   -0.023032
  22 H :   -0.030148
  23 H :   -0.040548
  24 H :   -0.025842
  25 H :   -0.007804
  26 H :   -0.010324
  27 H :   -0.016740
  28 H :   -0.057636
  29 H :   -0.063633
  30 H :   -0.002671
  31 H :   -0.021910
  32 H :   -0.018438
  33 H :   -0.034518
  34 H :   -0.152827
  35 H :   -0.024575

  Mayer bond orders larger than 0.100000
B(  0-C ,  1-C ) :   0.9772 B(  0-C , 20-H ) :   0.9762 B(  0-C , 21-H ) :   0.9793
B(  0-C , 22-H ) :   0.9783 B(  1-C ,  2-O ) :   0.9020 B(  1-C , 23-H ) :   0.9651
B(  1-C , 24-H ) :   0.9733 B(  2-O ,  3-C ) :   1.1847 B(  3-C ,  4-O ) :   2.0997
B(  3-C ,  5-C ) :   0.9278 B(  5-C ,  6-C ) :   1.6872 B(  5-C , 12-C ) :   0.9599
B(  6-C ,  7-C ) :   0.9441 B(  6-C ,  8-N ) :   1.1170 B(  7-C , 25-H ) :   0.9784
B(  7-C , 26-H ) :   0.9729 B(  7-C , 27-H ) :   0.9648 B(  8-N ,  9-C ) :   1.1924
B(  8-N , 28-H ) :   0.9517 B(  9-C , 10-S ) :   1.6122 B(  9-C , 11-N ) :   1.2890
B( 11-N , 12-C ) :   1.0007 B( 11-N , 29-H ) :   0.9494 B( 12-C , 13-C ) :   0.9447
B( 12-C , 30-H ) :   0.9973 B( 13-C , 14-C ) :   1.3859 B( 13-C , 19-C ) :   1.3487
B( 14-C , 15-C ) :   1.3951 B( 14-C , 31-H ) :   0.9613 B( 15-C , 16-C ) :   1.3648
B( 15-C , 32-H ) :   0.9701 B( 16-C , 17-C ) :   1.3275 B( 16-C , 33-H ) :   0.9842
B( 17-C , 18-O ) :   1.1094 B( 17-C , 19-C ) :   1.3698 B( 18-O , 34-H ) :   0.9789
B( 19-C , 35-H ) :   0.9589

MP2 TOTAL ENERGY:    -1274.333317640 Eh
FINAL SINGLE POINT ENERGY     -1274.333317639504

DIPOLE MOMENT
-------------
                                X             Y             Z
Electronic contribution:     11.97588       6.31324       7.54675
Nuclear contribution   :    -13.51811      -7.30678      -7.79069
                        -----------------------------------------
Total Dipole Moment    :     -1.54222      -0.99354      -0.24394
                        -----------------------------------------
Magnitude (a.u.)       :      1.85070
Magnitude (Debye)      :      4.70410

Rotational constants in cm-1:     0.011369     0.009202     0.006806
Rotational constants in MHz :   340.823329   275.877216   204.050284

                             ****ORCA TERMINATED NORMALLY****
TOTAL RUN TIME: 0 days 1 hours 54 minutes 14 seconds 418 msec
