                         Program Version 4.2.0 -  RELEASE  -
|  1> ! ri-mp2 cc-pvtz cc-pvtz/c TightSCF  NoKeepInts
|  2>
|  3> %scf
|  4>   MaxCore 4096
|  5> end
|  6> *xyz  0  1
|  7>     C       14.8950130   15.7289923   17.0359902
|  8>     C       15.9221418   14.5778044   17.0102735
|  9>     O       17.0559537   14.8715681   16.1636883
| 10>     C       17.8611812   15.9850271   16.1546391
| 11>     O       18.4815091   16.2687040   15.1471888
| 12>     C       17.8100476   16.9365518   17.3064885
| 13>     C       17.3772250   18.2032848   17.1092665
| 14>     C       16.7449653   18.7441700   15.8457630
| 15>     N       17.5499193   19.1687224   18.1029992
| 16>     C       18.3256996   18.9974949   19.2189258
| 17>     S       18.5917741   20.2246108   20.2949453
| 18>     N       18.8798656   17.7536410   19.3964559
| 19>     C       18.5700399   16.5581846   18.5868752
| 20>     C       17.8642878   15.5282526   19.4564844
| 21>     C       18.3811216   14.2239250   19.5726746
| 22>     C       17.7340190   13.2689371   20.3748754
| 23>     C       16.5644984   13.6213845   21.0700981
| 24>     C       16.0529304   14.9218856   20.9647719
| 25>     O       14.9216991   15.2642061   21.6301543
| 26>     C       16.6981773   15.8706763   20.1656336
| 27>     H       15.2171736   16.5544825   17.6781989
| 28>     H       13.9406352   15.3656897   17.4364812
| 29>     H       14.7098098   16.1097494   16.0241771
| 30>     H       16.2284684   14.3162896   18.0243695
| 31>     H       15.4262893   13.6875076   16.6024047
| 32>     H       16.1549965   17.9775448   15.3296444
| 33>     H       17.5231528   19.0757985   15.1458839
| 34>     H       16.0785950   19.5921207   16.0435810
| 35>     H       17.1810882   20.0968636   17.9680766
| 36>     H       19.4344419   17.6564254   20.2376683
| 37>     H       19.5292353   16.1243433   18.2693873
| 38>     H       19.2839081   13.9458320   19.0341932
| 39>     H       18.1395131   12.2614808   20.4564066
| 40>     H       16.0617501   12.8861086   21.6902301
| 41>     H       14.6664558   14.5097643   22.1827843
| 42>     H       16.2894183   16.8739759   20.1023214
| 43> *
| 44>
| 45>                          ****END OF INPUT****

CARTESIAN COORDINATES (ANGSTROEM)
---------------------------------
  C     14.895013   15.728992   17.035990
  C     15.922142   14.577804   17.010274
  O     17.055954   14.871568   16.163688
  C     17.861181   15.985027   16.154639
  O     18.481509   16.268704   15.147189
  C     17.810048   16.936552   17.306489
  C     17.377225   18.203285   17.109266
  C     16.744965   18.744170   15.845763
  N     17.549919   19.168722   18.102999
  C     18.325700   18.997495   19.218926
  S     18.591774   20.224611   20.294945
  N     18.879866   17.753641   19.396456
  C     18.570040   16.558185   18.586875
  C     17.864288   15.528253   19.456484
  C     18.381122   14.223925   19.572675
  C     17.734019   13.268937   20.374875
  C     16.564498   13.621384   21.070098
  C     16.052930   14.921886   20.964772
  O     14.921699   15.264206   21.630154
  C     16.698177   15.870676   20.165634
  H     15.217174   16.554482   17.678199
  H     13.940635   15.365690   17.436481
  H     14.709810   16.109749   16.024177
  H     16.228468   14.316290   18.024369
  H     15.426289   13.687508   16.602405
  H     16.154996   17.977545   15.329644
  H     17.523153   19.075798   15.145884
  H     16.078595   19.592121   16.043581
  H     17.181088   20.096864   17.968077
  H     19.434442   17.656425   20.237668
  H     19.529235   16.124343   18.269387
  H     19.283908   13.945832   19.034193
  H     18.139513   12.261481   20.456407
  H     16.061750   12.886109   21.690230
  H     14.666456   14.509764   22.182784
  H     16.289418   16.873976   20.102321

 Total Charge           Charge          ....    0
 Multiplicity           Mult            ....    1
 Number of Electrons    NEL             ....  154
 Basis Dimension        Dim             ....  828

ORBITAL ENERGIES
----------------

  NO   OCC          E(Eh)            E(eV)
   0   2.0000     -91.889718     -2500.4464
   1   2.0000     -20.606631      -560.7349
   2   2.0000     -20.594933      -560.4166
   3   2.0000     -20.548576      -559.1552
   4   2.0000     -15.626006      -425.2052
   5   2.0000     -15.611756      -424.8175
   6   2.0000     -11.396679      -310.1194
   7   2.0000     -11.385577      -309.8173
   8   2.0000     -11.326064      -308.1979
   9   2.0000     -11.325349      -308.1784
  10   2.0000     -11.319982      -308.0324
  11   2.0000     -11.300174      -307.4934
  12   2.0000     -11.270382      -306.6827
  13   2.0000     -11.266663      -306.5815
  14   2.0000     -11.259209      -306.3787
  15   2.0000     -11.256841      -306.3142
  16   2.0000     -11.255134      -306.2678
  17   2.0000     -11.249852      -306.1240
  18   2.0000     -11.248989      -306.1006
  19   2.0000     -11.232078      -305.6404
  20   2.0000      -8.894806      -242.0400
  21   2.0000      -6.576389      -178.9527
  22   2.0000      -6.574372      -178.8978
  23   2.0000      -6.573793      -178.8820
  24   2.0000      -1.442226       -39.2450
  25   2.0000      -1.426378       -38.8137
  26   2.0000      -1.355302       -36.8796
  27   2.0000      -1.339810       -36.4581
  28   2.0000      -1.240605       -33.7586
  29   2.0000      -1.168284       -31.7906
  30   2.0000      -1.124571       -30.6011
  31   2.0000      -1.052202       -28.6319
  32   2.0000      -1.035574       -28.1794
  33   2.0000      -1.026496       -27.9324
  34   2.0000      -1.003657       -27.3109
  35   2.0000      -0.989205       -26.9176
  36   2.0000      -0.929314       -25.2879
  37   2.0000      -0.897478       -24.4216
  38   2.0000      -0.851907       -23.1816
  39   2.0000      -0.846317       -23.0294
  40   2.0000      -0.844727       -22.9862
  41   2.0000      -0.830667       -22.6036
  42   2.0000      -0.751714       -20.4552
  43   2.0000      -0.740026       -20.1371
  44   2.0000      -0.721878       -19.6433
  45   2.0000      -0.705937       -19.2095
  46   2.0000      -0.693965       -18.8837
  47   2.0000      -0.679774       -18.4976
  48   2.0000      -0.675438       -18.3796
  49   2.0000      -0.663470       -18.0539
  50   2.0000      -0.654091       -17.7987
  51   2.0000      -0.647589       -17.6218
  52   2.0000      -0.638010       -17.3611
  53   2.0000      -0.620991       -16.8980
  54   2.0000      -0.615709       -16.7543
  55   2.0000      -0.609379       -16.5820
  56   2.0000      -0.604834       -16.4584
  57   2.0000      -0.585617       -15.9354
  58   2.0000      -0.578704       -15.7473
  59   2.0000      -0.568111       -15.4591
  60   2.0000      -0.565197       -15.3798
  61   2.0000      -0.550560       -14.9815
  62   2.0000      -0.538858       -14.6631
  63   2.0000      -0.536467       -14.5980
  64   2.0000      -0.531102       -14.4520
  65   2.0000      -0.518264       -14.1027
  66   2.0000      -0.506784       -13.7903
  67   2.0000      -0.502877       -13.6840
  68   2.0000      -0.487882       -13.2760
  69   2.0000      -0.465425       -12.6649
  70   2.0000      -0.451446       -12.2845
  71   2.0000      -0.446167       -12.1408
  72   2.0000      -0.359174        -9.7736
  73   2.0000      -0.354352        -9.6424
  74   2.0000      -0.335168        -9.1204
  75   2.0000      -0.328762        -8.9461
  76   2.0000      -0.317245        -8.6327
  77   0.0000       0.082736         2.2514
  78   0.0000       0.098183         2.6717
  79   0.0000       0.118515         3.2250
  80   0.0000       0.126087         3.4310
  81   0.0000       0.131281         3.5723

MULLIKEN ATOMIC CHARGES
-----------------------
   0 C :   -0.339798
   1 C :    0.035911
   2 O :   -0.317403
   3 C :    0.388925
   4 O :   -0.370930
   5 C :   -0.216188
   6 C :    0.149034
   7 C :   -0.290110
   8 N :   -0.128419
   9 C :    0.201661
  10 S :   -0.439910
  11 N :   -0.197819
  12 C :    0.042783
  13 C :    0.022397
  14 C :   -0.183264
  15 C :   -0.131638
  16 C :   -0.272166
  17 C :    0.313716
  18 O :   -0.354896
  19 C :   -0.272740
  20 H :    0.108136
  21 H :    0.120368
  22 H :    0.112768
  23 H :    0.099229
  24 H :    0.125959
  25 H :    0.116973
  26 H :    0.148731
  27 H :    0.098711
  28 H :    0.197548
  29 H :    0.193105
  30 H :    0.161533
  31 H :    0.153834
  32 H :    0.164503
  33 H :    0.135763
  34 H :    0.242385
  35 H :    0.181309
Sum of atomic charges:    0.0000000

LOEWDIN ATOMIC CHARGES
----------------------
   0 C :    0.102919
   1 C :   -0.015298
   2 O :    0.298364
   3 C :   -0.417583
   4 O :    0.127930
   5 C :   -0.085342
   6 C :   -0.089002
   7 C :    0.129941
   8 N :    0.403914
   9 C :   -0.456790
  10 S :   -0.036652
  11 N :    0.397007
  12 C :   -0.052855
  13 C :   -0.046732
  14 C :    0.013138
  15 C :    0.044484
  16 C :    0.001677
  17 C :   -0.191524
  18 O :    0.398280
  19 C :    0.034705
  20 H :   -0.037269
  21 H :   -0.021981
  22 H :   -0.029092
  23 H :   -0.037485
  24 H :   -0.020177
  25 H :   -0.010821
  26 H :   -0.002842
  27 H :   -0.020004
  28 H :   -0.058007
  29 H :   -0.064612
  30 H :   -0.006331
  31 H :   -0.027503
  32 H :   -0.018054
  33 H :   -0.032832
  34 H :   -0.151729
  35 H :   -0.021842

  Mayer bond orders larger than 0.100000
B(  0-C ,  1-C ) :   0.9554 B(  0-C , 20-H ) :   0.9711 B(  0-C , 21-H ) :   0.9769
B(  0-C , 22-H ) :   0.9765 B(  1-C ,  2-O ) :   0.9071 B(  1-C , 23-H ) :   0.9655
B(  1-C , 24-H ) :   0.9843 B(  2-O ,  3-C ) :   1.2066 B(  3-C ,  4-O ) :   2.1157
B(  3-C ,  5-C ) :   0.9087 B(  5-C ,  6-C ) :   1.7283 B(  5-C , 12-C ) :   0.9581
B(  6-C ,  7-C ) :   0.9519 B(  6-C ,  8-N ) :   1.1169 B(  7-C , 25-H ) :   0.9757
B(  7-C , 26-H ) :   0.9597 B(  7-C , 27-H ) :   0.9817 B(  8-N ,  9-C ) :   1.1969
B(  8-N , 28-H ) :   0.9505 B(  9-C , 10-S ) :   1.6142 B(  9-C , 11-N ) :   1.2814
B( 11-N , 12-C ) :   0.9980 B( 11-N , 29-H ) :   0.9514 B( 12-C , 13-C ) :   0.9351
B( 12-C , 30-H ) :   1.0066 B( 13-C , 14-C ) :   1.3677 B( 13-C , 19-C ) :   1.3552
B( 14-C , 15-C ) :   1.3927 B( 14-C , 31-H ) :   0.9704 B( 15-C , 16-C ) :   1.3691
B( 15-C , 32-H ) :   0.9699 B( 16-C , 17-C ) :   1.3244 B( 16-C , 33-H ) :   0.9830
B( 17-C , 18-O ) :   1.1161 B( 17-C , 19-C ) :   1.3687 B( 18-O , 34-H ) :   0.9784
B( 19-C , 35-H ) :   0.9536

MP2 TOTAL ENERGY:    -1274.326779656 Eh
FINAL SINGLE POINT ENERGY     -1274.326779655947

DIPOLE MOMENT
-------------
                                X             Y             Z
Electronic contribution:      9.71905       6.14972       5.63984
Nuclear contribution   :    -11.13938      -7.88727      -5.18533
                        -----------------------------------------
Total Dipole Moment    :     -1.42033      -1.73755       0.45451
                        -----------------------------------------
Magnitude (a.u.)       :      2.28976
Magnitude (Debye)      :      5.82010

Rotational constants in cm-1:     0.011965     0.009580     0.006733
Rotational constants in MHz :   358.697706   287.190889   201.847449

                             ****ORCA TERMINATED NORMALLY****
TOTAL RUN TIME: 0 days 1 hours 57 minutes 42 seconds 592 msec
