                         Program Version 4.2.0 -  RELEASE  -
|  1> ! ri-mp2 cc-pvtz cc-pvtz/c TightSCF  NoKeepInts
|  2>
|  3> %scf
|  4>   MaxCore 4096
|  5> end
|  6> *xyz  0  1
|  7>     C       15.9658467   13.4730082   15.2827173
|  8>     C       15.4631678   14.4226049   16.3829028
|  9>     O       16.5446862   15.3161935   16.7037821
| 10>     C       16.3448842   16.6688531   16.7254928
| 11>     O       15.3961118   17.2006281   16.1744376
| 12>     C       17.3400156   17.3854678   17.5963359
| 13>     C       17.3576460   18.7368484   17.7218042
| 14>     C       16.4339199   19.7317718   17.0522244
| 15>     N       18.3305996   19.3549753   18.5130621
| 16>     C       19.3755688   18.7089368   19.1178521
| 17>     S       20.5416075   19.5273619   19.9583402
| 18>     N       19.4084307   17.3439095   18.9886916
| 19>     C       18.3510018   16.5232523   18.3704042
| 20>     C       17.6706443   15.6693588   19.4369659
| 21>     C       17.8021205   14.2679391   19.4200464
| 22>     C       17.1730980   13.4787766   20.3976283
| 23>     C       16.4087014   14.0956573   21.4026697
| 24>     C       16.2792043   15.4911567   21.4251385
| 25>     O       15.5425430   16.0897060   22.3947055
| 26>     C       16.9056924   16.2737722   20.4503869
| 27>     H       15.1852235   12.7521936   15.0108242
| 28>     H       16.8462147   12.9149666   15.6246231
| 29>     H       16.2397611   14.0375779   14.3825990
| 30>     H       14.5755386   14.9575065   16.0191702
| 31>     H       15.1764822   13.8508748   17.2751734
| 32>     H       15.3955522   19.5633052   17.3654615
| 33>     H       16.4687108   19.6179807   15.9612703
| 34>     H       16.6849278   20.7735636   17.2834334
| 35>     H       18.3230725   20.3569820   18.6178646
| 36>     H       20.1702706   16.8920951   19.4778773
| 37>     H       18.8392290   15.8535455   17.6484672
| 38>     H       18.3878654   13.7883200   18.6403797
| 39>     H       17.2792880   12.3956123   20.3748329
| 40>     H       15.9215909   13.4907355   22.1603546
| 41>     H       15.2193543   15.3941162   22.9867126
| 42>     H       16.7984278   17.3524460   20.4893671
| 43> *
| 44>
| 45>                          ****END OF INPUT****

CARTESIAN COORDINATES (ANGSTROEM)
---------------------------------
  C     15.965847   13.473008   15.282717
  C     15.463168   14.422605   16.382903
  O     16.544686   15.316194   16.703782
  C     16.344884   16.668853   16.725493
  O     15.396112   17.200628   16.174438
  C     17.340016   17.385468   17.596336
  C     17.357646   18.736848   17.721804
  C     16.433920   19.731772   17.052224
  N     18.330600   19.354975   18.513062
  C     19.375569   18.708937   19.117852
  S     20.541607   19.527362   19.958340
  N     19.408431   17.343909   18.988692
  C     18.351002   16.523252   18.370404
  C     17.670644   15.669359   19.436966
  C     17.802121   14.267939   19.420046
  C     17.173098   13.478777   20.397628
  C     16.408701   14.095657   21.402670
  C     16.279204   15.491157   21.425138
  O     15.542543   16.089706   22.394706
  C     16.905692   16.273772   20.450387
  H     15.185223   12.752194   15.010824
  H     16.846215   12.914967   15.624623
  H     16.239761   14.037578   14.382599
  H     14.575539   14.957506   16.019170
  H     15.176482   13.850875   17.275173
  H     15.395552   19.563305   17.365461
  H     16.468711   19.617981   15.961270
  H     16.684928   20.773564   17.283433
  H     18.323072   20.356982   18.617865
  H     20.170271   16.892095   19.477877
  H     18.839229   15.853545   17.648467
  H     18.387865   13.788320   18.640380
  H     17.279288   12.395612   20.374833
  H     15.921591   13.490735   22.160355
  H     15.219354   15.394116   22.986713
  H     16.798428   17.352446   20.489367

 Total Charge           Charge          ....    0
 Multiplicity           Mult            ....    1
 Number of Electrons    NEL             ....  154
 Basis Dimension        Dim             ....  828

ORBITAL ENERGIES
----------------

  NO   OCC          E(Eh)            E(eV)
   0   2.0000     -91.888876     -2500.4234
   1   2.0000     -20.600283      -560.5622
   2   2.0000     -20.596296      -560.4537
   3   2.0000     -20.541802      -558.9709
   4   2.0000     -15.629042      -425.2879
   5   2.0000     -15.608217      -424.7212
   6   2.0000     -11.395279      -310.0813
   7   2.0000     -11.383971      -309.7736
   8   2.0000     -11.335859      -308.4644
   9   2.0000     -11.313520      -307.8565
  10   2.0000     -11.308949      -307.7321
  11   2.0000     -11.294837      -307.3481
  12   2.0000     -11.259485      -306.3862
  13   2.0000     -11.258709      -306.3651
  14   2.0000     -11.255084      -306.2664
  15   2.0000     -11.251919      -306.1803
  16   2.0000     -11.242869      -305.9340
  17   2.0000     -11.238267      -305.8088
  18   2.0000     -11.238083      -305.8038
  19   2.0000     -11.228767      -305.5503
  20   2.0000      -8.893936      -242.0163
  21   2.0000      -6.575510      -178.9287
  22   2.0000      -6.573506      -178.8742
  23   2.0000      -6.572918      -178.8582
  24   2.0000      -1.450653       -39.4743
  25   2.0000      -1.415950       -38.5300
  26   2.0000      -1.354836       -36.8670
  27   2.0000      -1.339991       -36.4630
  28   2.0000      -1.238441       -33.6997
  29   2.0000      -1.157423       -31.4951
  30   2.0000      -1.120268       -30.4840
  31   2.0000      -1.043066       -28.3833
  32   2.0000      -1.039140       -28.2764
  33   2.0000      -1.014905       -27.6170
  34   2.0000      -0.995594       -27.0915
  35   2.0000      -0.984184       -26.7810
  36   2.0000      -0.922414       -25.1002
  37   2.0000      -0.889219       -24.1969
  38   2.0000      -0.846786       -23.0422
  39   2.0000      -0.837485       -22.7891
  40   2.0000      -0.833858       -22.6904
  41   2.0000      -0.818384       -22.2694
  42   2.0000      -0.763799       -20.7840
  43   2.0000      -0.732427       -19.9304
  44   2.0000      -0.722657       -19.6645
  45   2.0000      -0.695341       -18.9212
  46   2.0000      -0.687381       -18.7046
  47   2.0000      -0.679917       -18.5015
  48   2.0000      -0.673266       -18.3205
  49   2.0000      -0.656152       -17.8548
  50   2.0000      -0.646268       -17.5859
  51   2.0000      -0.643580       -17.5127
  52   2.0000      -0.632600       -17.2139
  53   2.0000      -0.610325       -16.6078
  54   2.0000      -0.606506       -16.5039
  55   2.0000      -0.599377       -16.3099
  56   2.0000      -0.598332       -16.2814
  57   2.0000      -0.577990       -15.7279
  58   2.0000      -0.570783       -15.5318
  59   2.0000      -0.566951       -15.4275
  60   2.0000      -0.563142       -15.3239
  61   2.0000      -0.540117       -14.6973
  62   2.0000      -0.538169       -14.6443
  63   2.0000      -0.529642       -14.4123
  64   2.0000      -0.524869       -14.2824
  65   2.0000      -0.513415       -13.9707
  66   2.0000      -0.501452       -13.6452
  67   2.0000      -0.496480       -13.5099
  68   2.0000      -0.486319       -13.2334
  69   2.0000      -0.464616       -12.6428
  70   2.0000      -0.455764       -12.4020
  71   2.0000      -0.448019       -12.1912
  72   2.0000      -0.354262        -9.6400
  73   2.0000      -0.349206        -9.5024
  74   2.0000      -0.328209        -8.9310
  75   2.0000      -0.321245        -8.7415
  76   2.0000      -0.315995        -8.5987
  77   0.0000       0.075934         2.0663
  78   0.0000       0.106497         2.8979
  79   0.0000       0.123944         3.3727
  80   0.0000       0.131992         3.5917
  81   0.0000       0.135738         3.6936

MULLIKEN ATOMIC CHARGES
-----------------------
   0 C :   -0.262954
   1 C :    0.013310
   2 O :   -0.357025
   3 C :    0.473658
   4 O :   -0.432328
   5 C :   -0.230227
   6 C :    0.151339
   7 C :   -0.273333
   8 N :   -0.121081
   9 C :    0.210397
  10 S :   -0.439633
  11 N :   -0.203645
  12 C :    0.053533
  13 C :    0.068019
  14 C :   -0.190165
  15 C :   -0.132149
  16 C :   -0.279589
  17 C :    0.316298
  18 O :   -0.356422
  19 C :   -0.268629
  20 H :    0.089696
  21 H :    0.090041
  22 H :    0.098804
  23 H :    0.126272
  24 H :    0.107183
  25 H :    0.132572
  26 H :    0.130431
  27 H :    0.094938
  28 H :    0.197518
  29 H :    0.194539
  30 H :    0.150539
  31 H :    0.151623
  32 H :    0.160892
  33 H :    0.130053
  34 H :    0.240602
  35 H :    0.164925
Sum of atomic charges:    0.0000000

LOEWDIN ATOMIC CHARGES
----------------------
   0 C :    0.104868
   1 C :   -0.012361
   2 O :    0.309572
   3 C :   -0.414105
   4 O :    0.096403
   5 C :   -0.095011
   6 C :   -0.058823
   7 C :    0.131533
   8 N :    0.406561
   9 C :   -0.456633
  10 S :   -0.035304
  11 N :    0.396494
  12 C :   -0.052561
  13 C :   -0.038616
  14 C :    0.014187
  15 C :    0.038239
  16 C :   -0.002093
  17 C :   -0.189433
  18 O :    0.395265
  19 C :    0.031644
  20 H :   -0.026036
  21 H :   -0.030358
  22 H :   -0.025329
  23 H :   -0.028124
  24 H :   -0.029943
  25 H :   -0.004440
  26 H :   -0.004037
  27 H :   -0.023432
  28 H :   -0.057563
  29 H :   -0.064563
  30 H :   -0.010909
  31 H :   -0.030414
  32 H :   -0.021505
  33 H :   -0.035637
  34 H :   -0.153944
  35 H :   -0.023591

  Mayer bond orders larger than 0.100000
B(  0-C ,  1-C ) :   0.9745 B(  0-C , 20-H ) :   0.9756 B(  0-C , 21-H ) :   0.9795
B(  0-C , 22-H ) :   0.9788 B(  1-C ,  2-O ) :   0.8774 B(  1-C , 23-H ) :   0.9743
B(  1-C , 24-H ) :   0.9757 B(  2-O ,  3-C ) :   1.1659 B(  3-C ,  4-O ) :   1.9786
B(  3-C ,  5-C ) :   1.0562 B(  5-C ,  6-C ) :   1.6560 B(  5-C , 12-C ) :   0.9720
B(  6-C ,  7-C ) :   0.9671 B(  6-C ,  8-N ) :   1.1640 B(  7-C , 25-H ) :   0.9599
B(  7-C , 26-H ) :   0.9607 B(  7-C , 27-H ) :   0.9904 B(  8-N ,  9-C ) :   1.1828
B(  8-N , 28-H ) :   0.9479 B(  9-C , 10-S ) :   1.6080 B(  9-C , 11-N ) :   1.3046
B( 11-N , 12-C ) :   0.9893 B( 11-N , 29-H ) :   0.9518 B( 12-C , 13-C ) :   0.9350
B( 12-C , 30-H ) :   1.0028 B( 13-C , 14-C ) :   1.3529 B( 13-C , 19-C ) :   1.3836
B( 14-C , 15-C ) :   1.3902 B( 14-C , 31-H ) :   0.9715 B( 15-C , 16-C ) :   1.3628
B( 15-C , 32-H ) :   0.9706 B( 16-C , 17-C ) :   1.3316 B( 16-C , 33-H ) :   0.9851
B( 17-C , 18-O ) :   1.1104 B( 17-C , 19-C ) :   1.3723 B( 18-O , 34-H ) :   0.9799
B( 19-C , 35-H ) :   0.9581

MP2 TOTAL ENERGY:    -1274.348462803 Eh
FINAL SINGLE POINT ENERGY     -1274.348462802964

DIPOLE MOMENT
-------------
                                X             Y             Z
Electronic contribution:      9.11056      10.51355       9.31035
Nuclear contribution   :    -10.29070     -12.12124      -9.64561
                        -----------------------------------------
Total Dipole Moment    :     -1.18013      -1.60769      -0.33526
                        -----------------------------------------
Magnitude (a.u.)       :      2.02232
Magnitude (Debye)      :      5.14033

Rotational constants in cm-1:     0.011361     0.008559     0.006105
Rotational constants in MHz :   340.603063   256.603016   183.030046

                             ****ORCA TERMINATED NORMALLY****
TOTAL RUN TIME: 0 days 1 hours 38 minutes 30 seconds 586 msec
