                         Program Version 4.2.0 -  RELEASE  -
|  1> ! ri-mp2 cc-pvtz cc-pvtz/c TightSCF  NoKeepInts
|  2>
|  3> %scf
|  4>   MaxCore 4096
|  5> end
|  6> *xyz  0  1
|  7>     C       14.9491602   14.1730187   15.9515137
|  8>     C       16.2905719   13.9586882   16.6839773
|  9>     O       17.2162256   15.0746681   16.6226744
| 10>     C       16.8722332   16.3957238   16.4879676
| 11>     O       16.0248588   16.7959070   15.7096908
| 12>     C       17.6095432   17.2782922   17.4595783
| 13>     C       17.4655596   18.6285492   17.4710346
| 14>     C       16.5896734   19.4673817   16.5647598
| 15>     N       18.1963322   19.4052443   18.3750236
| 16>     C       19.1512954   18.9248573   19.2301266
| 17>     S       20.0297606   19.9246569   20.2123214
| 18>     N       19.3461978   17.5677149   19.2295024
| 19>     C       18.5384089   16.5916454   18.4764013
| 20>     C       17.7730878   15.7026152   19.4525593
| 21>     C       18.1828402   14.3742150   19.6738386
| 22>     C       17.4775288   13.5474085   20.5643653
| 23>     C       16.3556590   14.0539287   21.2424003
| 24>     C       15.9499648   15.3788175   21.0308553
| 25>     O       14.8690483   15.8716124   21.6861667
| 26>     C       16.6533777   16.1989998   20.1434385
| 27>     H       14.3561333   14.9619301   16.4308921
| 28>     H       14.3542317   13.2521861   15.9723133
| 29>     H       15.1150779   14.4433238   14.9009482
| 30>     H       16.0655628   13.7510333   17.7383916
| 31>     H       16.7852206   13.0670446   16.2782214
| 32>     H       15.5339510   19.1943247   16.6893135
| 33>     H       16.8489015   19.2972773   15.5119711
| 34>     H       16.6783410   20.5430911   16.7564333
| 35>     H       18.0681461   20.4044549   18.3881690
| 36>     H       20.0305757   17.2403010   19.8989627
| 37>     H       19.2367309   15.9604205   17.9088710
| 38>     H       19.0485387   13.9796332   19.1484066
| 39>     H       17.8018480   12.5211558   20.7287549
| 40>     H       15.8084669   13.4200247   21.9325371
| 41>     H       14.5465565   15.1782481   22.2813373
| 42>     H       16.3273898   17.2236060   20.0002808
| 43> *
| 44>
| 45>                          ****END OF INPUT****

CARTESIAN COORDINATES (ANGSTROEM)
---------------------------------
  C     14.949160   14.173019   15.951514
  C     16.290572   13.958688   16.683977
  O     17.216226   15.074668   16.622674
  C     16.872233   16.395724   16.487968
  O     16.024859   16.795907   15.709691
  C     17.609543   17.278292   17.459578
  C     17.465560   18.628549   17.471035
  C     16.589673   19.467382   16.564760
  N     18.196332   19.405244   18.375024
  C     19.151295   18.924857   19.230127
  S     20.029761   19.924657   20.212321
  N     19.346198   17.567715   19.229502
  C     18.538409   16.591645   18.476401
  C     17.773088   15.702615   19.452559
  C     18.182840   14.374215   19.673839
  C     17.477529   13.547408   20.564365
  C     16.355659   14.053929   21.242400
  C     15.949965   15.378818   21.030855
  O     14.869048   15.871612   21.686167
  C     16.653378   16.199000   20.143438
  H     14.356133   14.961930   16.430892
  H     14.354232   13.252186   15.972313
  H     15.115078   14.443324   14.900948
  H     16.065563   13.751033   17.738392
  H     16.785221   13.067045   16.278221
  H     15.533951   19.194325   16.689314
  H     16.848902   19.297277   15.511971
  H     16.678341   20.543091   16.756433
  H     18.068146   20.404455   18.388169
  H     20.030576   17.240301   19.898963
  H     19.236731   15.960420   17.908871
  H     19.048539   13.979633   19.148407
  H     17.801848   12.521156   20.728755
  H     15.808467   13.420025   21.932537
  H     14.546556   15.178248   22.281337
  H     16.327390   17.223606   20.000281

 Total Charge           Charge          ....    0
 Multiplicity           Mult            ....    1
 Number of Electrons    NEL             ....  154
 Basis Dimension        Dim             ....  828

ORBITAL ENERGIES
----------------

  NO   OCC          E(Eh)            E(eV)
   0   2.0000     -91.888671     -2500.4179
   1   2.0000     -20.599437      -560.5392
   2   2.0000     -20.591216      -560.3155
   3   2.0000     -20.541976      -558.9756
   4   2.0000     -15.628738      -425.2796
   5   2.0000     -15.608114      -424.7184
   6   2.0000     -11.396045      -310.1021
   7   2.0000     -11.383749      -309.7676
   8   2.0000     -11.335511      -308.4549
   9   2.0000     -11.317034      -307.9521
  10   2.0000     -11.308854      -307.7296
  11   2.0000     -11.299809      -307.4834
  12   2.0000     -11.262219      -306.4606
  13   2.0000     -11.258302      -306.3540
  14   2.0000     -11.257743      -306.3387
  15   2.0000     -11.251854      -306.1785
  16   2.0000     -11.245872      -306.0157
  17   2.0000     -11.240894      -305.8803
  18   2.0000     -11.240552      -305.8710
  19   2.0000     -11.220623      -305.3287
  20   2.0000      -8.893742      -242.0110
  21   2.0000      -6.575319      -178.9235
  22   2.0000      -6.573312      -178.8689
  23   2.0000      -6.572727      -178.8530
  24   2.0000      -1.441397       -39.2224
  25   2.0000      -1.419082       -38.6152
  26   2.0000      -1.352738       -36.8099
  27   2.0000      -1.339896       -36.4604
  28   2.0000      -1.238583       -33.7036
  29   2.0000      -1.159900       -31.5625
  30   2.0000      -1.119921       -30.4746
  31   2.0000      -1.043941       -28.4071
  32   2.0000      -1.033555       -28.1245
  33   2.0000      -1.017938       -27.6995
  34   2.0000      -0.995675       -27.0937
  35   2.0000      -0.983808       -26.7708
  36   2.0000      -0.923151       -25.1202
  37   2.0000      -0.894285       -24.3347
  38   2.0000      -0.847699       -23.0671
  39   2.0000      -0.839853       -22.8536
  40   2.0000      -0.836391       -22.7594
  41   2.0000      -0.819894       -22.3104
  42   2.0000      -0.745312       -20.2810
  43   2.0000      -0.732358       -19.9285
  44   2.0000      -0.717395       -19.5213
  45   2.0000      -0.697914       -18.9912
  46   2.0000      -0.688156       -18.7257
  47   2.0000      -0.675579       -18.3835
  48   2.0000      -0.667780       -18.1712
  49   2.0000      -0.662944       -18.0396
  50   2.0000      -0.651068       -17.7165
  51   2.0000      -0.645279       -17.5589
  52   2.0000      -0.636456       -17.3188
  53   2.0000      -0.609699       -16.5908
  54   2.0000      -0.605221       -16.4689
  55   2.0000      -0.601610       -16.3706
  56   2.0000      -0.599579       -16.3154
  57   2.0000      -0.579444       -15.7675
  58   2.0000      -0.571809       -15.5597
  59   2.0000      -0.570012       -15.5108
  60   2.0000      -0.560842       -15.2613
  61   2.0000      -0.539016       -14.6674
  62   2.0000      -0.534303       -14.5391
  63   2.0000      -0.526803       -14.3351
  64   2.0000      -0.523396       -14.2423
  65   2.0000      -0.513475       -13.9724
  66   2.0000      -0.501998       -13.6601
  67   2.0000      -0.495516       -13.4837
  68   2.0000      -0.486387       -13.2353
  69   2.0000      -0.463056       -12.6004
  70   2.0000      -0.450804       -12.2670
  71   2.0000      -0.440376       -11.9832
  72   2.0000      -0.353854        -9.6288
  73   2.0000      -0.351845        -9.5742
  74   2.0000      -0.328608        -8.9419
  75   2.0000      -0.324225        -8.8226
  76   2.0000      -0.316340        -8.6081
  77   0.0000       0.075088         2.0433
  78   0.0000       0.103590         2.8188
  79   0.0000       0.124143         3.3781
  80   0.0000       0.131495         3.5782
  81   0.0000       0.136298         3.7089

MULLIKEN ATOMIC CHARGES
-----------------------
   0 C :   -0.283257
   1 C :    0.040728
   2 O :   -0.380157
   3 C :    0.463658
   4 O :   -0.419039
   5 C :   -0.239239
   6 C :    0.161560
   7 C :   -0.269243
   8 N :   -0.123328
   9 C :    0.214778
  10 S :   -0.441742
  11 N :   -0.208883
  12 C :    0.077742
  13 C :    0.050227
  14 C :   -0.196925
  15 C :   -0.128913
  16 C :   -0.279879
  17 C :    0.313747
  18 O :   -0.355626
  19 C :   -0.261719
  20 H :    0.103088
  21 H :    0.095746
  22 H :    0.112598
  23 H :    0.099670
  24 H :    0.100206
  25 H :    0.130315
  26 H :    0.131966
  27 H :    0.095087
  28 H :    0.197210
  29 H :    0.195500
  30 H :    0.148788
  31 H :    0.152577
  32 H :    0.162256
  33 H :    0.131971
  34 H :    0.241259
  35 H :    0.167275
Sum of atomic charges:    0.0000000

LOEWDIN ATOMIC CHARGES
----------------------
   0 C :    0.102981
   1 C :   -0.012128
   2 O :    0.290298
   3 C :   -0.413122
   4 O :    0.112186
   5 C :   -0.096321
   6 C :   -0.059039
   7 C :    0.131013
   8 N :    0.406649
   9 C :   -0.455806
  10 S :   -0.036484
  11 N :    0.396147
  12 C :   -0.052456
  13 C :   -0.037248
  14 C :    0.013930
  15 C :    0.039297
  16 C :   -0.003006
  17 C :   -0.189768
  18 O :    0.395976
  19 C :    0.030188
  20 H :   -0.027352
  21 H :   -0.028078
  22 H :   -0.024054
  23 H :   -0.029566
  24 H :   -0.025757
  25 H :   -0.005226
  26 H :   -0.003776
  27 H :   -0.023552
  28 H :   -0.057643
  29 H :   -0.064921
  30 H :   -0.010771
  31 H :   -0.029660
  32 H :   -0.020716
  33 H :   -0.035171
  34 H :   -0.153320
  35 H :   -0.023721

  Mayer bond orders larger than 0.100000
B(  0-C ,  1-C ) :   0.9827 B(  0-C , 20-H ) :   0.9741 B(  0-C , 21-H ) :   0.9733
B(  0-C , 22-H ) :   0.9741 B(  1-C ,  2-O ) :   0.8932 B(  1-C , 23-H ) :   0.9692
B(  1-C , 24-H ) :   0.9805 B(  2-O ,  3-C ) :   1.1170 B(  3-C ,  4-O ) :   1.9987
B(  3-C ,  5-C ) :   1.0637 B(  5-C ,  6-C ) :   1.6502 B(  5-C , 12-C ) :   0.9733
B(  6-C ,  7-C ) :   0.9658 B(  6-C ,  8-N ) :   1.1602 B(  7-C , 25-H ) :   0.9602
B(  7-C , 26-H ) :   0.9600 B(  7-C , 27-H ) :   0.9909 B(  8-N ,  9-C ) :   1.1849
B(  8-N , 28-H ) :   0.9477 B(  9-C , 10-S ) :   1.6035 B(  9-C , 11-N ) :   1.3080
B( 11-N , 12-C ) :   0.9783 B( 11-N , 29-H ) :   0.9514 B( 12-C , 13-C ) :   0.9362
B( 12-C , 30-H ) :   1.0015 B( 13-C , 14-C ) :   1.3522 B( 13-C , 19-C ) :   1.3810
B( 14-C , 15-C ) :   1.3914 B( 14-C , 31-H ) :   0.9731 B( 15-C , 16-C ) :   1.3606
B( 15-C , 32-H ) :   0.9707 B( 16-C , 17-C ) :   1.3305 B( 16-C , 33-H ) :   0.9847
B( 17-C , 18-O ) :   1.1121 B( 17-C , 19-C ) :   1.3696 B( 18-O , 34-H ) :   0.9793
B( 19-C , 35-H ) :   0.9580

MP2 TOTAL ENERGY:    -1274.336818581 Eh
FINAL SINGLE POINT ENERGY     -1274.336818581182

DIPOLE MOMENT
-------------
                                X             Y             Z
Electronic contribution:     10.21953       9.98105       7.68636
Nuclear contribution   :    -11.21074     -11.73337      -7.80988
                        -----------------------------------------
Total Dipole Moment    :     -0.99122      -1.75232      -0.12351
                        -----------------------------------------
Magnitude (a.u.)       :      2.01703
Magnitude (Debye)      :      5.12687

Rotational constants in cm-1:     0.012181     0.008672     0.006248
Rotational constants in MHz :   365.169923   259.986945   187.321017

                             ****ORCA TERMINATED NORMALLY****
TOTAL RUN TIME: 0 days 1 hours 40 minutes 26 seconds 655 msec
