                         Program Version 4.2.0 -  RELEASE  -
|  1> ! ri-mp2 cc-pvtz cc-pvtz/c TightSCF  NoKeepInts
|  2>
|  3> %scf
|  4>   MaxCore 4096
|  5> end
|  6> *xyz  0  1
|  7>     C       15.2497935   15.0227076   17.3593961
|  8>     C       16.1916659   14.3449834   16.3459975
|  9>     O       17.5778374   14.7446258   16.4670916
| 10>     C       17.9467519   16.0149261   16.1284040
| 11>     O       17.7953476   16.3651033   14.9716934
| 12>     C       17.8549103   16.9891125   17.2689288
| 13>     C       17.3664199   18.2472754   17.1255865
| 14>     C       16.6701271   18.8307045   15.9150924
| 15>     N       17.5360432   19.1801016   18.1531896
| 16>     C       18.3938270   19.0152184   19.2093055
| 17>     S       18.7121699   20.2353561   20.2791399
| 18>     N       18.9770580   17.7783299   19.3327749
| 19>     C       18.5657376   16.5825889   18.5710962
| 20>     C       17.7591001   15.6503626   19.4716061
| 21>     C       18.0887889   14.2836923   19.5498756
| 22>     C       17.3777096   13.4217574   20.4016546
| 23>     C       16.3319019   13.9302188   21.1904030
| 24>     C       16.0040255   15.2910383   21.1225826
| 25>     O       14.9918303   15.7841195   21.8792911
| 26>     C       16.7106935   16.1461021   20.2707960
| 27>     H       15.4499809   14.6616088   18.3717539
| 28>     H       14.2092898   14.7659313   17.1270558
| 29>     H       15.3301531   16.1143489   17.3386279
| 30>     H       16.1234629   13.2580208   16.4818530
| 31>     H       15.8418879   14.5663903   15.3283390
| 32>     H       17.3937108   19.0209472   15.1118858
| 33>     H       16.1534256   19.7723222   16.1344653
| 34>     H       15.9224694   18.1310832   15.5211293
| 35>     H       17.1291519   20.0976209   18.0645967
| 36>     H       19.5852926   17.6763749   20.1352905
| 37>     H       19.4844821   16.0508001   18.2861094
| 38>     H       18.8965188   13.8853509   18.9411942
| 39>     H       17.6397012   12.3661351   20.4498668
| 40>     H       15.7808919   13.2684690   21.8506477
| 41>     H       14.6651642   15.0623634   22.4372649
| 42>     H       16.4396780   17.1959085   20.2400146
| 43> *
| 44>
| 45>                          ****END OF INPUT****

CARTESIAN COORDINATES (ANGSTROEM)
---------------------------------
  C     15.249793   15.022708   17.359396
  C     16.191666   14.344983   16.345997
  O     17.577837   14.744626   16.467092
  C     17.946752   16.014926   16.128404
  O     17.795348   16.365103   14.971693
  C     17.854910   16.989113   17.268929
  C     17.366420   18.247275   17.125587
  C     16.670127   18.830704   15.915092
  N     17.536043   19.180102   18.153190
  C     18.393827   19.015218   19.209305
  S     18.712170   20.235356   20.279140
  N     18.977058   17.778330   19.332775
  C     18.565738   16.582589   18.571096
  C     17.759100   15.650363   19.471606
  C     18.088789   14.283692   19.549876
  C     17.377710   13.421757   20.401655
  C     16.331902   13.930219   21.190403
  C     16.004026   15.291038   21.122583
  O     14.991830   15.784119   21.879291
  C     16.710694   16.146102   20.270796
  H     15.449981   14.661609   18.371754
  H     14.209290   14.765931   17.127056
  H     15.330153   16.114349   17.338628
  H     16.123463   13.258021   16.481853
  H     15.841888   14.566390   15.328339
  H     17.393711   19.020947   15.111886
  H     16.153426   19.772322   16.134465
  H     15.922469   18.131083   15.521129
  H     17.129152   20.097621   18.064597
  H     19.585293   17.676375   20.135290
  H     19.484482   16.050800   18.286109
  H     18.896519   13.885351   18.941194
  H     17.639701   12.366135   20.449867
  H     15.780892   13.268469   21.850648
  H     14.665164   15.062363   22.437265
  H     16.439678   17.195909   20.240015

 Total Charge           Charge          ....    0
 Multiplicity           Mult            ....    1
 Number of Electrons    NEL             ....  154
 Basis Dimension        Dim             ....  828

ORBITAL ENERGIES
----------------

  NO   OCC          E(Eh)            E(eV)
   0   2.0000     -91.891010     -2500.4815
   1   2.0000     -20.598092      -560.5026
   2   2.0000     -20.578905      -559.9805
   3   2.0000     -20.557067      -559.3862
   4   2.0000     -15.630023      -425.3146
   5   2.0000     -15.609795      -424.7641
   6   2.0000     -11.395011      -310.0740
   7   2.0000     -11.385523      -309.8158
   8   2.0000     -11.334606      -308.4303
   9   2.0000     -11.315336      -307.9059
  10   2.0000     -11.313859      -307.8657
  11   2.0000     -11.300424      -307.5002
  12   2.0000     -11.261604      -306.4438
  13   2.0000     -11.261245      -306.4341
  14   2.0000     -11.256995      -306.3184
  15   2.0000     -11.255246      -306.2708
  16   2.0000     -11.245626      -306.0090
  17   2.0000     -11.240077      -305.8581
  18   2.0000     -11.239624      -305.8457
  19   2.0000     -11.223212      -305.3991
  20   2.0000      -8.896032      -242.0733
  21   2.0000      -6.577599      -178.9856
  22   2.0000      -6.575602      -178.9312
  23   2.0000      -6.575007      -178.9150
  24   2.0000      -1.449770       -39.4502
  25   2.0000      -1.417911       -38.5833
  26   2.0000      -1.351715       -36.7820
  27   2.0000      -1.341530       -36.5049
  28   2.0000      -1.240002       -33.7422
  29   2.0000      -1.158846       -31.5338
  30   2.0000      -1.121270       -30.5113
  31   2.0000      -1.044449       -28.4209
  32   2.0000      -1.032499       -28.0957
  33   2.0000      -1.017119       -27.6772
  34   2.0000      -1.000501       -27.2250
  35   2.0000      -0.986973       -26.8569
  36   2.0000      -0.925113       -25.1736
  37   2.0000      -0.892818       -24.2948
  38   2.0000      -0.848244       -23.0819
  39   2.0000      -0.841768       -22.9057
  40   2.0000      -0.836000       -22.7487
  41   2.0000      -0.819192       -22.2913
  42   2.0000      -0.752273       -20.4704
  43   2.0000      -0.733880       -19.9699
  44   2.0000      -0.725142       -19.7321
  45   2.0000      -0.697426       -18.9779
  46   2.0000      -0.690971       -18.8023
  47   2.0000      -0.678064       -18.4511
  48   2.0000      -0.668844       -18.2002
  49   2.0000      -0.667074       -18.1520
  50   2.0000      -0.650815       -17.7096
  51   2.0000      -0.646952       -17.6045
  52   2.0000      -0.637045       -17.3349
  53   2.0000      -0.610006       -16.5991
  54   2.0000      -0.606939       -16.5156
  55   2.0000      -0.601146       -16.3580
  56   2.0000      -0.598998       -16.2996
  57   2.0000      -0.579418       -15.7668
  58   2.0000      -0.573890       -15.6164
  59   2.0000      -0.565293       -15.3824
  60   2.0000      -0.562825       -15.3152
  61   2.0000      -0.552186       -15.0258
  62   2.0000      -0.540258       -14.7012
  63   2.0000      -0.526149       -14.3172
  64   2.0000      -0.519584       -14.1386
  65   2.0000      -0.514882       -14.0107
  66   2.0000      -0.502924       -13.6853
  67   2.0000      -0.502652       -13.6779
  68   2.0000      -0.474337       -12.9074
  69   2.0000      -0.465000       -12.6533
  70   2.0000      -0.452927       -12.3248
  71   2.0000      -0.446854       -12.1595
  72   2.0000      -0.357411        -9.7256
  73   2.0000      -0.349262        -9.5039
  74   2.0000      -0.330082        -8.9820
  75   2.0000      -0.324049        -8.8178
  76   2.0000      -0.317782        -8.6473
  77   0.0000       0.067165         1.8277
  78   0.0000       0.104306         2.8383
  79   0.0000       0.117197         3.1891
  80   0.0000       0.128360         3.4928
  81   0.0000       0.131215         3.5705

MULLIKEN ATOMIC CHARGES
-----------------------
   0 C :   -0.323852
   1 C :    0.040366
   2 O :   -0.384517
   3 C :    0.468122
   4 O :   -0.388139
   5 C :   -0.228300
   6 C :    0.158769
   7 C :   -0.278084
   8 N :   -0.122421
   9 C :    0.186884
  10 S :   -0.431692
  11 N :   -0.195253
  12 C :    0.027840
  13 C :    0.053843
  14 C :   -0.189156
  15 C :   -0.135188
  16 C :   -0.274948
  17 C :    0.298265
  18 O :   -0.357957
  19 C :   -0.238679
  20 H :    0.116327
  21 H :    0.119888
  22 H :    0.097324
  23 H :    0.113852
  24 H :    0.110424
  25 H :    0.143252
  26 H :    0.095422
  27 H :    0.121619
  28 H :    0.198435
  29 H :    0.191496
  30 H :    0.149433
  31 H :    0.152189
  32 H :    0.162174
  33 H :    0.132222
  34 H :    0.240669
  35 H :    0.169372
Sum of atomic charges:   -0.0000000

LOEWDIN ATOMIC CHARGES
----------------------
   0 C :    0.106569
   1 C :   -0.013328
   2 O :    0.275236
   3 C :   -0.417863
   4 O :    0.137319
   5 C :   -0.093819
   6 C :   -0.068274
   7 C :    0.128328
   8 N :    0.406624
   9 C :   -0.459506
  10 S :   -0.031854
  11 N :    0.396562
  12 C :   -0.052518
  13 C :   -0.039836
  14 C :    0.017095
  15 C :    0.038779
  16 C :   -0.002837
  17 C :   -0.193409
  18 O :    0.396650
  19 C :    0.033115
  20 H :   -0.026601
  21 H :   -0.024226
  22 H :   -0.035021
  23 H :   -0.020477
  24 H :   -0.029961
  25 H :   -0.003379
  26 H :   -0.022295
  27 H :   -0.009643
  28 H :   -0.058018
  29 H :   -0.065077
  30 H :   -0.006808
  31 H :   -0.028599
  32 H :   -0.020352
  33 H :   -0.034999
  34 H :   -0.153625
  35 H :   -0.023955

  Mayer bond orders larger than 0.100000
B(  0-C ,  1-C ) :   0.9604 B(  0-C , 20-H ) :   0.9727 B(  0-C , 21-H ) :   0.9777
B(  0-C , 22-H ) :   0.9712 B(  1-C ,  2-O ) :   0.8821 B(  1-C , 23-H ) :   0.9836
B(  1-C , 24-H ) :   0.9826 B(  2-O ,  3-C ) :   1.1041 B(  3-C ,  4-O ) :   2.0319
B(  3-C ,  5-C ) :   1.0214 B(  5-C ,  6-C ) :   1.6703 B(  5-C , 12-C ) :   0.9673
B(  6-C ,  7-C ) :   0.9658 B(  6-C ,  8-N ) :   1.1268 B(  7-C , 25-H ) :   0.9575
B(  7-C , 26-H ) :   0.9859 B(  7-C , 27-H ) :   0.9687 B(  8-N ,  9-C ) :   1.1813
B(  8-N , 28-H ) :   0.9491 B(  9-C , 10-S ) :   1.6216 B(  9-C , 11-N ) :   1.2921
B( 11-N , 12-C ) :   0.9904 B( 11-N , 29-H ) :   0.9530 B( 12-C , 13-C ) :   0.9364
B( 12-C , 30-H ) :   1.0102 B( 13-C , 14-C ) :   1.3702 B( 13-C , 19-C ) :   1.3611
B( 14-C , 15-C ) :   1.3930 B( 14-C , 31-H ) :   0.9677 B( 15-C , 16-C ) :   1.3586
B( 15-C , 32-H ) :   0.9708 B( 16-C , 17-C ) :   1.3319 B( 16-C , 33-H ) :   0.9848
B( 17-C , 18-O ) :   1.1135 B( 17-C , 19-C ) :   1.3777 B( 18-O , 34-H ) :   0.9797
B( 19-C , 35-H ) :   0.9576

MP2 TOTAL ENERGY:    -1274.313940862 Eh
FINAL SINGLE POINT ENERGY     -1274.313940861890

DIPOLE MOMENT
-------------
                                X             Y             Z
Electronic contribution:      9.84547       8.07188       5.77211
Nuclear contribution   :    -10.98596      -9.71046      -5.84927
                        -----------------------------------------
Total Dipole Moment    :     -1.14049      -1.63858      -0.07716
                        -----------------------------------------
Magnitude (a.u.)       :      1.99790
Magnitude (Debye)      :      5.07827

Rotational constants in cm-1:     0.011653     0.010109     0.006578
Rotational constants in MHz :   349.356768   303.052325   197.192666

                             ****ORCA TERMINATED NORMALLY****
TOTAL RUN TIME: 0 days 1 hours 52 minutes 46 seconds 898 msec
