                         Program Version 4.2.0 -  RELEASE  -
|  1> ! ri-mp2 cc-pvtz cc-pvtz/c TightSCF  NoKeepInts
|  2>
|  3> %scf
|  4>   MaxCore 4096
|  5> end
|  6> *xyz  0  1
|  7>     C       14.3329898   15.7587688   16.2933635
|  8>     C       15.5031202   15.2994801   17.1821493
|  9>     O       16.6673230   15.0967252   16.3512457
| 10>     C       17.8751139   15.7372650   16.4957516
| 11>     O       18.8995078   15.1566482   16.1886033
| 12>     C       17.9172104   16.8952153   17.4359502
| 13>     C       17.3411926   18.0855211   17.1558998
| 14>     C       16.6316434   18.4746952   15.8795515
| 15>     N       17.4624956   19.1454404   18.0568433
| 16>     C       18.2139971   19.1123673   19.2030151
| 17>     S       18.3409642   20.4282337   20.1960601
| 18>     N       18.8532997   17.9305469   19.4890408
| 19>     C       18.7259411   16.6797723   18.7141766
| 20>     C       18.1189626   15.5571896   19.5509397
| 21>     C       18.6174779   14.2466245   19.4359119
| 22>     C       18.0483843   13.1958652   20.1742173
| 23>     C       16.9681517   13.4555743   21.0343654
| 24>     C       16.4641437   14.7579667   21.1477823
| 25>     O       15.4112322   15.0100153   21.9650607
| 26>     C       17.0317731   15.8023323   20.4109087
| 27>     H       14.5390167   16.7134848   15.8037664
| 28>     H       13.4220463   15.8742776   16.8933849
| 29>     H       14.1321593   15.0126543   15.5141556
| 30>     H       15.6669006   16.0338487   17.9786827
| 31>     H       15.2396118   14.3491001   17.6648246
| 32>     H       16.6005782   17.6549083   15.1516638
| 33>     H       17.1499861   19.3094312   15.3905489
| 34>     H       15.6010503   18.7915476   16.0799793
| 35>     H       17.0175010   20.0273765   17.8558037
| 36>     H       19.3862982   17.9310706   20.3497222
| 37>     H       19.7385277   16.3700964   18.4152665
| 38>     H       19.4411958   14.0387323   18.7557316
| 39>     H       18.4415274   12.1856431   20.0717709
| 40>     H       16.5240303   12.6456607   21.6038089
| 41>     H       15.2013300   14.1866642   22.4317499
| 42>     H       16.6203160   16.8012561   20.5123034
| 43> *
| 44>
| 45>                          ****END OF INPUT****

CARTESIAN COORDINATES (ANGSTROEM)
---------------------------------
  C     14.332990   15.758769   16.293364
  C     15.503120   15.299480   17.182149
  O     16.667323   15.096725   16.351246
  C     17.875114   15.737265   16.495752
  O     18.899508   15.156648   16.188603
  C     17.917210   16.895215   17.435950
  C     17.341193   18.085521   17.155900
  C     16.631643   18.474695   15.879551
  N     17.462496   19.145440   18.056843
  C     18.213997   19.112367   19.203015
  S     18.340964   20.428234   20.196060
  N     18.853300   17.930547   19.489041
  C     18.725941   16.679772   18.714177
  C     18.118963   15.557190   19.550940
  C     18.617478   14.246624   19.435912
  C     18.048384   13.195865   20.174217
  C     16.968152   13.455574   21.034365
  C     16.464144   14.757967   21.147782
  O     15.411232   15.010015   21.965061
  C     17.031773   15.802332   20.410909
  H     14.539017   16.713485   15.803766
  H     13.422046   15.874278   16.893385
  H     14.132159   15.012654   15.514156
  H     15.666901   16.033849   17.978683
  H     15.239612   14.349100   17.664825
  H     16.600578   17.654908   15.151664
  H     17.149986   19.309431   15.390549
  H     15.601050   18.791548   16.079979
  H     17.017501   20.027376   17.855804
  H     19.386298   17.931071   20.349722
  H     19.738528   16.370096   18.415267
  H     19.441196   14.038732   18.755732
  H     18.441527   12.185643   20.071771
  H     16.524030   12.645661   21.603809
  H     15.201330   14.186664   22.431750
  H     16.620316   16.801256   20.512303

 Total Charge           Charge          ....    0
 Multiplicity           Mult            ....    1
 Number of Electrons    NEL             ....  154
 Basis Dimension        Dim             ....  828

ORBITAL ENERGIES
----------------

  NO   OCC          E(Eh)            E(eV)
   0   2.0000     -91.890331     -2500.4630
   1   2.0000     -20.600920      -560.5795
   2   2.0000     -20.599059      -560.5289
   3   2.0000     -20.551018      -559.2216
   4   2.0000     -15.626781      -425.2263
   5   2.0000     -15.612311      -424.8326
   6   2.0000     -11.398649      -310.1730
   7   2.0000     -11.387252      -309.8629
   8   2.0000     -11.328569      -308.2660
   9   2.0000     -11.317877      -307.9751
  10   2.0000     -11.316193      -307.9293
  11   2.0000     -11.302778      -307.5642
  12   2.0000     -11.268449      -306.6301
  13   2.0000     -11.265326      -306.5451
  14   2.0000     -11.264872      -306.5328
  15   2.0000     -11.257933      -306.3439
  16   2.0000     -11.247167      -306.0510
  17   2.0000     -11.243269      -305.9449
  18   2.0000     -11.240322      -305.8647
  19   2.0000     -11.234619      -305.7095
  20   2.0000      -8.895447      -242.0574
  21   2.0000      -6.577036      -178.9703
  22   2.0000      -6.575009      -178.9151
  23   2.0000      -6.574434      -178.8995
  24   2.0000      -1.446603       -39.3641
  25   2.0000      -1.420733       -38.6601
  26   2.0000      -1.358596       -36.9693
  27   2.0000      -1.340558       -36.4784
  28   2.0000      -1.240536       -33.7567
  29   2.0000      -1.162513       -31.6336
  30   2.0000      -1.126490       -30.6533
  31   2.0000      -1.049925       -28.5699
  32   2.0000      -1.040074       -28.3018
  33   2.0000      -1.020050       -27.7570
  34   2.0000      -1.005864       -27.3710
  35   2.0000      -0.990230       -26.9455
  36   2.0000      -0.928569       -25.2677
  37   2.0000      -0.888320       -24.1724
  38   2.0000      -0.853963       -23.2375
  39   2.0000      -0.842507       -22.9258
  40   2.0000      -0.837943       -22.8016
  41   2.0000      -0.836909       -22.7735
  42   2.0000      -0.756697       -20.5908
  43   2.0000      -0.737261       -20.0619
  44   2.0000      -0.733025       -19.9466
  45   2.0000      -0.698593       -19.0097
  46   2.0000      -0.689223       -18.7547
  47   2.0000      -0.680350       -18.5133
  48   2.0000      -0.677317       -18.4307
  49   2.0000      -0.666494       -18.1362
  50   2.0000      -0.654072       -17.7982
  51   2.0000      -0.640348       -17.4247
  52   2.0000      -0.636337       -17.3156
  53   2.0000      -0.618357       -16.8264
  54   2.0000      -0.610180       -16.6038
  55   2.0000      -0.608179       -16.5494
  56   2.0000      -0.604438       -16.4476
  57   2.0000      -0.588562       -16.0156
  58   2.0000      -0.578931       -15.7535
  59   2.0000      -0.570992       -15.5375
  60   2.0000      -0.566503       -15.4153
  61   2.0000      -0.559716       -15.2307
  62   2.0000      -0.539671       -14.6852
  63   2.0000      -0.536899       -14.6098
  64   2.0000      -0.523686       -14.2502
  65   2.0000      -0.516600       -14.0574
  66   2.0000      -0.503318       -13.6960
  67   2.0000      -0.498789       -13.5727
  68   2.0000      -0.488998       -13.3063
  69   2.0000      -0.471222       -12.8226
  70   2.0000      -0.454381       -12.3643
  71   2.0000      -0.448833       -12.2134
  72   2.0000      -0.357251        -9.7213
  73   2.0000      -0.352628        -9.5955
  74   2.0000      -0.330035        -8.9807
  75   2.0000      -0.325745        -8.8640
  76   2.0000      -0.319186        -8.6855
  77   0.0000       0.086367         2.3502
  78   0.0000       0.103856         2.8261
  79   0.0000       0.115007         3.1295
  80   0.0000       0.127496         3.4693
  81   0.0000       0.129241         3.5168

MULLIKEN ATOMIC CHARGES
-----------------------
   0 C :   -0.272238
   1 C :    0.017928
   2 O :   -0.322707
   3 C :    0.398428
   4 O :   -0.379647
   5 C :   -0.188699
   6 C :    0.145223
   7 C :   -0.340571
   8 N :   -0.137118
   9 C :    0.204741
  10 S :   -0.440925
  11 N :   -0.218981
  12 C :    0.081197
  13 C :    0.017078
  14 C :   -0.195626
  15 C :   -0.131621
  16 C :   -0.276357
  17 C :    0.318479
  18 O :   -0.356566
  19 C :   -0.285585
  20 H :    0.088227
  21 H :    0.096618
  22 H :    0.109609
  23 H :    0.098807
  24 H :    0.126789
  25 H :    0.124802
  26 H :    0.149076
  27 H :    0.119456
  28 H :    0.196441
  29 H :    0.200033
  30 H :    0.164650
  31 H :    0.169035
  32 H :    0.164427
  33 H :    0.133005
  34 H :    0.241906
  35 H :    0.180685
Sum of atomic charges:   -0.0000000

LOEWDIN ATOMIC CHARGES
----------------------
   0 C :    0.106045
   1 C :   -0.015128
   2 O :    0.303361
   3 C :   -0.416317
   4 O :    0.125451
   5 C :   -0.081589
   6 C :   -0.103293
   7 C :    0.124136
   8 N :    0.401577
   9 C :   -0.455890
  10 S :   -0.037807
  11 N :    0.397308
  12 C :   -0.044201
  13 C :   -0.043824
  14 C :    0.022745
  15 C :    0.045960
  16 C :   -0.000141
  17 C :   -0.193972
  18 O :    0.394911
  19 C :    0.026920
  20 H :   -0.035405
  21 H :   -0.024112
  22 H :   -0.023695
  23 H :   -0.040272
  24 H :   -0.022065
  25 H :   -0.009606
  26 H :   -0.008603
  27 H :   -0.017456
  28 H :   -0.057641
  29 H :   -0.063685
  30 H :   -0.002156
  31 H :   -0.021507
  32 H :   -0.018081
  33 H :   -0.034414
  34 H :   -0.152690
  35 H :   -0.024863

  Mayer bond orders larger than 0.100000
B(  0-C ,  1-C ) :   0.9745 B(  0-C , 20-H ) :   0.9780 B(  0-C , 21-H ) :   0.9759
B(  0-C , 22-H ) :   0.9794 B(  1-C ,  2-O ) :   0.8974 B(  1-C , 23-H ) :   0.9587
B(  1-C , 24-H ) :   0.9802 B(  2-O ,  3-C ) :   1.1849 B(  3-C ,  4-O ) :   2.0951
B(  3-C ,  5-C ) :   0.9180 B(  5-C ,  6-C ) :   1.6924 B(  5-C , 12-C ) :   0.9575
B(  6-C ,  7-C ) :   0.9453 B(  6-C ,  8-N ) :   1.1131 B(  7-C , 25-H ) :   0.9815
B(  7-C , 26-H ) :   0.9662 B(  7-C , 27-H ) :   0.9679 B(  8-N ,  9-C ) :   1.1973
B(  8-N , 28-H ) :   0.9523 B(  9-C , 10-S ) :   1.6112 B(  9-C , 11-N ) :   1.2861
B( 11-N , 12-C ) :   0.9956 B( 11-N , 29-H ) :   0.9482 B( 12-C , 13-C ) :   0.9415
B( 12-C , 30-H ) :   0.9976 B( 13-C , 14-C ) :   1.3887 B( 13-C , 19-C ) :   1.3406
B( 14-C , 15-C ) :   1.3982 B( 14-C , 31-H ) :   0.9609 B( 15-C , 16-C ) :   1.3629
B( 15-C , 32-H ) :   0.9696 B( 16-C , 17-C ) :   1.3291 B( 16-C , 33-H ) :   0.9842
B( 17-C , 18-O ) :   1.1115 B( 17-C , 19-C ) :   1.3677 B( 18-O , 34-H ) :   0.9790
B( 19-C , 35-H ) :   0.9561

MP2 TOTAL ENERGY:    -1274.330734960 Eh
FINAL SINGLE POINT ENERGY     -1274.330734960291

DIPOLE MOMENT
-------------
                                X             Y             Z
Electronic contribution:     11.18650       5.46995       7.74916
Nuclear contribution   :    -12.68016      -6.55954      -8.01886
                        -----------------------------------------
Total Dipole Moment    :     -1.49365      -1.08960      -0.26969
                        -----------------------------------------
Magnitude (a.u.)       :      1.86841
Magnitude (Debye)      :      4.74912

Rotational constants in cm-1:     0.011581     0.009243     0.006851
Rotational constants in MHz :   347.187941   277.096234   205.372976

                             ****ORCA TERMINATED NORMALLY****
TOTAL RUN TIME: 0 days 1 hours 48 minutes 22 seconds 457 msec
