                         Program Version 5.0.0 -  RELEASE  -
|  1> ! ri-mp2 cc-pvtz cc-pvtz/c TightSCF NoKeepInts
|  2>
|  3> %scf
|  4>   MaxCore 4096
|  5> end
|  6> *xyz  0  1
|  7>     C       14.9576768   14.4124249   17.2981536
|  8>     C       15.4778300   15.6739323   16.5889371
|  9>     O       16.7382403   15.3259705   15.9773753
| 10>     C       17.9615835   15.6647474   16.4991627
| 11>     O       18.8755014   14.8610348   16.4777127
| 12>     C       18.0215453   16.8836260   17.3647135
| 13>     C       17.5466590   18.0915631   16.9777029
| 14>     C       16.9228384   18.4426867   15.6434975
| 15>     N       17.6793773   19.1946360   17.8241594
| 16>     C       18.3645564   19.1886823   19.0113873
| 17>     S       18.5282317   20.5567052   19.9254804
| 18>     N       18.9034104   17.9887674   19.4065984
| 19>     C       18.7148169   16.6989384   18.7132989
| 20>     C       17.9281680   15.7176879   19.5763415
| 21>     C       18.3694404   14.3898314   19.7211756
| 22>     C       17.6356294   13.4713110   20.4902052
| 23>     C       16.4467466   13.8818673   21.1168735
| 24>     C       15.9993855   15.2014830   20.9683455
| 25>     O       14.8431289   15.5971474   21.5572985
| 26>     C       16.7320784   16.1140488   20.2028745
| 27>     H       15.6629915   14.0849370   18.0722908
| 28>     H       14.8295596   13.5909934   16.5821407
| 29>     H       13.9904479   14.6078792   17.7766495
| 30>     H       14.7611661   15.9639418   15.8098237
| 31>     H       15.5493196   16.4933695   17.3124308
| 32>     H       17.1605770   17.7009502   14.8707130
| 33>     H       17.2948788   19.4065465   15.2733264
| 34>     H       15.8312855   18.5116111   15.7219725
| 35>     H       17.3025812   20.0876465   17.5471139
| 36>     H       19.3837005   18.0095578   20.2974457
| 37>     H       19.7102338   16.2707968   18.5232072
| 38>     H       19.2775788   14.0636723   19.2185627
| 39>     H       17.9858936   12.4452718   20.5900751
| 40>     H       15.8750755   13.1738365   21.7077979
| 41>     H       14.5186724   14.8537452   22.0880803
| 42>     H       16.3661936   17.1301528   20.1010757
| 43> *
| 44>
| 45>                          ****END OF INPUT****

CARTESIAN COORDINATES (ANGSTROEM)
---------------------------------
  C     14.957677   14.412425   17.298154
  C     15.477830   15.673932   16.588937
  O     16.738240   15.325970   15.977375
  C     17.961583   15.664747   16.499163
  O     18.875501   14.861035   16.477713
  C     18.021545   16.883626   17.364713
  C     17.546659   18.091563   16.977703
  C     16.922838   18.442687   15.643497
  N     17.679377   19.194636   17.824159
  C     18.364556   19.188682   19.011387
  S     18.528232   20.556705   19.925480
  N     18.903410   17.988767   19.406598
  C     18.714817   16.698938   18.713299
  C     17.928168   15.717688   19.576342
  C     18.369440   14.389831   19.721176
  C     17.635629   13.471311   20.490205
  C     16.446747   13.881867   21.116873
  C     15.999385   15.201483   20.968345
  O     14.843129   15.597147   21.557298
  C     16.732078   16.114049   20.202875
  H     15.662991   14.084937   18.072291
  H     14.829560   13.590993   16.582141
  H     13.990448   14.607879   17.776650
  H     14.761166   15.963942   15.809824
  H     15.549320   16.493370   17.312431
  H     17.160577   17.700950   14.870713
  H     17.294879   19.406547   15.273326
  H     15.831285   18.511611   15.721972
  H     17.302581   20.087647   17.547114
  H     19.383700   18.009558   20.297446
  H     19.710234   16.270797   18.523207
  H     19.277579   14.063672   19.218563
  H     17.985894   12.445272   20.590075
  H     15.875075   13.173837   21.707798
  H     14.518672   14.853745   22.088080
  H     16.366194   17.130153   20.101076

 Total Charge           Charge          ....    0
 Multiplicity           Mult            ....    1
 Number of Electrons    NEL             ....  154
 Basis Dimension        Dim             ....  828

ORBITAL ENERGIES
----------------

  NO   OCC          E(Eh)            E(eV)
   0   2.0000     -91.891147     -2500.4852
   1   2.0000     -20.600385      -560.5650
   2   2.0000     -20.598607      -560.5166
   3   2.0000     -20.549115      -559.1698
   4   2.0000     -15.629537      -425.3013
   5   2.0000     -15.611914      -424.8218
   6   2.0000     -11.397358      -310.1379
   7   2.0000     -11.387623      -309.8730
   8   2.0000     -11.333373      -308.3967
   9   2.0000     -11.317061      -307.9529
  10   2.0000     -11.313448      -307.8546
  11   2.0000     -11.304271      -307.6048
  12   2.0000     -11.267966      -306.6169
  13   2.0000     -11.264442      -306.5210
  14   2.0000     -11.263391      -306.4925
  15   2.0000     -11.257089      -306.3210
  16   2.0000     -11.246424      -306.0307
  17   2.0000     -11.242813      -305.9325
  18   2.0000     -11.239661      -305.8467
  19   2.0000     -11.225488      -305.4611
  20   2.0000      -8.896243      -242.0791
  21   2.0000      -6.577825      -178.9917
  22   2.0000      -6.575806      -178.9368
  23   2.0000      -6.575225      -178.9210
  24   2.0000      -1.447087       -39.3772
  25   2.0000      -1.420137       -38.6439
  26   2.0000      -1.358722       -36.9727
  27   2.0000      -1.341942       -36.5161
  28   2.0000      -1.240972       -33.7686
  29   2.0000      -1.161849       -31.6155
  30   2.0000      -1.126049       -30.6414
  31   2.0000      -1.049153       -28.5489
  32   2.0000      -1.036221       -28.1970
  33   2.0000      -1.019083       -27.7307
  34   2.0000      -1.005535       -27.3620
  35   2.0000      -0.989995       -26.9391
  36   2.0000      -0.928231       -25.2585
  37   2.0000      -0.884479       -24.0679
  38   2.0000      -0.855484       -23.2789
  39   2.0000      -0.842637       -22.9293
  40   2.0000      -0.837383       -22.7864
  41   2.0000      -0.835323       -22.7303
  42   2.0000      -0.752296       -20.4710
  43   2.0000      -0.740742       -20.1566
  44   2.0000      -0.731547       -19.9064
  45   2.0000      -0.698470       -19.0063
  46   2.0000      -0.688714       -18.7409
  47   2.0000      -0.680079       -18.5059
  48   2.0000      -0.677605       -18.4386
  49   2.0000      -0.659447       -17.9445
  50   2.0000      -0.657741       -17.8980
  51   2.0000      -0.648457       -17.6454
  52   2.0000      -0.640725       -17.4350
  53   2.0000      -0.612578       -16.6691
  54   2.0000      -0.609392       -16.5824
  55   2.0000      -0.606235       -16.4965
  56   2.0000      -0.600525       -16.3411
  57   2.0000      -0.583759       -15.8849
  58   2.0000      -0.578847       -15.7512
  59   2.0000      -0.569757       -15.5039
  60   2.0000      -0.560895       -15.2627
  61   2.0000      -0.557031       -15.1576
  62   2.0000      -0.546516       -14.8715
  63   2.0000      -0.529006       -14.3950
  64   2.0000      -0.519627       -14.1398
  65   2.0000      -0.514071       -13.9886
  66   2.0000      -0.502916       -13.6850
  67   2.0000      -0.500655       -13.6235
  68   2.0000      -0.488164       -13.2836
  69   2.0000      -0.471343       -12.8259
  70   2.0000      -0.454885       -12.3781
  71   2.0000      -0.448035       -12.1917
  72   2.0000      -0.357864        -9.7380
  73   2.0000      -0.352962        -9.6046
  74   2.0000      -0.330673        -8.9981
  75   2.0000      -0.324870        -8.8402
  76   2.0000      -0.319321        -8.6892
  77   0.0000       0.078551         2.1375
  78   0.0000       0.102948         2.8014
  79   0.0000       0.115160         3.1337
  80   0.0000       0.127457         3.4683
  81   0.0000       0.135320         3.6823

MULLIKEN ATOMIC CHARGES
-----------------------
   0 C :   -0.268650
   1 C :    0.004571
   2 O :   -0.327181
   3 C :    0.413877
   4 O :   -0.385541
   5 C :   -0.207165
   6 C :    0.142524
   7 C :   -0.315883
   8 N :   -0.134016
   9 C :    0.201624
  10 S :   -0.438546
  11 N :   -0.207853
  12 C :    0.066701
  13 C :    0.023960
  14 C :   -0.185527
  15 C :   -0.129434
  16 C :   -0.278252
  17 C :    0.315427
  18 O :   -0.361055
  19 C :   -0.276099
  20 H :    0.107113
  21 H :    0.109606
  22 H :    0.091731
  23 H :    0.114883
  24 H :    0.100579
  25 H :    0.136133
  26 H :    0.129235
  27 H :    0.120978
  28 H :    0.197559
  29 H :    0.196827
  30 H :    0.162270
  31 H :    0.166378
  32 H :    0.163698
  33 H :    0.132135
  34 H :    0.241999
  35 H :    0.175393
Sum of atomic charges:   -0.0000000

LOEWDIN ATOMIC CHARGES
----------------------
   0 C :    0.108292
   1 C :   -0.022384
   2 O :    0.304001
   3 C :   -0.417094
   4 O :    0.122748
   5 C :   -0.087884
   6 C :   -0.093808
   7 C :    0.127482
   8 N :    0.402386
   9 C :   -0.456883
  10 S :   -0.035641
  11 N :    0.397296
  12 C :   -0.045326
  13 C :   -0.044465
  14 C :    0.022206
  15 C :    0.044487
  16 C :   -0.000294
  17 C :   -0.193231
  18 O :    0.394886
  19 C :    0.027381
  20 H :   -0.023022
  21 H :   -0.024867
  22 H :   -0.026687
  23 H :   -0.029120
  24 H :   -0.039775
  25 H :   -0.006287
  26 H :   -0.011939
  27 H :   -0.015974
  28 H :   -0.057482
  29 H :   -0.063449
  30 H :   -0.002795
  31 H :   -0.021871
  32 H :   -0.018577
  33 H :   -0.034644
  34 H :   -0.152747
  35 H :   -0.024918

  Mayer bond orders larger than 0.100000
B(  0-C ,  1-C ) :   0.9823 B(  0-C , 20-H ) :   0.9703 B(  0-C , 21-H ) :   0.9801
B(  0-C , 22-H ) :   0.9756 B(  1-C ,  2-O ) :   0.8944 B(  1-C , 23-H ) :   0.9794
B(  1-C , 24-H ) :   0.9607 B(  2-O ,  3-C ) :   1.1800 B(  3-C ,  4-O ) :   2.0874
B(  3-C ,  5-C ) :   0.9359 B(  5-C ,  6-C ) :   1.6777 B(  5-C , 12-C ) :   0.9597
B(  6-C ,  7-C ) :   0.9459 B(  6-C ,  8-N ) :   1.1253 B(  7-C , 25-H ) :   0.9759
B(  7-C , 26-H ) :   0.9774 B(  7-C , 27-H ) :   0.9633 B(  8-N ,  9-C ) :   1.1894
B(  8-N , 28-H ) :   0.9510 B(  9-C , 10-S ) :   1.6136 B(  9-C , 11-N ) :   1.2916
B( 11-N , 12-C ) :   0.9995 B( 11-N , 29-H ) :   0.9502 B( 12-C , 13-C ) :   0.9412
B( 12-C , 30-H ) :   0.9972 B( 13-C , 14-C ) :   1.3887 B( 13-C , 19-C ) :   1.3509
B( 14-C , 15-C ) :   1.3931 B( 14-C , 31-H ) :   0.9610 B( 15-C , 16-C ) :   1.3617
B( 15-C , 32-H ) :   0.9708 B( 16-C , 17-C ) :   1.3303 B( 16-C , 33-H ) :   0.9851
B( 17-C , 18-O ) :   1.1065 B( 17-C , 19-C ) :   1.3716 B( 18-O , 34-H ) :   0.9789
B( 19-C , 35-H ) :   0.9567

MP2 TOTAL ENERGY:    -1274.337222036 Eh
FINAL SINGLE POINT ENERGY     -1274.337222035745

DIPOLE MOMENT
-------------
                                X             Y             Z
Electronic contribution:     10.12201       8.21589       5.72860
Nuclear contribution   :    -11.63511      -9.10787      -6.07412
                        -----------------------------------------
Total Dipole Moment    :     -1.51310      -0.89198      -0.34552
                        -----------------------------------------
Magnitude (a.u.)       :      1.79011
Magnitude (Debye)      :      4.55009

Rotational constants in cm-1:     0.012398     0.009199     0.006882
Rotational constants in MHz :   371.697290   275.780795   206.319095

                             ****ORCA TERMINATED NORMALLY****
TOTAL RUN TIME: 0 days 1 hours 40 minutes 3 seconds 121 msec
