                         Program Version 4.2.0 -  RELEASE  -
|  1> ! ri-mp2 cc-pvtz cc-pvtz/c TightSCF  NoKeepInts
|  2>
|  3> %scf
|  4>   MaxCore 4096
|  5> end
|  6> *xyz  0  1
|  7>     C       14.2858732   14.7886040   15.4798207
|  8>     C       15.8055046   14.6967503   15.2612089
|  9>     O       16.3964090   15.8426897   15.9020330
| 10>     C       17.4449520   15.6900261   16.7629963
| 11>     O       18.0494391   14.6362316   16.8782978
| 12>     C       17.7471033   16.8907125   17.6165547
| 13>     C       17.2202221   18.1331459   17.4471141
| 14>     C       16.2326723   18.6005806   16.3970589
| 15>     N       17.6369008   19.1818680   18.2744694
| 16>     C       18.6674209   19.1105274   19.1739371
| 17>     S       19.1852208   20.4376452   20.0143704
| 18>     N       19.2470062   17.8789708   19.3405535
| 19>     C       18.7383531   16.6243067   18.7560733
| 20>     C       18.1109282   15.7481380   19.8375144
| 21>     C       18.5492650   14.4241066   20.0245584
| 22>     C       17.9744353   13.6120983   21.0166040
| 23>     C       16.9513586   14.1274409   21.8304191
| 24>     C       16.5091375   15.4443315   21.6453022
| 25>     O       15.5171692   15.9430074   22.4255269
| 26>     C       17.0829621   16.2500012   20.6568162
| 27>     H       14.0483894   14.7708426   16.5509708
| 28>     H       13.7771377   13.9424308   15.0021107
| 29>     H       13.8875474   15.7162517   15.0505732
| 30>     H       16.1668340   13.7519991   15.6898479
| 31>     H       16.0394800   14.7013142   14.1888210
| 32>     H       16.6019744   18.3764314   15.3885693
| 33>     H       16.0464237   19.6804984   16.4393789
| 34>     H       15.2659576   18.0973207   16.5238500
| 35>     H       17.2238334   20.0943984   18.1672435
| 36>     H       19.9834128   17.8445180   20.0336621
| 37>     H       19.5980386   16.0848029   18.3328564
| 38>     H       19.3284020   14.0173948   19.3844266
| 39>     H       18.3183994   12.5875772   21.1462683
| 40>     H       16.5032636   13.5031352   22.5961343
| 41>     H       15.2775554   15.2545927   23.0638022
| 42>     H       16.7280171   17.2673093   20.5342555
| 43> *
| 44>
| 45>                          ****END OF INPUT****

CARTESIAN COORDINATES (ANGSTROEM)
---------------------------------
  C     14.285873   14.788604   15.479821
  C     15.805505   14.696750   15.261209
  O     16.396409   15.842690   15.902033
  C     17.444952   15.690026   16.762996
  O     18.049439   14.636232   16.878298
  C     17.747103   16.890712   17.616555
  C     17.220222   18.133146   17.447114
  C     16.232672   18.600581   16.397059
  N     17.636901   19.181868   18.274469
  C     18.667421   19.110527   19.173937
  S     19.185221   20.437645   20.014370
  N     19.247006   17.878971   19.340553
  C     18.738353   16.624307   18.756073
  C     18.110928   15.748138   19.837514
  C     18.549265   14.424107   20.024558
  C     17.974435   13.612098   21.016604
  C     16.951359   14.127441   21.830419
  C     16.509138   15.444332   21.645302
  O     15.517169   15.943007   22.425527
  C     17.082962   16.250001   20.656816
  H     14.048389   14.770843   16.550971
  H     13.777138   13.942431   15.002111
  H     13.887547   15.716252   15.050573
  H     16.166834   13.751999   15.689848
  H     16.039480   14.701314   14.188821
  H     16.601974   18.376431   15.388569
  H     16.046424   19.680498   16.439379
  H     15.265958   18.097321   16.523850
  H     17.223833   20.094398   18.167243
  H     19.983413   17.844518   20.033662
  H     19.598039   16.084803   18.332856
  H     19.328402   14.017395   19.384427
  H     18.318399   12.587577   21.146268
  H     16.503264   13.503135   22.596134
  H     15.277555   15.254593   23.063802
  H     16.728017   17.267309   20.534255

 Total Charge           Charge          ....    0
 Multiplicity           Mult            ....    1
 Number of Electrons    NEL             ....  154
 Basis Dimension        Dim             ....  828

ORBITAL ENERGIES
----------------

  NO   OCC          E(Eh)            E(eV)
   0   2.0000     -91.888092     -2500.4021
   1   2.0000     -20.604657      -560.6812
   2   2.0000     -20.591142      -560.3135
   3   2.0000     -20.544288      -559.0385
   4   2.0000     -15.628684      -425.2781
   5   2.0000     -15.606520      -424.6750
   6   2.0000     -11.396248      -310.1077
   7   2.0000     -11.382815      -309.7421
   8   2.0000     -11.337298      -308.5036
   9   2.0000     -11.306865      -307.6754
  10   2.0000     -11.304960      -307.6236
  11   2.0000     -11.299050      -307.4628
  12   2.0000     -11.260902      -306.4247
  13   2.0000     -11.259000      -306.3730
  14   2.0000     -11.252771      -306.2035
  15   2.0000     -11.246923      -306.0443
  16   2.0000     -11.236616      -305.7639
  17   2.0000     -11.233587      -305.6814
  18   2.0000     -11.232815      -305.6604
  19   2.0000     -11.229631      -305.5738
  20   2.0000      -8.893151      -241.9949
  21   2.0000      -6.574728      -178.9074
  22   2.0000      -6.572722      -178.8529
  23   2.0000      -6.572135      -178.8369
  24   2.0000      -1.453936       -39.5636
  25   2.0000      -1.410878       -38.3919
  26   2.0000      -1.357169       -36.9304
  27   2.0000      -1.339523       -36.4503
  28   2.0000      -1.236959       -33.6594
  29   2.0000      -1.151524       -31.3345
  30   2.0000      -1.119203       -30.4551
  31   2.0000      -1.044494       -28.4221
  32   2.0000      -1.036709       -28.2103
  33   2.0000      -1.008911       -27.4539
  34   2.0000      -0.997571       -27.1453
  35   2.0000      -0.983116       -26.7520
  36   2.0000      -0.920827       -25.0570
  37   2.0000      -0.890755       -24.2387
  38   2.0000      -0.847188       -23.0532
  39   2.0000      -0.834568       -22.7097
  40   2.0000      -0.827164       -22.5083
  41   2.0000      -0.816235       -22.2109
  42   2.0000      -0.762220       -20.7411
  43   2.0000      -0.736085       -20.0299
  44   2.0000      -0.724314       -19.7096
  45   2.0000      -0.690887       -18.8000
  46   2.0000      -0.685071       -18.6417
  47   2.0000      -0.679117       -18.4797
  48   2.0000      -0.673499       -18.3268
  49   2.0000      -0.659420       -17.9437
  50   2.0000      -0.648289       -17.6409
  51   2.0000      -0.643734       -17.5169
  52   2.0000      -0.634164       -17.2565
  53   2.0000      -0.601952       -16.3800
  54   2.0000      -0.599673       -16.3179
  55   2.0000      -0.595515       -16.2048
  56   2.0000      -0.592093       -16.1117
  57   2.0000      -0.585666       -15.9368
  58   2.0000      -0.573042       -15.5933
  59   2.0000      -0.562298       -15.3009
  60   2.0000      -0.560710       -15.2577
  61   2.0000      -0.557131       -15.1603
  62   2.0000      -0.537313       -14.6210
  63   2.0000      -0.527661       -14.3584
  64   2.0000      -0.516800       -14.0628
  65   2.0000      -0.509712       -13.8700
  66   2.0000      -0.499355       -13.5881
  67   2.0000      -0.495147       -13.4736
  68   2.0000      -0.480740       -13.0816
  69   2.0000      -0.465057       -12.6549
  70   2.0000      -0.456623       -12.4253
  71   2.0000      -0.455800       -12.4030
  72   2.0000      -0.354438        -9.6448
  73   2.0000      -0.343483        -9.3467
  74   2.0000      -0.327167        -8.9027
  75   2.0000      -0.315531        -8.5860
  76   2.0000      -0.313100        -8.5199
  77   0.0000       0.075822         2.0632
  78   0.0000       0.113976         3.1015
  79   0.0000       0.120622         3.2823
  80   0.0000       0.136394         3.7115
  81   0.0000       0.139474         3.7953

MULLIKEN ATOMIC CHARGES
-----------------------
   0 C :   -0.272083
   1 C :    0.019674
   2 O :   -0.339135
   3 C :    0.453447
   4 O :   -0.433292
   5 C :   -0.182384
   6 C :    0.143789
   7 C :   -0.285192
   8 N :   -0.120689
   9 C :    0.201076
  10 S :   -0.438869
  11 N :   -0.196394
  12 C :    0.034065
  13 C :    0.059075
  14 C :   -0.159576
  15 C :   -0.134192
  16 C :   -0.278961
  17 C :    0.311398
  18 O :   -0.359364
  19 C :   -0.273658
  20 H :    0.100430
  21 H :    0.099387
  22 H :    0.090300
  23 H :    0.118214
  24 H :    0.097514
  25 H :    0.127631
  26 H :    0.103113
  27 H :    0.127099
  28 H :    0.196685
  29 H :    0.193470
  30 H :    0.153570
  31 H :    0.152909
  32 H :    0.158816
  33 H :    0.127794
  34 H :    0.240023
  35 H :    0.164309
Sum of atomic charges:    0.0000000

LOEWDIN ATOMIC CHARGES
----------------------
   0 C :    0.103960
   1 C :   -0.011609
   2 O :    0.308645
   3 C :   -0.415256
   4 O :    0.101305
   5 C :   -0.091452
   6 C :   -0.064189
   7 C :    0.124729
   8 N :    0.405001
   9 C :   -0.459192
  10 S :   -0.035682
  11 N :    0.398079
  12 C :   -0.046784
  13 C :   -0.038629
  14 C :    0.022549
  15 C :    0.040888
  16 C :   -0.002439
  17 C :   -0.192767
  18 O :    0.392831
  19 C :    0.028058
  20 H :   -0.025362
  21 H :   -0.024232
  22 H :   -0.030555
  23 H :   -0.026186
  24 H :   -0.030616
  25 H :   -0.008341
  26 H :   -0.021291
  27 H :   -0.010062
  28 H :   -0.059276
  29 H :   -0.063570
  30 H :   -0.005104
  31 H :   -0.025308
  32 H :   -0.021313
  33 H :   -0.036501
  34 H :   -0.154981
  35 H :   -0.025349

  Mayer bond orders larger than 0.100000
B(  0-C ,  1-C ) :   0.9722 B(  0-C , 20-H ) :   0.9762 B(  0-C , 21-H ) :   0.9775
B(  0-C , 22-H ) :   0.9793 B(  1-C ,  2-O ) :   0.8892 B(  1-C , 23-H ) :   0.9735
B(  1-C , 24-H ) :   0.9826 B(  2-O ,  3-C ) :   1.1773 B(  3-C ,  4-O ) :   1.9746
B(  3-C ,  5-C ) :   1.0555 B(  5-C ,  6-C ) :   1.6423 B(  5-C , 12-C ) :   0.9670
B(  6-C ,  7-C ) :   0.9558 B(  6-C ,  8-N ) :   1.1528 B(  7-C , 25-H ) :   0.9645
B(  7-C , 26-H ) :   0.9916 B(  7-C , 27-H ) :   0.9646 B(  8-N ,  9-C ) :   1.1767
B(  8-N , 28-H ) :   0.9487 B(  9-C , 10-S ) :   1.6111 B(  9-C , 11-N ) :   1.3053
B( 11-N , 12-C ) :   0.9924 B( 11-N , 29-H ) :   0.9521 B( 12-C , 13-C ) :   0.9474
B( 12-C , 30-H ) :   1.0005 B( 13-C , 14-C ) :   1.3756 B( 13-C , 19-C ) :   1.3689
B( 14-C , 15-C ) :   1.3947 B( 14-C , 31-H ) :   0.9650 B( 15-C , 16-C ) :   1.3623
B( 15-C , 32-H ) :   0.9715 B( 16-C , 17-C ) :   1.3317 B( 16-C , 33-H ) :   0.9861
B( 17-C , 18-O ) :   1.1078 B( 17-C , 19-C ) :   1.3796 B( 18-O , 34-H ) :   0.9806
B( 19-C , 35-H ) :   0.9585

MP2 TOTAL ENERGY:    -1274.348491920 Eh
FINAL SINGLE POINT ENERGY     -1274.348491920012

DIPOLE MOMENT
-------------
                                X             Y             Z
Electronic contribution:     11.84138       8.84659      10.50291
Nuclear contribution   :    -13.32803     -10.15017     -11.54676
                        -----------------------------------------
Total Dipole Moment    :     -1.48665      -1.30358      -1.04385
                        -----------------------------------------
Magnitude (a.u.)       :      2.23586
Magnitude (Debye)      :      5.68310

Rotational constants in cm-1:     0.010324     0.008951     0.005934
Rotational constants in MHz :   309.499719   268.342094   177.886121

                             ****ORCA TERMINATED NORMALLY****
TOTAL RUN TIME: 0 days 1 hours 37 minutes 43 seconds 930 msec
