                         Program Version 4.2.0 -  RELEASE  -
|  1> ! ri-mp2 cc-pvtz cc-pvtz/c TightSCF  NoKeepInts
|  2>
|  3> %scf
|  4>   MaxCore 4096
|  5> end
|  6> *xyz  0  1
|  7>     C       15.4047323   14.1479901   17.0368298
|  8>     C       15.3354564   15.4208131   16.1655924
|  9>     O       16.6322570   15.8285584   15.6713014
| 10>     C       17.7423962   15.7581068   16.4623259
| 11>     O       18.3639648   14.7182928   16.5966617
| 12>     C       17.9276483   16.9334306   17.3770956
| 13>     C       17.4820229   18.1893426   17.1160167
| 14>     C       16.7658720   18.6822152   15.8751887
| 15>     N       17.7507765   19.2231702   18.0184712
| 16>     C       18.5700029   19.1161062   19.1112319
| 17>     S       18.9243321   20.4201706   20.0644891
| 18>     N       19.0806950   17.8701239   19.3736000
| 19>     C       18.6968295   16.6331586   18.6676407
| 20>     C       17.8843442   15.7249889   19.5854887
| 21>     C       18.2798767   14.3919896   19.8006506
| 22>     C       17.5252851   13.5462532   20.6307520
| 23>     C       16.3637931   14.0364937   21.2514792
| 24>     C       15.9647955   15.3626891   21.0374277
| 25>     O       14.8379490   15.8362528   21.6262695
| 26>     C       16.7175900   16.2022199   20.2104767
| 27>     H       15.9168094   13.3380493   16.5016832
| 28>     H       14.3950006   13.8027281   17.2888967
| 29>     H       15.9364059   14.3321119   17.9773560
| 30>     H       14.6658348   15.2455030   15.3137129
| 31>     H       14.9025818   16.2291474   16.7690239
| 32>     H       17.2051122   18.2467883   14.9686160
| 33>     H       16.8290967   19.7715219   15.7618991
| 34>     H       15.7038961   18.4118822   15.9005917
| 35>     H       17.3906783   20.1473001   17.8404714
| 36>     H       19.6602155   17.8126162   20.2012968
| 37>     H       19.6216322   16.1059766   18.3911072
| 38>     H       19.1663643   14.0042336   19.3041430
| 39>     H       17.8385163   12.5148440   20.7831200
| 40>     H       15.7766605   13.3853489   21.8905597
| 41>     H       14.4952206   15.1355972   22.2015404
| 42>     H       16.3923551   17.2259849   20.0609925
| 43> *
| 44>
| 45>                          ****END OF INPUT****

CARTESIAN COORDINATES (ANGSTROEM)
---------------------------------
  C     15.404732   14.147990   17.036830
  C     15.335456   15.420813   16.165592
  O     16.632257   15.828558   15.671301
  C     17.742396   15.758107   16.462326
  O     18.363965   14.718293   16.596662
  C     17.927648   16.933431   17.377096
  C     17.482023   18.189343   17.116017
  C     16.765872   18.682215   15.875189
  N     17.750777   19.223170   18.018471
  C     18.570003   19.116106   19.111232
  S     18.924332   20.420171   20.064489
  N     19.080695   17.870124   19.373600
  C     18.696829   16.633159   18.667641
  C     17.884344   15.724989   19.585489
  C     18.279877   14.391990   19.800651
  C     17.525285   13.546253   20.630752
  C     16.363793   14.036494   21.251479
  C     15.964795   15.362689   21.037428
  O     14.837949   15.836253   21.626269
  C     16.717590   16.202220   20.210477
  H     15.916809   13.338049   16.501683
  H     14.395001   13.802728   17.288897
  H     15.936406   14.332112   17.977356
  H     14.665835   15.245503   15.313713
  H     14.902582   16.229147   16.769024
  H     17.205112   18.246788   14.968616
  H     16.829097   19.771522   15.761899
  H     15.703896   18.411882   15.900592
  H     17.390678   20.147300   17.840471
  H     19.660215   17.812616   20.201297
  H     19.621632   16.105977   18.391107
  H     19.166364   14.004234   19.304143
  H     17.838516   12.514844   20.783120
  H     15.776660   13.385349   21.890560
  H     14.495221   15.135597   22.201540
  H     16.392355   17.225985   20.060993

 Total Charge           Charge          ....    0
 Multiplicity           Mult            ....    1
 Number of Electrons    NEL             ....  154
 Basis Dimension        Dim             ....  828

ORBITAL ENERGIES
----------------

  NO   OCC          E(Eh)            E(eV)
   0   2.0000     -91.890283     -2500.4617
   1   2.0000     -20.597114      -560.4760
   2   2.0000     -20.583899      -560.1164
   3   2.0000     -20.553210      -559.2813
   4   2.0000     -15.630621      -425.3308
   5   2.0000     -15.609270      -424.7498
   6   2.0000     -11.395081      -310.0759
   7   2.0000     -11.385549      -309.8165
   8   2.0000     -11.338003      -308.5227
   9   2.0000     -11.313592      -307.8585
  10   2.0000     -11.308540      -307.7210
  11   2.0000     -11.306633      -307.6691
  12   2.0000     -11.262169      -306.4592
  13   2.0000     -11.261413      -306.4386
  14   2.0000     -11.258762      -306.3665
  15   2.0000     -11.253511      -306.2236
  16   2.0000     -11.243204      -305.9431
  17   2.0000     -11.239158      -305.8330
  18   2.0000     -11.235945      -305.7456
  19   2.0000     -11.222959      -305.3923
  20   2.0000      -8.895348      -242.0547
  21   2.0000      -6.576923      -178.9672
  22   2.0000      -6.574916      -178.9126
  23   2.0000      -6.574328      -178.8966
  24   2.0000      -1.446556       -39.3628
  25   2.0000      -1.416904       -38.5559
  26   2.0000      -1.356250       -36.9054
  27   2.0000      -1.341731       -36.5104
  28   2.0000      -1.239604       -33.7314
  29   2.0000      -1.157717       -31.5031
  30   2.0000      -1.122142       -30.5350
  31   2.0000      -1.045117       -28.4391
  32   2.0000      -1.031502       -28.0686
  33   2.0000      -1.015196       -27.6249
  34   2.0000      -1.001639       -27.2560
  35   2.0000      -0.986578       -26.8462
  36   2.0000      -0.925240       -25.1771
  37   2.0000      -0.891879       -24.2693
  38   2.0000      -0.851786       -23.1783
  39   2.0000      -0.840350       -22.8671
  40   2.0000      -0.833589       -22.6831
  41   2.0000      -0.825350       -22.4589
  42   2.0000      -0.744679       -20.2637
  43   2.0000      -0.729675       -19.8555
  44   2.0000      -0.728038       -19.8109
  45   2.0000      -0.695067       -18.9137
  46   2.0000      -0.686196       -18.6724
  47   2.0000      -0.680163       -18.5082
  48   2.0000      -0.675587       -18.3837
  49   2.0000      -0.665526       -18.1099
  50   2.0000      -0.649984       -17.6870
  51   2.0000      -0.648115       -17.6361
  52   2.0000      -0.637554       -17.3487
  53   2.0000      -0.619336       -16.8530
  54   2.0000      -0.606009       -16.4903
  55   2.0000      -0.603910       -16.4332
  56   2.0000      -0.600627       -16.3439
  57   2.0000      -0.579256       -15.7624
  58   2.0000      -0.575277       -15.6541
  59   2.0000      -0.566745       -15.4219
  60   2.0000      -0.552878       -15.0446
  61   2.0000      -0.549015       -14.9395
  62   2.0000      -0.537583       -14.6284
  63   2.0000      -0.528829       -14.3902
  64   2.0000      -0.520349       -14.1594
  65   2.0000      -0.512108       -13.9352
  66   2.0000      -0.500631       -13.6229
  67   2.0000      -0.490519       -13.3477
  68   2.0000      -0.484185       -13.1754
  69   2.0000      -0.466485       -12.6937
  70   2.0000      -0.457066       -12.4374
  71   2.0000      -0.449234       -12.2243
  72   2.0000      -0.356930        -9.7126
  73   2.0000      -0.349523        -9.5110
  74   2.0000      -0.329540        -8.9672
  75   2.0000      -0.320942        -8.7333
  76   2.0000      -0.317754        -8.6465
  77   0.0000       0.070600         1.9211
  78   0.0000       0.104709         2.8493
  79   0.0000       0.119489         3.2515
  80   0.0000       0.131304         3.5730
  81   0.0000       0.138154         3.7594

MULLIKEN ATOMIC CHARGES
-----------------------
   0 C :   -0.291839
   1 C :    0.032684
   2 O :   -0.379373
   3 C :    0.460739
   4 O :   -0.390782
   5 C :   -0.218254
   6 C :    0.150645
   7 C :   -0.292191
   8 N :   -0.124603
   9 C :    0.200136
  10 S :   -0.437542
  11 N :   -0.200119
  12 C :    0.055133
  13 C :    0.008507
  14 C :   -0.151194
  15 C :   -0.137879
  16 C :   -0.271470
  17 C :    0.301382
  18 O :   -0.359885
  19 C :   -0.249231
  20 H :    0.115836
  21 H :    0.099765
  22 H :    0.111739
  23 H :    0.114191
  24 H :    0.080455
  25 H :    0.135583
  26 H :    0.109500
  27 H :    0.120597
  28 H :    0.197325
  29 H :    0.194408
  30 H :    0.155616
  31 H :    0.157812
  32 H :    0.160877
  33 H :    0.131410
  34 H :    0.241196
  35 H :    0.168828
Sum of atomic charges:   -0.0000000

LOEWDIN ATOMIC CHARGES
----------------------
   0 C :    0.109606
   1 C :   -0.018245
   2 O :    0.283573
   3 C :   -0.419707
   4 O :    0.129686
   5 C :   -0.094805
   6 C :   -0.070593
   7 C :    0.126882
   8 N :    0.404856
   9 C :   -0.458751
  10 S :   -0.034476
  11 N :    0.397584
  12 C :   -0.046296
  13 C :   -0.043314
  14 C :    0.021693
  15 C :    0.042537
  16 C :   -0.001296
  17 C :   -0.193763
  18 O :    0.394067
  19 C :    0.026948
  20 H :   -0.021581
  21 H :   -0.026074
  22 H :   -0.025714
  23 H :   -0.022052
  24 H :   -0.039345
  25 H :   -0.005820
  26 H :   -0.018694
  27 H :   -0.013192
  28 H :   -0.058370
  29 H :   -0.063626
  30 H :   -0.004197
  31 H :   -0.023996
  32 H :   -0.019826
  33 H :   -0.035245
  34 H :   -0.153677
  35 H :   -0.024780

  Mayer bond orders larger than 0.100000
B(  0-C ,  1-C ) :   0.9779 B(  0-C , 20-H ) :   0.9726 B(  0-C , 21-H ) :   0.9758
B(  0-C , 22-H ) :   0.9656 B(  1-C ,  2-O ) :   0.8993 B(  1-C , 23-H ) :   0.9786
B(  1-C , 24-H ) :   0.9731 B(  2-O ,  3-C ) :   1.0922 B(  3-C ,  4-O ) :   2.0530
B(  3-C ,  5-C ) :   1.0102 B(  5-C ,  6-C ) :   1.6611 B(  5-C , 12-C ) :   0.9637
B(  6-C ,  7-C ) :   0.9500 B(  6-C ,  8-N ) :   1.1458 B(  7-C , 25-H ) :   0.9663
B(  7-C , 26-H ) :   0.9880 B(  7-C , 27-H ) :   0.9668 B(  8-N ,  9-C ) :   1.1811
B(  8-N , 28-H ) :   0.9492 B(  9-C , 10-S ) :   1.6129 B(  9-C , 11-N ) :   1.3018
B( 11-N , 12-C ) :   0.9925 B( 11-N , 29-H ) :   0.9520 B( 12-C , 13-C ) :   0.9433
B( 12-C , 30-H ) :   0.9986 B( 13-C , 14-C ) :   1.3841 B( 13-C , 19-C ) :   1.3709
B( 14-C , 15-C ) :   1.3931 B( 14-C , 31-H ) :   0.9633 B( 15-C , 16-C ) :   1.3628
B( 15-C , 32-H ) :   0.9716 B( 16-C , 17-C ) :   1.3320 B( 16-C , 33-H ) :   0.9847
B( 17-C , 18-O ) :   1.1113 B( 17-C , 19-C ) :   1.3722 B( 18-O , 34-H ) :   0.9796
B( 19-C , 35-H ) :   0.9574

MP2 TOTAL ENERGY:    -1274.331453121 Eh
FINAL SINGLE POINT ENERGY     -1274.331453121066

DIPOLE MOMENT
-------------
                                X             Y             Z
Electronic contribution:      9.86371       9.07499       6.21525
Nuclear contribution   :    -11.36471     -10.09910      -6.72261
                        -----------------------------------------
Total Dipole Moment    :     -1.50101      -1.02411      -0.50736
                        -----------------------------------------
Magnitude (a.u.)       :      1.88659
Magnitude (Debye)      :      4.79534

Rotational constants in cm-1:     0.011955     0.009409     0.006672
Rotational constants in MHz :   358.413894   282.074073   200.026963

                             ****ORCA TERMINATED NORMALLY****
TOTAL RUN TIME: 0 days 1 hours 46 minutes 20 seconds 783 msec
