                         Program Version 4.2.0 -  RELEASE  -
|  1> ! ri-mp2 cc-pvtz cc-pvtz/c TightSCF  NoKeepInts
|  2>
|  3> %scf
|  4>   MaxCore 4096
|  5> end
|  6> *xyz  0  1
|  7>     C       15.1723791   14.5998191   17.2882487
|  8>     C       15.4429579   15.5958802   16.1453405
|  9>     O       16.7958624   15.4265089   15.6684342
| 10>     C       17.9111038   15.6455814   16.4371557
| 11>     O       18.7882181   14.8030143   16.4908916
| 12>     C       17.9025410   16.8313809   17.3583912
| 13>     C       17.4371444   18.0564559   17.0027110
| 14>     C       16.8931405   18.4946769   15.6567993
| 15>     N       17.5666539   19.1339726   17.8829213
| 16>     C       18.3093835   19.1181173   19.0334368
| 17>     S       18.5101300   20.4740301   19.9581882
| 18>     N       18.8828779   17.9196167   19.3747349
| 19>     C       18.6271547   16.6338842   18.6965087
| 20>     C       17.8731560   15.6762548   19.6139901
| 21>     C       18.2500310   14.3222128   19.6822331
| 22>     C       17.5563223   13.4256951   20.5118484
| 23>     C       16.4750852   13.8855982   21.2823333
| 24>     C       16.0944904   15.2325869   21.2169108
| 25>     O       15.0438166   15.6773439   21.9509135
| 26>     C       16.7856375   16.1230630   20.3889617
| 27>     H       15.7696128   14.8317537   18.1727326
| 28>     H       15.4111802   13.5761709   16.9728995
| 29>     H       14.1158603   14.6288983   17.5807715
| 30>     H       14.7463021   15.3929492   15.3216265
| 31>     H       15.2517149   16.6118399   16.5037570
| 32>     H       17.1343489   17.7842793   14.8572729
| 33>     H       17.3323824   19.4528373   15.3504906
| 34>     H       15.8050354   18.6253455   15.6848531
| 35>     H       17.1710976   20.0283439   17.6388198
| 36>     H       19.4133079   17.9304166   20.2368092
| 37>     H       19.6059682   16.1819358   18.4773962
| 38>     H       19.0774645   13.9596589   19.0756311
| 39>     H       17.8558265   12.3796725   20.5505026
| 40>     H       15.9355101   13.1955561   21.9226062
| 41>     H       14.7342174   14.9365472   22.4937394
| 42>     H       16.4690845   17.1601019   20.3531385
| 43> *
| 44>
| 45>                          ****END OF INPUT****

CARTESIAN COORDINATES (ANGSTROEM)
---------------------------------
  C     15.172379   14.599819   17.288249
  C     15.442958   15.595880   16.145340
  O     16.795862   15.426509   15.668434
  C     17.911104   15.645581   16.437156
  O     18.788218   14.803014   16.490892
  C     17.902541   16.831381   17.358391
  C     17.437144   18.056456   17.002711
  C     16.893141   18.494677   15.656799
  N     17.566654   19.133973   17.882921
  C     18.309383   19.118117   19.033437
  S     18.510130   20.474030   19.958188
  N     18.882878   17.919617   19.374735
  C     18.627155   16.633884   18.696509
  C     17.873156   15.676255   19.613990
  C     18.250031   14.322213   19.682233
  C     17.556322   13.425695   20.511848
  C     16.475085   13.885598   21.282333
  C     16.094490   15.232587   21.216911
  O     15.043817   15.677344   21.950913
  C     16.785637   16.123063   20.388962
  H     15.769613   14.831754   18.172733
  H     15.411180   13.576171   16.972900
  H     14.115860   14.628898   17.580772
  H     14.746302   15.392949   15.321626
  H     15.251715   16.611840   16.503757
  H     17.134349   17.784279   14.857273
  H     17.332382   19.452837   15.350491
  H     15.805035   18.625346   15.684853
  H     17.171098   20.028344   17.638820
  H     19.413308   17.930417   20.236809
  H     19.605968   16.181936   18.477396
  H     19.077465   13.959659   19.075631
  H     17.855826   12.379672   20.550503
  H     15.935510   13.195556   21.922606
  H     14.734217   14.936547   22.493739
  H     16.469085   17.160102   20.353139

 Total Charge           Charge          ....    0
 Multiplicity           Mult            ....    1
 Number of Electrons    NEL             ....  154
 Basis Dimension        Dim             ....  828

ORBITAL ENERGIES
----------------

  NO   OCC          E(Eh)            E(eV)
   0   2.0000     -91.891145     -2500.4852
   1   2.0000     -20.598000      -560.5001
   2   2.0000     -20.595316      -560.4271
   3   2.0000     -20.551117      -559.2243
   4   2.0000     -15.630053      -425.3154
   5   2.0000     -15.610774      -424.7907
   6   2.0000     -11.398761      -310.1761
   7   2.0000     -11.386901      -309.8533
   8   2.0000     -11.337843      -308.5184
   9   2.0000     -11.314960      -307.8957
  10   2.0000     -11.311930      -307.8133
  11   2.0000     -11.307383      -307.6895
  12   2.0000     -11.267569      -306.6061
  13   2.0000     -11.267047      -306.5919
  14   2.0000     -11.261208      -306.4331
  15   2.0000     -11.255065      -306.2659
  16   2.0000     -11.244479      -305.9778
  17   2.0000     -11.240230      -305.8622
  18   2.0000     -11.236665      -305.7652
  19   2.0000     -11.225660      -305.4657
  20   2.0000      -8.896231      -242.0788
  21   2.0000      -6.577812      -178.9914
  22   2.0000      -6.575794      -178.9365
  23   2.0000      -6.575211      -178.9206
  24   2.0000      -1.446861       -39.3711
  25   2.0000      -1.417806       -38.5805
  26   2.0000      -1.358913       -36.9779
  27   2.0000      -1.342904       -36.5423
  28   2.0000      -1.241144       -33.7732
  29   2.0000      -1.159238       -31.5445
  30   2.0000      -1.124398       -30.5964
  31   2.0000      -1.047091       -28.4928
  32   2.0000      -1.035739       -28.1839
  33   2.0000      -1.017246       -27.6807
  34   2.0000      -1.005150       -27.3515
  35   2.0000      -0.989295       -26.9201
  36   2.0000      -0.927447       -25.2371
  37   2.0000      -0.892594       -24.2887
  38   2.0000      -0.855136       -23.2694
  39   2.0000      -0.841777       -22.9059
  40   2.0000      -0.834920       -22.7193
  41   2.0000      -0.830563       -22.6008
  42   2.0000      -0.746773       -20.3207
  43   2.0000      -0.738499       -20.0956
  44   2.0000      -0.730126       -19.8677
  45   2.0000      -0.696000       -18.9391
  46   2.0000      -0.687335       -18.7033
  47   2.0000      -0.681547       -18.5458
  48   2.0000      -0.676362       -18.4047
  49   2.0000      -0.660507       -17.9733
  50   2.0000      -0.656596       -17.8669
  51   2.0000      -0.648871       -17.6567
  52   2.0000      -0.639364       -17.3980
  53   2.0000      -0.621864       -16.9218
  54   2.0000      -0.608814       -16.5667
  55   2.0000      -0.605984       -16.4897
  56   2.0000      -0.601556       -16.3692
  57   2.0000      -0.585287       -15.9265
  58   2.0000      -0.575904       -15.6712
  59   2.0000      -0.566169       -15.4062
  60   2.0000      -0.561579       -15.2814
  61   2.0000      -0.547512       -14.8986
  62   2.0000      -0.545863       -14.8537
  63   2.0000      -0.533380       -14.5140
  64   2.0000      -0.520643       -14.1674
  65   2.0000      -0.513221       -13.9654
  66   2.0000      -0.501558       -13.6481
  67   2.0000      -0.497179       -13.5289
  68   2.0000      -0.483531       -13.1576
  69   2.0000      -0.469559       -12.7774
  70   2.0000      -0.458902       -12.4874
  71   2.0000      -0.448667       -12.2088
  72   2.0000      -0.359629        -9.7860
  73   2.0000      -0.350220        -9.5300
  74   2.0000      -0.330575        -8.9954
  75   2.0000      -0.323026        -8.7900
  76   2.0000      -0.319799        -8.7022
  77   0.0000       0.075951         2.0667
  78   0.0000       0.105729         2.8770
  79   0.0000       0.116188         3.1616
  80   0.0000       0.130448         3.5497
  81   0.0000       0.133635         3.6364

MULLIKEN ATOMIC CHARGES
-----------------------
   0 C :   -0.289931
   1 C :    0.026920
   2 O :   -0.344880
   3 C :    0.441548
   4 O :   -0.384899
   5 C :   -0.220430
   6 C :    0.143879
   7 C :   -0.324995
   8 N :   -0.131320
   9 C :    0.195034
  10 S :   -0.437762
  11 N :   -0.209712
  12 C :    0.064012
  13 C :   -0.003640
  14 C :   -0.177464
  15 C :   -0.143210
  16 C :   -0.265273
  17 C :    0.300590
  18 O :   -0.358278
  19 C :   -0.235484
  20 H :    0.108511
  21 H :    0.111933
  22 H :    0.098313
  23 H :    0.120945
  24 H :    0.082668
  25 H :    0.140632
  26 H :    0.131236
  27 H :    0.122258
  28 H :    0.197183
  29 H :    0.198088
  30 H :    0.164004
  31 H :    0.171313
  32 H :    0.162828
  33 H :    0.132446
  34 H :    0.240954
  35 H :    0.171983
Sum of atomic charges:   -0.0000000

LOEWDIN ATOMIC CHARGES
----------------------
   0 C :    0.111112
   1 C :   -0.021696
   2 O :    0.294392
   3 C :   -0.415698
   4 O :    0.124468
   5 C :   -0.086496
   6 C :   -0.085457
   7 C :    0.124958
   8 N :    0.403621
   9 C :   -0.460107
  10 S :   -0.035209
  11 N :    0.397790
  12 C :   -0.044610
  13 C :   -0.046028
  14 C :    0.020598
  15 C :    0.044052
  16 C :   -0.000610
  17 C :   -0.193171
  18 O :    0.395310
  19 C :    0.025990
  20 H :   -0.030032
  21 H :   -0.021867
  22 H :   -0.025448
  23 H :   -0.021020
  24 H :   -0.040561
  25 H :   -0.007932
  26 H :   -0.011614
  27 H :   -0.018433
  28 H :   -0.056776
  29 H :   -0.063011
  30 H :   -0.002617
  31 H :   -0.022273
  32 H :   -0.018898
  33 H :   -0.034857
  34 H :   -0.153439
  35 H :   -0.024431

  Mayer bond orders larger than 0.100000
B(  0-C ,  1-C ) :   0.9752 B(  0-C , 20-H ) :   0.9661 B(  0-C , 21-H ) :   0.9768
B(  0-C , 22-H ) :   0.9771 B(  1-C ,  2-O ) :   0.8974 B(  1-C , 23-H ) :   0.9805
B(  1-C , 24-H ) :   0.9686 B(  2-O ,  3-C ) :   1.1474 B(  3-C ,  4-O ) :   2.0745
B(  3-C ,  5-C ) :   0.9526 B(  5-C ,  6-C ) :   1.6825 B(  5-C , 12-C ) :   0.9531
B(  6-C ,  7-C ) :   0.9391 B(  6-C ,  8-N ) :   1.1233 B(  7-C , 25-H ) :   0.9732
B(  7-C , 26-H ) :   0.9770 B(  7-C , 27-H ) :   0.9653 B(  8-N ,  9-C ) :   1.1873
B(  8-N , 28-H ) :   0.9514 B(  9-C , 10-S ) :   1.6138 B(  9-C , 11-N ) :   1.2946
B( 11-N , 12-C ) :   0.9923 B( 11-N , 29-H ) :   0.9502 B( 12-C , 13-C ) :   0.9484
B( 12-C , 30-H ) :   0.9969 B( 13-C , 14-C ) :   1.3948 B( 13-C , 19-C ) :   1.3563
B( 14-C , 15-C ) :   1.3937 B( 14-C , 31-H ) :   0.9581 B( 15-C , 16-C ) :   1.3622
B( 15-C , 32-H ) :   0.9709 B( 16-C , 17-C ) :   1.3314 B( 16-C , 33-H ) :   0.9842
B( 17-C , 18-O ) :   1.1121 B( 17-C , 19-C ) :   1.3692 B( 18-O , 34-H ) :   0.9796
B( 19-C , 35-H ) :   0.9583

MP2 TOTAL ENERGY:    -1274.336248823 Eh
FINAL SINGLE POINT ENERGY     -1274.336248822857

DIPOLE MOMENT
-------------
                                X             Y             Z
Electronic contribution:      9.57967       7.70597       6.10965
Nuclear contribution   :    -11.14103      -8.60771      -6.58076
                        -----------------------------------------
Total Dipole Moment    :     -1.56136      -0.90174      -0.47111
                        -----------------------------------------
Magnitude (a.u.)       :      1.86358
Magnitude (Debye)      :      4.73684

Rotational constants in cm-1:     0.011578     0.009630     0.006675
Rotational constants in MHz :   347.101316   288.687922   200.125486

                             ****ORCA TERMINATED NORMALLY****
TOTAL RUN TIME: 0 days 1 hours 50 minutes 3 seconds 716 msec
