                         Program Version 4.2.0 -  RELEASE  -
|  1> ! ri-mp2 cc-pvtz cc-pvtz/c TightSCF  NoKeepInts
|  2>
|  3> %scf
|  4>   MaxCore 4096
|  5> end
|  6> *xyz  0  1
|  7>     C       15.3998643   14.6610334   17.2069738
|  8>     C       15.5654384   15.2257278   15.7782066
|  9>     O       16.8769267   15.7795553   15.5083681
| 10>     C       17.8889129   15.7697877   16.4247572
| 11>     O       18.5580427   14.7657668   16.5952985
| 12>     C       17.9065926   16.9235906   17.3880841
| 13>     C       17.3494249   18.1393810   17.1497414
| 14>     C       16.6233527   18.6062217   15.9049001
| 15>     N       17.4991233   19.1666684   18.0872431
| 16>     C       18.3338046   19.1190967   19.1725699
| 17>     S       18.5680885   20.4322409   20.1500487
| 18>     N       18.9629296   17.9226605   19.4063751
| 19>     C       18.6645357   16.6641979   18.6965588
| 20>     C       17.8980723   15.7026965   19.6027938
| 21>     C       18.2982843   14.3578851   19.7103587
| 22>     C       17.5919379   13.4617513   20.5297177
| 23>     C       16.4742226   13.9128445   21.2515976
| 24>     C       16.0714222   15.2509090   21.1487223
| 25>     O       14.9867092   15.6877727   21.8367001
| 26>     C       16.7763269   16.1406521   20.3320020
| 27>     H       16.1475979   13.8873419   17.4246296
| 28>     H       14.4097981   14.2030180   17.3188131
| 29>     H       15.4807843   15.4557930   17.9565441
| 30>     H       15.3796922   14.4138543   15.0628928
| 31>     H       14.8006908   15.9925175   15.6026432
| 32>     H       15.5991958   18.2174628   15.8806394
| 33>     H       17.1395199   18.2688188   14.9972505
| 34>     H       16.5634429   19.6997637   15.8417455
| 35>     H       17.0490679   20.0544080   17.9303771
| 36>     H       19.5540995   17.9044218   20.2276041
| 37>     H       19.6256581   16.1953496   18.4393690
| 38>     H       19.1525778   14.0010531   19.1393759
| 39>     H       17.9094257   12.4226444   20.5970104
| 40>     H       15.9242549   13.2232923   21.8833518
| 41>     H       14.6728236   14.9506051   22.3818144
| 42>     H       16.4443586   17.1712155   20.2689213
| 43> *
| 44>
| 45>                          ****END OF INPUT****

CARTESIAN COORDINATES (ANGSTROEM)
---------------------------------
  C     15.399864   14.661033   17.206974
  C     15.565438   15.225728   15.778207
  O     16.876927   15.779555   15.508368
  C     17.888913   15.769788   16.424757
  O     18.558043   14.765767   16.595298
  C     17.906593   16.923591   17.388084
  C     17.349425   18.139381   17.149741
  C     16.623353   18.606222   15.904900
  N     17.499123   19.166668   18.087243
  C     18.333805   19.119097   19.172570
  S     18.568088   20.432241   20.150049
  N     18.962930   17.922660   19.406375
  C     18.664536   16.664198   18.696559
  C     17.898072   15.702696   19.602794
  C     18.298284   14.357885   19.710359
  C     17.591938   13.461751   20.529718
  C     16.474223   13.912845   21.251598
  C     16.071422   15.250909   21.148722
  O     14.986709   15.687773   21.836700
  C     16.776327   16.140652   20.332002
  H     16.147598   13.887342   17.424630
  H     14.409798   14.203018   17.318813
  H     15.480784   15.455793   17.956544
  H     15.379692   14.413854   15.062893
  H     14.800691   15.992517   15.602643
  H     15.599196   18.217463   15.880639
  H     17.139520   18.268819   14.997250
  H     16.563443   19.699764   15.841746
  H     17.049068   20.054408   17.930377
  H     19.554099   17.904422   20.227604
  H     19.625658   16.195350   18.439369
  H     19.152578   14.001053   19.139376
  H     17.909426   12.422644   20.597010
  H     15.924255   13.223292   21.883352
  H     14.672824   14.950605   22.381814
  H     16.444359   17.171215   20.268921

 Total Charge           Charge          ....    0
 Multiplicity           Mult            ....    1
 Number of Electrons    NEL             ....  154
 Basis Dimension        Dim             ....  828

ORBITAL ENERGIES
----------------

  NO   OCC          E(Eh)            E(eV)
   0   2.0000     -91.890776     -2500.4751
   1   2.0000     -20.595558      -560.4336
   2   2.0000     -20.582558      -560.0799
   3   2.0000     -20.552240      -559.2549
   4   2.0000     -15.631333      -425.3502
   5   2.0000     -15.609091      -424.7450
   6   2.0000     -11.395922      -310.0988
   7   2.0000     -11.385665      -309.8197
   8   2.0000     -11.339190      -308.5551
   9   2.0000     -11.311692      -307.8068
  10   2.0000     -11.308364      -307.7162
  11   2.0000     -11.307481      -307.6922
  12   2.0000     -11.262867      -306.4782
  13   2.0000     -11.262630      -306.4718
  14   2.0000     -11.257492      -306.3319
  15   2.0000     -11.251685      -306.1739
  16   2.0000     -11.241368      -305.8932
  17   2.0000     -11.237061      -305.7760
  18   2.0000     -11.233357      -305.6752
  19   2.0000     -11.227840      -305.5251
  20   2.0000      -8.895825      -242.0677
  21   2.0000      -6.577398      -178.9801
  22   2.0000      -6.575393      -178.9255
  23   2.0000      -6.574802      -178.9095
  24   2.0000      -1.445790       -39.3420
  25   2.0000      -1.415373       -38.5143
  26   2.0000      -1.354468       -36.8570
  27   2.0000      -1.342299       -36.5258
  28   2.0000      -1.239674       -33.7332
  29   2.0000      -1.155765       -31.4500
  30   2.0000      -1.121721       -30.5236
  31   2.0000      -1.044093       -28.4112
  32   2.0000      -1.033141       -28.1132
  33   2.0000      -1.013815       -27.5873
  34   2.0000      -1.001934       -27.2640
  35   2.0000      -0.987340       -26.8669
  36   2.0000      -0.925097       -25.1732
  37   2.0000      -0.897077       -24.4107
  38   2.0000      -0.851576       -23.1726
  39   2.0000      -0.839676       -22.8487
  40   2.0000      -0.831852       -22.6358
  41   2.0000      -0.821052       -22.3420
  42   2.0000      -0.744102       -20.2480
  43   2.0000      -0.729287       -19.8449
  44   2.0000      -0.727731       -19.8026
  45   2.0000      -0.693374       -18.8677
  46   2.0000      -0.687440       -18.7062
  47   2.0000      -0.677627       -18.4392
  48   2.0000      -0.674573       -18.3561
  49   2.0000      -0.662834       -18.0366
  50   2.0000      -0.651003       -17.7147
  51   2.0000      -0.649089       -17.6626
  52   2.0000      -0.637380       -17.3440
  53   2.0000      -0.627217       -17.0674
  54   2.0000      -0.604714       -16.4551
  55   2.0000      -0.603341       -16.4178
  56   2.0000      -0.599497       -16.3132
  57   2.0000      -0.580431       -15.7943
  58   2.0000      -0.575254       -15.6535
  59   2.0000      -0.564280       -15.3548
  60   2.0000      -0.553368       -15.0579
  61   2.0000      -0.545354       -14.8398
  62   2.0000      -0.537731       -14.6324
  63   2.0000      -0.532530       -14.4909
  64   2.0000      -0.519968       -14.1490
  65   2.0000      -0.512153       -13.9364
  66   2.0000      -0.499816       -13.6007
  67   2.0000      -0.493703       -13.4343
  68   2.0000      -0.482526       -13.1302
  69   2.0000      -0.468012       -12.7353
  70   2.0000      -0.454905       -12.3786
  71   2.0000      -0.449274       -12.2254
  72   2.0000      -0.357122        -9.7178
  73   2.0000      -0.346981        -9.4418
  74   2.0000      -0.329856        -8.9759
  75   2.0000      -0.319938        -8.7060
  76   2.0000      -0.317354        -8.6356
  77   0.0000       0.069136         1.8813
  78   0.0000       0.106973         2.9109
  79   0.0000       0.118808         3.2329
  80   0.0000       0.132363         3.6018
  81   0.0000       0.137201         3.7334

MULLIKEN ATOMIC CHARGES
-----------------------
   0 C :   -0.337476
   1 C :    0.047711
   2 O :   -0.389462
   3 C :    0.510624
   4 O :   -0.401435
   5 C :   -0.244326
   6 C :    0.159752
   7 C :   -0.302569
   8 N :   -0.122491
   9 C :    0.190115
  10 S :   -0.434999
  11 N :   -0.201581
  12 C :    0.048038
  13 C :    0.050922
  14 C :   -0.187618
  15 C :   -0.135145
  16 C :   -0.276292
  17 C :    0.317573
  18 O :   -0.359336
  19 C :   -0.283052
  20 H :    0.127504
  21 H :    0.115724
  22 H :    0.105463
  23 H :    0.117062
  24 H :    0.091658
  25 H :    0.118138
  26 H :    0.139954
  27 H :    0.112258
  28 H :    0.197540
  29 H :    0.194574
  30 H :    0.158302
  31 H :    0.165485
  32 H :    0.162781
  33 H :    0.130814
  34 H :    0.240583
  35 H :    0.173207
Sum of atomic charges:   -0.0000000

LOEWDIN ATOMIC CHARGES
----------------------
   0 C :    0.107780
   1 C :   -0.012938
   2 O :    0.281278
   3 C :   -0.421768
   4 O :    0.125630
   5 C :   -0.094408
   6 C :   -0.068709
   7 C :    0.127649
   8 N :    0.405398
   9 C :   -0.460274
  10 S :   -0.033396
  11 N :    0.397672
  12 C :   -0.045584
  13 C :   -0.040151
  14 C :    0.022112
  15 C :    0.041695
  16 C :   -0.002201
  17 C :   -0.193810
  18 O :    0.394155
  19 C :    0.027705
  20 H :   -0.020906
  21 H :   -0.022751
  22 H :   -0.032018
  23 H :   -0.024533
  24 H :   -0.034735
  25 H :   -0.013910
  26 H :   -0.005495
  27 H :   -0.018430
  28 H :   -0.058544
  29 H :   -0.063578
  30 H :   -0.003325
  31 H :   -0.024037
  32 H :   -0.020178
  33 H :   -0.035669
  34 H :   -0.154077
  35 H :   -0.025651

  Mayer bond orders larger than 0.100000
B(  0-C ,  1-C ) :   0.9641 B(  0-C , 20-H ) :   0.9657 B(  0-C , 21-H ) :   0.9747
B(  0-C , 22-H ) :   0.9697 B(  1-C ,  2-O ) :   0.8951 B(  1-C , 23-H ) :   0.9838
B(  1-C , 24-H ) :   0.9776 B(  2-O ,  3-C ) :   1.0952 B(  3-C ,  4-O ) :   2.0358
B(  3-C ,  5-C ) :   1.0133 B(  5-C ,  6-C ) :   1.6510 B(  5-C , 12-C ) :   0.9614
B(  6-C ,  7-C ) :   0.9509 B(  6-C ,  8-N ) :   1.1413 B(  7-C , 25-H ) :   0.9678
B(  7-C , 26-H ) :   0.9642 B(  7-C , 27-H ) :   0.9890 B(  8-N ,  9-C ) :   1.1790
B(  8-N , 28-H ) :   0.9490 B(  9-C , 10-S ) :   1.6161 B(  9-C , 11-N ) :   1.3010
B( 11-N , 12-C ) :   0.9874 B( 11-N , 29-H ) :   0.9520 B( 12-C , 13-C ) :   0.9482
B( 12-C , 30-H ) :   0.9993 B( 13-C , 14-C ) :   1.3802 B( 13-C , 19-C ) :   1.3492
B( 14-C , 15-C ) :   1.3949 B( 14-C , 31-H ) :   0.9604 B( 15-C , 16-C ) :   1.3619
B( 15-C , 32-H ) :   0.9704 B( 16-C , 17-C ) :   1.3314 B( 16-C , 33-H ) :   0.9848
B( 17-C , 18-O ) :   1.1110 B( 17-C , 19-C ) :   1.3693 B( 18-O , 34-H ) :   0.9802
B( 19-C , 35-H ) :   0.9592

MP2 TOTAL ENERGY:    -1274.328516400 Eh
FINAL SINGLE POINT ENERGY     -1274.328516400089

DIPOLE MOMENT
-------------
                                X             Y             Z
Electronic contribution:      9.63104       8.45291       6.49880
Nuclear contribution   :    -11.12823      -9.55362      -7.13584
                        -----------------------------------------
Total Dipole Moment    :     -1.49719      -1.10071      -0.63704
                        -----------------------------------------
Magnitude (a.u.)       :      1.96443
Magnitude (Debye)      :      4.99318

Rotational constants in cm-1:     0.011423     0.009836     0.006684
Rotational constants in MHz :   342.455329   294.865373   200.392940

                             ****ORCA TERMINATED NORMALLY****
TOTAL RUN TIME: 0 days 1 hours 59 minutes 41 seconds 187 msec
