                         Program Version 4.2.0 -  RELEASE  -
|  1> ! ri-mp2 cc-pvtz cc-pvtz/c TightSCF  NoKeepInts
|  2>
|  3> %scf
|  4>   MaxCore 4096
|  5> end
|  6> *xyz  0  1
|  7>     C       16.0643439   13.0777763   16.2120069
|  8>     C       15.6069424   14.5148978   16.5120374
|  9>     O       16.7793272   15.3452705   16.5302375
| 10>     C       16.6197320   16.7003257   16.4766698
| 11>     O       15.6919726   17.2147141   15.8757135
| 12>     C       17.4986569   17.4260407   17.4581391
| 13>     C       17.4981023   18.7786147   17.5712348
| 14>     C       16.6665513   19.7639647   16.7780276
| 15>     N       18.3611880   19.4074100   18.4735748
| 16>     C       19.3211838   18.7704843   19.2136237
| 17>     S       20.3676295   19.6004125   20.1893491
| 18>     N       19.3747750   17.4046659   19.1012964
| 19>     C       18.4093130   16.5742527   18.3586712
| 20>     C       17.6094793   15.7190931   19.3376994
| 21>     C       17.8197173   14.3289524   19.4043334
| 22>     C       17.0778977   13.5352962   20.2952547
| 23>     C       16.1211495   14.1369839   21.1303610
| 24>     C       15.9145188   15.5220930   21.0721007
| 25>     O       14.9925918   16.1061448   21.8781466
| 26>     C       16.6530681   16.3090178   20.1830881
| 27>     H       16.7483710   12.7192530   16.9907495
| 28>     H       16.5815530   13.0308019   15.2455788
| 29>     H       15.2023859   12.4007720   16.1738378
| 30>     H       14.9117863   14.8388594   15.7252342
| 31>     H       15.0899862   14.5625679   17.4798906
| 32>     H       15.5983592   19.6191157   16.9847597
| 33>     H       16.8137189   19.6156897   15.7006814
| 34>     H       16.9097850   20.8091059   17.0024479
| 35>     H       18.3371601   20.4102062   18.5680801
| 36>     H       20.0689737   16.9604449   19.6883142
| 37>     H       18.9872486   15.9047194   17.7060535
| 38>     H       18.5554909   13.8609328   18.7557894
| 39>     H       17.2461379   12.4605546   20.3374917
| 40>     H       15.5465126   13.5286633   21.8211157
| 41>     H       14.6192178   15.4140445   22.4442716
| 42>     H       16.4821723   17.3798575   20.1581382
| 43> *
| 44>
| 45>                          ****END OF INPUT****

CARTESIAN COORDINATES (ANGSTROEM)
---------------------------------
  C     16.064344   13.077776   16.212007
  C     15.606942   14.514898   16.512037
  O     16.779327   15.345270   16.530237
  C     16.619732   16.700326   16.476670
  O     15.691973   17.214714   15.875713
  C     17.498657   17.426041   17.458139
  C     17.498102   18.778615   17.571235
  C     16.666551   19.763965   16.778028
  N     18.361188   19.407410   18.473575
  C     19.321184   18.770484   19.213624
  S     20.367629   19.600413   20.189349
  N     19.374775   17.404666   19.101296
  C     18.409313   16.574253   18.358671
  C     17.609479   15.719093   19.337699
  C     17.819717   14.328952   19.404333
  C     17.077898   13.535296   20.295255
  C     16.121150   14.136984   21.130361
  C     15.914519   15.522093   21.072101
  O     14.992592   16.106145   21.878147
  C     16.653068   16.309018   20.183088
  H     16.748371   12.719253   16.990749
  H     16.581553   13.030802   15.245579
  H     15.202386   12.400772   16.173838
  H     14.911786   14.838859   15.725234
  H     15.089986   14.562568   17.479891
  H     15.598359   19.619116   16.984760
  H     16.813719   19.615690   15.700681
  H     16.909785   20.809106   17.002448
  H     18.337160   20.410206   18.568080
  H     20.068974   16.960445   19.688314
  H     18.987249   15.904719   17.706053
  H     18.555491   13.860933   18.755789
  H     17.246138   12.460555   20.337492
  H     15.546513   13.528663   21.821116
  H     14.619218   15.414044   22.444272
  H     16.482172   17.379857   20.158138

 Total Charge           Charge          ....    0
 Multiplicity           Mult            ....    1
 Number of Electrons    NEL             ....  154
 Basis Dimension        Dim             ....  828

ORBITAL ENERGIES
----------------

  NO   OCC          E(Eh)            E(eV)
   0   2.0000     -91.889392     -2500.4375
   1   2.0000     -20.598421      -560.5115
   2   2.0000     -20.595149      -560.4225
   3   2.0000     -20.543277      -559.0110
   4   2.0000     -15.629556      -425.3018
   5   2.0000     -15.608916      -424.7402
   6   2.0000     -11.393666      -310.0374
   7   2.0000     -11.384549      -309.7893
   8   2.0000     -11.336104      -308.4711
   9   2.0000     -11.315948      -307.9226
  10   2.0000     -11.310085      -307.7631
  11   2.0000     -11.293964      -307.3244
  12   2.0000     -11.261591      -306.4435
  13   2.0000     -11.258890      -306.3700
  14   2.0000     -11.257442      -306.3306
  15   2.0000     -11.252457      -306.1949
  16   2.0000     -11.245064      -305.9938
  17   2.0000     -11.240264      -305.8631
  18   2.0000     -11.239998      -305.8559
  19   2.0000     -11.228497      -305.5429
  20   2.0000      -8.894451      -242.0303
  21   2.0000      -6.576024      -178.9427
  22   2.0000      -6.574020      -178.8882
  23   2.0000      -6.573432      -178.8722
  24   2.0000      -1.450994       -39.4835
  25   2.0000      -1.418085       -38.5880
  26   2.0000      -1.354081       -36.8464
  27   2.0000      -1.340567       -36.4787
  28   2.0000      -1.239196       -33.7202
  29   2.0000      -1.159437       -31.5499
  30   2.0000      -1.120920       -30.5018
  31   2.0000      -1.044067       -28.4105
  32   2.0000      -1.038268       -28.2527
  33   2.0000      -1.017257       -27.6810
  34   2.0000      -0.996292       -27.1105
  35   2.0000      -0.984929       -26.8013
  36   2.0000      -0.923535       -25.1307
  37   2.0000      -0.885253       -24.0890
  38   2.0000      -0.847495       -23.0615
  39   2.0000      -0.838971       -22.8296
  40   2.0000      -0.835788       -22.7429
  41   2.0000      -0.820339       -22.3226
  42   2.0000      -0.763782       -20.7836
  43   2.0000      -0.734055       -19.9746
  44   2.0000      -0.723066       -19.6756
  45   2.0000      -0.697462       -18.9789
  46   2.0000      -0.687704       -18.7134
  47   2.0000      -0.678637       -18.4667
  48   2.0000      -0.675514       -18.3817
  49   2.0000      -0.659228       -17.9385
  50   2.0000      -0.647019       -17.6063
  51   2.0000      -0.644533       -17.5386
  52   2.0000      -0.636151       -17.3105
  53   2.0000      -0.609211       -16.5775
  54   2.0000      -0.606972       -16.5165
  55   2.0000      -0.601424       -16.3656
  56   2.0000      -0.599129       -16.3031
  57   2.0000      -0.579173       -15.7601
  58   2.0000      -0.571406       -15.5487
  59   2.0000      -0.565651       -15.3921
  60   2.0000      -0.559074       -15.2132
  61   2.0000      -0.541047       -14.7226
  62   2.0000      -0.539817       -14.6892
  63   2.0000      -0.526757       -14.3338
  64   2.0000      -0.521786       -14.1985
  65   2.0000      -0.514226       -13.9928
  66   2.0000      -0.504282       -13.7222
  67   2.0000      -0.499388       -13.5890
  68   2.0000      -0.486714       -13.2442
  69   2.0000      -0.465960       -12.6794
  70   2.0000      -0.457890       -12.4598
  71   2.0000      -0.445600       -12.1254
  72   2.0000      -0.354643        -9.6503
  73   2.0000      -0.351340        -9.5605
  74   2.0000      -0.328909        -8.9501
  75   2.0000      -0.323368        -8.7993
  76   2.0000      -0.316741        -8.6190
  77   0.0000       0.073823         2.0088
  78   0.0000       0.103871         2.8265
  79   0.0000       0.124467         3.3869
  80   0.0000       0.131064         3.5664
  81   0.0000       0.136457         3.7132

MULLIKEN ATOMIC CHARGES
-----------------------
   0 C :   -0.266154
   1 C :    0.017590
   2 O :   -0.362725
   3 C :    0.467696
   4 O :   -0.422858
   5 C :   -0.244421
   6 C :    0.157825
   7 C :   -0.270886
   8 N :   -0.123021
   9 C :    0.212896
  10 S :   -0.439664
  11 N :   -0.206348
  12 C :    0.066466
  13 C :    0.047397
  14 C :   -0.189127
  15 C :   -0.128722
  16 C :   -0.279708
  17 C :    0.313834
  18 O :   -0.355760
  19 C :   -0.262203
  20 H :    0.089405
  21 H :    0.099390
  22 H :    0.091717
  23 H :    0.127386
  24 H :    0.103049
  25 H :    0.132811
  26 H :    0.130066
  27 H :    0.095275
  28 H :    0.197603
  29 H :    0.195067
  30 H :    0.149394
  31 H :    0.155175
  32 H :    0.162465
  33 H :    0.131678
  34 H :    0.241033
  35 H :    0.166381
Sum of atomic charges:   -0.0000000

LOEWDIN ATOMIC CHARGES
----------------------
   0 C :    0.107669
   1 C :   -0.017138
   2 O :    0.303732
   3 C :   -0.415114
   4 O :    0.103073
   5 C :   -0.096402
   6 C :   -0.059117
   7 C :    0.131647
   8 N :    0.406692
   9 C :   -0.455998
  10 S :   -0.035105
  11 N :    0.396198
  12 C :   -0.052198
  13 C :   -0.038065
  14 C :    0.014587
  15 C :    0.039360
  16 C :   -0.002341
  17 C :   -0.189851
  18 O :    0.395871
  19 C :    0.031126
  20 H :   -0.031888
  21 H :   -0.026128
  22 H :   -0.024890
  23 H :   -0.027609
  24 H :   -0.029962
  25 H :   -0.004444
  26 H :   -0.003989
  27 H :   -0.023267
  28 H :   -0.057456
  29 H :   -0.064705
  30 H :   -0.010200
  31 H :   -0.030731
  32 H :   -0.021065
  33 H :   -0.035227
  34 H :   -0.153541
  35 H :   -0.023524

  Mayer bond orders larger than 0.100000
B(  0-C ,  1-C ) :   0.9739 B(  0-C , 20-H ) :   0.9781 B(  0-C , 21-H ) :   0.9776
B(  0-C , 22-H ) :   0.9774 B(  1-C ,  2-O ) :   0.8803 B(  1-C , 23-H ) :   0.9798
B(  1-C , 24-H ) :   0.9692 B(  2-O ,  3-C ) :   1.1482 B(  3-C ,  4-O ) :   1.9961
B(  3-C ,  5-C ) :   1.0570 B(  5-C ,  6-C ) :   1.6524 B(  5-C , 12-C ) :   0.9728
B(  6-C ,  7-C ) :   0.9664 B(  6-C ,  8-N ) :   1.1618 B(  7-C , 25-H ) :   0.9591
B(  7-C , 26-H ) :   0.9614 B(  7-C , 27-H ) :   0.9905 B(  8-N ,  9-C ) :   1.1834
B(  8-N , 28-H ) :   0.9478 B(  9-C , 10-S ) :   1.6069 B(  9-C , 11-N ) :   1.3060
B( 11-N , 12-C ) :   0.9826 B( 11-N , 29-H ) :   0.9517 B( 12-C , 13-C ) :   0.9355
B( 12-C , 30-H ) :   1.0021 B( 13-C , 14-C ) :   1.3597 B( 13-C , 19-C ) :   1.3819
B( 14-C , 15-C ) :   1.3864 B( 14-C , 31-H ) :   0.9707 B( 15-C , 16-C ) :   1.3646
B( 15-C , 32-H ) :   0.9698 B( 16-C , 17-C ) :   1.3305 B( 16-C , 33-H ) :   0.9844
B( 17-C , 18-O ) :   1.1119 B( 17-C , 19-C ) :   1.3718 B( 18-O , 34-H ) :   0.9795
B( 19-C , 35-H ) :   0.9579

MP2 TOTAL ENERGY:    -1274.344947279 Eh
FINAL SINGLE POINT ENERGY     -1274.344947279327

DIPOLE MOMENT
-------------
                                X             Y             Z
Electronic contribution:      8.71922      11.36489       7.26238
Nuclear contribution   :     -9.82045     -12.93734      -7.50735
                        -----------------------------------------
Total Dipole Moment    :     -1.10123      -1.57244      -0.24497
                        -----------------------------------------
Magnitude (a.u.)       :      1.93528
Magnitude (Debye)      :      4.91908

Rotational constants in cm-1:     0.012371     0.008427     0.006293
Rotational constants in MHz :   370.868680   252.635413   188.660367

                             ****ORCA TERMINATED NORMALLY****
TOTAL RUN TIME: 0 days 1 hours 40 minutes 47 seconds 665 msec
