                         Program Version 4.2.0 -  RELEASE  -
|  1> ! ri-mp2 cc-pvtz cc-pvtz/c TightSCF  NoKeepInts
|  2>
|  3> %scf
|  4>   MaxCore 4096
|  5> end
|  6> *xyz  0  1
|  7>     C       15.5396721   13.6487535   15.8332331
|  8>     C       15.1910155   15.1478055   15.7153774
|  9>     O       16.2999903   16.0660286   15.9014113
| 10>     C       17.4201679   15.8457706   16.6597205
| 11>     O       17.9627501   14.7604471   16.7762573
| 12>     C       17.7860721   17.0039862   17.5449251
| 13>     C       17.3987475   18.2920881   17.3483467
| 14>     C       16.5609664   18.8550566   16.2182226
| 15>     N       17.8472664   19.2924610   18.2173447
| 16>     C       18.7856605   19.1164021   19.1994702
| 17>     S       19.3510144   20.3820427   20.1017813
| 18>     N       19.2312825   17.8342579   19.3954028
| 19>     C       18.6669855   16.6368439   18.7450743
| 20>     C       17.8896866   15.7960537   19.7548958
| 21>     C       18.1935848   14.4335085   19.9315173
| 22>     C       17.4771569   13.6529992   20.8542053
| 23>     C       16.4464189   14.2390516   21.6083206
| 24>     C       16.1376170   15.5947400   21.4327965
| 25>     O       15.1381046   16.1619148   22.1543540
| 26>     C       16.8519999   16.3688531   20.5130630
| 27>     H       16.3664517   13.3839947   15.1619877
| 28>     H       14.6734143   13.0349076   15.5591432
| 29>     H       15.8193120   13.3853618   16.8612462
| 30>     H       14.7422625   15.3348765   14.7313784
| 31>     H       14.4233830   15.3722585   16.4673225
| 32>     H       15.5134811   18.5461406   16.3212996
| 33>     H       16.9258728   18.4978886   15.2470272
| 34>     H       16.5805073   19.9510934   16.1827100
| 35>     H       17.5329909   20.2410016   18.0892114
| 36>     H       19.9005224   17.7254525   20.1465204
| 37>     H       19.5085776   16.0354946   18.3716470
| 38>     H       18.9783930   13.9735620   19.3357194
| 39>     H       17.7186959   12.5986949   20.9764209
| 40>     H       15.8894549   13.6394870   22.3205186
| 41>     H       14.7990252   15.4859546   22.7600992
| 42>     H       16.5984955   17.4167665   20.3960286
| 43> *
| 44>
| 45>                          ****END OF INPUT****

CARTESIAN COORDINATES (ANGSTROEM)
---------------------------------
  C     15.539672   13.648753   15.833233
  C     15.191015   15.147806   15.715377
  O     16.299990   16.066029   15.901411
  C     17.420168   15.845771   16.659720
  O     17.962750   14.760447   16.776257
  C     17.786072   17.003986   17.544925
  C     17.398747   18.292088   17.348347
  C     16.560966   18.855057   16.218223
  N     17.847266   19.292461   18.217345
  C     18.785660   19.116402   19.199470
  S     19.351014   20.382043   20.101781
  N     19.231282   17.834258   19.395403
  C     18.666985   16.636844   18.745074
  C     17.889687   15.796054   19.754896
  C     18.193585   14.433509   19.931517
  C     17.477157   13.652999   20.854205
  C     16.446419   14.239052   21.608321
  C     16.137617   15.594740   21.432796
  O     15.138105   16.161915   22.154354
  C     16.852000   16.368853   20.513063
  H     16.366452   13.383995   15.161988
  H     14.673414   13.034908   15.559143
  H     15.819312   13.385362   16.861246
  H     14.742262   15.334877   14.731378
  H     14.423383   15.372258   16.467323
  H     15.513481   18.546141   16.321300
  H     16.925873   18.497889   15.247027
  H     16.580507   19.951093   16.182710
  H     17.532991   20.241002   18.089211
  H     19.900522   17.725452   20.146520
  H     19.508578   16.035495   18.371647
  H     18.978393   13.973562   19.335719
  H     17.718696   12.598695   20.976421
  H     15.889455   13.639487   22.320519
  H     14.799025   15.485955   22.760099
  H     16.598495   17.416766   20.396029

 Total Charge           Charge          ....    0
 Multiplicity           Mult            ....    1
 Number of Electrons    NEL             ....  154
 Basis Dimension        Dim             ....  828

ORBITAL ENERGIES
----------------

  NO   OCC          E(Eh)            E(eV)
   0   2.0000     -91.887646     -2500.3900
   1   2.0000     -20.594804      -560.4131
   2   2.0000     -20.592772      -560.3578
   3   2.0000     -20.547062      -559.1140
   4   2.0000     -15.627546      -425.2471
   5   2.0000     -15.606442      -424.6729
   6   2.0000     -11.398299      -310.1635
   7   2.0000     -11.382532      -309.7344
   8   2.0000     -11.334740      -308.4340
   9   2.0000     -11.308691      -307.7251
  10   2.0000     -11.307052      -307.6805
  11   2.0000     -11.305333      -307.6338
  12   2.0000     -11.259240      -306.3795
  13   2.0000     -11.258217      -306.3517
  14   2.0000     -11.254399      -306.2478
  15   2.0000     -11.248920      -306.0987
  16   2.0000     -11.238492      -305.8149
  17   2.0000     -11.234464      -305.7053
  18   2.0000     -11.231494      -305.6245
  19   2.0000     -11.223696      -305.4123
  20   2.0000      -8.892718      -241.9831
  21   2.0000      -6.574298      -178.8957
  22   2.0000      -6.572289      -178.8411
  23   2.0000      -6.571705      -178.8252
  24   2.0000      -1.444982       -39.3200
  25   2.0000      -1.412517       -38.4365
  26   2.0000      -1.356805       -36.9205
  27   2.0000      -1.338701       -36.4279
  28   2.0000      -1.236521       -33.6474
  29   2.0000      -1.152878       -31.3714
  30   2.0000      -1.118698       -30.4413
  31   2.0000      -1.042058       -28.3559
  32   2.0000      -1.033954       -28.1353
  33   2.0000      -1.010449       -27.4957
  34   2.0000      -0.997144       -27.1337
  35   2.0000      -0.982354       -26.7312
  36   2.0000      -0.921526       -25.0760
  37   2.0000      -0.894929       -24.3523
  38   2.0000      -0.847867       -23.0716
  39   2.0000      -0.836360       -22.7585
  40   2.0000      -0.828981       -22.5577
  41   2.0000      -0.819236       -22.2926
  42   2.0000      -0.743267       -20.2253
  43   2.0000      -0.726168       -19.7600
  44   2.0000      -0.724803       -19.7229
  45   2.0000      -0.691014       -18.8034
  46   2.0000      -0.683941       -18.6110
  47   2.0000      -0.678198       -18.4547
  48   2.0000      -0.673191       -18.3185
  49   2.0000      -0.665654       -18.1134
  50   2.0000      -0.646376       -17.5888
  51   2.0000      -0.643845       -17.5199
  52   2.0000      -0.634693       -17.2709
  53   2.0000      -0.606283       -16.4978
  54   2.0000      -0.601105       -16.3569
  55   2.0000      -0.600088       -16.3292
  56   2.0000      -0.596280       -16.2256
  57   2.0000      -0.576674       -15.6921
  58   2.0000      -0.573578       -15.6079
  59   2.0000      -0.570913       -15.5353
  60   2.0000      -0.558583       -15.1998
  61   2.0000      -0.544317       -14.8116
  62   2.0000      -0.537019       -14.6130
  63   2.0000      -0.525483       -14.2991
  64   2.0000      -0.517610       -14.0849
  65   2.0000      -0.510570       -13.8933
  66   2.0000      -0.498747       -13.5716
  67   2.0000      -0.494624       -13.4594
  68   2.0000      -0.479355       -13.0439
  69   2.0000      -0.462201       -12.5771
  70   2.0000      -0.454656       -12.3718
  71   2.0000      -0.446484       -12.1494
  72   2.0000      -0.353286        -9.6134
  73   2.0000      -0.344859        -9.3841
  74   2.0000      -0.326878        -8.8948
  75   2.0000      -0.316045        -8.6000
  76   2.0000      -0.314290        -8.5523
  77   0.0000       0.075434         2.0527
  78   0.0000       0.110357         3.0030
  79   0.0000       0.121370         3.3026
  80   0.0000       0.135062         3.6752
  81   0.0000       0.138905         3.7798

MULLIKEN ATOMIC CHARGES
-----------------------
   0 C :   -0.284857
   1 C :    0.048176
   2 O :   -0.372335
   3 C :    0.443831
   4 O :   -0.415457
   5 C :   -0.164345
   6 C :    0.145209
   7 C :   -0.285093
   8 N :   -0.123114
   9 C :    0.201192
  10 S :   -0.440481
  11 N :   -0.199232
  12 C :    0.041630
  13 C :    0.053617
  14 C :   -0.167467
  15 C :   -0.134461
  16 C :   -0.279732
  17 C :    0.311660
  18 O :   -0.358842
  19 C :   -0.274055
  20 H :    0.110751
  21 H :    0.095430
  22 H :    0.112251
  23 H :    0.097643
  24 H :    0.086353
  25 H :    0.123874
  26 H :    0.127939
  27 H :    0.103187
  28 H :    0.196707
  29 H :    0.193967
  30 H :    0.155076
  31 H :    0.156160
  32 H :    0.160159
  33 H :    0.128736
  34 H :    0.240194
  35 H :    0.165726
Sum of atomic charges:   -0.0000000

LOEWDIN ATOMIC CHARGES
----------------------
   0 C :    0.103726
   1 C :   -0.010653
   2 O :    0.288534
   3 C :   -0.411853
   4 O :    0.120211
   5 C :   -0.091908
   6 C :   -0.067442
   7 C :    0.124596
   8 N :    0.404477
   9 C :   -0.458966
  10 S :   -0.036948
  11 N :    0.397703
  12 C :   -0.046450
  13 C :   -0.039384
  14 C :    0.021188
  15 C :    0.040044
  16 C :   -0.002628
  17 C :   -0.192955
  18 O :    0.393054
  19 C :    0.028204
  20 H :   -0.023599
  21 H :   -0.028034
  22 H :   -0.024987
  23 H :   -0.025271
  24 H :   -0.031134
  25 H :   -0.010399
  26 H :   -0.007814
  27 H :   -0.020996
  28 H :   -0.059246
  29 H :   -0.063823
  30 H :   -0.005320
  31 H :   -0.025028
  32 H :   -0.021092
  33 H :   -0.036301
  34 H :   -0.154766
  35 H :   -0.024738

  Mayer bond orders larger than 0.100000
B(  0-C ,  1-C ) :   0.9829 B(  0-C , 20-H ) :   0.9733 B(  0-C , 21-H ) :   0.9723
B(  0-C , 22-H ) :   0.9723 B(  1-C ,  2-O ) :   0.9031 B(  1-C , 23-H ) :   0.9793
B(  1-C , 24-H ) :   0.9751 B(  2-O ,  3-C ) :   1.1061 B(  3-C ,  4-O ) :   2.0029
B(  3-C ,  5-C ) :   1.0421 B(  5-C ,  6-C ) :   1.6605 B(  5-C , 12-C ) :   0.9633
B(  6-C ,  7-C ) :   0.9527 B(  6-C ,  8-N ) :   1.1420 B(  7-C , 25-H ) :   0.9648
B(  7-C , 26-H ) :   0.9664 B(  7-C , 27-H ) :   0.9913 B(  8-N ,  9-C ) :   1.1816
B(  8-N , 28-H ) :   0.9489 B(  9-C , 10-S ) :   1.6095 B(  9-C , 11-N ) :   1.3035
B( 11-N , 12-C ) :   0.9899 B( 11-N , 29-H ) :   0.9519 B( 12-C , 13-C ) :   0.9458
B( 12-C , 30-H ) :   0.9996 B( 13-C , 14-C ) :   1.3753 B( 13-C , 19-C ) :   1.3691
B( 14-C , 15-C ) :   1.3939 B( 14-C , 31-H ) :   0.9641 B( 15-C , 16-C ) :   1.3624
B( 15-C , 32-H ) :   0.9710 B( 16-C , 17-C ) :   1.3314 B( 16-C , 33-H ) :   0.9858
B( 17-C , 18-O ) :   1.1083 B( 17-C , 19-C ) :   1.3775 B( 18-O , 34-H ) :   0.9804
B( 19-C , 35-H ) :   0.9583

MP2 TOTAL ENERGY:    -1274.332520109 Eh
FINAL SINGLE POINT ENERGY     -1274.332520108624

DIPOLE MOMENT
-------------
                                X             Y             Z
Electronic contribution:     10.00800      10.59130       9.40053
Nuclear contribution   :    -11.64661     -11.81166     -10.31135
                        -----------------------------------------
Total Dipole Moment    :     -1.63861      -1.22036      -0.91082
                        -----------------------------------------
Magnitude (a.u.)       :      2.23694
Magnitude (Debye)      :      5.68585

Rotational constants in cm-1:     0.011059     0.009043     0.006073
Rotational constants in MHz :   331.550536   271.103748   182.069637

                             ****ORCA TERMINATED NORMALLY****
TOTAL RUN TIME: 0 days 2 hours 35 minutes 9 seconds 665 msec
