                         Program Version 4.2.0 -  RELEASE  -
|  1> ! ri-mp2 cc-pvtz cc-pvtz/c TightSCF  NoKeepInts
|  2>
|  3> %scf
|  4>   MaxCore 4096
|  5> end
|  6> *xyz  0  1
|  7>     C       15.6373482   13.4159431   15.6840417
|  8>     C       15.6309167   14.4934940   16.7807997
|  9>     O       16.7800847   15.3328951   16.5660112
| 10>     C       16.6075231   16.6862482   16.5161859
| 11>     O       15.6596439   17.1859268   15.9350377
| 12>     C       17.4767122   17.4202684   17.5009928
| 13>     C       17.4257684   18.7687046   17.6500065
| 14>     C       16.5344500   19.7407807   16.9067671
| 15>     N       18.2884151   19.4087160   18.5448673
| 16>     C       19.3006594   18.7944659   19.2324384
| 17>     S       20.3452782   19.6420186   20.1948576
| 18>     N       19.4093854   17.4362633   19.0770982
| 19>     C       18.4495286   16.5849533   18.3513440
| 20>     C       17.7244485   15.6785936   19.3421068
| 21>     C       18.0351278   14.3072462   19.4083803
| 22>     C       17.3660926   13.4654555   20.3127232
| 23>     C       16.3813724   13.9996589   21.1611295
| 24>     C       16.0753871   15.3662699   21.1036624
| 25>     O       15.1266999   15.8854348   21.9228480
| 26>     C       16.7417651   16.2012766   20.2015870
| 27>     H       14.7855843   12.7362281   15.8072164
| 28>     H       16.5601397   12.8244375   15.7273759
| 29>     H       15.5670112   13.8781960   14.6912804
| 30>     H       14.6933634   15.0635669   16.7242150
| 31>     H       15.6863089   14.0253677   17.7720836
| 32>     H       15.4781870   19.5396961   17.1271623
| 33>     H       16.6674005   19.6361550   15.8224307
| 34>     H       16.7335262   20.7879365   17.1630518
| 35>     H       18.2253583   20.4066317   18.6686349
| 36>     H       20.1437932   17.0072597   19.6252230
| 37>     H       19.0275994   15.9516311   17.6635685
| 38>     H       18.7932665   13.8908968   18.7502469
| 39>     H       17.6123783   12.4057614   20.3552851
| 40>     H       15.8629307   13.3539575   21.8624408
| 41>     H       14.8181963   15.1723256   22.5019486
| 42>     H       16.4953485   17.2573389   20.1789509
| 43> *
| 44>
| 45>                          ****END OF INPUT****

CARTESIAN COORDINATES (ANGSTROEM)
---------------------------------
  C     15.637348   13.415943   15.684042
  C     15.630917   14.493494   16.780800
  O     16.780085   15.332895   16.566011
  C     16.607523   16.686248   16.516186
  O     15.659644   17.185927   15.935038
  C     17.476712   17.420268   17.500993
  C     17.425768   18.768705   17.650006
  C     16.534450   19.740781   16.906767
  N     18.288415   19.408716   18.544867
  C     19.300659   18.794466   19.232438
  S     20.345278   19.642019   20.194858
  N     19.409385   17.436263   19.077098
  C     18.449529   16.584953   18.351344
  C     17.724449   15.678594   19.342107
  C     18.035128   14.307246   19.408380
  C     17.366093   13.465455   20.312723
  C     16.381372   13.999659   21.161130
  C     16.075387   15.366270   21.103662
  O     15.126700   15.885435   21.922848
  C     16.741765   16.201277   20.201587
  H     14.785584   12.736228   15.807216
  H     16.560140   12.824437   15.727376
  H     15.567011   13.878196   14.691280
  H     14.693363   15.063567   16.724215
  H     15.686309   14.025368   17.772084
  H     15.478187   19.539696   17.127162
  H     16.667400   19.636155   15.822431
  H     16.733526   20.787937   17.163052
  H     18.225358   20.406632   18.668635
  H     20.143793   17.007260   19.625223
  H     19.027599   15.951631   17.663569
  H     18.793267   13.890897   18.750247
  H     17.612378   12.405761   20.355285
  H     15.862931   13.353957   21.862441
  H     14.818196   15.172326   22.501949
  H     16.495348   17.257339   20.178951

 Total Charge           Charge          ....    0
 Multiplicity           Mult            ....    1
 Number of Electrons    NEL             ....  154
 Basis Dimension        Dim             ....  828

ORBITAL ENERGIES
----------------

  NO   OCC          E(Eh)            E(eV)
   0   2.0000     -91.889670     -2500.4450
   1   2.0000     -20.599563      -560.5426
   2   2.0000     -20.591150      -560.3137
   3   2.0000     -20.544352      -559.0402
   4   2.0000     -15.629946      -425.3125
   5   2.0000     -15.609144      -424.7464
   6   2.0000     -11.394099      -310.0492
   7   2.0000     -11.384765      -309.7952
   8   2.0000     -11.336549      -308.4832
   9   2.0000     -11.317283      -307.9589
  10   2.0000     -11.310469      -307.7735
  11   2.0000     -11.292786      -307.2923
  12   2.0000     -11.262509      -306.4685
  13   2.0000     -11.259113      -306.3760
  14   2.0000     -11.258588      -306.3618
  15   2.0000     -11.252820      -306.2048
  16   2.0000     -11.246143      -306.0231
  17   2.0000     -11.241210      -305.8889
  18   2.0000     -11.240877      -305.8798
  19   2.0000     -11.224103      -305.4234
  20   2.0000      -8.894727      -242.0378
  21   2.0000      -6.576300      -178.9502
  22   2.0000      -6.574297      -178.8957
  23   2.0000      -6.573708      -178.8797
  24   2.0000      -1.449505       -39.4430
  25   2.0000      -1.419208       -38.6186
  26   2.0000      -1.353440       -36.8290
  27   2.0000      -1.340981       -36.4900
  28   2.0000      -1.239611       -33.7315
  29   2.0000      -1.160343       -31.5745
  30   2.0000      -1.121124       -30.5073
  31   2.0000      -1.044654       -28.4265
  32   2.0000      -1.035640       -28.1812
  33   2.0000      -1.018272       -27.7086
  34   2.0000      -0.996498       -27.1161
  35   2.0000      -0.984890       -26.8002
  36   2.0000      -0.924096       -25.1459
  37   2.0000      -0.883840       -24.0505
  38   2.0000      -0.848184       -23.0803
  39   2.0000      -0.840153       -22.8617
  40   2.0000      -0.836691       -22.7675
  41   2.0000      -0.822578       -22.3835
  42   2.0000      -0.761629       -20.7250
  43   2.0000      -0.734674       -19.9915
  44   2.0000      -0.724192       -19.7063
  45   2.0000      -0.698406       -19.0046
  46   2.0000      -0.689258       -18.7557
  47   2.0000      -0.678911       -18.4741
  48   2.0000      -0.672529       -18.3004
  49   2.0000      -0.654759       -17.8169
  50   2.0000      -0.647632       -17.6230
  51   2.0000      -0.643015       -17.4973
  52   2.0000      -0.626415       -17.0456
  53   2.0000      -0.619839       -16.8667
  54   2.0000      -0.610110       -16.6019
  55   2.0000      -0.602143       -16.3851
  56   2.0000      -0.600202       -16.3323
  57   2.0000      -0.580267       -15.7899
  58   2.0000      -0.571991       -15.5647
  59   2.0000      -0.565973       -15.4009
  60   2.0000      -0.563906       -15.3447
  61   2.0000      -0.539595       -14.6831
  62   2.0000      -0.533527       -14.5180
  63   2.0000      -0.527785       -14.3618
  64   2.0000      -0.520186       -14.1550
  65   2.0000      -0.514787       -14.0081
  66   2.0000      -0.503076       -13.6894
  67   2.0000      -0.495778       -13.4908
  68   2.0000      -0.488599       -13.2954
  69   2.0000      -0.464316       -12.6347
  70   2.0000      -0.454699       -12.3730
  71   2.0000      -0.447382       -12.1739
  72   2.0000      -0.355039        -9.6611
  73   2.0000      -0.352419        -9.5898
  74   2.0000      -0.329398        -8.9634
  75   2.0000      -0.324640        -8.8339
  76   2.0000      -0.317141        -8.6298
  77   0.0000       0.072644         1.9768
  78   0.0000       0.103455         2.8151
  79   0.0000       0.123775         3.3681
  80   0.0000       0.130353         3.5471
  81   0.0000       0.134478         3.6593

MULLIKEN ATOMIC CHARGES
-----------------------
   0 C :   -0.262074
   1 C :    0.023336
   2 O :   -0.376023
   3 C :    0.478831
   4 O :   -0.419932
   5 C :   -0.260479
   6 C :    0.162063
   7 C :   -0.269601
   8 N :   -0.123786
   9 C :    0.213865
  10 S :   -0.439651
  11 N :   -0.207192
  12 C :    0.071596
  13 C :    0.046871
  14 C :   -0.192024
  15 C :   -0.132216
  16 C :   -0.278025
  17 C :    0.311425
  18 O :   -0.355463
  19 C :   -0.253878
  20 H :    0.087269
  21 H :    0.090036
  22 H :    0.102779
  23 H :    0.109758
  24 H :    0.116984
  25 H :    0.131957
  26 H :    0.130873
  27 H :    0.095307
  28 H :    0.197740
  29 H :    0.195212
  30 H :    0.149365
  31 H :    0.151606
  32 H :    0.162707
  33 H :    0.132341
  34 H :    0.241279
  35 H :    0.167144
Sum of atomic charges:   -0.0000000

LOEWDIN ATOMIC CHARGES
----------------------
   0 C :    0.105750
   1 C :   -0.014748
   2 O :    0.301685
   3 C :   -0.416981
   4 O :    0.104819
   5 C :   -0.097270
   6 C :   -0.058772
   7 C :    0.131595
   8 N :    0.406848
   9 C :   -0.455856
  10 S :   -0.034927
  11 N :    0.396160
  12 C :   -0.052393
  13 C :   -0.037343
  14 C :    0.013239
  15 C :    0.039110
  16 C :   -0.002809
  17 C :   -0.189414
  18 O :    0.396151
  19 C :    0.031132
  20 H :   -0.027571
  21 H :   -0.029767
  22 H :   -0.024012
  23 H :   -0.028609
  24 H :   -0.030101
  25 H :   -0.004701
  26 H :   -0.003802
  27 H :   -0.023236
  28 H :   -0.057417
  29 H :   -0.064826
  30 H :   -0.009761
  31 H :   -0.029692
  32 H :   -0.020560
  33 H :   -0.035048
  34 H :   -0.153208
  35 H :   -0.023665

  Mayer bond orders larger than 0.100000
B(  0-C ,  1-C ) :   0.9822 B(  0-C , 20-H ) :   0.9767 B(  0-C , 21-H ) :   0.9794
B(  0-C , 22-H ) :   0.9788 B(  1-C ,  2-O ) :   0.8701 B(  1-C , 23-H ) :   0.9728
B(  1-C , 24-H ) :   0.9689 B(  2-O ,  3-C ) :   1.1278 B(  3-C ,  4-O ) :   1.9962
B(  3-C ,  5-C ) :   1.0681 B(  5-C ,  6-C ) :   1.6492 B(  5-C , 12-C ) :   0.9703
B(  6-C ,  7-C ) :   0.9664 B(  6-C ,  8-N ) :   1.1610 B(  7-C , 25-H ) :   0.9595
B(  7-C , 26-H ) :   0.9608 B(  7-C , 27-H ) :   0.9904 B(  8-N ,  9-C ) :   1.1832
B(  8-N , 28-H ) :   0.9477 B(  9-C , 10-S ) :   1.6062 B(  9-C , 11-N ) :   1.3067
B( 11-N , 12-C ) :   0.9785 B( 11-N , 29-H ) :   0.9518 B( 12-C , 13-C ) :   0.9375
B( 12-C , 30-H ) :   1.0019 B( 13-C , 14-C ) :   1.3529 B( 13-C , 19-C ) :   1.3810
B( 14-C , 15-C ) :   1.3921 B( 14-C , 31-H ) :   0.9734 B( 15-C , 16-C ) :   1.3599
B( 15-C , 32-H ) :   0.9707 B( 16-C , 17-C ) :   1.3304 B( 16-C , 33-H ) :   0.9845
B( 17-C , 18-O ) :   1.1129 B( 17-C , 19-C ) :   1.3719 B( 18-O , 34-H ) :   0.9793
B( 19-C , 35-H ) :   0.9575

MP2 TOTAL ENERGY:    -1274.340170636 Eh
FINAL SINGLE POINT ENERGY     -1274.340170635514

DIPOLE MOMENT
-------------
                                X             Y             Z
Electronic contribution:      9.58055      10.75046       7.95701
Nuclear contribution   :    -10.63752     -12.30037      -8.05776
                        -----------------------------------------
Total Dipole Moment    :     -1.05698      -1.54990      -0.10075
                        -----------------------------------------
Magnitude (a.u.)       :      1.87871
Magnitude (Debye)      :      4.77530

Rotational constants in cm-1:     0.012189     0.008504     0.006221
Rotational constants in MHz :   365.406373   254.946285   186.490614

                             ****ORCA TERMINATED NORMALLY****
TOTAL RUN TIME: 0 days 1 hours 41 minutes 1 seconds 620 msec
