                         Program Version 4.2.0 -  RELEASE  -
|  1> ! ri-mp2 cc-pvtz cc-pvtz/c TightSCF  NoKeepInts
|  2>
|  3> %scf
|  4>   MaxCore 4096
|  5> end
|  6> *xyz  0  1
|  7>     C       14.9014050   16.2185383   17.3231794
|  8>     C       15.6009162   14.8989867   16.9373763
|  9>     O       16.8271199   15.0110737   16.1668413
| 10>     C       17.9780267   15.7133631   16.4426172
| 11>     O       19.0559348   15.2088900   16.1887937
| 12>     C       17.9043350   16.8764802   17.3660640
| 13>     C       17.4250558   18.0732875   16.9598368
| 14>     C       16.8978117   18.4150571   15.5829274
| 15>     N       17.4643296   19.1677018   17.8259609
| 16>     C       18.0263320   19.1516934   19.0764933
| 17>     S       18.0387238   20.4952832   20.0401733
| 18>     N       18.5763941   17.9636796   19.4938077
| 19>     C       18.5659435   16.6979160   18.7324054
| 20>     C       17.9213815   15.5593024   19.5196505
| 21>     C       18.4244744   14.2510249   19.3938255
| 22>     C       17.8302362   13.1835368   20.0868089
| 23>     C       16.7211719   13.4238540   20.9150888
| 24>     C       16.2155333   14.7241435   21.0439287
| 25>     O       15.1376118   14.9584303   21.8333619
| 26>     C       16.8085272   15.7850825   20.3521352
| 27>     H       15.4182052   16.7496630   18.1271880
| 28>     H       13.8945482   15.9973758   17.6981703
| 29>     H       14.7844868   16.8741585   16.4541851
| 30>     H       15.8101775   14.3363234   17.8569676
| 31>     H       14.8933563   14.2956778   16.3540838
| 32>     H       16.6701995   17.5215969   14.9888667
| 33>     H       17.6406968   18.9959423   15.0216287
| 34>     H       15.9777042   19.0092554   15.6426119
| 35>     H       17.0884703   20.0549067   17.5300247
| 36>     H       18.9706517   17.9801243   20.4260504
| 37>     H       19.6140715   16.4183297   18.5484698
| 38>     H       19.2744249   14.0586035   18.7416688
| 39>     H       18.2284614   12.1760771   19.9763361
| 40>     H       16.2582671   12.6015264   21.4508748
| 41>     H       14.9092552   14.1240878   22.2708073
| 42>     H       16.3927588   16.7810262   20.4647897
| 43> *
| 44>
| 45>                          ****END OF INPUT****

CARTESIAN COORDINATES (ANGSTROEM)
---------------------------------
  C     14.901405   16.218538   17.323179
  C     15.600916   14.898987   16.937376
  O     16.827120   15.011074   16.166841
  C     17.978027   15.713363   16.442617
  O     19.055935   15.208890   16.188794
  C     17.904335   16.876480   17.366064
  C     17.425056   18.073287   16.959837
  C     16.897812   18.415057   15.582927
  N     17.464330   19.167702   17.825961
  C     18.026332   19.151693   19.076493
  S     18.038724   20.495283   20.040173
  N     18.576394   17.963680   19.493808
  C     18.565943   16.697916   18.732405
  C     17.921381   15.559302   19.519651
  C     18.424474   14.251025   19.393825
  C     17.830236   13.183537   20.086809
  C     16.721172   13.423854   20.915089
  C     16.215533   14.724143   21.043929
  O     15.137612   14.958430   21.833362
  C     16.808527   15.785082   20.352135
  H     15.418205   16.749663   18.127188
  H     13.894548   15.997376   17.698170
  H     14.784487   16.874159   16.454185
  H     15.810177   14.336323   17.856968
  H     14.893356   14.295678   16.354084
  H     16.670199   17.521597   14.988867
  H     17.640697   18.995942   15.021629
  H     15.977704   19.009255   15.642612
  H     17.088470   20.054907   17.530025
  H     18.970652   17.980124   20.426050
  H     19.614071   16.418330   18.548470
  H     19.274425   14.058604   18.741669
  H     18.228461   12.176077   19.976336
  H     16.258267   12.601526   21.450875
  H     14.909255   14.124088   22.270807
  H     16.392759   16.781026   20.464790

 Total Charge           Charge          ....    0
 Multiplicity           Mult            ....    1
 Number of Electrons    NEL             ....  154
 Basis Dimension        Dim             ....  828

ORBITAL ENERGIES
----------------

  NO   OCC          E(Eh)            E(eV)
   0   2.0000     -91.890160     -2500.4584
   1   2.0000     -20.602677      -560.6273
   2   2.0000     -20.593282      -560.3717
   3   2.0000     -20.550928      -559.2192
   4   2.0000     -15.626083      -425.2073
   5   2.0000     -15.612622      -424.8411
   6   2.0000     -11.398293      -310.1633
   7   2.0000     -11.387223      -309.8621
   8   2.0000     -11.325505      -308.1827
   9   2.0000     -11.320164      -308.0373
  10   2.0000     -11.316936      -307.9495
  11   2.0000     -11.306703      -307.6710
  12   2.0000     -11.267749      -306.6110
  13   2.0000     -11.265447      -306.5484
  14   2.0000     -11.261004      -306.4275
  15   2.0000     -11.260281      -306.4078
  16   2.0000     -11.249430      -306.1125
  17   2.0000     -11.245372      -306.0021
  18   2.0000     -11.242244      -305.9170
  19   2.0000     -11.234021      -305.6933
  20   2.0000      -8.895275      -242.0527
  21   2.0000      -6.576864      -178.9656
  22   2.0000      -6.574837      -178.9104
  23   2.0000      -6.574262      -178.8948
  24   2.0000      -1.442111       -39.2418
  25   2.0000      -1.422502       -38.7082
  26   2.0000      -1.354504       -36.8579
  27   2.0000      -1.339521       -36.4502
  28   2.0000      -1.240093       -33.7446
  29   2.0000      -1.164226       -31.6802
  30   2.0000      -1.125906       -30.6375
  31   2.0000      -1.050505       -28.5857
  32   2.0000      -1.038215       -28.2513
  33   2.0000      -1.022089       -27.8124
  34   2.0000      -1.005303       -27.3557
  35   2.0000      -0.990793       -26.9608
  36   2.0000      -0.928896       -25.2766
  37   2.0000      -0.897374       -24.4188
  38   2.0000      -0.852734       -23.2041
  39   2.0000      -0.842711       -22.9313
  40   2.0000      -0.839468       -22.8431
  41   2.0000      -0.831298       -22.6208
  42   2.0000      -0.749811       -20.4034
  43   2.0000      -0.735823       -20.0228
  44   2.0000      -0.729093       -19.8396
  45   2.0000      -0.700391       -19.0586
  46   2.0000      -0.689153       -18.7528
  47   2.0000      -0.677895       -18.4465
  48   2.0000      -0.675629       -18.3848
  49   2.0000      -0.662372       -18.0241
  50   2.0000      -0.655977       -17.8500
  51   2.0000      -0.648276       -17.6405
  52   2.0000      -0.640042       -17.4164
  53   2.0000      -0.614898       -16.7322
  54   2.0000      -0.608558       -16.5597
  55   2.0000      -0.606786       -16.5115
  56   2.0000      -0.603182       -16.4134
  57   2.0000      -0.591551       -16.0969
  58   2.0000      -0.581944       -15.8355
  59   2.0000      -0.578587       -15.7442
  60   2.0000      -0.567660       -15.4468
  61   2.0000      -0.556897       -15.1539
  62   2.0000      -0.540220       -14.7001
  63   2.0000      -0.533119       -14.5069
  64   2.0000      -0.522219       -14.2103
  65   2.0000      -0.514598       -14.0029
  66   2.0000      -0.504315       -13.7231
  67   2.0000      -0.497862       -13.5475
  68   2.0000      -0.488843       -13.3021
  69   2.0000      -0.465253       -12.6602
  70   2.0000      -0.454755       -12.3745
  71   2.0000      -0.447894       -12.1878
  72   2.0000      -0.355980        -9.6867
  73   2.0000      -0.352867        -9.6020
  74   2.0000      -0.329975        -8.9791
  75   2.0000      -0.328028        -8.9261
  76   2.0000      -0.318626        -8.6703
  77   0.0000       0.089514         2.4358
  78   0.0000       0.102591         2.7916
  79   0.0000       0.118703         3.2301
  80   0.0000       0.124178         3.3790
  81   0.0000       0.127858         3.4792

MULLIKEN ATOMIC CHARGES
-----------------------
   0 C :   -0.343866
   1 C :    0.043483
   2 O :   -0.343549
   3 C :    0.395512
   4 O :   -0.376589
   5 C :   -0.181255
   6 C :    0.135742
   7 C :   -0.327905
   8 N :   -0.137626
   9 C :    0.211894
  10 S :   -0.441924
  11 N :   -0.230663
  12 C :    0.106321
  13 C :    0.000225
  14 C :   -0.208735
  15 C :   -0.131650
  16 C :   -0.278098
  17 C :    0.322075
  18 O :   -0.356306
  19 C :   -0.280937
  20 H :    0.115700
  21 H :    0.127104
  22 H :    0.103625
  23 H :    0.103023
  24 H :    0.125688
  25 H :    0.121258
  26 H :    0.150572
  27 H :    0.111610
  28 H :    0.196385
  29 H :    0.202950
  30 H :    0.165278
  31 H :    0.172571
  32 H :    0.165889
  33 H :    0.133858
  34 H :    0.242126
  35 H :    0.186217
Sum of atomic charges:    0.0000000

LOEWDIN ATOMIC CHARGES
----------------------
   0 C :    0.103181
   1 C :   -0.010742
   2 O :    0.286870
   3 C :   -0.416892
   4 O :    0.128007
   5 C :   -0.082839
   6 C :   -0.099847
   7 C :    0.124183
   8 N :    0.402804
   9 C :   -0.454769
  10 S :   -0.038211
  11 N :    0.397681
  12 C :   -0.044368
  13 C :   -0.043671
  14 C :    0.021224
  15 C :    0.044553
  16 C :   -0.001016
  17 C :   -0.194120
  18 O :    0.396194
  19 C :    0.026968
  20 H :   -0.035398
  21 H :   -0.020017
  22 H :   -0.030952
  23 H :   -0.027593
  24 H :   -0.019355
  25 H :   -0.010464
  26 H :   -0.007945
  27 H :   -0.017941
  28 H :   -0.057838
  29 H :   -0.064380
  30 H :   -0.003049
  31 H :   -0.021111
  32 H :   -0.017629
  33 H :   -0.034022
  34 H :   -0.152442
  35 H :   -0.025056

  Mayer bond orders larger than 0.100000
B(  0-C ,  1-C ) :   0.9577 B(  0-C , 20-H ) :   0.9685 B(  0-C , 21-H ) :   0.9777
B(  0-C , 22-H ) :   0.9768 B(  1-C ,  2-O ) :   0.9033 B(  1-C , 23-H ) :   0.9710
B(  1-C , 24-H ) :   0.9826 B(  2-O ,  3-C ) :   1.1711 B(  3-C ,  4-O ) :   2.1028
B(  3-C ,  5-C ) :   0.9223 B(  5-C ,  6-C ) :   1.6963 B(  5-C , 12-C ) :   0.9465
B(  6-C ,  7-C ) :   0.9499 B(  6-C ,  8-N ) :   1.1147 B(  7-C , 25-H ) :   0.9786
B(  7-C , 26-H ) :   0.9649 B(  7-C , 27-H ) :   0.9720 B(  8-N ,  9-C ) :   1.2004
B(  8-N , 28-H ) :   0.9519 B(  9-C , 10-S ) :   1.6079 B(  9-C , 11-N ) :   1.2836
B( 11-N , 12-C ) :   0.9950 B( 11-N , 29-H ) :   0.9465 B( 12-C , 13-C ) :   0.9419
B( 12-C , 30-H ) :   0.9976 B( 13-C , 14-C ) :   1.3889 B( 13-C , 19-C ) :   1.3386
B( 14-C , 15-C ) :   1.4025 B( 14-C , 31-H ) :   0.9608 B( 15-C , 16-C ) :   1.3570
B( 15-C , 32-H ) :   0.9695 B( 16-C , 17-C ) :   1.3313 B( 16-C , 33-H ) :   0.9843
B( 17-C , 18-O ) :   1.1117 B( 17-C , 19-C ) :   1.3639 B( 18-O , 34-H ) :   0.9787
B( 19-C , 35-H ) :   0.9506

MP2 TOTAL ENERGY:    -1274.324569537 Eh
FINAL SINGLE POINT ENERGY     -1274.324569537044

DIPOLE MOMENT
-------------
                                X             Y             Z
Electronic contribution:      9.23522       5.25388       5.88249
Nuclear contribution   :    -10.68108      -6.54625      -6.14770
                        -----------------------------------------
Total Dipole Moment    :     -1.44586      -1.29237      -0.26521
                        -----------------------------------------
Magnitude (a.u.)       :      1.95731
Magnitude (Debye)      :      4.97509

Rotational constants in cm-1:     0.012627     0.009232     0.006909
Rotational constants in MHz :   378.549532   276.762018   207.125710

                             ****ORCA TERMINATED NORMALLY****
TOTAL RUN TIME: 0 days 1 hours 58 minutes 13 seconds 565 msec
