                         Program Version 4.2.0 -  RELEASE  -
|  1> ! ri-mp2 cc-pvtz cc-pvtz/c TightSCF  NoKeepInts
|  2>
|  3> %scf
|  4>   MaxCore 4096
|  5> end
|  6> *xyz  0  1
|  7>     C       14.5932199   14.4188887   16.9860860
|  8>     C       15.6035800   15.5676594   16.8407129
|  9>     O       16.8913420   14.9680035   16.6167892
| 10>     C       18.0652240   15.6738302   16.5532866
| 11>     O       19.1019911   15.0607133   16.3812694
| 12>     C       18.0763014   16.9054457   17.3945356
| 13>     C       17.5893192   18.0859146   16.9520089
| 14>     C       16.9937343   18.3671189   15.5898269
| 15>     N       17.6631197   19.2171118   17.7672677
| 16>     C       18.2835543   19.2567163   18.9895069
| 17>     S       18.3660680   20.6509309   19.8744864
| 18>     N       18.8261607   18.0799607   19.4467491
| 19>     C       18.7190196   16.7696078   18.7734255
| 20>     C       17.9554066   15.7593954   19.6246066
| 21>     C       18.3996311   14.4267449   19.7018138
| 22>     C       17.6865014   13.4759092   20.4504971
| 23>     C       16.5153601   13.8586651   21.1259099
| 24>     C       16.0654550   15.1832314   21.0461640
| 25>     O       14.9262527   15.5527959   21.6834603
| 26>     C       16.7779304   16.1285792   20.3016411
| 27>     H       14.8620058   13.7786569   17.8361959
| 28>     H       14.5759644   13.8004104   16.0799771
| 29>     H       13.5832726   14.8105966   17.1571331
| 30>     H       15.3186137   16.2029667   15.9934714
| 31>     H       15.5960614   16.1661912   17.7606563
| 32>     H       17.1313072   17.5310036   14.8931514
| 33>     H       17.4724702   19.2407778   15.1288907
| 34>     H       15.9187971   18.5728865   15.6635385
| 35>     H       17.2837412   20.0940287   17.4457796
| 36>     H       19.2586391   18.1356480   20.3603316
| 37>     H       19.7396681   16.3867210   18.6251275
| 38>     H       19.2922318   14.1219891   19.1593985
| 39>     H       18.0379665   12.4465039   20.4955915
| 40>     H       15.9591059   13.1256173   21.7006830
| 41>     H       14.6111969   14.7840981   22.1828250
| 42>     H       16.4067867   17.1466811   20.2512049
| 43> *
| 44>
| 45>                          ****END OF INPUT****

CARTESIAN COORDINATES (ANGSTROEM)
---------------------------------
  C     14.593220   14.418889   16.986086
  C     15.603580   15.567659   16.840713
  O     16.891342   14.968004   16.616789
  C     18.065224   15.673830   16.553287
  O     19.101991   15.060713   16.381269
  C     18.076301   16.905446   17.394536
  C     17.589319   18.085915   16.952009
  C     16.993734   18.367119   15.589827
  N     17.663120   19.217112   17.767268
  C     18.283554   19.256716   18.989507
  S     18.366068   20.650931   19.874486
  N     18.826161   18.079961   19.446749
  C     18.719020   16.769608   18.773425
  C     17.955407   15.759395   19.624607
  C     18.399631   14.426745   19.701814
  C     17.686501   13.475909   20.450497
  C     16.515360   13.858665   21.125910
  C     16.065455   15.183231   21.046164
  O     14.926253   15.552796   21.683460
  C     16.777930   16.128579   20.301641
  H     14.862006   13.778657   17.836196
  H     14.575964   13.800410   16.079977
  H     13.583273   14.810597   17.157133
  H     15.318614   16.202967   15.993471
  H     15.596061   16.166191   17.760656
  H     17.131307   17.531004   14.893151
  H     17.472470   19.240778   15.128891
  H     15.918797   18.572886   15.663538
  H     17.283741   20.094029   17.445780
  H     19.258639   18.135648   20.360332
  H     19.739668   16.386721   18.625128
  H     19.292232   14.121989   19.159398
  H     18.037966   12.446504   20.495591
  H     15.959106   13.125617   21.700683
  H     14.611197   14.784098   22.182825
  H     16.406787   17.146681   20.251205

 Total Charge           Charge          ....    0
 Multiplicity           Mult            ....    1
 Number of Electrons    NEL             ....  154
 Basis Dimension        Dim             ....  828

ORBITAL ENERGIES
----------------

  NO   OCC          E(Eh)            E(eV)
   0   2.0000     -91.888940     -2500.4252
   1   2.0000     -20.602626      -560.6259
   2   2.0000     -20.599625      -560.5443
   3   2.0000     -20.553408      -559.2867
   4   2.0000     -15.624730      -425.1705
   5   2.0000     -15.611470      -424.8097
   6   2.0000     -11.396735      -310.1209
   7   2.0000     -11.385991      -309.8286
   8   2.0000     -11.324975      -308.1682
   9   2.0000     -11.316344      -307.9334
  10   2.0000     -11.316266      -307.9312
  11   2.0000     -11.302970      -307.5695
  12   2.0000     -11.270648      -306.6899
  13   2.0000     -11.264473      -306.5219
  14   2.0000     -11.263323      -306.4906
  15   2.0000     -11.256130      -306.2949
  16   2.0000     -11.245452      -306.0043
  17   2.0000     -11.241804      -305.9051
  18   2.0000     -11.238635      -305.8188
  19   2.0000     -11.231830      -305.6336
  20   2.0000      -8.894075      -242.0201
  21   2.0000      -6.575669      -178.9330
  22   2.0000      -6.573637      -178.8777
  23   2.0000      -6.573067      -178.8623
  24   2.0000      -1.452083       -39.5132
  25   2.0000      -1.419436       -38.6248
  26   2.0000      -1.361477       -37.0477
  27   2.0000      -1.338737       -36.4289
  28   2.0000      -1.239081       -33.7171
  29   2.0000      -1.160814       -31.5873
  30   2.0000      -1.125208       -30.6185
  31   2.0000      -1.048924       -28.5427
  32   2.0000      -1.040387       -28.3104
  33   2.0000      -1.018473       -27.7141
  34   2.0000      -1.004826       -27.3427
  35   2.0000      -0.988687       -26.9035
  36   2.0000      -0.927666       -25.2431
  37   2.0000      -0.880788       -23.9675
  38   2.0000      -0.855064       -23.2675
  39   2.0000      -0.841158       -22.8891
  40   2.0000      -0.836865       -22.7722
  41   2.0000      -0.836351       -22.7583
  42   2.0000      -0.757674       -20.6174
  43   2.0000      -0.739046       -20.1105
  44   2.0000      -0.731288       -19.8994
  45   2.0000      -0.697928       -18.9916
  46   2.0000      -0.688714       -18.7409
  47   2.0000      -0.682255       -18.5651
  48   2.0000      -0.677389       -18.4327
  49   2.0000      -0.661014       -17.9871
  50   2.0000      -0.658647       -17.9227
  51   2.0000      -0.650014       -17.6878
  52   2.0000      -0.639552       -17.4031
  53   2.0000      -0.612032       -16.6542
  54   2.0000      -0.608117       -16.5477
  55   2.0000      -0.603394       -16.4192
  56   2.0000      -0.598066       -16.2742
  57   2.0000      -0.585450       -15.9309
  58   2.0000      -0.577377       -15.7112
  59   2.0000      -0.568607       -15.4726
  60   2.0000      -0.562790       -15.3143
  61   2.0000      -0.556380       -15.1399
  62   2.0000      -0.551546       -15.0083
  63   2.0000      -0.527513       -14.3543
  64   2.0000      -0.518262       -14.1026
  65   2.0000      -0.514917       -14.0116
  66   2.0000      -0.507540       -13.8109
  67   2.0000      -0.501898       -13.6573
  68   2.0000      -0.487609       -13.2685
  69   2.0000      -0.469133       -12.7658
  70   2.0000      -0.454201       -12.3594
  71   2.0000      -0.451753       -12.2928
  72   2.0000      -0.356040        -9.6884
  73   2.0000      -0.351133        -9.5548
  74   2.0000      -0.328760        -8.9460
  75   2.0000      -0.323751        -8.8097
  76   2.0000      -0.317395        -8.6368
  77   0.0000       0.090236         2.4555
  78   0.0000       0.103457         2.8152
  79   0.0000       0.108528         2.9532
  80   0.0000       0.127341         3.4651
  81   0.0000       0.130819         3.5598

MULLIKEN ATOMIC CHARGES
-----------------------
   0 C :   -0.260281
   1 C :    0.005019
   2 O :   -0.299980
   3 C :    0.387930
   4 O :   -0.374376
   5 C :   -0.173051
   6 C :    0.136996
   7 C :   -0.330967
   8 N :   -0.137621
   9 C :    0.207721
  10 S :   -0.443204
  11 N :   -0.217822
  12 C :    0.067078
  13 C :    0.036181
  14 C :   -0.188467
  15 C :   -0.129973
  16 C :   -0.278863
  17 C :    0.320731
  18 O :   -0.358103
  19 C :   -0.294798
  20 H :    0.108501
  21 H :    0.103347
  22 H :    0.087599
  23 H :    0.095296
  24 H :    0.105179
  25 H :    0.121230
  26 H :    0.138277
  27 H :    0.123033
  28 H :    0.195308
  29 H :    0.199523
  30 H :    0.165716
  31 H :    0.163622
  32 H :    0.163114
  33 H :    0.132706
  34 H :    0.241715
  35 H :    0.181684
Sum of atomic charges:   -0.0000000

LOEWDIN ATOMIC CHARGES
----------------------
   0 C :    0.113112
   1 C :   -0.028721
   2 O :    0.318536
   3 C :   -0.420064
   4 O :    0.130561
   5 C :   -0.079395
   6 C :   -0.109543
   7 C :    0.122511
   8 N :    0.400036
   9 C :   -0.455267
  10 S :   -0.039723
  11 N :    0.397379
  12 C :   -0.042699
  13 C :   -0.041462
  14 C :    0.025019
  15 C :    0.046287
  16 C :   -0.000325
  17 C :   -0.193870
  18 O :    0.394577
  19 C :    0.026943
  20 H :   -0.022541
  21 H :   -0.025373
  22 H :   -0.025253
  23 H :   -0.038305
  24 H :   -0.036519
  25 H :   -0.010361
  26 H :   -0.009889
  27 H :   -0.017082
  28 H :   -0.058808
  29 H :   -0.063664
  30 H :   -0.002278
  31 H :   -0.022261
  32 H :   -0.018576
  33 H :   -0.034864
  34 H :   -0.153046
  35 H :   -0.025075

  Mayer bond orders larger than 0.100000
B(  0-C ,  1-C ) :   0.9841 B(  0-C , 20-H ) :   0.9773 B(  0-C , 21-H ) :   0.9794
B(  0-C , 22-H ) :   0.9767 B(  1-C ,  2-O ) :   0.9184 B(  1-C , 23-H ) :   0.9755
B(  1-C , 24-H ) :   0.9577 B(  2-O ,  3-C ) :   1.1554 B(  3-C ,  4-O ) :   2.0965
B(  3-C ,  5-C ) :   0.9173 B(  5-C ,  6-C ) :   1.6989 B(  5-C , 12-C ) :   0.9627
B(  6-C ,  7-C ) :   0.9410 B(  6-C ,  8-N ) :   1.1106 B(  7-C , 25-H ) :   0.9825
B(  7-C , 26-H ) :   0.9703 B(  7-C , 27-H ) :   0.9663 B(  8-N ,  9-C ) :   1.1993
B(  8-N , 28-H ) :   0.9533 B(  9-C , 10-S ) :   1.6085 B(  9-C , 11-N ) :   1.2851
B( 11-N , 12-C ) :   0.9958 B( 11-N , 29-H ) :   0.9481 B( 12-C , 13-C ) :   0.9440
B( 12-C , 30-H ) :   0.9975 B( 13-C , 14-C ) :   1.3873 B( 13-C , 19-C ) :   1.3387
B( 14-C , 15-C ) :   1.3983 B( 14-C , 31-H ) :   0.9633 B( 15-C , 16-C ) :   1.3621
B( 15-C , 32-H ) :   0.9701 B( 16-C , 17-C ) :   1.3300 B( 16-C , 33-H ) :   0.9844
B( 17-C , 18-O ) :   1.1093 B( 17-C , 19-C ) :   1.3643 B( 18-O , 34-H ) :   0.9792
B( 19-C , 35-H ) :   0.9558

MP2 TOTAL ENERGY:    -1274.326818315 Eh
FINAL SINGLE POINT ENERGY     -1274.326818315408

DIPOLE MOMENT
-------------
                                X             Y             Z
Electronic contribution:     10.65339       8.18433       6.72594
Nuclear contribution   :    -12.22253      -9.25565      -7.28704
                        -----------------------------------------
Total Dipole Moment    :     -1.56914      -1.07132      -0.56110
                        -----------------------------------------
Magnitude (a.u.)       :      1.98110
Magnitude (Debye)      :      5.03555

Rotational constants in cm-1:     0.012443     0.008982     0.006845
Rotational constants in MHz :   373.035751   269.271107   205.217809

                             ****ORCA TERMINATED NORMALLY****
TOTAL RUN TIME: 0 days 1 hours 50 minutes 26 seconds 342 msec
