                         Program Version 4.2.0 -  RELEASE  -
|  1> ! ri-mp2 cc-pvtz cc-pvtz/c TightSCF  NoKeepInts
|  2>
|  3> %scf
|  4>   MaxCore 4096
|  5> end
|  6> *xyz  0  1
|  7>     C       15.5255221   13.9758687   17.3989066
|  8>     C       16.3192747   14.1914327   16.1010641
|  9>     O       17.4993135   14.9814227   16.3665829
| 10>     C       17.4690420   16.3145513   16.0659619
| 11>     O       16.9377386   16.7063978   15.0411548
| 12>     C       17.7039918   17.1945882   17.2637090
| 13>     C       17.3474512   18.5053778   17.2892514
| 14>     C       16.5719687   19.2722911   16.2393702
| 15>     N       17.7564779   19.3184650   18.3514216
| 16>     C       18.7064643   18.9659896   19.2736509
| 17>     S       19.3025244   20.0453614   20.3761883
| 18>     N       19.1526084   17.6695597   19.2202345
| 19>     C       18.5108686   16.6016315   18.4320556
| 20>     C       17.6890347   15.7311265   19.3761673
| 21>     C       18.1654641   14.4632593   19.7603193
| 22>     C       17.4434128   13.6730776   20.6709003
| 23>     C       16.2360485   14.1552812   21.2044185
| 24>     C       15.7645380   15.4218744   20.8331893
| 25>     O       14.6014837   15.8922810   21.3495422
| 26>     C       16.4875282   16.2081322   19.9308365
| 27>     H       16.1346908   13.4554921   18.1455381
| 28>     H       14.6361299   13.3646752   17.2044447
| 29>     H       15.1920159   14.9339810   17.8140095
| 30>     H       16.6293085   13.2108214   15.7178923
| 31>     H       15.6783839   14.6539263   15.3380526
| 32>     H       15.6295542   18.7612851   16.0048860
| 33>     H       17.1483469   19.3396599   15.3077659
| 34>     H       16.3224249   20.2930980   16.5515484
| 35>     H       17.4508020   20.2777117   18.3902869
| 36>     H       19.8346272   17.4295804   19.9280048
| 37>     H       19.3084094   15.9799293   18.0012804
| 38>     H       19.1002596   14.0886468   19.3519155
| 39>     H       17.8198531   12.6933854   20.9602825
| 40>     H       15.6741487   13.5484206   21.9067990
| 41>     H       14.2837082   15.2407997   21.9927437
| 42>     H       16.1135805   17.1926174   19.6736246
| 43> *
| 44>
| 45>                          ****END OF INPUT****

CARTESIAN COORDINATES (ANGSTROEM)
---------------------------------
  C     15.525522   13.975869   17.398907
  C     16.319275   14.191433   16.101064
  O     17.499313   14.981423   16.366583
  C     17.469042   16.314551   16.065962
  O     16.937739   16.706398   15.041155
  C     17.703992   17.194588   17.263709
  C     17.347451   18.505378   17.289251
  C     16.571969   19.272291   16.239370
  N     17.756478   19.318465   18.351422
  C     18.706464   18.965990   19.273651
  S     19.302524   20.045361   20.376188
  N     19.152608   17.669560   19.220235
  C     18.510869   16.601631   18.432056
  C     17.689035   15.731127   19.376167
  C     18.165464   14.463259   19.760319
  C     17.443413   13.673078   20.670900
  C     16.236048   14.155281   21.204418
  C     15.764538   15.421874   20.833189
  O     14.601484   15.892281   21.349542
  C     16.487528   16.208132   19.930837
  H     16.134691   13.455492   18.145538
  H     14.636130   13.364675   17.204445
  H     15.192016   14.933981   17.814010
  H     16.629309   13.210821   15.717892
  H     15.678384   14.653926   15.338053
  H     15.629554   18.761285   16.004886
  H     17.148347   19.339660   15.307766
  H     16.322425   20.293098   16.551548
  H     17.450802   20.277712   18.390287
  H     19.834627   17.429580   19.928005
  H     19.308409   15.979929   18.001280
  H     19.100260   14.088647   19.351916
  H     17.819853   12.693385   20.960283
  H     15.674149   13.548421   21.906799
  H     14.283708   15.240800   21.992744
  H     16.113581   17.192617   19.673625

 Total Charge           Charge          ....    0
 Multiplicity           Mult            ....    1
 Number of Electrons    NEL             ....  154
 Basis Dimension        Dim             ....  828

ORBITAL ENERGIES
----------------

  NO   OCC          E(Eh)            E(eV)
   0   2.0000     -91.889986     -2500.4536
   1   2.0000     -20.599188      -560.5324
   2   2.0000     -20.590022      -560.2830
   3   2.0000     -20.546315      -559.0937
   4   2.0000     -15.630532      -425.3284
   5   2.0000     -15.608478      -424.7283
   6   2.0000     -11.394552      -310.0615
   7   2.0000     -11.384442      -309.7864
   8   2.0000     -11.336953      -308.4942
   9   2.0000     -11.316089      -307.9264
  10   2.0000     -11.310813      -307.7829
  11   2.0000     -11.293933      -307.3235
  12   2.0000     -11.261414      -306.4386
  13   2.0000     -11.260302      -306.4084
  14   2.0000     -11.257415      -306.3298
  15   2.0000     -11.253127      -306.2132
  16   2.0000     -11.245194      -305.9973
  17   2.0000     -11.239819      -305.8510
  18   2.0000     -11.239474      -305.8416
  19   2.0000     -11.219377      -305.2948
  20   2.0000      -8.895003      -242.0453
  21   2.0000      -6.576568      -178.9575
  22   2.0000      -6.574576      -178.9033
  23   2.0000      -6.573980      -178.8871
  24   2.0000      -1.448965       -39.4283
  25   2.0000      -1.418820       -38.6080
  26   2.0000      -1.352222       -36.7958
  27   2.0000      -1.341569       -36.5059
  28   2.0000      -1.239711       -33.7343
  29   2.0000      -1.159036       -31.5390
  30   2.0000      -1.120632       -30.4940
  31   2.0000      -1.043744       -28.4017
  32   2.0000      -1.033286       -28.1171
  33   2.0000      -1.017386       -27.6845
  34   2.0000      -0.997565       -27.1451
  35   2.0000      -0.984988       -26.8029
  36   2.0000      -0.924040       -25.1444
  37   2.0000      -0.888622       -24.1806
  38   2.0000      -0.847697       -23.0670
  39   2.0000      -0.840710       -22.8769
  40   2.0000      -0.835567       -22.7369
  41   2.0000      -0.815900       -22.2018
  42   2.0000      -0.758482       -20.6393
  43   2.0000      -0.733799       -19.9677
  44   2.0000      -0.721616       -19.6362
  45   2.0000      -0.698336       -19.0027
  46   2.0000      -0.689943       -18.7743
  47   2.0000      -0.678808       -18.4713
  48   2.0000      -0.669326       -18.2133
  49   2.0000      -0.666664       -18.1408
  50   2.0000      -0.648709       -17.6523
  51   2.0000      -0.645598       -17.5676
  52   2.0000      -0.637597       -17.3499
  53   2.0000      -0.609859       -16.5951
  54   2.0000      -0.602762       -16.4020
  55   2.0000      -0.600041       -16.3279
  56   2.0000      -0.589143       -16.0314
  57   2.0000      -0.579346       -15.7648
  58   2.0000      -0.572056       -15.5664
  59   2.0000      -0.565382       -15.3848
  60   2.0000      -0.565136       -15.3781
  61   2.0000      -0.548796       -14.9335
  62   2.0000      -0.537825       -14.6350
  63   2.0000      -0.527274       -14.3479
  64   2.0000      -0.521116       -14.1803
  65   2.0000      -0.513868       -13.9831
  66   2.0000      -0.503472       -13.7002
  67   2.0000      -0.499107       -13.5814
  68   2.0000      -0.479612       -13.0509
  69   2.0000      -0.462616       -12.5884
  70   2.0000      -0.450913       -12.2700
  71   2.0000      -0.446311       -12.1447
  72   2.0000      -0.357514        -9.7285
  73   2.0000      -0.350908        -9.5487
  74   2.0000      -0.329354        -8.9622
  75   2.0000      -0.323932        -8.8146
  76   2.0000      -0.316683        -8.6174
  77   0.0000       0.070504         1.9185
  78   0.0000       0.103757         2.8234
  79   0.0000       0.121283         3.3003
  80   0.0000       0.130830         3.5601
  81   0.0000       0.134813         3.6684

MULLIKEN ATOMIC CHARGES
-----------------------
   0 C :   -0.311087
   1 C :    0.039392
   2 O :   -0.377107
   3 C :    0.478052
   4 O :   -0.418202
   5 C :   -0.234007
   6 C :    0.147203
   7 C :   -0.270310
   8 N :   -0.124340
   9 C :    0.212161
  10 S :   -0.436952
  11 N :   -0.199057
  12 C :    0.033109
  13 C :    0.101125
  14 C :   -0.191461
  15 C :   -0.137469
  16 C :   -0.273428
  17 C :    0.323939
  18 O :   -0.359486
  19 C :   -0.289626
  20 H :    0.107264
  21 H :    0.112909
  22 H :    0.103423
  23 H :    0.102609
  24 H :    0.110838
  25 H :    0.127010
  26 H :    0.135918
  27 H :    0.094237
  28 H :    0.198614
  29 H :    0.192300
  30 H :    0.148728
  31 H :    0.146348
  32 H :    0.163745
  33 H :    0.131927
  34 H :    0.241683
  35 H :    0.169996
Sum of atomic charges:    0.0000000

LOEWDIN ATOMIC CHARGES
----------------------
   0 C :    0.103925
   1 C :   -0.012912
   2 O :    0.287987
   3 C :   -0.416030
   4 O :    0.111223
   5 C :   -0.096962
   6 C :   -0.059291
   7 C :    0.130151
   8 N :    0.407079
   9 C :   -0.456024
  10 S :   -0.032916
  11 N :    0.396467
  12 C :   -0.053250
  13 C :   -0.035060
  14 C :    0.012418
  15 C :    0.041535
  16 C :   -0.001175
  17 C :   -0.188797
  18 O :    0.396080
  19 C :    0.033317
  20 H :   -0.026717
  21 H :   -0.026558
  22 H :   -0.029926
  23 H :   -0.027002
  24 H :   -0.028849
  25 H :   -0.006172
  26 H :   -0.003220
  27 H :   -0.023280
  28 H :   -0.057725
  29 H :   -0.065759
  30 H :   -0.006759
  31 H :   -0.030317
  32 H :   -0.020756
  33 H :   -0.035142
  34 H :   -0.153101
  35 H :   -0.026484

  Mayer bond orders larger than 0.100000
B(  0-C ,  1-C ) :   0.9686 B(  0-C , 20-H ) :   0.9718 B(  0-C , 21-H ) :   0.9774
B(  0-C , 22-H ) :   0.9738 B(  1-C ,  2-O ) :   0.8834 B(  1-C , 23-H ) :   0.9875
B(  1-C , 24-H ) :   0.9751 B(  2-O ,  3-C ) :   1.1183 B(  3-C ,  4-O ) :   1.9925
B(  3-C ,  5-C ) :   1.0636 B(  5-C ,  6-C ) :   1.6532 B(  5-C , 12-C ) :   0.9772
B(  6-C ,  7-C ) :   0.9716 B(  6-C ,  8-N ) :   1.1515 B(  7-C , 25-H ) :   0.9646
B(  7-C , 26-H ) :   0.9569 B(  7-C , 27-H ) :   0.9887 B(  8-N ,  9-C ) :   1.1784
B(  8-N , 28-H ) :   0.9485 B(  9-C , 10-S ) :   1.6123 B(  9-C , 11-N ) :   1.3029
B( 11-N , 12-C ) :   0.9700 B( 11-N , 29-H ) :   0.9541 B( 12-C , 13-C ) :   0.9450
B( 12-C , 30-H ) :   1.0043 B( 13-C , 14-C ) :   1.3514 B( 13-C , 19-C ) :   1.3589
B( 14-C , 15-C ) :   1.3861 B( 14-C , 31-H ) :   0.9751 B( 15-C , 16-C ) :   1.3635
B( 15-C , 32-H ) :   0.9706 B( 16-C , 17-C ) :   1.3298 B( 16-C , 33-H ) :   0.9845
B( 17-C , 18-O ) :   1.1111 B( 17-C , 19-C ) :   1.3686 B( 18-O , 34-H ) :   0.9793
B( 19-C , 35-H ) :   0.9580

MP2 TOTAL ENERGY:    -1274.335233541 Eh
FINAL SINGLE POINT ENERGY     -1274.335233541130

DIPOLE MOMENT
-------------
                                X             Y             Z
Electronic contribution:      9.01036      10.14842       5.11579
Nuclear contribution   :    -10.02761     -11.79288      -5.14835
                        -----------------------------------------
Total Dipole Moment    :     -1.01724      -1.64446      -0.03255
                        -----------------------------------------
Magnitude (a.u.)       :      1.93393
Magnitude (Debye)      :      4.91567

Rotational constants in cm-1:     0.011901     0.009489     0.006533
Rotational constants in MHz :   356.783296   284.460275   195.857605

                             ****ORCA TERMINATED NORMALLY****
TOTAL RUN TIME: 0 days 1 hours 48 minutes 42 seconds 444 msec
