                         Program Version 4.2.0 -  RELEASE  -
|  1> ! ri-mp2 cc-pvtz cc-pvtz/c TightSCF  NoKeepInts
|  2>
|  3> %scf
|  4>   MaxCore 4096
|  5> end
|  6> *xyz  0  1
|  7>     C       14.9394784   15.4103259   17.5819409
|  8>     C       15.6864862   15.2251724   16.2494726
|  9>     O       17.0429785   14.8261445   16.5110236
| 10>     C       18.1162501   15.6762844   16.4654541
| 11>     O       19.2217750   15.1827461   16.3429522
| 12>     C       17.9623098   16.8600928   17.3609333
| 13>     C       17.4365273   18.0296198   16.9310701
| 14>     C       16.9368614   18.3485323   15.5388685
| 15>     N       17.3999581   19.1329045   17.7864816
| 16>     C       17.9903475   19.1802984   19.0223700
| 17>     S       17.9649292   20.5530286   19.9439260
| 18>     N       18.6059080   18.0320286   19.4562625
| 19>     C       18.5746606   16.7300274   18.7591516
| 20>     C       17.8798025   15.6562322   19.5950181
| 21>     C       18.3323570   14.3249497   19.5365047
| 22>     C       17.7048365   13.3185004   20.2889329
| 23>     C       16.6139624   13.6438451   21.1121289
| 24>     C       16.1588632   14.9674227   21.1751895
| 25>     O       15.0985599   15.2831152   21.9605372
| 26>     C       16.7851668   15.9678087   20.4248936
| 27>     H       15.1084367   14.5504697   18.2429723
| 28>     H       13.8604174   15.5000647   17.4083695
| 29>     H       15.2723308   16.3169353   18.0991180
| 30>     H       15.1946581   14.4113223   15.7007989
| 31>     H       15.6236533   16.1195651   15.6239086
| 32>     H       17.2430737   17.5936663   14.8044068
| 33>     H       17.3456114   19.3049716   15.1878188
| 34>     H       15.8428537   18.4262548   15.5196132
| 35>     H       16.9693913   19.9912657   17.4804240
| 36>     H       19.0220839   18.0918187   20.3770039
| 37>     H       19.6187168   16.4104930   18.6242391
| 38>     H       19.1677336   14.0665342   18.8888416
| 39>     H       18.0623995   12.2921921   20.2263694
| 40>     H       16.1246767   12.8688073   21.6925785
| 41>     H       14.8324995   14.4761652   22.4265216
| 42>     H       16.4064450   16.9823939   20.4879038
| 43> *
| 44>
| 45>                          ****END OF INPUT****

CARTESIAN COORDINATES (ANGSTROEM)
---------------------------------
  C     14.939478   15.410326   17.581941
  C     15.686486   15.225172   16.249473
  O     17.042978   14.826144   16.511024
  C     18.116250   15.676284   16.465454
  O     19.221775   15.182746   16.342952
  C     17.962310   16.860093   17.360933
  C     17.436527   18.029620   16.931070
  C     16.936861   18.348532   15.538868
  N     17.399958   19.132904   17.786482
  C     17.990347   19.180298   19.022370
  S     17.964929   20.553029   19.943926
  N     18.605908   18.032029   19.456263
  C     18.574661   16.730027   18.759152
  C     17.879803   15.656232   19.595018
  C     18.332357   14.324950   19.536505
  C     17.704836   13.318500   20.288933
  C     16.613962   13.643845   21.112129
  C     16.158863   14.967423   21.175189
  O     15.098560   15.283115   21.960537
  C     16.785167   15.967809   20.424894
  H     15.108437   14.550470   18.242972
  H     13.860417   15.500065   17.408369
  H     15.272331   16.316935   18.099118
  H     15.194658   14.411322   15.700799
  H     15.623653   16.119565   15.623909
  H     17.243074   17.593666   14.804407
  H     17.345611   19.304972   15.187819
  H     15.842854   18.426255   15.519613
  H     16.969391   19.991266   17.480424
  H     19.022084   18.091819   20.377004
  H     19.618717   16.410493   18.624239
  H     19.167734   14.066534   18.888842
  H     18.062399   12.292192   20.226369
  H     16.124677   12.868807   21.692578
  H     14.832499   14.476165   22.426522
  H     16.406445   16.982394   20.487904

 Total Charge           Charge          ....    0
 Multiplicity           Mult            ....    1
 Number of Electrons    NEL             ....  154
 Basis Dimension        Dim             ....  828

ORBITAL ENERGIES
----------------

  NO   OCC          E(Eh)            E(eV)
   0   2.0000     -91.888169     -2500.4042
   1   2.0000     -20.599824      -560.5497
   2   2.0000     -20.596293      -560.4536
   3   2.0000     -20.559250      -559.4456
   4   2.0000     -15.623789      -425.1449
   5   2.0000     -15.610476      -424.7827
   6   2.0000     -11.398452      -310.1676
   7   2.0000     -11.384942      -309.8000
   8   2.0000     -11.324207      -308.1473
   9   2.0000     -11.315929      -307.9221
  10   2.0000     -11.312455      -307.8276
  11   2.0000     -11.306338      -307.6611
  12   2.0000     -11.271728      -306.7193
  13   2.0000     -11.266778      -306.5846
  14   2.0000     -11.260742      -306.4204
  15   2.0000     -11.253043      -306.2109
  16   2.0000     -11.242398      -305.9212
  17   2.0000     -11.238105      -305.8044
  18   2.0000     -11.235353      -305.7295
  19   2.0000     -11.227993      -305.5292
  20   2.0000      -8.893304      -241.9991
  21   2.0000      -6.574903      -178.9122
  22   2.0000      -6.572866      -178.8568
  23   2.0000      -6.572300      -178.8414
  24   2.0000      -1.454875       -39.5892
  25   2.0000      -1.416120       -38.5346
  26   2.0000      -1.363392       -37.0998
  27   2.0000      -1.338290       -36.4167
  28   2.0000      -1.238426       -33.6993
  29   2.0000      -1.157511       -31.4975
  30   2.0000      -1.123926       -30.5836
  31   2.0000      -1.047065       -28.4921
  32   2.0000      -1.039126       -28.2761
  33   2.0000      -1.015716       -27.6390
  34   2.0000      -1.004252       -27.3271
  35   2.0000      -0.988260       -26.8919
  36   2.0000      -0.926564       -25.2131
  37   2.0000      -0.891308       -24.2537
  38   2.0000      -0.853085       -23.2136
  39   2.0000      -0.839079       -22.8325
  40   2.0000      -0.833089       -22.6695
  41   2.0000      -0.831491       -22.6260
  42   2.0000      -0.756771       -20.5928
  43   2.0000      -0.738031       -20.0828
  44   2.0000      -0.729569       -19.8526
  45   2.0000      -0.694574       -18.9003
  46   2.0000      -0.688453       -18.7338
  47   2.0000      -0.682381       -18.5685
  48   2.0000      -0.676086       -18.3972
  49   2.0000      -0.664621       -18.0853
  50   2.0000      -0.651493       -17.7280
  51   2.0000      -0.639476       -17.4010
  52   2.0000      -0.637390       -17.3443
  53   2.0000      -0.617094       -16.7920
  54   2.0000      -0.610989       -16.6259
  55   2.0000      -0.605214       -16.4687
  56   2.0000      -0.600790       -16.3483
  57   2.0000      -0.590134       -16.0584
  58   2.0000      -0.580469       -15.7954
  59   2.0000      -0.573141       -15.5959
  60   2.0000      -0.564327       -15.3561
  61   2.0000      -0.557567       -15.1722
  62   2.0000      -0.540095       -14.6967
  63   2.0000      -0.527342       -14.3497
  64   2.0000      -0.517112       -14.0713
  65   2.0000      -0.511750       -13.9254
  66   2.0000      -0.502897       -13.6845
  67   2.0000      -0.500148       -13.6097
  68   2.0000      -0.486721       -13.2443
  69   2.0000      -0.464783       -12.6474
  70   2.0000      -0.456934       -12.4338
  71   2.0000      -0.452157       -12.3038
  72   2.0000      -0.355815        -9.6822
  73   2.0000      -0.346755        -9.4357
  74   2.0000      -0.328005        -8.9255
  75   2.0000      -0.320679        -8.7261
  76   2.0000      -0.316692        -8.6176
  77   0.0000       0.090453         2.4613
  78   0.0000       0.100173         2.7259
  79   0.0000       0.111370         3.0305
  80   0.0000       0.127426         3.4674
  81   0.0000       0.131074         3.5667

MULLIKEN ATOMIC CHARGES
-----------------------
   0 C :   -0.297744
   1 C :   -0.003889
   2 O :   -0.311183
   3 C :    0.387800
   4 O :   -0.364750
   5 C :   -0.163522
   6 C :    0.128868
   7 C :   -0.332504
   8 N :   -0.136203
   9 C :    0.209397
  10 S :   -0.444763
  11 N :   -0.229813
  12 C :    0.081069
  13 C :    0.050044
  14 C :   -0.203444
  15 C :   -0.133386
  16 C :   -0.280920
  17 C :    0.322078
  18 O :   -0.359639
  19 C :   -0.290367
  20 H :    0.119462
  21 H :    0.109127
  22 H :    0.102726
  23 H :    0.128272
  24 H :    0.087949
  25 H :    0.118329
  26 H :    0.136386
  27 H :    0.123091
  28 H :    0.194770
  29 H :    0.203004
  30 H :    0.169039
  31 H :    0.165941
  32 H :    0.162503
  33 H :    0.131487
  34 H :    0.240911
  35 H :    0.179872
Sum of atomic charges:   -0.0000000

LOEWDIN ATOMIC CHARGES
----------------------
   0 C :    0.104858
   1 C :   -0.026490
   2 O :    0.318496
   3 C :   -0.421751
   4 O :    0.139982
   5 C :   -0.075186
   6 C :   -0.112510
   7 C :    0.119823
   8 N :    0.399938
   9 C :   -0.456605
  10 S :   -0.041045
  11 N :    0.398566
  12 C :   -0.040626
  13 C :   -0.040385
  14 C :    0.024339
  15 C :    0.043613
  16 C :   -0.002493
  17 C :   -0.193851
  18 O :    0.395033
  19 C :    0.029108
  20 H :   -0.018721
  21 H :   -0.027161
  22 H :   -0.034136
  23 H :   -0.022282
  24 H :   -0.039312
  25 H :   -0.012164
  26 H :   -0.009704
  27 H :   -0.017710
  28 H :   -0.059387
  29 H :   -0.063544
  30 H :   -0.001869
  31 H :   -0.022515
  32 H :   -0.019135
  33 H :   -0.035413
  34 H :   -0.153852
  35 H :   -0.025909

  Mayer bond orders larger than 0.100000
B(  0-C ,  1-C ) :   0.9638 B(  0-C , 20-H ) :   0.9709 B(  0-C , 21-H ) :   0.9771
B(  0-C , 22-H ) :   0.9717 B(  1-C ,  2-O ) :   0.9141 B(  1-C , 23-H ) :   0.9858
B(  1-C , 24-H ) :   0.9766 B(  2-O ,  3-C ) :   1.1116 B(  3-C ,  4-O ) :   2.0929
B(  3-C ,  5-C ) :   0.9218 B(  5-C ,  6-C ) :   1.7188 B(  5-C , 12-C ) :   0.9530
B(  6-C ,  7-C ) :   0.9372 B(  6-C ,  8-N ) :   1.1001 B(  7-C , 25-H ) :   0.9835
B(  7-C , 26-H ) :   0.9725 B(  7-C , 27-H ) :   0.9671 B(  8-N ,  9-C ) :   1.2019
B(  8-N , 28-H ) :   0.9541 B(  9-C , 10-S ) :   1.6041 B(  9-C , 11-N ) :   1.2851
B( 11-N , 12-C ) :   0.9851 B( 11-N , 29-H ) :   0.9465 B( 12-C , 13-C ) :   0.9509
B( 12-C , 30-H ) :   0.9965 B( 13-C , 14-C ) :   1.3842 B( 13-C , 19-C ) :   1.3346
B( 14-C , 15-C ) :   1.4039 B( 14-C , 31-H ) :   0.9629 B( 15-C , 16-C ) :   1.3554
B( 15-C , 32-H ) :   0.9704 B( 16-C , 17-C ) :   1.3335 B( 16-C , 33-H ) :   0.9852
B( 17-C , 18-O ) :   1.1068 B( 17-C , 19-C ) :   1.3645 B( 18-O , 34-H ) :   0.9798
B( 19-C , 35-H ) :   0.9566

MP2 TOTAL ENERGY:    -1274.316181536 Eh
FINAL SINGLE POINT ENERGY     -1274.316181535896

DIPOLE MOMENT
-------------
                                X             Y             Z
Electronic contribution:      9.37947       6.30482       6.36630
Nuclear contribution   :    -10.86134      -7.49234      -7.30313
                        -----------------------------------------
Total Dipole Moment    :     -1.48187      -1.18752      -0.93683
                        -----------------------------------------
Magnitude (a.u.)       :      2.11750
Magnitude (Debye)      :      5.38225

Rotational constants in cm-1:     0.012253     0.009447     0.006876
Rotational constants in MHz :   367.322689   283.218239   206.139230

                             ****ORCA TERMINATED NORMALLY****
TOTAL RUN TIME: 0 days 1 hours 53 minutes 6 seconds 182 msec
