                         Program Version 5.0.0 -  RELEASE  -
|  1> ! ri-mp2 cc-pvtz cc-pvtz/c TightSCF NoKeepInts
|  2>
|  3> %scf
|  4>   MaxCore 4096
|  5> end
|  6> *xyz  0  1
|  7>     C       15.1064550   14.4686595   16.9653154
|  8>     C       16.4771253   13.9520107   16.4698727
|  9>     O       17.5032817   14.9727179   16.4505129
| 10>     C       17.2195987   16.2933879   16.2423149
| 11>     O       16.4905037   16.6538407   15.3346011
| 12>     C       17.7331015   17.1884599   17.3374561
| 13>     C       17.5119776   18.5278946   17.3442790
| 14>     C       16.7238188   19.3332980   16.3335666
| 15>     N       18.0775200   19.3262206   18.3433551
| 16>     C       18.9863273   18.8905927   19.2706354
| 17>     S       19.7120057   19.9242518   20.3386201
| 18>     N       19.2698164   17.5485937   19.2642751
| 19>     C       18.5556307   16.5379962   18.4626848
| 20>     C       17.6968972   15.6739468   19.3812629
| 21>     C       18.0006581   14.3123167   19.5684319
| 22>     C       17.2103852   13.5124902   20.4109277
| 23>     C       16.1110134   14.0799188   21.0774158
| 24>     C       15.8120213   15.4379736   20.9021443
| 25>     O       14.7515540   15.9889375   21.5442474
| 26>     C       16.5992783   16.2309836   20.0616664
| 27>     H       15.2029632   14.9908029   17.9238159
| 28>     H       14.4187228   13.6271709   17.1110073
| 29>     H       14.6431247   15.1474160   16.2389767
| 30>     H       16.8086031   13.1225838   17.1074956
| 31>     H       16.3480122   13.5570780   15.4536304
| 32>     H       17.1550718   19.2217986   15.3305091
| 33>     H       16.6969528   20.4045359   16.5648255
| 34>     H       15.6861141   18.9793086   16.2840824
| 35>     H       17.8853025   20.3151453   18.3577007
| 36>     H       19.9197734   17.2517388   19.9807105
| 37>     H       19.3148863   15.8970898   17.9927193
| 38>     H       18.8489656   13.8707272   19.0521118
| 39>     H       17.4519906   12.4597458   20.5473558
| 40>     H       15.4981478   13.4666763   21.7299475
| 41>     H       14.3649077   15.3045249   22.1108982
| 42>     H       16.3544918   17.2811658   19.9446277
| 43> *
| 44>
| 45>                          ****END OF INPUT****

CARTESIAN COORDINATES (ANGSTROEM)
---------------------------------
  C     15.106455   14.468659   16.965315
  C     16.477125   13.952011   16.469873
  O     17.503282   14.972718   16.450513
  C     17.219599   16.293388   16.242315
  O     16.490504   16.653841   15.334601
  C     17.733101   17.188460   17.337456
  C     17.511978   18.527895   17.344279
  C     16.723819   19.333298   16.333567
  N     18.077520   19.326221   18.343355
  C     18.986327   18.890593   19.270635
  S     19.712006   19.924252   20.338620
  N     19.269816   17.548594   19.264275
  C     18.555631   16.537996   18.462685
  C     17.696897   15.673947   19.381263
  C     18.000658   14.312317   19.568432
  C     17.210385   13.512490   20.410928
  C     16.111013   14.079919   21.077416
  C     15.812021   15.437974   20.902144
  O     14.751554   15.988937   21.544247
  C     16.599278   16.230984   20.061666
  H     15.202963   14.990803   17.923816
  H     14.418723   13.627171   17.111007
  H     14.643125   15.147416   16.238977
  H     16.808603   13.122584   17.107496
  H     16.348012   13.557078   15.453630
  H     17.155072   19.221799   15.330509
  H     16.696953   20.404536   16.564826
  H     15.686114   18.979309   16.284082
  H     17.885302   20.315145   18.357701
  H     19.919773   17.251739   19.980711
  H     19.314886   15.897090   17.992719
  H     18.848966   13.870727   19.052112
  H     17.451991   12.459746   20.547356
  H     15.498148   13.466676   21.729948
  H     14.364908   15.304525   22.110898
  H     16.354492   17.281166   19.944628

 Total Charge           Charge          ....    0
 Multiplicity           Mult            ....    1
 Number of Electrons    NEL             ....  154
 Basis Dimension        Dim             ....  828

ORBITAL ENERGIES
----------------

  NO   OCC          E(Eh)            E(eV)
   0   2.0000     -91.890030     -2500.4548
   1   2.0000     -20.599690      -560.5461
   2   2.0000     -20.587913      -560.2256
   3   2.0000     -20.543160      -559.0078
   4   2.0000     -15.630344      -425.3233
   5   2.0000     -15.609113      -424.7455
   6   2.0000     -11.394121      -310.0498
   7   2.0000     -11.384898      -309.7988
   8   2.0000     -11.336856      -308.4915
   9   2.0000     -11.317196      -307.9566
  10   2.0000     -11.310290      -307.7686
  11   2.0000     -11.299329      -307.4704
  12   2.0000     -11.262580      -306.4704
  13   2.0000     -11.259050      -306.3743
  14   2.0000     -11.259043      -306.3741
  15   2.0000     -11.252700      -306.2015
  16   2.0000     -11.246704      -306.0384
  17   2.0000     -11.241533      -305.8977
  18   2.0000     -11.241408      -305.8943
  19   2.0000     -11.222253      -305.3730
  20   2.0000      -8.895074      -242.0473
  21   2.0000      -6.576643      -178.9596
  22   2.0000      -6.574644      -178.9052
  23   2.0000      -6.574053      -178.8891
  24   2.0000      -1.444583       -39.3091
  25   2.0000      -1.419415       -38.6243
  26   2.0000      -1.351055       -36.7641
  27   2.0000      -1.341281       -36.4981
  28   2.0000      -1.239682       -33.7334
  29   2.0000      -1.160623       -31.5821
  30   2.0000      -1.121108       -30.5069
  31   2.0000      -1.044775       -28.4298
  32   2.0000      -1.032055       -28.0837
  33   2.0000      -1.018730       -27.7211
  34   2.0000      -0.997113       -27.1328
  35   2.0000      -0.985689       -26.8219
  36   2.0000      -0.924218       -25.1492
  37   2.0000      -0.896880       -24.4053
  38   2.0000      -0.848207       -23.0809
  39   2.0000      -0.841311       -22.8932
  40   2.0000      -0.837418       -22.7873
  41   2.0000      -0.817284       -22.2394
  42   2.0000      -0.745696       -20.2914
  43   2.0000      -0.733962       -19.9721
  44   2.0000      -0.722007       -19.6468
  45   2.0000      -0.698825       -19.0160
  46   2.0000      -0.690654       -18.7936
  47   2.0000      -0.674030       -18.3413
  48   2.0000      -0.670579       -18.2474
  49   2.0000      -0.661390       -17.9973
  50   2.0000      -0.651556       -17.7298
  51   2.0000      -0.642522       -17.4839
  52   2.0000      -0.635530       -17.2937
  53   2.0000      -0.622722       -16.9451
  54   2.0000      -0.610040       -16.6000
  55   2.0000      -0.602807       -16.4032
  56   2.0000      -0.600300       -16.3350
  57   2.0000      -0.580186       -15.7877
  58   2.0000      -0.571381       -15.5481
  59   2.0000      -0.566213       -15.4074
  60   2.0000      -0.549677       -14.9575
  61   2.0000      -0.544173       -14.8077
  62   2.0000      -0.534341       -14.5401
  63   2.0000      -0.527448       -14.3526
  64   2.0000      -0.525620       -14.3028
  65   2.0000      -0.514855       -14.0099
  66   2.0000      -0.502979       -13.6868
  67   2.0000      -0.499045       -13.5797
  68   2.0000      -0.483399       -13.1540
  69   2.0000      -0.464117       -12.6293
  70   2.0000      -0.454401       -12.3649
  71   2.0000      -0.442882       -12.0514
  72   2.0000      -0.355582        -9.6759
  73   2.0000      -0.352263        -9.5856
  74   2.0000      -0.329584        -8.9684
  75   2.0000      -0.325211        -8.8494
  76   2.0000      -0.317148        -8.6300
  77   0.0000       0.071927         1.9572
  78   0.0000       0.102821         2.7979
  79   0.0000       0.123330         3.3560
  80   0.0000       0.130278         3.5451
  81   0.0000       0.135694         3.6924

MULLIKEN ATOMIC CHARGES
-----------------------
   0 C :   -0.330293
   1 C :    0.034299
   2 O :   -0.389569
   3 C :    0.498659
   4 O :   -0.426123
   5 C :   -0.246842
   6 C :    0.153501
   7 C :   -0.271980
   8 N :   -0.122664
   9 C :    0.208414
  10 S :   -0.437353
  11 N :   -0.201514
  12 C :    0.053062
  13 C :    0.045168
  14 C :   -0.186583
  15 C :   -0.130335
  16 C :   -0.272550
  17 C :    0.312971
  18 O :   -0.359288
  19 C :   -0.268617
  20 H :    0.109323
  21 H :    0.103178
  22 H :    0.126313
  23 H :    0.109699
  24 H :    0.120780
  25 H :    0.133257
  26 H :    0.095225
  27 H :    0.130908
  28 H :    0.198197
  29 H :    0.193513
  30 H :    0.152584
  31 H :    0.159115
  32 H :    0.163808
  33 H :    0.132673
  34 H :    0.241035
  35 H :    0.168028
Sum of atomic charges:    0.0000000

LOEWDIN ATOMIC CHARGES
----------------------
   0 C :    0.106093
   1 C :   -0.012580
   2 O :    0.288682
   3 C :   -0.417819
   4 O :    0.107006
   5 C :   -0.097005
   6 C :   -0.057866
   7 C :    0.131663
   8 N :    0.406768
   9 C :   -0.457213
  10 S :   -0.033705
  11 N :    0.396657
  12 C :   -0.052287
  13 C :   -0.039672
  14 C :    0.016926
  15 C :    0.039790
  16 C :   -0.001312
  17 C :   -0.190854
  18 O :    0.396488
  19 C :    0.031305
  20 H :   -0.029253
  21 H :   -0.024834
  22 H :   -0.026429
  23 H :   -0.027742
  24 H :   -0.028561
  25 H :   -0.003234
  26 H :   -0.023359
  27 H :   -0.005071
  28 H :   -0.057451
  29 H :   -0.064754
  30 H :   -0.008763
  31 H :   -0.028901
  32 H :   -0.020762
  33 H :   -0.034896
  34 H :   -0.153214
  35 H :   -0.023838

  Mayer bond orders larger than 0.100000
B(  0-C ,  1-C ) :   0.9557 B(  0-C , 20-H ) :   0.9693 B(  0-C , 21-H ) :   0.9775
B(  0-C , 22-H ) :   0.9732 B(  1-C ,  2-O ) :   0.8830 B(  1-C , 23-H ) :   0.9791
B(  1-C , 24-H ) :   0.9866 B(  2-O ,  3-C ) :   1.1220 B(  3-C ,  4-O ) :   1.9898
B(  3-C ,  5-C ) :   1.0626 B(  5-C ,  6-C ) :   1.6523 B(  5-C , 12-C ) :   0.9695
B(  6-C ,  7-C ) :   0.9670 B(  6-C ,  8-N ) :   1.1599 B(  7-C , 25-H ) :   0.9591
B(  7-C , 26-H ) :   0.9900 B(  7-C , 27-H ) :   0.9615 B(  8-N ,  9-C ) :   1.1806
B(  8-N , 28-H ) :   0.9479 B(  9-C , 10-S ) :   1.6118 B(  9-C , 11-N ) :   1.3035
B( 11-N , 12-C ) :   0.9847 B( 11-N , 29-H ) :   0.9528 B( 12-C , 13-C ) :   0.9367
B( 12-C , 30-H ) :   1.0019 B( 13-C , 14-C ) :   1.3539 B( 13-C , 19-C ) :   1.3790
B( 14-C , 15-C ) :   1.3812 B( 14-C , 31-H ) :   0.9702 B( 15-C , 16-C ) :   1.3670
B( 15-C , 32-H ) :   0.9698 B( 16-C , 17-C ) :   1.3302 B( 16-C , 33-H ) :   0.9838
B( 17-C , 18-O ) :   1.1107 B( 17-C , 19-C ) :   1.3704 B( 18-O , 34-H ) :   0.9795
B( 19-C , 35-H ) :   0.9591

MP2 TOTAL ENERGY:    -1274.339841409 Eh
FINAL SINGLE POINT ENERGY     -1274.339841408716

DIPOLE MOMENT
-------------
                                X             Y             Z
Electronic contribution:      9.95836       9.32202       6.01292
Nuclear contribution   :    -10.98730     -11.00822      -6.06119
                        -----------------------------------------
Total Dipole Moment    :     -1.02894      -1.68619      -0.04827
                        -----------------------------------------
Magnitude (a.u.)       :      1.97593
Magnitude (Debye)      :      5.02241

Rotational constants in cm-1:     0.012426     0.009125     0.006544
Rotational constants in MHz :   372.534231   273.547043   196.188001

                             ****ORCA TERMINATED NORMALLY****
TOTAL RUN TIME: 0 days 2 hours 11 minutes 51 seconds 607 msec
