                         Program Version 4.2.0 -  RELEASE  -
|  1> ! ri-mp2 cc-pvtz cc-pvtz/c TightSCF  NoKeepInts
|  2>
|  3> %scf
|  4>   MaxCore 4096
|  5> end
|  6> *xyz  0  1
|  7>     C       15.0502250   15.1379864   17.1633027
|  8>     C       15.7623063   14.8435827   15.8287640
|  9>     O       16.7824162   15.8290207   15.5760800
| 10>     C       17.8972277   15.8472786   16.3626235
| 11>     O       18.5471929   14.8291702   16.5281726
| 12>     C       17.9009433   16.9515677   17.3815100
| 13>     C       17.3049791   18.1579694   17.1970305
| 14>     C       16.5450879   18.6403050   15.9782109
| 15>     N       17.4479205   19.1577981   18.1646750
| 16>     C       18.3173015   19.1003840   19.2223156
| 17>     S       18.5486906   20.3895023   20.2320612
| 18>     N       18.9852091   17.9147976   19.3994712
| 19>     C       18.6904700   16.6688444   18.6659208
| 20>     C       17.9538864   15.6776292   19.5645601
| 21>     C       18.3796818   14.3386855   19.6428116
| 22>     C       17.7018999   13.4161517   20.4570978
| 23>     C       16.5869160   13.8344607   21.2026801
| 24>     C       16.1576720   15.1661985   21.1277427
| 25>     O       15.0751550   15.5711855   21.8383530
| 26>     C       16.8339184   16.0820825   20.3157593
| 27>     H       15.7135625   14.9314874   18.0102288
| 28>     H       14.1672126   14.4968395   17.2723982
| 29>     H       14.7222297   16.1827359   17.2177016
| 30>     H       16.1959298   13.8341038   15.8462081
| 31>     H       15.0250154   14.8792455   15.0165697
| 32>     H       15.5512979   18.1793264   15.9301055
| 33>     H       17.0804148   18.3817207   15.0559621
| 34>     H       16.4071823   19.7284099   15.9714400
| 35>     H       16.9685212   20.0363695   18.0486932
| 36>     H       19.6010376   17.8879188   20.2020461
| 37>     H       19.6517673   16.2189357   18.3779469
| 38>     H       19.2319774   14.0076624   19.0537461
| 39>     H       18.0393651   12.3821974   20.5026572
| 40>     H       16.0592412   13.1246177   21.8309641
| 41>     H       14.7818429   14.8190595   22.3742977
| 42>     H       16.4813027   17.1067693   20.2738921
| 43> *
| 44>
| 45>                          ****END OF INPUT****

CARTESIAN COORDINATES (ANGSTROEM)
---------------------------------
  C     15.050225   15.137986   17.163303
  C     15.762306   14.843583   15.828764
  O     16.782416   15.829021   15.576080
  C     17.897228   15.847279   16.362624
  O     18.547193   14.829170   16.528173
  C     17.900943   16.951568   17.381510
  C     17.304979   18.157969   17.197030
  C     16.545088   18.640305   15.978211
  N     17.447920   19.157798   18.164675
  C     18.317301   19.100384   19.222316
  S     18.548691   20.389502   20.232061
  N     18.985209   17.914798   19.399471
  C     18.690470   16.668844   18.665921
  C     17.953886   15.677629   19.564560
  C     18.379682   14.338686   19.642812
  C     17.701900   13.416152   20.457098
  C     16.586916   13.834461   21.202680
  C     16.157672   15.166199   21.127743
  O     15.075155   15.571186   21.838353
  C     16.833918   16.082082   20.315759
  H     15.713563   14.931487   18.010229
  H     14.167213   14.496839   17.272398
  H     14.722230   16.182736   17.217702
  H     16.195930   13.834104   15.846208
  H     15.025015   14.879245   15.016570
  H     15.551298   18.179326   15.930105
  H     17.080415   18.381721   15.055962
  H     16.407182   19.728410   15.971440
  H     16.968521   20.036369   18.048693
  H     19.601038   17.887919   20.202046
  H     19.651767   16.218936   18.377947
  H     19.231977   14.007662   19.053746
  H     18.039365   12.382197   20.502657
  H     16.059241   13.124618   21.830964
  H     14.781843   14.819059   22.374298
  H     16.481303   17.106769   20.273892

 Total Charge           Charge          ....    0
 Multiplicity           Mult            ....    1
 Number of Electrons    NEL             ....  154
 Basis Dimension        Dim             ....  828

ORBITAL ENERGIES
----------------

  NO   OCC          E(Eh)            E(eV)
   0   2.0000     -91.890116     -2500.4572
   1   2.0000     -20.594910      -560.4160
   2   2.0000     -20.585302      -560.1545
   3   2.0000     -20.552979      -559.2750
   4   2.0000     -15.630408      -425.3250
   5   2.0000     -15.608599      -424.7316
   6   2.0000     -11.395352      -310.0833
   7   2.0000     -11.385006      -309.8018
   8   2.0000     -11.336847      -308.4913
   9   2.0000     -11.311186      -307.7930
  10   2.0000     -11.308584      -307.7222
  11   2.0000     -11.301012      -307.5162
  12   2.0000     -11.261711      -306.4467
  13   2.0000     -11.260824      -306.4226
  14   2.0000     -11.257263      -306.3257
  15   2.0000     -11.251608      -306.1718
  16   2.0000     -11.241220      -305.8891
  17   2.0000     -11.236738      -305.7672
  18   2.0000     -11.233731      -305.6854
  19   2.0000     -11.226659      -305.4929
  20   2.0000      -8.895164      -242.0497
  21   2.0000      -6.576737      -178.9621
  22   2.0000      -6.574733      -178.9076
  23   2.0000      -6.574143      -178.8915
  24   2.0000      -1.451200       -39.4892
  25   2.0000      -1.414735       -38.4969
  26   2.0000      -1.355356       -36.8811
  27   2.0000      -1.341296       -36.4985
  28   2.0000      -1.238823       -33.7101
  29   2.0000      -1.155474       -31.4421
  30   2.0000      -1.121231       -30.5103
  31   2.0000      -1.043822       -28.4038
  32   2.0000      -1.032462       -28.0947
  33   2.0000      -1.013253       -27.5720
  34   2.0000      -1.000275       -27.2189
  35   2.0000      -0.986573       -26.8460
  36   2.0000      -0.924027       -25.1440
  37   2.0000      -0.893082       -24.3020
  38   2.0000      -0.849171       -23.1071
  39   2.0000      -0.838747       -22.8235
  40   2.0000      -0.831493       -22.6261
  41   2.0000      -0.817209       -22.2374
  42   2.0000      -0.752038       -20.4640
  43   2.0000      -0.734811       -19.9952
  44   2.0000      -0.727710       -19.8020
  45   2.0000      -0.693727       -18.8773
  46   2.0000      -0.686952       -18.6929
  47   2.0000      -0.676836       -18.4176
  48   2.0000      -0.673342       -18.3226
  49   2.0000      -0.660563       -17.9748
  50   2.0000      -0.653752       -17.7895
  51   2.0000      -0.646127       -17.5820
  52   2.0000      -0.637387       -17.3442
  53   2.0000      -0.610369       -16.6090
  54   2.0000      -0.602611       -16.3979
  55   2.0000      -0.600755       -16.3474
  56   2.0000      -0.598563       -16.2877
  57   2.0000      -0.582464       -15.8496
  58   2.0000      -0.575099       -15.6492
  59   2.0000      -0.562226       -15.2989
  60   2.0000      -0.558671       -15.2022
  61   2.0000      -0.550260       -14.9733
  62   2.0000      -0.544308       -14.8114
  63   2.0000      -0.526175       -14.3180
  64   2.0000      -0.520331       -14.1589
  65   2.0000      -0.512610       -13.9488
  66   2.0000      -0.499435       -13.5903
  67   2.0000      -0.492933       -13.4134
  68   2.0000      -0.480863       -13.0849
  69   2.0000      -0.463807       -12.6208
  70   2.0000      -0.458293       -12.4708
  71   2.0000      -0.450061       -12.2468
  72   2.0000      -0.356173        -9.6920
  73   2.0000      -0.346745        -9.4354
  74   2.0000      -0.329211        -8.9583
  75   2.0000      -0.319394        -8.6911
  76   2.0000      -0.316869        -8.6224
  77   0.0000       0.069309         1.8860
  78   0.0000       0.107779         2.9328
  79   0.0000       0.119790         3.2596
  80   0.0000       0.133205         3.6247
  81   0.0000       0.136730         3.7206

MULLIKEN ATOMIC CHARGES
-----------------------
   0 C :   -0.326817
   1 C :    0.039072
   2 O :   -0.378503
   3 C :    0.466394
   4 O :   -0.405638
   5 C :   -0.192929
   6 C :    0.141290
   7 C :   -0.283616
   8 N :   -0.123344
   9 C :    0.190240
  10 S :   -0.435386
  11 N :   -0.199030
  12 C :    0.048098
  13 C :    0.025942
  14 C :   -0.165916
  15 C :   -0.140730
  16 C :   -0.274706
  17 C :    0.311096
  18 O :   -0.359551
  19 C :   -0.261183
  20 H :    0.124215
  21 H :    0.114520
  22 H :    0.096187
  23 H :    0.112305
  24 H :    0.109321
  25 H :    0.120899
  26 H :    0.129436
  27 H :    0.105361
  28 H :    0.197409
  29 H :    0.193645
  30 H :    0.157574
  31 H :    0.162818
  32 H :    0.161174
  33 H :    0.130837
  34 H :    0.240550
  35 H :    0.168965
Sum of atomic charges:   -0.0000000

LOEWDIN ATOMIC CHARGES
----------------------
   0 C :    0.105502
   1 C :   -0.018369
   2 O :    0.287355
   3 C :   -0.416085
   4 O :    0.122382
   5 C :   -0.093332
   6 C :   -0.068307
   7 C :    0.125943
   8 N :    0.405710
   9 C :   -0.459909
  10 S :   -0.033910
  11 N :    0.397418
  12 C :   -0.045246
  13 C :   -0.042130
  14 C :    0.020115
  15 C :    0.040972
  16 C :   -0.002339
  17 C :   -0.194233
  18 O :    0.394491
  19 C :    0.029261
  20 H :   -0.024879
  21 H :   -0.024042
  22 H :   -0.031408
  23 H :   -0.026097
  24 H :   -0.024046
  25 H :   -0.013245
  26 H :   -0.006614
  27 H :   -0.019843
  28 H :   -0.058732
  29 H :   -0.063942
  30 H :   -0.003306
  31 H :   -0.023972
  32 H :   -0.020192
  33 H :   -0.035641
  34 H :   -0.154263
  35 H :   -0.025066

  Mayer bond orders larger than 0.100000
B(  0-C ,  1-C ) :   0.9605 B(  0-C , 20-H ) :   0.9657 B(  0-C , 21-H ) :   0.9789
B(  0-C , 22-H ) :   0.9749 B(  1-C ,  2-O ) :   0.8921 B(  1-C , 23-H ) :   0.9810
B(  1-C , 24-H ) :   0.9841 B(  2-O ,  3-C ) :   1.0935 B(  3-C ,  4-O ) :   2.0122
B(  3-C ,  5-C ) :   1.0371 B(  5-C ,  6-C ) :   1.6609 B(  5-C , 12-C ) :   0.9596
B(  6-C ,  7-C ) :   0.9550 B(  6-C ,  8-N ) :   1.1372 B(  7-C , 25-H ) :   0.9638
B(  7-C , 26-H ) :   0.9670 B(  7-C , 27-H ) :   0.9898 B(  8-N ,  9-C ) :   1.1790
B(  8-N , 28-H ) :   0.9492 B(  9-C , 10-S ) :   1.6163 B(  9-C , 11-N ) :   1.2998
B( 11-N , 12-C ) :   0.9860 B( 11-N , 29-H ) :   0.9523 B( 12-C , 13-C ) :   0.9463
B( 12-C , 30-H ) :   0.9987 B( 13-C , 14-C ) :   1.3864 B( 13-C , 19-C ) :   1.3601
B( 14-C , 15-C ) :   1.3954 B( 14-C , 31-H ) :   0.9605 B( 15-C , 16-C ) :   1.3626
B( 15-C , 32-H ) :   0.9712 B( 16-C , 17-C ) :   1.3305 B( 16-C , 33-H ) :   0.9849
B( 17-C , 18-O ) :   1.1108 B( 17-C , 19-C ) :   1.3759 B( 18-O , 34-H ) :   0.9801
B( 19-C , 35-H ) :   0.9586

MP2 TOTAL ENERGY:    -1274.330135672 Eh
FINAL SINGLE POINT ENERGY     -1274.330135671629

DIPOLE MOMENT
-------------
                                X             Y             Z
Electronic contribution:     10.01482       8.07137       6.45003
Nuclear contribution   :    -11.36499      -9.30166      -7.18212
                        -----------------------------------------
Total Dipole Moment    :     -1.35017      -1.23029      -0.73209
                        -----------------------------------------
Magnitude (a.u.)       :      1.96787
Magnitude (Debye)      :      5.00194

Rotational constants in cm-1:     0.011397     0.009833     0.006751
Rotational constants in MHz :   341.662168   294.795661   202.383199

                             ****ORCA TERMINATED NORMALLY****
TOTAL RUN TIME: 0 days 1 hours 53 minutes 44 seconds 136 msec
