                         Program Version 4.2.0 -  RELEASE  -
|  1> ! ri-mp2 cc-pvtz cc-pvtz/c TightSCF  NoKeepInts
|  2>
|  3> %scf
|  4>   MaxCore 4096
|  5> end
|  6> *xyz  0  1
|  7>     C       15.1060868   13.4367214   16.7436385
|  8>     C       15.4253041   14.7605620   16.0298192
|  9>     O       16.4012378   15.4595586   16.8230984
| 10>     C       16.8490128   16.6742898   16.3925675
| 11>     O       16.4617447   17.1714810   15.3470057
| 12>     C       17.5943029   17.4273181   17.4574588
| 13>     C       17.5299917   18.7807496   17.5491251
| 14>     C       16.6731498   19.7178390   16.7251457
| 15>     N       18.2890922   19.4583026   18.5054885
| 16>     C       19.2222093   18.8780520   19.3198865
| 17>     S       20.1126824   19.7661458   20.3951639
| 18>     N       19.3650767   17.5182101   19.2147222
| 19>     C       18.5093424   16.6270982   18.4055008
| 20>     C       17.7978715   15.6468628   19.3336254
| 21>     C       18.2701224   14.3241585   19.4467424
| 22>     C       17.6563052   13.4157483   20.3233408
| 23>     C       16.5637888   13.8336917   21.1011899
| 24>     C       16.0886132   15.1470317   20.9896420
| 25>     O       15.0311192   15.5434505   21.7410604
| 26>     C       16.7013750   16.0518244   20.1149821
| 27>     H       14.6117882   13.6349090   17.7038762
| 28>     H       16.0223832   12.8669694   16.9372146
| 29>     H       14.4311475   12.8201948   16.1371671
| 30>     H       15.8406855   14.5455187   15.0352313
| 31>     H       14.5132940   15.3597229   15.9025143
| 32>     H       15.6720116   19.2975711   16.5693245
| 33>     H       17.1182893   19.8844336   15.7358658
| 34>     H       16.5374384   20.6946743   17.2050152
| 35>     H       18.1821362   20.4546188   18.6100894
| 36>     H       20.0284289   17.1165397   19.8649675
| 37>     H       19.1789746   16.0387746   17.7632014
| 38>     H       19.1207574   13.9987382   18.8539984
| 39>     H       18.0280457   12.3953580   20.4012299
| 40>     H       16.0918822   13.1384031   21.7874674
| 41>     H       14.7936212   14.7986762   22.3142435
| 42>     H       16.3276869   17.0678014   20.0533894
| 43> *
| 44>
| 45>                          ****END OF INPUT****

CARTESIAN COORDINATES (ANGSTROEM)
---------------------------------
  C     15.106087   13.436721   16.743638
  C     15.425304   14.760562   16.029819
  O     16.401238   15.459559   16.823098
  C     16.849013   16.674290   16.392567
  O     16.461745   17.171481   15.347006
  C     17.594303   17.427318   17.457459
  C     17.529992   18.780750   17.549125
  C     16.673150   19.717839   16.725146
  N     18.289092   19.458303   18.505488
  C     19.222209   18.878052   19.319886
  S     20.112682   19.766146   20.395164
  N     19.365077   17.518210   19.214722
  C     18.509342   16.627098   18.405501
  C     17.797871   15.646863   19.333625
  C     18.270122   14.324158   19.446742
  C     17.656305   13.415748   20.323341
  C     16.563789   13.833692   21.101190
  C     16.088613   15.147032   20.989642
  O     15.031119   15.543451   21.741060
  C     16.701375   16.051824   20.114982
  H     14.611788   13.634909   17.703876
  H     16.022383   12.866969   16.937215
  H     14.431147   12.820195   16.137167
  H     15.840685   14.545519   15.035231
  H     14.513294   15.359723   15.902514
  H     15.672012   19.297571   16.569325
  H     17.118289   19.884434   15.735866
  H     16.537438   20.694674   17.205015
  H     18.182136   20.454619   18.610089
  H     20.028429   17.116540   19.864967
  H     19.178975   16.038775   17.763201
  H     19.120757   13.998738   18.853998
  H     18.028046   12.395358   20.401230
  H     16.091882   13.138403   21.787467
  H     14.793621   14.798676   22.314243
  H     16.327687   17.067801   20.053389

 Total Charge           Charge          ....    0
 Multiplicity           Mult            ....    1
 Number of Electrons    NEL             ....  154
 Basis Dimension        Dim             ....  828

ORBITAL ENERGIES
----------------

  NO   OCC          E(Eh)            E(eV)
   0   2.0000     -91.887688     -2500.3911
   1   2.0000     -20.602233      -560.6153
   2   2.0000     -20.596371      -560.4557
   3   2.0000     -20.545977      -559.0845
   4   2.0000     -15.626513      -425.2190
   5   2.0000     -15.608023      -424.7159
   6   2.0000     -11.394807      -310.0685
   7   2.0000     -11.382917      -309.7449
   8   2.0000     -11.333412      -308.3978
   9   2.0000     -11.313216      -307.8483
  10   2.0000     -11.312312      -307.8237
  11   2.0000     -11.295582      -307.3684
  12   2.0000     -11.260720      -306.4198
  13   2.0000     -11.260334      -306.4093
  14   2.0000     -11.254727      -306.2567
  15   2.0000     -11.252530      -306.1969
  16   2.0000     -11.241950      -305.9090
  17   2.0000     -11.237554      -305.7894
  18   2.0000     -11.236764      -305.7679
  19   2.0000     -11.228205      -305.5350
  20   2.0000      -8.892748      -241.9840
  21   2.0000      -6.574326      -178.8965
  22   2.0000      -6.572316      -178.8418
  23   2.0000      -6.571736      -178.8260
  24   2.0000      -1.453766       -39.5590
  25   2.0000      -1.416317       -38.5400
  26   2.0000      -1.355422       -36.8829
  27   2.0000      -1.339020       -36.4366
  28   2.0000      -1.237882       -33.6845
  29   2.0000      -1.156349       -31.4659
  30   2.0000      -1.119889       -30.4737
  31   2.0000      -1.042533       -28.3688
  32   2.0000      -1.039378       -28.2829
  33   2.0000      -1.014257       -27.5993
  34   2.0000      -0.996627       -27.1196
  35   2.0000      -0.983091       -26.7513
  36   2.0000      -0.922796       -25.1106
  37   2.0000      -0.886954       -24.1352
  38   2.0000      -0.846222       -23.0269
  39   2.0000      -0.837093       -22.7785
  40   2.0000      -0.833032       -22.6680
  41   2.0000      -0.815870       -22.2009
  42   2.0000      -0.764660       -20.8075
  43   2.0000      -0.730720       -19.8839
  44   2.0000      -0.722169       -19.6512
  45   2.0000      -0.695550       -18.9269
  46   2.0000      -0.687241       -18.7008
  47   2.0000      -0.679029       -18.4773
  48   2.0000      -0.676755       -18.4155
  49   2.0000      -0.666243       -18.1294
  50   2.0000      -0.647876       -17.6296
  51   2.0000      -0.645053       -17.5528
  52   2.0000      -0.635217       -17.2851
  53   2.0000      -0.606948       -16.5159
  54   2.0000      -0.600378       -16.3371
  55   2.0000      -0.598974       -16.2989
  56   2.0000      -0.586305       -15.9542
  57   2.0000      -0.577198       -15.7064
  58   2.0000      -0.572721       -15.5845
  59   2.0000      -0.569149       -15.4873
  60   2.0000      -0.561186       -15.2706
  61   2.0000      -0.551898       -15.0179
  62   2.0000      -0.538283       -14.6474
  63   2.0000      -0.525445       -14.2981
  64   2.0000      -0.513964       -13.9857
  65   2.0000      -0.512789       -13.9537
  66   2.0000      -0.507908       -13.8209
  67   2.0000      -0.499191       -13.5837
  68   2.0000      -0.480265       -13.0687
  69   2.0000      -0.462893       -12.5959
  70   2.0000      -0.459005       -12.4902
  71   2.0000      -0.452012       -12.2999
  72   2.0000      -0.353555        -9.6207
  73   2.0000      -0.346989        -9.4421
  74   2.0000      -0.327223        -8.9042
  75   2.0000      -0.321079        -8.7370
  76   2.0000      -0.315773        -8.5926
  77   0.0000       0.080693         2.1958
  78   0.0000       0.107686         2.9303
  79   0.0000       0.121648         3.3102
  80   0.0000       0.131646         3.5823
  81   0.0000       0.136957         3.7268

MULLIKEN ATOMIC CHARGES
-----------------------
   0 C :   -0.263243
   1 C :    0.049568
   2 O :   -0.327303
   3 C :    0.407409
   4 O :   -0.425603
   5 C :   -0.205319
   6 C :    0.161001
   7 C :   -0.267073
   8 N :   -0.123922
   9 C :    0.218770
  10 S :   -0.443651
  11 N :   -0.210069
  12 C :    0.050436
  13 C :    0.096212
  14 C :   -0.201169
  15 C :   -0.127647
  16 C :   -0.281138
  17 C :    0.314475
  18 O :   -0.358597
  19 C :   -0.253829
  20 H :    0.099296
  21 H :    0.095430
  22 H :    0.095528
  23 H :    0.090878
  24 H :    0.089391
  25 H :    0.123785
  26 H :    0.133954
  27 H :    0.093613
  28 H :    0.196331
  29 H :    0.197115
  30 H :    0.142413
  31 H :    0.144123
  32 H :    0.160304
  33 H :    0.129056
  34 H :    0.241226
  35 H :    0.158247
Sum of atomic charges:   -0.0000000

LOEWDIN ATOMIC CHARGES
----------------------
   0 C :    0.108928
   1 C :   -0.016741
   2 O :    0.312173
   3 C :   -0.417044
   4 O :    0.101090
   5 C :   -0.088849
   6 C :   -0.067058
   7 C :    0.130225
   8 N :    0.406115
   9 C :   -0.454925
  10 S :   -0.038228
  11 N :    0.395234
  12 C :   -0.049508
  13 C :   -0.034079
  14 C :    0.009114
  15 C :    0.041173
  16 C :   -0.002774
  17 C :   -0.189279
  18 O :    0.394198
  19 C :    0.033890
  20 H :   -0.025443
  21 H :   -0.027088
  22 H :   -0.025162
  23 H :   -0.029770
  24 H :   -0.028928
  25 H :   -0.007025
  26 H :   -0.004748
  27 H :   -0.022241
  28 H :   -0.057513
  29 H :   -0.064998
  30 H :   -0.012326
  31 H :   -0.032512
  32 H :   -0.020849
  33 H :   -0.035814
  34 H :   -0.153465
  35 H :   -0.025769

  Mayer bond orders larger than 0.100000
B(  0-C ,  1-C ) :   0.9718 B(  0-C , 20-H ) :   0.9769 B(  0-C , 21-H ) :   0.9756
B(  0-C , 22-H ) :   0.9789 B(  1-C ,  2-O ) :   0.9104 B(  1-C , 23-H ) :   0.9807
B(  1-C , 24-H ) :   0.9763 B(  2-O ,  3-C ) :   1.1926 B(  3-C ,  4-O ) :   1.9815
B(  3-C ,  5-C ) :   1.0331 B(  5-C ,  6-C ) :   1.6715 B(  5-C , 12-C ) :   0.9712
B(  6-C ,  7-C ) :   0.9634 B(  6-C ,  8-N ) :   1.1583 B(  7-C , 25-H ) :   0.9676
B(  7-C , 26-H ) :   0.9591 B(  7-C , 27-H ) :   0.9873 B(  8-N ,  9-C ) :   1.1889
B(  8-N , 28-H ) :   0.9489 B(  9-C , 10-S ) :   1.5998 B(  9-C , 11-N ) :   1.3054
B( 11-N , 12-C ) :   0.9771 B( 11-N , 29-H ) :   0.9499 B( 12-C , 13-C ) :   0.9510
B( 12-C , 30-H ) :   1.0083 B( 13-C , 14-C ) :   1.3451 B( 13-C , 19-C ) :   1.3743
B( 14-C , 15-C ) :   1.3958 B( 14-C , 31-H ) :   0.9746 B( 15-C , 16-C ) :   1.3659
B( 15-C , 32-H ) :   0.9703 B( 16-C , 17-C ) :   1.3254 B( 16-C , 33-H ) :   0.9862
B( 17-C , 18-O ) :   1.1045 B( 17-C , 19-C ) :   1.3761 B( 18-O , 34-H ) :   0.9795
B( 19-C , 35-H ) :   0.9607

MP2 TOTAL ENERGY:    -1274.344684780 Eh
FINAL SINGLE POINT ENERGY     -1274.344684780000

DIPOLE MOMENT
-------------
                                X             Y             Z
Electronic contribution:     10.22211      10.45524       7.13175
Nuclear contribution   :    -11.42948     -12.13701      -7.52976
                        -----------------------------------------
Total Dipole Moment    :     -1.20737      -1.68177      -0.39802
                        -----------------------------------------
Magnitude (a.u.)       :      2.10820
Magnitude (Debye)      :      5.35862

Rotational constants in cm-1:     0.012164     0.008561     0.005990
Rotational constants in MHz :   364.675380   256.650268   179.562648

                             ****ORCA TERMINATED NORMALLY****
TOTAL RUN TIME: 0 days 1 hours 37 minutes 8 seconds 75 msec
