                         Program Version 4.2.0 -  RELEASE  -
|  1> ! ri-mp2 cc-pvtz cc-pvtz/c TightSCF  NoKeepInts
|  2>
|  3> %scf
|  4>   MaxCore 4096
|  5> end
|  6> *xyz  0  1
|  7>     C       15.2907133   13.9171366   16.8281469
|  8>     C       15.2752190   15.4434589   16.6124949
|  9>     O       16.4371991   15.8610409   15.8671490
| 10>     C       17.6582133   15.7915940   16.4710306
| 11>     O       18.2583486   14.7360938   16.5751578
| 12>     C       17.9447216   16.9641703   17.3585611
| 13>     C       17.5328408   18.2304276   17.1006608
| 14>     C       16.7773647   18.7216635   15.8836358
| 15>     N       17.8677524   19.2626091   17.9820306
| 16>     C       18.6975344   19.1290753   19.0644562
| 17>     S       19.1154860   20.4235946   20.0048249
| 18>     N       19.1610627   17.8648690   19.3308509
| 19>     C       18.7348997   16.6395238   18.6281900
| 20>     C       17.9082890   15.7475250   19.5503380
| 21>     C       18.2624374   14.3999449   19.7451206
| 22>     C       17.4866992   13.5672898   20.5688585
| 23>     C       16.3446006   14.0851617   21.2028524
| 24>     C       15.9862799   15.4258238   21.0084673
| 25>     O       14.8770557   15.9262974   21.6082948
| 26>     C       16.7605104   16.2523913   20.1883850
| 27>     H       16.0745393   13.6265202   17.5391041
| 28>     H       15.4699729   13.3925818   15.8812826
| 29>     H       14.3301818   13.5775039   17.2334644
| 30>     H       14.3751028   15.7096172   16.0437242
| 31>     H       15.2279192   15.9585015   17.5815293
| 32>     H       17.1452381   18.2369320   14.9703244
| 33>     H       16.8851020   19.8029937   15.7339240
| 34>     H       15.7069651   18.5003409   15.9733513
| 35>     H       17.5408314   20.1987995   17.8026470
| 36>     H       19.7482135   17.7904831   20.1518301
| 37>     H       19.6398285   16.0898146   18.3306353
| 38>     H       19.1321184   13.9906879   19.2363378
| 39>     H       17.7681297   12.5245351   20.7053439
| 40>     H       15.7407173   13.4441021   21.8365339
| 41>     H       14.5186079   15.2313056   22.1810042
| 42>     H       16.4663044   17.2875895   20.0534572
| 43> *
| 44>
| 45>                          ****END OF INPUT****

CARTESIAN COORDINATES (ANGSTROEM)
---------------------------------
  C     15.290713   13.917137   16.828147
  C     15.275219   15.443459   16.612495
  O     16.437199   15.861041   15.867149
  C     17.658213   15.791594   16.471031
  O     18.258349   14.736094   16.575158
  C     17.944722   16.964170   17.358561
  C     17.532841   18.230428   17.100661
  C     16.777365   18.721663   15.883636
  N     17.867752   19.262609   17.982031
  C     18.697534   19.129075   19.064456
  S     19.115486   20.423595   20.004825
  N     19.161063   17.864869   19.330851
  C     18.734900   16.639524   18.628190
  C     17.908289   15.747525   19.550338
  C     18.262437   14.399945   19.745121
  C     17.486699   13.567290   20.568858
  C     16.344601   14.085162   21.202852
  C     15.986280   15.425824   21.008467
  O     14.877056   15.926297   21.608295
  C     16.760510   16.252391   20.188385
  H     16.074539   13.626520   17.539104
  H     15.469973   13.392582   15.881283
  H     14.330182   13.577504   17.233464
  H     14.375103   15.709617   16.043724
  H     15.227919   15.958502   17.581529
  H     17.145238   18.236932   14.970324
  H     16.885102   19.802994   15.733924
  H     15.706965   18.500341   15.973351
  H     17.540831   20.198799   17.802647
  H     19.748213   17.790483   20.151830
  H     19.639829   16.089815   18.330635
  H     19.132118   13.990688   19.236338
  H     17.768130   12.524535   20.705344
  H     15.740717   13.444102   21.836534
  H     14.518608   15.231306   22.181004
  H     16.466304   17.287589   20.053457

 Total Charge           Charge          ....    0
 Multiplicity           Mult            ....    1
 Number of Electrons    NEL             ....  154
 Basis Dimension        Dim             ....  828

ORBITAL ENERGIES
----------------

  NO   OCC          E(Eh)            E(eV)
   0   2.0000     -91.890222     -2500.4601
   1   2.0000     -20.598031      -560.5009
   2   2.0000     -20.583297      -560.1000
   3   2.0000     -20.555737      -559.3500
   4   2.0000     -15.630060      -425.3155
   5   2.0000     -15.609706      -424.7617
   6   2.0000     -11.394732      -310.0664
   7   2.0000     -11.385806      -309.8235
   8   2.0000     -11.335839      -308.4639
   9   2.0000     -11.314338      -307.8788
  10   2.0000     -11.309451      -307.7458
  11   2.0000     -11.302788      -307.5645
  12   2.0000     -11.261913      -306.4522
  13   2.0000     -11.259978      -306.3996
  14   2.0000     -11.259698      -306.3920
  15   2.0000     -11.254114      -306.2400
  16   2.0000     -11.243826      -305.9601
  17   2.0000     -11.239988      -305.8556
  18   2.0000     -11.236812      -305.7692
  19   2.0000     -11.219731      -305.3044
  20   2.0000      -8.895294      -242.0533
  21   2.0000      -6.576870      -178.9657
  22   2.0000      -6.574862      -178.9111
  23   2.0000      -6.574275      -178.8951
  24   2.0000      -1.449448       -39.4415
  25   2.0000      -1.417825       -38.5810
  26   2.0000      -1.358049       -36.9544
  27   2.0000      -1.341136       -36.4942
  28   2.0000      -1.239376       -33.7251
  29   2.0000      -1.158480       -31.5238
  30   2.0000      -1.122633       -30.5484
  31   2.0000      -1.045746       -28.4562
  32   2.0000      -1.029875       -28.0243
  33   2.0000      -1.015937       -27.6451
  34   2.0000      -1.001107       -27.2415
  35   2.0000      -0.986392       -26.8411
  36   2.0000      -0.925180       -25.1754
  37   2.0000      -0.885463       -24.0947
  38   2.0000      -0.851523       -23.1711
  39   2.0000      -0.840778       -22.8787
  40   2.0000      -0.834422       -22.7058
  41   2.0000      -0.828678       -22.5495
  42   2.0000      -0.747499       -20.3405
  43   2.0000      -0.730837       -19.8871
  44   2.0000      -0.730021       -19.8649
  45   2.0000      -0.696179       -18.9440
  46   2.0000      -0.686761       -18.6877
  47   2.0000      -0.680795       -18.5254
  48   2.0000      -0.674106       -18.3434
  49   2.0000      -0.667210       -18.1557
  50   2.0000      -0.649102       -17.6630
  51   2.0000      -0.648012       -17.6333
  52   2.0000      -0.638103       -17.3637
  53   2.0000      -0.607816       -16.5395
  54   2.0000      -0.606878       -16.5140
  55   2.0000      -0.602424       -16.3928
  56   2.0000      -0.599327       -16.3085
  57   2.0000      -0.579178       -15.7602
  58   2.0000      -0.574658       -15.6372
  59   2.0000      -0.570803       -15.5323
  60   2.0000      -0.559822       -15.2335
  61   2.0000      -0.551965       -15.0197
  62   2.0000      -0.536024       -14.5859
  63   2.0000      -0.524900       -14.2833
  64   2.0000      -0.519562       -14.1380
  65   2.0000      -0.512740       -13.9524
  66   2.0000      -0.501370       -13.6430
  67   2.0000      -0.493204       -13.4208
  68   2.0000      -0.482578       -13.1316
  69   2.0000      -0.467399       -12.7186
  70   2.0000      -0.456845       -12.4314
  71   2.0000      -0.449240       -12.2244
  72   2.0000      -0.356183        -9.6922
  73   2.0000      -0.349973        -9.5233
  74   2.0000      -0.329536        -8.9671
  75   2.0000      -0.321460        -8.7474
  76   2.0000      -0.317606        -8.6425
  77   0.0000       0.070595         1.9210
  78   0.0000       0.103157         2.8070
  79   0.0000       0.119208         3.2438
  80   0.0000       0.130213         3.5433
  81   0.0000       0.136301         3.7089

MULLIKEN ATOMIC CHARGES
-----------------------
   0 C :   -0.268829
   1 C :    0.012495
   2 O :   -0.376125
   3 C :    0.470074
   4 O :   -0.391116
   5 C :   -0.236953
   6 C :    0.158748
   7 C :   -0.284619
   8 N :   -0.124589
   9 C :    0.202538
  10 S :   -0.437889
  11 N :   -0.203324
  12 C :    0.061589
  13 C :    0.058847
  14 C :   -0.178997
  15 C :   -0.130624
  16 C :   -0.278186
  17 C :    0.322893
  18 O :   -0.359938
  19 C :   -0.310576
  20 H :    0.112934
  21 H :    0.104552
  22 H :    0.090208
  23 H :    0.114620
  24 H :    0.094183
  25 H :    0.130733
  26 H :    0.107816
  27 H :    0.121802
  28 H :    0.197286
  29 H :    0.194863
  30 H :    0.155624
  31 H :    0.159297
  32 H :    0.162957
  33 H :    0.131567
  34 H :    0.241508
  35 H :    0.174629
Sum of atomic charges:   -0.0000000

LOEWDIN ATOMIC CHARGES
----------------------
   0 C :    0.108750
   1 C :   -0.021240
   2 O :    0.285464
   3 C :   -0.417221
   4 O :    0.134481
   5 C :   -0.095907
   6 C :   -0.074127
   7 C :    0.126838
   8 N :    0.404450
   9 C :   -0.457521
  10 S :   -0.034853
  11 N :    0.397092
  12 C :   -0.046070
  13 C :   -0.042053
  14 C :    0.022040
  15 C :    0.042822
  16 C :   -0.001048
  17 C :   -0.194490
  18 O :    0.393602
  19 C :    0.027978
  20 H :   -0.026190
  21 H :   -0.023389
  22 H :   -0.028895
  23 H :   -0.024131
  24 H :   -0.036191
  25 H :   -0.006188
  26 H :   -0.018824
  27 H :   -0.010951
  28 H :   -0.058380
  29 H :   -0.063866
  30 H :   -0.004541
  31 H :   -0.024119
  32 H :   -0.019875
  33 H :   -0.035158
  34 H :   -0.153371
  35 H :   -0.024918

  Mayer bond orders larger than 0.100000
B(  0-C ,  1-C ) :   0.9852 B(  0-C , 20-H ) :   0.9679 B(  0-C , 21-H ) :   0.9758
B(  0-C , 22-H ) :   0.9754 B(  1-C ,  2-O ) :   0.8967 B(  1-C , 23-H ) :   0.9791
B(  1-C , 24-H ) :   0.9668 B(  2-O ,  3-C ) :   1.0929 B(  3-C ,  4-O ) :   2.0513
B(  3-C ,  5-C ) :   0.9991 B(  5-C ,  6-C ) :   1.6618 B(  5-C , 12-C ) :   0.9638
B(  6-C ,  7-C ) :   0.9523 B(  6-C ,  8-N ) :   1.1430 B(  7-C , 25-H ) :   0.9688
B(  7-C , 26-H ) :   0.9870 B(  7-C , 27-H ) :   0.9649 B(  8-N ,  9-C ) :   1.1833
B(  8-N , 28-H ) :   0.9492 B(  9-C , 10-S ) :   1.6127 B(  9-C , 11-N ) :   1.2997
B( 11-N , 12-C ) :   0.9943 B( 11-N , 29-H ) :   0.9516 B( 12-C , 13-C ) :   0.9427
B( 12-C , 30-H ) :   0.9986 B( 13-C , 14-C ) :   1.3767 B( 13-C , 19-C ) :   1.3517
B( 14-C , 15-C ) :   1.3923 B( 14-C , 31-H ) :   0.9634 B( 15-C , 16-C ) :   1.3632
B( 15-C , 32-H ) :   0.9705 B( 16-C , 17-C ) :   1.3321 B( 16-C , 33-H ) :   0.9845
B( 17-C , 18-O ) :   1.1098 B( 17-C , 19-C ) :   1.3635 B( 18-O , 34-H ) :   0.9796
B( 19-C , 35-H ) :   0.9580

MP2 TOTAL ENERGY:    -1274.329409522 Eh
FINAL SINGLE POINT ENERGY     -1274.329409521916

DIPOLE MOMENT
-------------
                                X             Y             Z
Electronic contribution:     10.26163       9.65236       6.11709
Nuclear contribution   :    -11.72719     -10.65518      -6.53179
                        -----------------------------------------
Total Dipole Moment    :     -1.46556      -1.00283      -0.41470
                        -----------------------------------------
Magnitude (a.u.)       :      1.82360
Magnitude (Debye)      :      4.63521

Rotational constants in cm-1:     0.012448     0.009154     0.006672
Rotational constants in MHz :   373.189952   274.438579   200.025878

                             ****ORCA TERMINATED NORMALLY****
TOTAL RUN TIME: 0 days 1 hours 48 minutes 26 seconds 249 msec
