                         Program Version 4.2.0 -  RELEASE  -
|  1> ! ri-mp2 cc-pvtz cc-pvtz/c TightSCF  NoKeepInts
|  2>
|  3> %scf
|  4>   MaxCore 4096
|  5> end
|  6> *xyz  0  1
|  7>     C       14.4886726   15.3723739   16.9899894
|  8>     C       15.8114304   14.7320205   16.5365685
|  9>     O       16.6111049   15.7667962   15.9371814
| 10>     C       17.8860522   15.9129923   16.3949646
| 11>     O       18.6283527   14.9484337   16.4727932
| 12>     C       17.9693175   17.0330295   17.3841822
| 13>     C       17.3512485   18.2265480   17.2095780
| 14>     C       16.5371009   18.6658270   16.0109665
| 15>     N       17.4933399   19.2303778   18.1718268
| 16>     C       18.3211574   19.1557645   19.2617146
| 17>     S       18.5053310   20.4273199   20.3030799
| 18>     N       18.9888816   17.9703730   19.4466421
| 19>     C       18.7805515   16.7462333   18.6494419
| 20>     C       18.0897406   15.6717140   19.4841963
| 21>     C       18.6717781   14.3998579   19.6351876
| 22>     C       18.0218607   13.3986205   20.3761674
| 23>     C       16.7768858   13.6693914   20.9691192
| 24>     C       16.1917928   14.9336284   20.8172052
| 25>     O       14.9832201   15.1946264   21.3757483
| 26>     C       16.8419579   15.9286086   20.0810782
| 27>     H       14.6737465   16.1531452   17.7382816
| 28>     H       13.8329017   14.6177600   17.4410710
| 29>     H       13.9625050   15.8211584   16.1384896
| 30>     H       16.3151886   14.2885937   17.4077652
| 31>     H       15.6203083   13.9349084   15.8065171
| 32>     H       15.5147483   18.2728360   16.0728718
| 33>     H       16.9796443   18.2973589   15.0770440
| 34>     H       16.4743711   19.7575997   15.9264785
| 35>     H       17.0121781   20.1078262   18.0537254
| 36>     H       19.5690050   17.9334874   20.2749869
| 37>     H       19.7670194   16.3706100   18.3411232
| 38>     H       19.6235390   14.1808302   19.1570995
| 39>     H       18.4802726   12.4167332   20.4806403
| 40>     H       16.2699028   12.8973169   21.5383821
| 41>     H       14.7298285   14.4168371   21.8955305
| 42>     H       16.3720636   16.9004618   19.9763620
| 43> *
| 44>
| 45>                          ****END OF INPUT****

CARTESIAN COORDINATES (ANGSTROEM)
---------------------------------
  C     14.488673   15.372374   16.989989
  C     15.811430   14.732021   16.536569
  O     16.611105   15.766796   15.937181
  C     17.886052   15.912992   16.394965
  O     18.628353   14.948434   16.472793
  C     17.969317   17.033030   17.384182
  C     17.351249   18.226548   17.209578
  C     16.537101   18.665827   16.010966
  N     17.493340   19.230378   18.171827
  C     18.321157   19.155765   19.261715
  S     18.505331   20.427320   20.303080
  N     18.988882   17.970373   19.446642
  C     18.780552   16.746233   18.649442
  C     18.089741   15.671714   19.484196
  C     18.671778   14.399858   19.635188
  C     18.021861   13.398620   20.376167
  C     16.776886   13.669391   20.969119
  C     16.191793   14.933628   20.817205
  O     14.983220   15.194626   21.375748
  C     16.841958   15.928609   20.081078
  H     14.673747   16.153145   17.738282
  H     13.832902   14.617760   17.441071
  H     13.962505   15.821158   16.138490
  H     16.315189   14.288594   17.407765
  H     15.620308   13.934908   15.806517
  H     15.514748   18.272836   16.072872
  H     16.979644   18.297359   15.077044
  H     16.474371   19.757600   15.926478
  H     17.012178   20.107826   18.053725
  H     19.569005   17.933487   20.274987
  H     19.767019   16.370610   18.341123
  H     19.623539   14.180830   19.157100
  H     18.480273   12.416733   20.480640
  H     16.269903   12.897317   21.538382
  H     14.729828   14.416837   21.895530
  H     16.372064   16.900462   19.976362

 Total Charge           Charge          ....    0
 Multiplicity           Mult            ....    1
 Number of Electrons    NEL             ....  154
 Basis Dimension        Dim             ....  828

ORBITAL ENERGIES
----------------

  NO   OCC          E(Eh)            E(eV)
   0   2.0000     -91.888995     -2500.4267
   1   2.0000     -20.598337      -560.5092
   2   2.0000     -20.583079      -560.0940
   3   2.0000     -20.555978      -559.3566
   4   2.0000     -15.628072      -425.2615
   5   2.0000     -15.609062      -424.7442
   6   2.0000     -11.393902      -310.0438
   7   2.0000     -11.384732      -309.7943
   8   2.0000     -11.331434      -308.3440
   9   2.0000     -11.314489      -307.8829
  10   2.0000     -11.310114      -307.7638
  11   2.0000     -11.297317      -307.4156
  12   2.0000     -11.260134      -306.4038
  13   2.0000     -11.259689      -306.3917
  14   2.0000     -11.259439      -306.3849
  15   2.0000     -11.254649      -306.2546
  16   2.0000     -11.244354      -305.9744
  17   2.0000     -11.239943      -305.8544
  18   2.0000     -11.237376      -305.7845
  19   2.0000     -11.229517      -305.5707
  20   2.0000      -8.894078      -242.0202
  21   2.0000      -6.575657      -178.9327
  22   2.0000      -6.573646      -178.8780
  23   2.0000      -6.573063      -178.8621
  24   2.0000      -1.452956       -39.5370
  25   2.0000      -1.418074       -38.5877
  26   2.0000      -1.356118       -36.9018
  27   2.0000      -1.339491       -36.4494
  28   2.0000      -1.238185       -33.6927
  29   2.0000      -1.158578       -31.5265
  30   2.0000      -1.122164       -30.5356
  31   2.0000      -1.046111       -28.4661
  32   2.0000      -1.034128       -28.1401
  33   2.0000      -1.015988       -27.6465
  34   2.0000      -1.000036       -27.2123
  35   2.0000      -0.985934       -26.8286
  36   2.0000      -0.924482       -25.1564
  37   2.0000      -0.883980       -24.0543
  38   2.0000      -0.848046       -23.0765
  39   2.0000      -0.839643       -22.8478
  40   2.0000      -0.834614       -22.7110
  41   2.0000      -0.823681       -22.4135
  42   2.0000      -0.757031       -20.5999
  43   2.0000      -0.736179       -20.0324
  44   2.0000      -0.729470       -19.8499
  45   2.0000      -0.696364       -18.9490
  46   2.0000      -0.686257       -18.6740
  47   2.0000      -0.680614       -18.5205
  48   2.0000      -0.676167       -18.3994
  49   2.0000      -0.658612       -17.9217
  50   2.0000      -0.654251       -17.8031
  51   2.0000      -0.644951       -17.5500
  52   2.0000      -0.637139       -17.3374
  53   2.0000      -0.607303       -16.5256
  54   2.0000      -0.604430       -16.4474
  55   2.0000      -0.602130       -16.3848
  56   2.0000      -0.597240       -16.2517
  57   2.0000      -0.578213       -15.7340
  58   2.0000      -0.575620       -15.6634
  59   2.0000      -0.570767       -15.5314
  60   2.0000      -0.561194       -15.2709
  61   2.0000      -0.550731       -14.9862
  62   2.0000      -0.544510       -14.8169
  63   2.0000      -0.523561       -14.2468
  64   2.0000      -0.514382       -13.9970
  65   2.0000      -0.508899       -13.8479
  66   2.0000      -0.505304       -13.7500
  67   2.0000      -0.499492       -13.5919
  68   2.0000      -0.483470       -13.1559
  69   2.0000      -0.465635       -12.6706
  70   2.0000      -0.456200       -12.4138
  71   2.0000      -0.453263       -12.3339
  72   2.0000      -0.354065        -9.6346
  73   2.0000      -0.350034        -9.5249
  74   2.0000      -0.328465        -8.9380
  75   2.0000      -0.321903        -8.7594
  76   2.0000      -0.315761        -8.5923
  77   0.0000       0.071043         1.9332
  78   0.0000       0.102245         2.7822
  79   0.0000       0.119054         3.2396
  80   0.0000       0.129332         3.5193
  81   0.0000       0.136025         3.7014

MULLIKEN ATOMIC CHARGES
-----------------------
   0 C :   -0.298115
   1 C :    0.040118
   2 O :   -0.376733
   3 C :    0.448074
   4 O :   -0.395210
   5 C :   -0.191124
   6 C :    0.131513
   7 C :   -0.282078
   8 N :   -0.125225
   9 C :    0.203530
  10 S :   -0.440176
  11 N :   -0.201922
  12 C :    0.058344
  13 C :    0.026485
  14 C :   -0.150698
  15 C :   -0.134330
  16 C :   -0.279278
  17 C :    0.317026
  18 O :   -0.361581
  19 C :   -0.287550
  20 H :    0.100111
  21 H :    0.109401
  22 H :    0.101683
  23 H :    0.104235
  24 H :    0.112475
  25 H :    0.126274
  26 H :    0.122786
  27 H :    0.106830
  28 H :    0.197219
  29 H :    0.194316
  30 H :    0.155573
  31 H :    0.156622
  32 H :    0.161751
  33 H :    0.132058
  34 H :    0.241638
  35 H :    0.175959
Sum of atomic charges:   -0.0000000

LOEWDIN ATOMIC CHARGES
----------------------
   0 C :    0.104284
   1 C :   -0.011987
   2 O :    0.290138
   3 C :   -0.419310
   4 O :    0.130200
   5 C :   -0.093861
   6 C :   -0.078543
   7 C :    0.126919
   8 N :    0.403823
   9 C :   -0.456796
  10 S :   -0.036700
  11 N :    0.396881
  12 C :   -0.045032
  13 C :   -0.042304
  14 C :    0.021442
  15 C :    0.042176
  16 C :   -0.001981
  17 C :   -0.194521
  18 O :    0.394058
  19 C :    0.029116
  20 H :   -0.029567
  21 H :   -0.022947
  22 H :   -0.029922
  23 H :   -0.024653
  24 H :   -0.028236
  25 H :   -0.010509
  26 H :   -0.008021
  27 H :   -0.019041
  28 H :   -0.058735
  29 H :   -0.064231
  30 H :   -0.004554
  31 H :   -0.024286
  32 H :   -0.019794
  33 H :   -0.035135
  34 H :   -0.153456
  35 H :   -0.024915

  Mayer bond orders larger than 0.100000
B(  0-C ,  1-C ) :   0.9693 B(  0-C , 20-H ) :   0.9743 B(  0-C , 21-H ) :   0.9784
B(  0-C , 22-H ) :   0.9770 B(  1-C ,  2-O ) :   0.8862 B(  1-C , 23-H ) :   0.9669
B(  1-C , 24-H ) :   0.9863 B(  2-O ,  3-C ) :   1.0919 B(  3-C ,  4-O ) :   2.0349
B(  3-C ,  5-C ) :   1.0163 B(  5-C ,  6-C ) :   1.6739 B(  5-C , 12-C ) :   0.9649
B(  6-C ,  7-C ) :   0.9531 B(  6-C ,  8-N ) :   1.1360 B(  7-C , 25-H ) :   0.9622
B(  7-C , 26-H ) :   0.9718 B(  7-C , 27-H ) :   0.9874 B(  8-N ,  9-C ) :   1.1866
B(  8-N , 28-H ) :   0.9500 B(  9-C , 10-S ) :   1.6107 B(  9-C , 11-N ) :   1.2979
B( 11-N , 12-C ) :   0.9940 B( 11-N , 29-H ) :   0.9517 B( 12-C , 13-C ) :   0.9437
B( 12-C , 30-H ) :   0.9978 B( 13-C , 14-C ) :   1.3799 B( 13-C , 19-C ) :   1.3651
B( 14-C , 15-C ) :   1.3936 B( 14-C , 31-H ) :   0.9641 B( 15-C , 16-C ) :   1.3641
B( 15-C , 32-H ) :   0.9710 B( 16-C , 17-C ) :   1.3304 B( 16-C , 33-H ) :   0.9844
B( 17-C , 18-O ) :   1.1051 B( 17-C , 19-C ) :   1.3715 B( 18-O , 34-H ) :   0.9799
B( 19-C , 35-H ) :   0.9555

MP2 TOTAL ENERGY:    -1274.323433470 Eh
FINAL SINGLE POINT ENERGY     -1274.323433470156

DIPOLE MOMENT
-------------
                                X             Y             Z
Electronic contribution:     10.81518       7.71181       6.14962
Nuclear contribution   :    -12.01213      -9.03759      -6.71916
                        -----------------------------------------
Total Dipole Moment    :     -1.19695      -1.32579      -0.56954
                        -----------------------------------------
Magnitude (a.u.)       :      1.87478
Magnitude (Debye)      :      4.76530

Rotational constants in cm-1:     0.012185     0.009226     0.007028
Rotational constants in MHz :   365.286509   276.594978   210.696445

                             ****ORCA TERMINATED NORMALLY****
TOTAL RUN TIME: 0 days 1 hours 55 minutes 14 seconds 519 msec
