                         Program Version 4.2.0 -  RELEASE  -
|  1> ! ri-mp2 cc-pvtz cc-pvtz/c TightSCF  NoKeepInts
|  2>
|  3> %scf
|  4>   MaxCore 4096
|  5> end
|  6> *xyz  0  1
|  7>     C       14.9427985   14.7591628   16.1405363
|  8>     C       16.2031152   14.3239694   16.9169107
|  9>     O       17.3923382   14.9296621   16.3562865
| 10>     C       17.4506496   16.2757911   16.1289477
| 11>     O       17.0736413   16.7310183   15.0641931
| 12>     C       17.7205252   17.1118625   17.3511053
| 13>     C       17.3633284   18.4199096   17.4214336
| 14>     C       16.5318571   19.1999147   16.4259733
| 15>     N       17.8194775   19.2123120   18.4796761
| 16>     C       18.8167128   18.8449701   19.3447344
| 17>     S       19.4605173   19.9020427   20.4416374
| 18>     N       19.2644329   17.5516538   19.2420252
| 19>     C       18.5900312   16.4968931   18.4628878
| 20>     C       17.8237924   15.5967533   19.4242451
| 21>     C       18.2378339   14.2672883   19.6324535
| 22>     C       17.5351339   13.4298613   20.5150262
| 23>     C       16.4135378   13.9267417   21.2005795
| 24>     C       16.0050612   15.2529696   21.0047331
| 25>     O       14.9224135   15.7357943   21.6641483
| 26>     C       16.7042117   16.0835457   20.1235932
| 27>     H       14.7257016   15.8231533   16.2963293
| 28>     H       14.0704015   14.1860624   16.4768592
| 29>     H       15.0716220   14.5849808   15.0645017
| 30>     H       16.0656542   14.5976707   17.9658598
| 31>     H       16.3019128   13.2319457   16.8692540
| 32>     H       15.6263259   18.6429727   16.1542628
| 33>     H       17.0995434   19.3699297   15.5019027
| 34>     H       16.2127116   20.1763395   16.8087866
| 35>     H       17.5161780   20.1706417   18.5505922
| 36>     H       19.9865602   17.3021657   19.9056366
| 37>     H       19.3689618   15.8935485   17.9752690
| 38>     H       19.1040648   13.8788034   19.1028233
| 39>     H       17.8619137   12.4024167   20.6678611
| 40>     H       15.8688204   13.2838351   21.8845192
| 41>     H       14.6199338   15.0467033   22.2750091
| 42>     H       16.3752847   17.1087145   19.9934069
| 43> *
| 44>
| 45>                          ****END OF INPUT****

CARTESIAN COORDINATES (ANGSTROEM)
---------------------------------
  C     14.942798   14.759163   16.140536
  C     16.203115   14.323969   16.916911
  O     17.392338   14.929662   16.356286
  C     17.450650   16.275791   16.128948
  O     17.073641   16.731018   15.064193
  C     17.720525   17.111863   17.351105
  C     17.363328   18.419910   17.421434
  C     16.531857   19.199915   16.425973
  N     17.819477   19.212312   18.479676
  C     18.816713   18.844970   19.344734
  S     19.460517   19.902043   20.441637
  N     19.264433   17.551654   19.242025
  C     18.590031   16.496893   18.462888
  C     17.823792   15.596753   19.424245
  C     18.237834   14.267288   19.632453
  C     17.535134   13.429861   20.515026
  C     16.413538   13.926742   21.200579
  C     16.005061   15.252970   21.004733
  O     14.922413   15.735794   21.664148
  C     16.704212   16.083546   20.123593
  H     14.725702   15.823153   16.296329
  H     14.070401   14.186062   16.476859
  H     15.071622   14.584981   15.064502
  H     16.065654   14.597671   17.965860
  H     16.301913   13.231946   16.869254
  H     15.626326   18.642973   16.154263
  H     17.099543   19.369930   15.501903
  H     16.212712   20.176340   16.808787
  H     17.516178   20.170642   18.550592
  H     19.986560   17.302166   19.905637
  H     19.368962   15.893548   17.975269
  H     19.104065   13.878803   19.102823
  H     17.861914   12.402417   20.667861
  H     15.868820   13.283835   21.884519
  H     14.619934   15.046703   22.275009
  H     16.375285   17.108715   19.993407

 Total Charge           Charge          ....    0
 Multiplicity           Mult            ....    1
 Number of Electrons    NEL             ....  154
 Basis Dimension        Dim             ....  828

ORBITAL ENERGIES
----------------

  NO   OCC          E(Eh)            E(eV)
   0   2.0000     -91.891588     -2500.4972
   1   2.0000     -20.602548      -560.6238
   2   2.0000     -20.580932      -560.0356
   3   2.0000     -20.549262      -559.1738
   4   2.0000     -15.631663      -425.3592
   5   2.0000     -15.610472      -424.7825
   6   2.0000     -11.393159      -310.0236
   7   2.0000     -11.386129      -309.8323
   8   2.0000     -11.337408      -308.5066
   9   2.0000     -11.320648      -308.0505
  10   2.0000     -11.313856      -307.8657
  11   2.0000     -11.296766      -307.4006
  12   2.0000     -11.264931      -306.5343
  13   2.0000     -11.261701      -306.4465
  14   2.0000     -11.259627      -306.3900
  15   2.0000     -11.254699      -306.2559
  16   2.0000     -11.249653      -306.1186
  17   2.0000     -11.244057      -305.9663
  18   2.0000     -11.243712      -305.9570
  19   2.0000     -11.223317      -305.4020
  20   2.0000      -8.896599      -242.0888
  21   2.0000      -6.578161      -179.0008
  22   2.0000      -6.576170      -178.9467
  23   2.0000      -6.575571      -178.9304
  24   2.0000      -1.443662       -39.2840
  25   2.0000      -1.422247       -38.7013
  26   2.0000      -1.351843       -36.7855
  27   2.0000      -1.342971       -36.5441
  28   2.0000      -1.241428       -33.7810
  29   2.0000      -1.163124       -31.6502
  30   2.0000      -1.122058       -30.5327
  31   2.0000      -1.047339       -28.4995
  32   2.0000      -1.030376       -28.0380
  33   2.0000      -1.021481       -27.7959
  34   2.0000      -0.999869       -27.2078
  35   2.0000      -0.987034       -26.8586
  36   2.0000      -0.926567       -25.2132
  37   2.0000      -0.889158       -24.1952
  38   2.0000      -0.850261       -23.1368
  39   2.0000      -0.844999       -22.9936
  40   2.0000      -0.839814       -22.8525
  41   2.0000      -0.827381       -22.5142
  42   2.0000      -0.750002       -20.4086
  43   2.0000      -0.736005       -20.0277
  44   2.0000      -0.716053       -19.4848
  45   2.0000      -0.701453       -19.0875
  46   2.0000      -0.691830       -18.8257
  47   2.0000      -0.678993       -18.4763
  48   2.0000      -0.668793       -18.1988
  49   2.0000      -0.665960       -18.1217
  50   2.0000      -0.652746       -17.7621
  51   2.0000      -0.649309       -17.6686
  52   2.0000      -0.638337       -17.3700
  53   2.0000      -0.614974       -16.7343
  54   2.0000      -0.612725       -16.6731
  55   2.0000      -0.604085       -16.4380
  56   2.0000      -0.602143       -16.3852
  57   2.0000      -0.582434       -15.8488
  58   2.0000      -0.574256       -15.6263
  59   2.0000      -0.567400       -15.4397
  60   2.0000      -0.552667       -15.0388
  61   2.0000      -0.543661       -14.7938
  62   2.0000      -0.537517       -14.6266
  63   2.0000      -0.530556       -14.4372
  64   2.0000      -0.525234       -14.2923
  65   2.0000      -0.517900       -14.0928
  66   2.0000      -0.506140       -13.7728
  67   2.0000      -0.496558       -13.5120
  68   2.0000      -0.478098       -13.0097
  69   2.0000      -0.466539       -12.6952
  70   2.0000      -0.453774       -12.3478
  71   2.0000      -0.443609       -12.0712
  72   2.0000      -0.359249        -9.7757
  73   2.0000      -0.354689        -9.6516
  74   2.0000      -0.331654        -9.0248
  75   2.0000      -0.327880        -8.9221
  76   2.0000      -0.318405        -8.6642
  77   0.0000       0.068897         1.8748
  78   0.0000       0.100957         2.7472
  79   0.0000       0.121314         3.3011
  80   0.0000       0.127367         3.4658
  81   0.0000       0.131984         3.5915

MULLIKEN ATOMIC CHARGES
-----------------------
   0 C :   -0.282385
   1 C :    0.032526
   2 O :   -0.379873
   3 C :    0.457927
   4 O :   -0.388247
   5 C :   -0.242409
   6 C :    0.150634
   7 C :   -0.271723
   8 N :   -0.126065
   9 C :    0.207658
  10 S :   -0.433680
  11 N :   -0.192575
  12 C :    0.039039
  13 C :    0.036011
  14 C :   -0.174678
  15 C :   -0.131260
  16 C :   -0.273824
  17 C :    0.303502
  18 O :   -0.356107
  19 C :   -0.251054
  20 H :    0.087146
  21 H :    0.101362
  22 H :    0.115518
  23 H :    0.103160
  24 H :    0.111790
  25 H :    0.124387
  26 H :    0.139193
  27 H :    0.094725
  28 H :    0.198674
  29 H :    0.191251
  30 H :    0.149725
  31 H :    0.152778
  32 H :    0.163558
  33 H :    0.133932
  34 H :    0.241875
  35 H :    0.167508
Sum of atomic charges:   -0.0000000

LOEWDIN ATOMIC CHARGES
----------------------
   0 C :    0.105494
   1 C :   -0.015077
   2 O :    0.278641
   3 C :   -0.421839
   4 O :    0.127591
   5 C :   -0.098812
   6 C :   -0.060944
   7 C :    0.130407
   8 N :    0.406610
   9 C :   -0.457130
  10 S :   -0.030969
  11 N :    0.396533
  12 C :   -0.052540
  13 C :   -0.041181
  14 C :    0.015036
  15 C :    0.042729
  16 C :   -0.000595
  17 C :   -0.191180
  18 O :    0.396830
  19 C :    0.029792
  20 H :   -0.031605
  21 H :   -0.026614
  22 H :   -0.021742
  23 H :   -0.036930
  24 H :   -0.022087
  25 H :   -0.007648
  26 H :   -0.002521
  27 H :   -0.022783
  28 H :   -0.057395
  29 H :   -0.065251
  30 H :   -0.005742
  31 H :   -0.028643
  32 H :   -0.019413
  33 H :   -0.034077
  34 H :   -0.152449
  35 H :   -0.024498

  Mayer bond orders larger than 0.100000
B(  0-C ,  1-C ) :   0.9798 B(  0-C , 20-H ) :   0.9738 B(  0-C , 21-H ) :   0.9756
B(  0-C , 22-H ) :   0.9752 B(  1-C ,  2-O ) :   0.8885 B(  1-C , 23-H ) :   0.9633
B(  1-C , 24-H ) :   0.9804 B(  2-O ,  3-C ) :   1.1069 B(  3-C ,  4-O ) :   2.0519
B(  3-C ,  5-C ) :   1.0244 B(  5-C ,  6-C ) :   1.6623 B(  5-C , 12-C ) :   0.9675
B(  6-C ,  7-C ) :   0.9705 B(  6-C ,  8-N ) :   1.1494 B(  7-C , 25-H ) :   0.9677
B(  7-C , 26-H ) :   0.9553 B(  7-C , 27-H ) :   0.9868 B(  8-N ,  9-C ) :   1.1777
B(  8-N , 28-H ) :   0.9487 B(  9-C , 10-S ) :   1.6183 B(  9-C , 11-N ) :   1.2982
B( 11-N , 12-C ) :   0.9794 B( 11-N , 29-H ) :   0.9545 B( 12-C , 13-C ) :   0.9466
B( 12-C , 30-H ) :   1.0035 B( 13-C , 14-C ) :   1.3607 B( 13-C , 19-C ) :   1.3709
B( 14-C , 15-C ) :   1.3857 B( 14-C , 31-H ) :   0.9711 B( 15-C , 16-C ) :   1.3681
B( 15-C , 32-H ) :   0.9700 B( 16-C , 17-C ) :   1.3266 B( 16-C , 33-H ) :   0.9835
B( 17-C , 18-O ) :   1.1154 B( 17-C , 19-C ) :   1.3784 B( 18-O , 34-H ) :   0.9788
B( 19-C , 35-H ) :   0.9573

MP2 TOTAL ENERGY:    -1274.328228889 Eh
FINAL SINGLE POINT ENERGY     -1274.328228888919

DIPOLE MOMENT
-------------
                                X             Y             Z
Electronic contribution:     10.72257       8.14711       6.84043
Nuclear contribution   :    -11.90412      -9.72535      -6.49220
                        -----------------------------------------
Total Dipole Moment    :     -1.18154      -1.57824       0.34823
                        -----------------------------------------
Magnitude (a.u.)       :      2.00203
Magnitude (Debye)      :      5.08876

Rotational constants in cm-1:     0.011454     0.009693     0.006519
Rotational constants in MHz :   343.370148   290.589656   195.440585

                             ****ORCA TERMINATED NORMALLY****
TOTAL RUN TIME: 0 days 1 hours 55 minutes 11 seconds 126 msec
