                         Program Version 4.2.0 -  RELEASE  -
|  1> ! ri-mp2 cc-pvtz cc-pvtz/c TightSCF  NoKeepInts
|  2>
|  3> %scf
|  4>   MaxCore 4096
|  5> end
|  6> *xyz  0  1
|  7>     C       15.5968234   13.7204418   17.3185173
|  8>     C       16.3649874   14.1271419   16.0499856
|  9>     O       17.3822608   15.0849501   16.4085991
| 10>     C       17.1559995   16.4158315   16.1878592
| 11>     O       16.4289247   16.8010638   15.2881409
| 12>     C       17.6341816   17.2898659   17.3157403
| 13>     C       17.3850813   18.6245363   17.3582633
| 14>     C       16.5803218   19.4433411   16.3713247
| 15>     N       17.9370082   19.4076085   18.3768688
| 16>     C       18.8778943   18.9725922   19.2716557
| 17>     S       19.6031669   19.9971922   20.3488786
| 18>     N       19.2007278   17.6408424   19.2169380
| 19>     C       18.4788608   16.6320638   18.4207823
| 20>     C       17.6604031   15.7544715   19.3623906
| 21>     C       18.1555258   14.4991588   19.7630862
| 22>     C       17.4279399   13.6946945   20.6564587
| 23>     C       16.1951781   14.1493658   21.1547139
| 24>     C       15.7036951   15.4028935   20.7655321
| 25>     O       14.5159544   15.8466869   21.2482434
| 26>     C       16.4319096   16.2034163   19.8801201
| 27>     H       16.2701538   13.2562669   18.0477075
| 28>     H       14.8097478   12.9970737   17.0743371
| 29>     H       15.1240934   14.5941981   17.7834892
| 30>     H       16.8452614   13.2341689   15.6300035
| 31>     H       15.6728149   14.5190039   15.2924583
| 32>     H       15.5531233   19.0630355   16.3022100
| 33>     H       17.0206430   19.3803755   15.3680257
| 34>     H       16.5216789   20.5044010   16.6406265
| 35>     H       17.7178264   20.3898465   18.4234242
| 36>     H       19.8750385   17.3429306   19.9098199
| 37>     H       19.2309166   15.9986818   17.9294196
| 38>     H       19.1088415   14.1453863   19.3798030
| 39>     H       17.8193224   12.7250471   20.9594377
| 40>     H       15.6288809   13.5314670   21.8437887
| 41>     H       14.1919406   15.1851951   21.8779176
| 42>     H       16.0398721   17.1767632   19.6074327
| 43> *
| 44>
| 45>                          ****END OF INPUT****

CARTESIAN COORDINATES (ANGSTROEM)
---------------------------------
  C     15.596823   13.720442   17.318517
  C     16.364987   14.127142   16.049986
  O     17.382261   15.084950   16.408599
  C     17.156000   16.415831   16.187859
  O     16.428925   16.801064   15.288141
  C     17.634182   17.289866   17.315740
  C     17.385081   18.624536   17.358263
  C     16.580322   19.443341   16.371325
  N     17.937008   19.407608   18.376869
  C     18.877894   18.972592   19.271656
  S     19.603167   19.997192   20.348879
  N     19.200728   17.640842   19.216938
  C     18.478861   16.632064   18.420782
  C     17.660403   15.754471   19.362391
  C     18.155526   14.499159   19.763086
  C     17.427940   13.694695   20.656459
  C     16.195178   14.149366   21.154714
  C     15.703695   15.402893   20.765532
  O     14.515954   15.846687   21.248243
  C     16.431910   16.203416   19.880120
  H     16.270154   13.256267   18.047708
  H     14.809748   12.997074   17.074337
  H     15.124093   14.594198   17.783489
  H     16.845261   13.234169   15.630004
  H     15.672815   14.519004   15.292458
  H     15.553123   19.063036   16.302210
  H     17.020643   19.380375   15.368026
  H     16.521679   20.504401   16.640626
  H     17.717826   20.389846   18.423424
  H     19.875038   17.342931   19.909820
  H     19.230917   15.998682   17.929420
  H     19.108842   14.145386   19.379803
  H     17.819322   12.725047   20.959438
  H     15.628881   13.531467   21.843789
  H     14.191941   15.185195   21.877918
  H     16.039872   17.176763   19.607433

 Total Charge           Charge          ....    0
 Multiplicity           Mult            ....    1
 Number of Electrons    NEL             ....  154
 Basis Dimension        Dim             ....  828

ORBITAL ENERGIES
----------------

  NO   OCC          E(Eh)            E(eV)
   0   2.0000     -91.889297     -2500.4349
   1   2.0000     -20.599131      -560.5309
   2   2.0000     -20.595835      -560.4412
   3   2.0000     -20.542548      -558.9911
   4   2.0000     -15.629932      -425.3121
   5   2.0000     -15.608357      -424.7250
   6   2.0000     -11.394714      -310.0659
   7   2.0000     -11.384118      -309.7776
   8   2.0000     -11.336958      -308.4943
   9   2.0000     -11.316047      -307.9253
  10   2.0000     -11.309853      -307.7568
  11   2.0000     -11.292939      -307.2965
  12   2.0000     -11.261596      -306.4436
  13   2.0000     -11.259667      -306.3911
  14   2.0000     -11.257455      -306.3309
  15   2.0000     -11.252517      -306.1966
  16   2.0000     -11.244824      -305.9872
  17   2.0000     -11.239642      -305.8462
  18   2.0000     -11.239376      -305.8390
  19   2.0000     -11.220016      -305.3122
  20   2.0000      -8.894340      -242.0273
  21   2.0000      -6.575911      -178.9396
  22   2.0000      -6.573911      -178.8852
  23   2.0000      -6.573322      -178.8692
  24   2.0000      -1.449021       -39.4299
  25   2.0000      -1.418746       -38.6060
  26   2.0000      -1.352914       -36.8146
  27   2.0000      -1.340956       -36.4893
  28   2.0000      -1.239329       -33.7239
  29   2.0000      -1.159121       -31.5413
  30   2.0000      -1.120659       -30.4947
  31   2.0000      -1.043588       -28.3975
  32   2.0000      -1.034244       -28.1432
  33   2.0000      -1.017268       -27.6813
  34   2.0000      -0.996511       -27.1164
  35   2.0000      -0.984585       -26.7919
  36   2.0000      -0.923588       -25.1321
  37   2.0000      -0.889636       -24.2082
  38   2.0000      -0.847633       -23.0653
  39   2.0000      -0.839795       -22.8520
  40   2.0000      -0.835217       -22.7274
  41   2.0000      -0.814574       -22.1657
  42   2.0000      -0.759392       -20.6641
  43   2.0000      -0.733745       -19.9662
  44   2.0000      -0.721895       -19.6438
  45   2.0000      -0.697956       -18.9923
  46   2.0000      -0.689236       -18.7551
  47   2.0000      -0.678421       -18.4608
  48   2.0000      -0.668799       -18.1989
  49   2.0000      -0.666961       -18.1489
  50   2.0000      -0.648213       -17.6388
  51   2.0000      -0.644166       -17.5287
  52   2.0000      -0.636278       -17.3140
  53   2.0000      -0.610005       -16.5991
  54   2.0000      -0.602494       -16.3947
  55   2.0000      -0.599869       -16.3233
  56   2.0000      -0.592269       -16.1165
  57   2.0000      -0.579445       -15.7675
  58   2.0000      -0.571007       -15.5379
  59   2.0000      -0.566078       -15.4038
  60   2.0000      -0.561416       -15.2769
  61   2.0000      -0.549172       -14.9437
  62   2.0000      -0.536590       -14.6014
  63   2.0000      -0.527382       -14.3508
  64   2.0000      -0.524975       -14.2853
  65   2.0000      -0.513156       -13.9637
  66   2.0000      -0.503096       -13.6899
  67   2.0000      -0.497080       -13.5262
  68   2.0000      -0.481142       -13.0925
  69   2.0000      -0.463133       -12.6025
  70   2.0000      -0.451145       -12.2763
  71   2.0000      -0.446753       -12.1568
  72   2.0000      -0.355921        -9.6851
  73   2.0000      -0.351411        -9.5624
  74   2.0000      -0.328912        -8.9502
  75   2.0000      -0.323551        -8.8043
  76   2.0000      -0.316617        -8.6156
  77   0.0000       0.074226         2.0198
  78   0.0000       0.103946         2.8285
  79   0.0000       0.122915         3.3447
  80   0.0000       0.131420         3.5761
  81   0.0000       0.134918         3.6713

MULLIKEN ATOMIC CHARGES
-----------------------
   0 C :   -0.306355
   1 C :    0.028544
   2 O :   -0.366810
   3 C :    0.470377
   4 O :   -0.427414
   5 C :   -0.245842
   6 C :    0.154639
   7 C :   -0.269263
   8 N :   -0.123197
   9 C :    0.216763
  10 S :   -0.440446
  11 N :   -0.207641
  12 C :    0.055392
  13 C :    0.100702
  14 C :   -0.202947
  15 C :   -0.137459
  16 C :   -0.270803
  17 C :    0.320361
  18 O :   -0.359445
  19 C :   -0.281268
  20 H :    0.102999
  21 H :    0.110748
  22 H :    0.105633
  23 H :    0.102633
  24 H :    0.117093
  25 H :    0.129870
  26 H :    0.133264
  27 H :    0.094875
  28 H :    0.197992
  29 H :    0.194051
  30 H :    0.149445
  31 H :    0.147377
  32 H :    0.163961
  33 H :    0.131817
  34 H :    0.241632
  35 H :    0.168725
Sum of atomic charges:   -0.0000000

LOEWDIN ATOMIC CHARGES
----------------------
   0 C :    0.103666
   1 C :   -0.013175
   2 O :    0.297621
   3 C :   -0.415171
   4 O :    0.101249
   5 C :   -0.095874
   6 C :   -0.057953
   7 C :    0.131031
   8 N :    0.407385
   9 C :   -0.455037
  10 S :   -0.034947
  11 N :    0.396359
  12 C :   -0.052909
  13 C :   -0.034438
  14 C :    0.011766
  15 C :    0.042287
  16 C :   -0.001361
  17 C :   -0.188623
  18 O :    0.396065
  19 C :    0.031681
  20 H :   -0.027847
  21 H :   -0.027139
  22 H :   -0.027817
  23 H :   -0.027998
  24 H :   -0.028975
  25 H :   -0.005259
  26 H :   -0.003400
  27 H :   -0.023394
  28 H :   -0.057494
  29 H :   -0.065629
  30 H :   -0.008580
  31 H :   -0.030770
  32 H :   -0.020789
  33 H :   -0.035274
  34 H :   -0.153124
  35 H :   -0.026133

  Mayer bond orders larger than 0.100000
B(  0-C ,  1-C ) :   0.9670 B(  0-C , 20-H ) :   0.9724 B(  0-C , 21-H ) :   0.9780
B(  0-C , 22-H ) :   0.9742 B(  1-C ,  2-O ) :   0.8841 B(  1-C , 23-H ) :   0.9864
B(  1-C , 24-H ) :   0.9750 B(  2-O ,  3-C ) :   1.1483 B(  3-C ,  4-O ) :   1.9839
B(  3-C ,  5-C ) :   1.0591 B(  5-C ,  6-C ) :   1.6513 B(  5-C , 12-C ) :   0.9767
B(  6-C ,  7-C ) :   0.9688 B(  6-C ,  8-N ) :   1.1609 B(  7-C , 25-H ) :   0.9613
B(  7-C , 26-H ) :   0.9587 B(  7-C , 27-H ) :   0.9901 B(  8-N ,  9-C ) :   1.1820
B(  8-N , 28-H ) :   0.9479 B(  9-C , 10-S ) :   1.6043 B(  9-C , 11-N ) :   1.3075
B( 11-N , 12-C ) :   0.9647 B( 11-N , 29-H ) :   0.9527 B( 12-C , 13-C ) :   0.9441
B( 12-C , 30-H ) :   1.0025 B( 13-C , 14-C ) :   1.3473 B( 13-C , 19-C ) :   1.3636
B( 14-C , 15-C ) :   1.3884 B( 14-C , 31-H ) :   0.9750 B( 15-C , 16-C ) :   1.3612
B( 15-C , 32-H ) :   0.9706 B( 16-C , 17-C ) :   1.3307 B( 16-C , 33-H ) :   0.9846
B( 17-C , 18-O ) :   1.1097 B( 17-C , 19-C ) :   1.3684 B( 18-O , 34-H ) :   0.9793
B( 19-C , 35-H ) :   0.9587

MP2 TOTAL ENERGY:    -1274.345291185 Eh
FINAL SINGLE POINT ENERGY     -1274.345291184612

DIPOLE MOMENT
-------------
                                X             Y             Z
Electronic contribution:      8.60834      10.72387       5.34547
Nuclear contribution   :     -9.52033     -12.40874      -5.48693
                        -----------------------------------------
Total Dipole Moment    :     -0.91199      -1.68487      -0.14146
                        -----------------------------------------
Magnitude (a.u.)       :      1.92108
Magnitude (Debye)      :      4.88300

Rotational constants in cm-1:     0.012323     0.008996     0.006465
Rotational constants in MHz :   369.428236   269.680688   193.814708

                             ****ORCA TERMINATED NORMALLY****
TOTAL RUN TIME: 0 days 1 hours 50 minutes 14 seconds 987 msec
