                         Program Version 5.0.0 -  RELEASE  -
|  1> ! ri-mp2 cc-pvtz cc-pvtz/c TightSCF NoKeepInts
|  2>
|  3> %scf
|  4>   MaxCore 4096
|  5> end
|  6> *xyz  0  1
|  7>     C       14.2530926   15.4822638   16.1771695
|  8>     C       15.3985428   15.4898881   17.2033012
|  9>     O       16.5958976   15.0734230   16.5144525
| 10>     C       17.8043952   15.7270108   16.5122003
| 11>     O       18.8004200   15.1217747   16.1624577
| 12>     C       17.9281300   16.8884297   17.4398295
| 13>     C       17.3670396   18.0890180   17.1726596
| 14>     C       16.5561530   18.4548980   15.9486807
| 15>     N       17.5537316   19.1550989   18.0547396
| 16>     C       18.3528970   19.1126399   19.1683161
| 17>     S       18.5528806   20.4334898   20.1425756
| 18>     N       18.9719927   17.9163578   19.4408446
| 19>     C       18.7827655   16.6624323   18.6834760
| 20>     C       18.1667857   15.5700620   19.5511277
| 21>     C       18.6667525   14.2565421   19.4923080
| 22>     C       18.0845153   13.2340119   20.2596151
| 23>     C       16.9888542   13.5252794   21.0898477
| 24>     C       16.4821821   14.8305262   21.1443344
| 25>     O       15.4134381   15.1121512   21.9309615
| 26>     C       17.0636134   15.8469226   20.3798372
| 27>     H       13.3051326   15.7565877   16.6558792
| 28>     H       14.1379312   14.4830697   15.7381279
| 29>     H       14.4486320   16.1936457   15.3659077
| 30>     H       15.4707044   16.4824595   17.6570923
| 31>     H       15.1781367   14.7753653   18.0076360
| 32>     H       16.6207747   17.6904492   15.1644827
| 33>     H       16.9165096   19.3919350   15.5052201
| 34>     H       15.4970816   18.5861284   16.2021597
| 35>     H       17.1189097   20.0449782   17.8667271
| 36>     H       19.5371821   17.9099759   20.2806713
| 37>     H       19.7729859   16.3189281   18.3490350
| 38>     H       19.5000310   14.0237027   18.8325472
| 39>     H       18.4779162   12.2204911   20.2008731
| 40>     H       16.5338147   12.7367648   21.6802108
| 41>     H       15.1946243   14.3059433   22.4228358
| 42>     H       16.6525538   16.8493553   20.4358596
| 43> *
| 44>
| 45>                          ****END OF INPUT****

CARTESIAN COORDINATES (ANGSTROEM)
---------------------------------
  C     14.253093   15.482264   16.177170
  C     15.398543   15.489888   17.203301
  O     16.595898   15.073423   16.514453
  C     17.804395   15.727011   16.512200
  O     18.800420   15.121775   16.162458
  C     17.928130   16.888430   17.439829
  C     17.367040   18.089018   17.172660
  C     16.556153   18.454898   15.948681
  N     17.553732   19.155099   18.054740
  C     18.352897   19.112640   19.168316
  S     18.552881   20.433490   20.142576
  N     18.971993   17.916358   19.440845
  C     18.782766   16.662432   18.683476
  C     18.166786   15.570062   19.551128
  C     18.666753   14.256542   19.492308
  C     18.084515   13.234012   20.259615
  C     16.988854   13.525279   21.089848
  C     16.482182   14.830526   21.144334
  O     15.413438   15.112151   21.930961
  C     17.063613   15.846923   20.379837
  H     13.305133   15.756588   16.655879
  H     14.137931   14.483070   15.738128
  H     14.448632   16.193646   15.365908
  H     15.470704   16.482460   17.657092
  H     15.178137   14.775365   18.007636
  H     16.620775   17.690449   15.164483
  H     16.916510   19.391935   15.505220
  H     15.497082   18.586128   16.202160
  H     17.118910   20.044978   17.866727
  H     19.537182   17.909976   20.280671
  H     19.772986   16.318928   18.349035
  H     19.500031   14.023703   18.832547
  H     18.477916   12.220491   20.200873
  H     16.533815   12.736765   21.680211
  H     15.194624   14.305943   22.422836
  H     16.652554   16.849355   20.435860

 Total Charge           Charge          ....    0
 Multiplicity           Mult            ....    1
 Number of Electrons    NEL             ....  154
 Basis Dimension        Dim             ....  828

ORBITAL ENERGIES
----------------

  NO   OCC          E(Eh)            E(eV)
   0   2.0000     -91.889831     -2500.4494
   1   2.0000     -20.601721      -560.6013
   2   2.0000     -20.600265      -560.5617
   3   2.0000     -20.550271      -559.2013
   4   2.0000     -15.626515      -425.2191
   5   2.0000     -15.611906      -424.8216
   6   2.0000     -11.398145      -310.1593
   7   2.0000     -11.386873      -309.8526
   8   2.0000     -11.327272      -308.2307
   9   2.0000     -11.316808      -307.9460
  10   2.0000     -11.315668      -307.9150
  11   2.0000     -11.303528      -307.5846
  12   2.0000     -11.270527      -306.6866
  13   2.0000     -11.264612      -306.5257
  14   2.0000     -11.263546      -306.4967
  15   2.0000     -11.256841      -306.3142
  16   2.0000     -11.246283      -306.0269
  17   2.0000     -11.242392      -305.9210
  18   2.0000     -11.239656      -305.8466
  19   2.0000     -11.235157      -305.7242
  20   2.0000      -8.894952      -242.0440
  21   2.0000      -6.576542      -178.9568
  22   2.0000      -6.574514      -178.9016
  23   2.0000      -6.573941      -178.8860
  24   2.0000      -1.448039       -39.4031
  25   2.0000      -1.420068       -38.6420
  26   2.0000      -1.359059       -36.9819
  27   2.0000      -1.339911       -36.4608
  28   2.0000      -1.239896       -33.7393
  29   2.0000      -1.161716       -31.6119
  30   2.0000      -1.126277       -30.6475
  31   2.0000      -1.049678       -28.5632
  32   2.0000      -1.041725       -28.3468
  33   2.0000      -1.018996       -27.7283
  34   2.0000      -1.005428       -27.3591
  35   2.0000      -0.989818       -26.9343
  36   2.0000      -0.928223       -25.2582
  37   2.0000      -0.886910       -24.1340
  38   2.0000      -0.854469       -23.2513
  39   2.0000      -0.841962       -22.9109
  40   2.0000      -0.837252       -22.7828
  41   2.0000      -0.836633       -22.7660
  42   2.0000      -0.757270       -20.6064
  43   2.0000      -0.738706       -20.1012
  44   2.0000      -0.732343       -19.9281
  45   2.0000      -0.697804       -18.9882
  46   2.0000      -0.688680       -18.7399
  47   2.0000      -0.680256       -18.5107
  48   2.0000      -0.676875       -18.4187
  49   2.0000      -0.667774       -18.1711
  50   2.0000      -0.652952       -17.7677
  51   2.0000      -0.644546       -17.5390
  52   2.0000      -0.640055       -17.4168
  53   2.0000      -0.613992       -16.7076
  54   2.0000      -0.608533       -16.5590
  55   2.0000      -0.604349       -16.4452
  56   2.0000      -0.602164       -16.3857
  57   2.0000      -0.589368       -16.0375
  58   2.0000      -0.578864       -15.7517
  59   2.0000      -0.569308       -15.4916
  60   2.0000      -0.565113       -15.3775
  61   2.0000      -0.561123       -15.2689
  62   2.0000      -0.543990       -14.8027
  63   2.0000      -0.532706       -14.4957
  64   2.0000      -0.523379       -14.2419
  65   2.0000      -0.516120       -14.0443
  66   2.0000      -0.504270       -13.7219
  67   2.0000      -0.502568       -13.6756
  68   2.0000      -0.488792       -13.3007
  69   2.0000      -0.470905       -12.8140
  70   2.0000      -0.452845       -12.3225
  71   2.0000      -0.448614       -12.2074
  72   2.0000      -0.356659        -9.7052
  73   2.0000      -0.352099        -9.5811
  74   2.0000      -0.329567        -8.9680
  75   2.0000      -0.324637        -8.8338
  76   2.0000      -0.318065        -8.6550
  77   0.0000       0.087060         2.3690
  78   0.0000       0.104731         2.8499
  79   0.0000       0.112494         3.0611
  80   0.0000       0.127599         3.4722
  81   0.0000       0.130251         3.5443

MULLIKEN ATOMIC CHARGES
-----------------------
   0 C :   -0.263201
   1 C :    0.011149
   2 O :   -0.312652
   3 C :    0.388212
   4 O :   -0.380451
   5 C :   -0.173112
   6 C :    0.125845
   7 C :   -0.329442
   8 N :   -0.137004
   9 C :    0.206621
  10 S :   -0.441630
  11 N :   -0.213072
  12 C :    0.063777
  13 C :    0.030972
  14 C :   -0.189017
  15 C :   -0.129262
  16 C :   -0.276216
  17 C :    0.311322
  18 O :   -0.359045
  19 C :   -0.276393
  20 H :    0.092377
  21 H :    0.111898
  22 H :    0.086809
  23 H :    0.095475
  24 H :    0.130494
  25 H :    0.124940
  26 H :    0.140834
  27 H :    0.124242
  28 H :    0.196132
  29 H :    0.198325
  30 H :    0.164150
  31 H :    0.165021
  32 H :    0.163296
  33 H :    0.132806
  34 H :    0.241982
  35 H :    0.173818
Sum of atomic charges:    0.0000000

LOEWDIN ATOMIC CHARGES
----------------------
   0 C :    0.104976
   1 C :   -0.018250
   2 O :    0.312671
   3 C :   -0.418544
   4 O :    0.125428
   5 C :   -0.081994
   6 C :   -0.108438
   7 C :    0.125481
   8 N :    0.400476
   9 C :   -0.455202
  10 S :   -0.038321
  11 N :    0.397247
  12 C :   -0.044094
  13 C :   -0.043005
  14 C :    0.023921
  15 C :    0.046370
  16 C :   -0.000202
  17 C :   -0.194390
  18 O :    0.394218
  19 C :    0.028564
  20 H :   -0.025457
  21 H :   -0.022655
  22 H :   -0.032714
  23 H :   -0.040947
  24 H :   -0.023134
  25 H :   -0.008917
  26 H :   -0.009879
  27 H :   -0.016118
  28 H :   -0.058377
  29 H :   -0.063657
  30 H :   -0.002422
  31 H :   -0.022075
  32 H :   -0.018396
  33 H :   -0.034568
  34 H :   -0.152825
  35 H :   -0.024771

  Mayer bond orders larger than 0.100000
B(  0-C ,  1-C ) :   0.9742 B(  0-C , 20-H ) :   0.9758 B(  0-C , 21-H ) :   0.9790
B(  0-C , 22-H ) :   0.9778 B(  1-C ,  2-O ) :   0.9016 B(  1-C , 23-H ) :   0.9636
B(  1-C , 24-H ) :   0.9745 B(  2-O ,  3-C ) :   1.1806 B(  3-C ,  4-O ) :   2.0964
B(  3-C ,  5-C ) :   0.9255 B(  5-C ,  6-C ) :   1.6947 B(  5-C , 12-C ) :   0.9607
B(  6-C ,  7-C ) :   0.9433 B(  6-C ,  8-N ) :   1.1108 B(  7-C , 25-H ) :   0.9804
B(  7-C , 26-H ) :   0.9730 B(  7-C , 27-H ) :   0.9647 B(  8-N ,  9-C ) :   1.1960
B(  8-N , 28-H ) :   0.9522 B(  9-C , 10-S ) :   1.6107 B(  9-C , 11-N ) :   1.2866
B( 11-N , 12-C ) :   0.9998 B( 11-N , 29-H ) :   0.9487 B( 12-C , 13-C ) :   0.9471
B( 12-C , 30-H ) :   0.9969 B( 13-C , 14-C ) :   1.3857 B( 13-C , 19-C ) :   1.3454
B( 14-C , 15-C ) :   1.3961 B( 14-C , 31-H ) :   0.9624 B( 15-C , 16-C ) :   1.3648
B( 15-C , 32-H ) :   0.9701 B( 16-C , 17-C ) :   1.3280 B( 16-C , 33-H ) :   0.9842
B( 17-C , 18-O ) :   1.1089 B( 17-C , 19-C ) :   1.3719 B( 18-O , 34-H ) :   0.9789
B( 19-C , 35-H ) :   0.9591

MP2 TOTAL ENERGY:    -1274.329527120 Eh
FINAL SINGLE POINT ENERGY     -1274.329527119844

DIPOLE MOMENT
-------------
                                X             Y             Z
Electronic contribution:     11.83914       5.79766       7.85176
Nuclear contribution   :    -13.43340      -6.80764      -8.13915
                        -----------------------------------------
Total Dipole Moment    :     -1.59425      -1.00998      -0.28740
                        -----------------------------------------
Magnitude (a.u.)       :      1.90901
Magnitude (Debye)      :      4.85231

Rotational constants in cm-1:     0.011504     0.009214     0.006831
Rotational constants in MHz :   344.868694   276.217506   204.799700

                             ****ORCA TERMINATED NORMALLY****
TOTAL RUN TIME: 0 days 2 hours 20 minutes 6 seconds 636 msec
