                         Program Version 5.0.0 -  RELEASE  -
|  1> ! ri-mp2 cc-pvtz cc-pvtz/c TightSCF NoKeepInts
|  2>
|  3> %scf
|  4>   MaxCore 4096
|  5> end
|  6> *xyz  0  1
|  7>     C       14.9515630   14.5622903   16.5055076
|  8>     C       16.3921466   14.0913847   16.8022493
|  9>     O       17.4116240   15.0190327   16.3482928
| 10>     C       17.1788802   16.3594045   16.2022937
| 11>     O       16.5189337   16.7831326   15.2700802
| 12>     C       17.6836522   17.2049859   17.3414590
| 13>     C       17.4320780   18.5377764   17.4194456
| 14>     C       16.5918024   19.3732837   16.4772079
| 15>     N       18.0106434   19.3016257   18.4378336
| 16>     C       18.9832867   18.8531148   19.2909212
| 17>     S       19.7405520   19.8578947   20.3646277
| 18>     N       19.3102108   17.5246696   19.1965133
| 19>     C       18.5610812   16.5289987   18.4095013
| 20>     C       17.7723290   15.6420574   19.3663034
| 21>     C       18.3071264   14.4072639   19.7803530
| 22>     C       17.5924103   13.5773441   20.6604220
| 23>     C       16.3353415   13.9875615   21.1360016
| 24>     C       15.8059543   15.2224376   20.7374468
| 25>     O       14.5940316   15.6231143   21.1966715
| 26>     C       16.5188260   16.0464302   19.8612720
| 27>     H       14.7142092   15.4865709   17.0470869
| 28>     H       14.2309562   13.7977696   16.8197197
| 29>     H       14.8100482   14.7363282   15.4311004
| 30>     H       16.4812797   13.9315149   17.8815507
| 31>     H       16.5600381   13.1194330   16.3209413
| 32>     H       15.5779573   18.9613628   16.3944050
| 33>     H       17.0275882   19.3727728   15.4697788
| 34>     H       16.4974501   20.4175890   16.7970772
| 35>     H       17.7911013   20.2823107   18.5099038
| 36>     H       20.0133495   17.2175761   19.8559774
| 37>     H       19.2946380   15.9006713   17.8843977
| 38>     H       19.2793906   14.0874422   19.4143877
| 39>     H       18.0138007   12.6233369   20.9735287
| 40>     H       15.7801535   13.3504870   21.8169337
| 41>     H       14.2891672   14.9603296   21.8348634
| 42>     H       16.0933991   17.0027016   19.5779441
| 43> *
| 44>
| 45>                          ****END OF INPUT****

CARTESIAN COORDINATES (ANGSTROEM)
---------------------------------
  C     14.951563   14.562290   16.505508
  C     16.392147   14.091385   16.802249
  O     17.411624   15.019033   16.348293
  C     17.178880   16.359405   16.202294
  O     16.518934   16.783133   15.270080
  C     17.683652   17.204986   17.341459
  C     17.432078   18.537776   17.419446
  C     16.591802   19.373284   16.477208
  N     18.010643   19.301626   18.437834
  C     18.983287   18.853115   19.290921
  S     19.740552   19.857895   20.364628
  N     19.310211   17.524670   19.196513
  C     18.561081   16.528999   18.409501
  C     17.772329   15.642057   19.366303
  C     18.307126   14.407264   19.780353
  C     17.592410   13.577344   20.660422
  C     16.335341   13.987561   21.136002
  C     15.805954   15.222438   20.737447
  O     14.594032   15.623114   21.196672
  C     16.518826   16.046430   19.861272
  H     14.714209   15.486571   17.047087
  H     14.230956   13.797770   16.819720
  H     14.810048   14.736328   15.431100
  H     16.481280   13.931515   17.881551
  H     16.560038   13.119433   16.320941
  H     15.577957   18.961363   16.394405
  H     17.027588   19.372773   15.469779
  H     16.497450   20.417589   16.797077
  H     17.791101   20.282311   18.509904
  H     20.013349   17.217576   19.855977
  H     19.294638   15.900671   17.884398
  H     19.279391   14.087442   19.414388
  H     18.013801   12.623337   20.973529
  H     15.780154   13.350487   21.816934
  H     14.289167   14.960330   21.834863
  H     16.093399   17.002702   19.577944

 Total Charge           Charge          ....    0
 Multiplicity           Mult            ....    1
 Number of Electrons    NEL             ....  154
 Basis Dimension        Dim             ....  828

ORBITAL ENERGIES
----------------

  NO   OCC          E(Eh)            E(eV)
   0   2.0000     -91.890380     -2500.4643
   1   2.0000     -20.603309      -560.6445
   2   2.0000     -20.581823      -560.0599
   3   2.0000     -20.544436      -559.0425
   4   2.0000     -15.630936      -425.3394
   5   2.0000     -15.609638      -424.7598
   6   2.0000     -11.393067      -310.0211
   7   2.0000     -11.385131      -309.8052
   8   2.0000     -11.337560      -308.5107
   9   2.0000     -11.321138      -308.0638
  10   2.0000     -11.311528      -307.8023
  11   2.0000     -11.296723      -307.3995
  12   2.0000     -11.265595      -306.5524
  13   2.0000     -11.262521      -306.4688
  14   2.0000     -11.258773      -306.3668
  15   2.0000     -11.253316      -306.2183
  16   2.0000     -11.249709      -306.1201
  17   2.0000     -11.244217      -305.9707
  18   2.0000     -11.244162      -305.9692
  19   2.0000     -11.223302      -305.4016
  20   2.0000      -8.895419      -242.0567
  21   2.0000      -6.576988      -178.9689
  22   2.0000      -6.574989      -178.9146
  23   2.0000      -6.574398      -178.8985
  24   2.0000      -1.440690       -39.2032
  25   2.0000      -1.422926       -38.7198
  26   2.0000      -1.349541       -36.7229
  27   2.0000      -1.342121       -36.5210
  28   2.0000      -1.240726       -33.7619
  29   2.0000      -1.163572       -31.6624
  30   2.0000      -1.121535       -30.5185
  31   2.0000      -1.046936       -28.4886
  32   2.0000      -1.030374       -28.0379
  33   2.0000      -1.021963       -27.8090
  34   2.0000      -0.998561       -27.1722
  35   2.0000      -0.986005       -26.8306
  36   2.0000      -0.925787       -25.1919
  37   2.0000      -0.892481       -24.2857
  38   2.0000      -0.849879       -23.1264
  39   2.0000      -0.843962       -22.9654
  40   2.0000      -0.839367       -22.8403
  41   2.0000      -0.823068       -22.3968
  42   2.0000      -0.746346       -20.3091
  43   2.0000      -0.735771       -20.0213
  44   2.0000      -0.716085       -19.4857
  45   2.0000      -0.701722       -19.0948
  46   2.0000      -0.691206       -18.8087
  47   2.0000      -0.674459       -18.3530
  48   2.0000      -0.668388       -18.1878
  49   2.0000      -0.663189       -18.0463
  50   2.0000      -0.653362       -17.7789
  51   2.0000      -0.647145       -17.6097
  52   2.0000      -0.639096       -17.3907
  53   2.0000      -0.618987       -16.8435
  54   2.0000      -0.613956       -16.7066
  55   2.0000      -0.604779       -16.4569
  56   2.0000      -0.601885       -16.3781
  57   2.0000      -0.582978       -15.8636
  58   2.0000      -0.572397       -15.5757
  59   2.0000      -0.567750       -15.4493
  60   2.0000      -0.549048       -14.9404
  61   2.0000      -0.540046       -14.6954
  62   2.0000      -0.535762       -14.5788
  63   2.0000      -0.531408       -14.4603
  64   2.0000      -0.523870       -14.2552
  65   2.0000      -0.515981       -14.0406
  66   2.0000      -0.505901       -13.7663
  67   2.0000      -0.493797       -13.4369
  68   2.0000      -0.485405       -13.2085
  69   2.0000      -0.463110       -12.6019
  70   2.0000      -0.452541       -12.3143
  71   2.0000      -0.440897       -11.9974
  72   2.0000      -0.357620        -9.7313
  73   2.0000      -0.355722        -9.6797
  74   2.0000      -0.331590        -9.0230
  75   2.0000      -0.327241        -8.9047
  76   2.0000      -0.317784        -8.6474
  77   0.0000       0.071225         1.9381
  78   0.0000       0.100533         2.7356
  79   0.0000       0.120945         3.2911
  80   0.0000       0.127326         3.4647
  81   0.0000       0.130898         3.5619

MULLIKEN ATOMIC CHARGES
-----------------------
   0 C :   -0.300907
   1 C :    0.031727
   2 O :   -0.391893
   3 C :    0.486859
   4 O :   -0.405547
   5 C :   -0.274883
   6 C :    0.162971
   7 C :   -0.269515
   8 N :   -0.124589
   9 C :    0.218037
  10 S :   -0.439814
  11 N :   -0.208642
  12 C :    0.066517
  13 C :    0.037664
  14 C :   -0.193640
  15 C :   -0.130337
  16 C :   -0.275488
  17 C :    0.306854
  18 O :   -0.356582
  19 C :   -0.241046
  20 H :    0.094477
  21 H :    0.103593
  22 H :    0.123068
  23 H :    0.103177
  24 H :    0.114090
  25 H :    0.128222
  26 H :    0.136209
  27 H :    0.095059
  28 H :    0.198064
  29 H :    0.193445
  30 H :    0.151751
  31 H :    0.150721
  32 H :    0.162917
  33 H :    0.133538
  34 H :    0.242582
  35 H :    0.171339
Sum of atomic charges:   -0.0000000

LOEWDIN ATOMIC CHARGES
----------------------
   0 C :    0.104855
   1 C :   -0.011340
   2 O :    0.279950
   3 C :   -0.419329
   4 O :    0.118382
   5 C :   -0.099051
   6 C :   -0.057619
   7 C :    0.131089
   8 N :    0.407668
   9 C :   -0.454845
  10 S :   -0.034202
  11 N :    0.396199
  12 C :   -0.052949
  13 C :   -0.036724
  14 C :    0.011210
  15 C :    0.042656
  16 C :   -0.001511
  17 C :   -0.189665
  18 O :    0.396783
  19 C :    0.030357
  20 H :   -0.030624
  21 H :   -0.025026
  22 H :   -0.023082
  23 H :   -0.034499
  24 H :   -0.025053
  25 H :   -0.005941
  26 H :   -0.002605
  27 H :   -0.023308
  28 H :   -0.057286
  29 H :   -0.065970
  30 H :   -0.007372
  31 H :   -0.029534
  32 H :   -0.019264
  33 H :   -0.034167
  34 H :   -0.152138
  35 H :   -0.026048

  Mayer bond orders larger than 0.100000
B(  0-C ,  1-C ) :   0.9739 B(  0-C , 20-H ) :   0.9732 B(  0-C , 21-H ) :   0.9742
B(  0-C , 22-H ) :   0.9721 B(  1-C ,  2-O ) :   0.8951 B(  1-C , 23-H ) :   0.9685
B(  1-C , 24-H ) :   0.9826 B(  2-O ,  3-C ) :   1.0959 B(  3-C ,  4-O ) :   2.0190
B(  3-C ,  5-C ) :   1.0584 B(  5-C ,  6-C ) :   1.6456 B(  5-C , 12-C ) :   0.9709
B(  6-C ,  7-C ) :   0.9686 B(  6-C ,  8-N ) :   1.1609 B(  7-C , 25-H ) :   0.9630
B(  7-C , 26-H ) :   0.9569 B(  7-C , 27-H ) :   0.9893 B(  8-N ,  9-C ) :   1.1828
B(  8-N , 28-H ) :   0.9478 B(  9-C , 10-S ) :   1.6044 B(  9-C , 11-N ) :   1.3066
B( 11-N , 12-C ) :   0.9602 B( 11-N , 29-H ) :   0.9529 B( 12-C , 13-C ) :   0.9499
B( 12-C , 30-H ) :   1.0003 B( 13-C , 14-C ) :   1.3473 B( 13-C , 19-C ) :   1.3692
B( 14-C , 15-C ) :   1.3986 B( 14-C , 31-H ) :   0.9737 B( 15-C , 16-C ) :   1.3616
B( 15-C , 32-H ) :   0.9701 B( 16-C , 17-C ) :   1.3305 B( 16-C , 33-H ) :   0.9841
B( 17-C , 18-O ) :   1.1146 B( 17-C , 19-C ) :   1.3715 B( 18-O , 34-H ) :   0.9787
B( 19-C , 35-H ) :   0.9558

MP2 TOTAL ENERGY:    -1274.332741509 Eh
FINAL SINGLE POINT ENERGY     -1274.332741509357

DIPOLE MOMENT
-------------
                                X             Y             Z
Electronic contribution:     10.14580       8.75506       5.85271
Nuclear contribution   :    -11.18882     -10.36947      -5.54346
                        -----------------------------------------
Total Dipole Moment    :     -1.04302      -1.61441       0.30925
                        -----------------------------------------
Magnitude (a.u.)       :      1.94675
Magnitude (Debye)      :      4.94824

Rotational constants in cm-1:     0.012196     0.009155     0.006569
Rotational constants in MHz :   365.612267   274.458294   196.932887

                             ****ORCA TERMINATED NORMALLY****
TOTAL RUN TIME: 0 days 2 hours 13 minutes 20 seconds 727 msec
