                         Program Version 5.0.0 -  RELEASE  -
|  1> ! ri-mp2 cc-pvtz cc-pvtz/c TightSCF NoKeepInts
|  2>
|  3> %scf
|  4>   MaxCore 4096
|  5> end
|  6> *xyz  0  1
|  7>     C       15.7926528   14.1130886   14.5711925
|  8>     C       15.0427934   14.8985346   15.6697700
|  9>     O       15.8769475   15.9336127   16.2318291
| 10>     C       17.0273147   15.6519249   16.9162448
| 11>     O       17.4351201   14.5146736   17.0848188
| 12>     C       17.5927032   16.8186685   17.6767805
| 13>     C       17.3052945   18.1248297   17.4326410
| 14>     C       16.3919283   18.6994372   16.3688914
| 15>     N       17.9480089   19.1262391   18.1685185
| 16>     C       18.9875486   18.9174705   19.0357633
| 17>     S       19.7833580   20.1727223   19.7615505
| 18>     N       19.3342435   17.6112349   19.2692716
| 19>     C       18.5732110   16.4407957   18.7937879
| 20>     C       17.8494532   15.7669597   19.9569646
| 21>     C       18.0390565   14.3968535   20.2159251
| 22>     C       17.3749834   13.7705294   21.2839425
| 23>     C       16.5126837   14.5200199   22.1020259
| 24>     C       16.3178952   15.8839674   21.8455595
| 25>     O       15.4812337   16.6091347   22.6301605
| 26>     C       16.9799649   16.5044671   20.7815415
| 27>     H       16.2619084   14.7986206   13.8549803
| 28>     H       15.0930459   13.4729692   14.0203755
| 29>     H       16.5692221   13.4633065   14.9915675
| 30>     H       14.1490773   15.3609130   15.2316551
| 31>     H       14.7139451   14.2084011   16.4585306
| 32>     H       15.3428572   18.4728607   16.5967940
| 33>     H       16.6242539   18.2745604   15.3844595
| 34>     H       16.4810895   19.7886745   16.2770223
| 35>     H       17.7074369   20.0917733   18.0112232
| 36>     H       20.0826195   17.4818169   19.9378863
| 37>     H       19.2953570   15.7237218   18.3772856
| 38>     H       18.6918811   13.8109632   19.5734483
| 39>     H       17.5255731   12.7085466   21.4690071
| 40>     H       15.9962842   14.0398894   22.9264323
| 41>     H       15.1487854   16.0180093   23.3220585
| 42>     H       16.8172682   17.5618097   20.6040947
| 43> *
| 44>
| 45>                          ****END OF INPUT****

CARTESIAN COORDINATES (ANGSTROEM)
---------------------------------
  C     15.792653   14.113089   14.571192
  C     15.042793   14.898535   15.669770
  O     15.876947   15.933613   16.231829
  C     17.027315   15.651925   16.916245
  O     17.435120   14.514674   17.084819
  C     17.592703   16.818669   17.676780
  C     17.305294   18.124830   17.432641
  C     16.391928   18.699437   16.368891
  N     17.948009   19.126239   18.168519
  C     18.987549   18.917471   19.035763
  S     19.783358   20.172722   19.761550
  N     19.334243   17.611235   19.269272
  C     18.573211   16.440796   18.793788
  C     17.849453   15.766960   19.956965
  C     18.039056   14.396854   20.215925
  C     17.374983   13.770529   21.283942
  C     16.512684   14.520020   22.102026
  C     16.317895   15.883967   21.845560
  O     15.481234   16.609135   22.630160
  C     16.979965   16.504467   20.781541
  H     16.261908   14.798621   13.854980
  H     15.093046   13.472969   14.020376
  H     16.569222   13.463306   14.991568
  H     14.149077   15.360913   15.231655
  H     14.713945   14.208401   16.458531
  H     15.342857   18.472861   16.596794
  H     16.624254   18.274560   15.384460
  H     16.481089   19.788674   16.277022
  H     17.707437   20.091773   18.011223
  H     20.082619   17.481817   19.937886
  H     19.295357   15.723722   18.377286
  H     18.691881   13.810963   19.573448
  H     17.525573   12.708547   21.469007
  H     15.996284   14.039889   22.926432
  H     15.148785   16.018009   23.322059
  H     16.817268   17.561810   20.604095

 Total Charge           Charge          ....    0
 Multiplicity           Mult            ....    1
 Number of Electrons    NEL             ....  154
 Basis Dimension        Dim             ....  828

ORBITAL ENERGIES
----------------

  NO   OCC          E(Eh)            E(eV)
   0   2.0000     -91.887633     -2500.3896
   1   2.0000     -20.603225      -560.6423
   2   2.0000     -20.590708      -560.3016
   3   2.0000     -20.545879      -559.0818
   4   2.0000     -15.627825      -425.2547
   5   2.0000     -15.606240      -424.6674
   6   2.0000     -11.397357      -310.1379
   7   2.0000     -11.382473      -309.7328
   8   2.0000     -11.335633      -308.4583
   9   2.0000     -11.306513      -307.6658
  10   2.0000     -11.305090      -307.6271
  11   2.0000     -11.303264      -307.5774
  12   2.0000     -11.260267      -306.4074
  13   2.0000     -11.258494      -306.3592
  14   2.0000     -11.252541      -306.1972
  15   2.0000     -11.246715      -306.0387
  16   2.0000     -11.236331      -305.7561
  17   2.0000     -11.232423      -305.6498
  18   2.0000     -11.229488      -305.5699
  19   2.0000     -11.225026      -305.4485
  20   2.0000      -8.892699      -241.9827
  21   2.0000      -6.574278      -178.8952
  22   2.0000      -6.572271      -178.8406
  23   2.0000      -6.571685      -178.8247
  24   2.0000      -1.451943       -39.5094
  25   2.0000      -1.410439       -38.3800
  26   2.0000      -1.357652       -36.9436
  27   2.0000      -1.338855       -36.4321
  28   2.0000      -1.236448       -33.6454
  29   2.0000      -1.151193       -31.3256
  30   2.0000      -1.118818       -30.4446
  31   2.0000      -1.041503       -28.3407
  32   2.0000      -1.034064       -28.1383
  33   2.0000      -1.008534       -27.4436
  34   2.0000      -0.996535       -27.1171
  35   2.0000      -0.982132       -26.7252
  36   2.0000      -0.920821       -25.0568
  37   2.0000      -0.895087       -24.3565
  38   2.0000      -0.847359       -23.0578
  39   2.0000      -0.834871       -22.7180
  40   2.0000      -0.826950       -22.5024
  41   2.0000      -0.816994       -22.2315
  42   2.0000      -0.750065       -20.4103
  43   2.0000      -0.732785       -19.9401
  44   2.0000      -0.724127       -19.7045
  45   2.0000      -0.690171       -18.7805
  46   2.0000      -0.684481       -18.6257
  47   2.0000      -0.679181       -18.4814
  48   2.0000      -0.670483       -18.2448
  49   2.0000      -0.661877       -18.0106
  50   2.0000      -0.645745       -17.5716
  51   2.0000      -0.641379       -17.4528
  52   2.0000      -0.631719       -17.1900
  53   2.0000      -0.610705       -16.6181
  54   2.0000      -0.599409       -16.3107
  55   2.0000      -0.598563       -16.2877
  56   2.0000      -0.593861       -16.1598
  57   2.0000      -0.585594       -15.9348
  58   2.0000      -0.572140       -15.5687
  59   2.0000      -0.566493       -15.4150
  60   2.0000      -0.559734       -15.2311
  61   2.0000      -0.544836       -14.8257
  62   2.0000      -0.535799       -14.5798
  63   2.0000      -0.522999       -14.2315
  64   2.0000      -0.516262       -14.0482
  65   2.0000      -0.510864       -13.9013
  66   2.0000      -0.500836       -13.6284
  67   2.0000      -0.494850       -13.4655
  68   2.0000      -0.479741       -13.0544
  69   2.0000      -0.462103       -12.5745
  70   2.0000      -0.456905       -12.4330
  71   2.0000      -0.452058       -12.3011
  72   2.0000      -0.353709        -9.6249
  73   2.0000      -0.343081        -9.3357
  74   2.0000      -0.326754        -8.8914
  75   2.0000      -0.315040        -8.5727
  76   2.0000      -0.312919        -8.5149
  77   0.0000       0.076767         2.0889
  78   0.0000       0.114305         3.1104
  79   0.0000       0.121097         3.2952
  80   0.0000       0.136689         3.7195
  81   0.0000       0.140990         3.8365

MULLIKEN ATOMIC CHARGES
-----------------------
   0 C :   -0.306206
   1 C :    0.042630
   2 O :   -0.346510
   3 C :    0.444999
   4 O :   -0.436753
   5 C :   -0.160223
   6 C :    0.144329
   7 C :   -0.285738
   8 N :   -0.120748
   9 C :    0.201141
  10 S :   -0.439871
  11 N :   -0.196050
  12 C :    0.032725
  13 C :    0.057803
  14 C :   -0.160701
  15 C :   -0.134056
  16 C :   -0.278839
  17 C :    0.311571
  18 O :   -0.359120
  19 C :   -0.270714
  20 H :    0.089685
  21 H :    0.096770
  22 H :    0.128473
  23 H :    0.105316
  24 H :    0.098524
  25 H :    0.129369
  26 H :    0.123935
  27 H :    0.101934
  28 H :    0.196657
  29 H :    0.193186
  30 H :    0.153305
  31 H :    0.152801
  32 H :    0.158598
  33 H :    0.127674
  34 H :    0.239875
  35 H :    0.164229
Sum of atomic charges:   -0.0000000

LOEWDIN ATOMIC CHARGES
----------------------
   0 C :    0.104381
   1 C :   -0.013406
   2 O :    0.301228
   3 C :   -0.412527
   4 O :    0.107073
   5 C :   -0.089970
   6 C :   -0.065875
   7 C :    0.124708
   8 N :    0.404704
   9 C :   -0.459018
  10 S :   -0.036422
  11 N :    0.397847
  12 C :   -0.046338
  13 C :   -0.038591
  14 C :    0.021809
  15 C :    0.040723
  16 C :   -0.002314
  17 C :   -0.192353
  18 O :    0.393022
  19 C :    0.028903
  20 H :   -0.030722
  21 H :   -0.027625
  22 H :   -0.025578
  23 H :   -0.024898
  24 H :   -0.027061
  25 H :   -0.009250
  26 H :   -0.009461
  27 H :   -0.021121
  28 H :   -0.059259
  29 H :   -0.063700
  30 H :   -0.005243
  31 H :   -0.025578
  32 H :   -0.021412
  33 H :   -0.036514
  34 H :   -0.155046
  35 H :   -0.025118

  Mayer bond orders larger than 0.100000
B(  0-C ,  1-C ) :   0.9665 B(  0-C , 20-H ) :   0.9760 B(  0-C , 21-H ) :   0.9774
B(  0-C , 22-H ) :   0.9711 B(  1-C ,  2-O ) :   0.9059 B(  1-C , 23-H ) :   0.9845
B(  1-C , 24-H ) :   0.9784 B(  2-O ,  3-C ) :   1.1581 B(  3-C ,  4-O ) :   1.9518
B(  3-C ,  5-C ) :   1.0648 B(  5-C ,  6-C ) :   1.6450 B(  5-C , 12-C ) :   0.9659
B(  6-C ,  7-C ) :   0.9550 B(  6-C ,  8-N ) :   1.1506 B(  7-C , 25-H ) :   0.9629
B(  7-C , 26-H ) :   0.9664 B(  7-C , 27-H ) :   0.9917 B(  8-N ,  9-C ) :   1.1781
B(  8-N , 28-H ) :   0.9490 B(  9-C , 10-S ) :   1.6103 B(  9-C , 11-N ) :   1.3041
B( 11-N , 12-C ) :   0.9942 B( 11-N , 29-H ) :   0.9520 B( 12-C , 13-C ) :   0.9473
B( 12-C , 30-H ) :   1.0001 B( 13-C , 14-C ) :   1.3749 B( 13-C , 19-C ) :   1.3703
B( 14-C , 15-C ) :   1.3948 B( 14-C , 31-H ) :   0.9653 B( 15-C , 16-C ) :   1.3627
B( 15-C , 32-H ) :   0.9715 B( 16-C , 17-C ) :   1.3314 B( 16-C , 33-H ) :   0.9861
B( 17-C , 18-O ) :   1.1079 B( 17-C , 19-C ) :   1.3795 B( 18-O , 34-H ) :   0.9807
B( 19-C , 35-H ) :   0.9584

MP2 TOTAL ENERGY:    -1274.345054532 Eh
FINAL SINGLE POINT ENERGY     -1274.345054532271

DIPOLE MOMENT
-------------
                                X             Y             Z
Electronic contribution:      9.54062       9.45938      12.02155
Nuclear contribution   :    -11.21229     -10.58152     -12.99081
                        -----------------------------------------
Total Dipole Moment    :     -1.67167      -1.12214      -0.96926
                        -----------------------------------------
Magnitude (a.u.)       :      2.23454
Magnitude (Debye)      :      5.67974

Rotational constants in cm-1:     0.010564     0.008820     0.005771
Rotational constants in MHz :   316.690859   264.419349   173.011715

                             ****ORCA TERMINATED NORMALLY****
TOTAL RUN TIME: 0 days 1 hours 55 minutes 3 seconds 161 msec
