                         Program Version 4.2.0 -  RELEASE  -
|  1> ! ri-mp2 cc-pvtz cc-pvtz/c TightSCF  NoKeepInts
|  2>
|  3> %scf
|  4>   MaxCore 4096
|  5> end
|  6> *xyz  0  1
|  7>     C       14.9365420   16.1987002   17.3249271
|  8>     C       15.5659917   14.9104757   16.7555268
|  9>     O       16.8671225   15.0077160   16.1121434
| 10>     C       18.0126273   15.6785223   16.4775651
| 11>     O       19.0923472   15.1487153   16.2912900
| 12>     C       17.9133252   16.8567392   17.3793774
| 13>     C       17.4369181   18.0450978   16.9453174
| 14>     C       16.9466668   18.3661350   15.5494440
| 15>     N       17.4566771   19.1534099   17.7943201
| 16>     C       18.0002609   19.1612853   19.0529764
| 17>     S       17.9941286   20.5217416   19.9927952
| 18>     N       18.5502602   17.9835043   19.4981609
| 19>     C       18.5534516   16.7038135   18.7602501
| 20>     C       17.9047695   15.5746571   19.5604412
| 21>     C       18.3934171   14.2605876   19.4357296
| 22>     C       17.7996107   13.2023020   20.1429672
| 23>     C       16.7058510   13.4572867   20.9867846
| 24>     C       16.2157872   14.7632421   21.1172471
| 25>     O       15.1539656   15.0123413   21.9239162
| 26>     C       16.8087997   15.8150603   20.4116200
| 27>     H       15.4822205   16.5940645   18.1847337
| 28>     H       13.9229192   15.9764574   17.6805584
| 29>     H       14.8401240   16.9697429   16.5545308
| 30>     H       15.6546358   14.1962929   17.5854428
| 31>     H       14.8634476   14.4686849   16.0371036
| 32>     H       16.6904562   17.4652199   14.9789992
| 33>     H       17.7232762   18.8971259   14.9843727
| 34>     H       16.0523603   19.0008333   15.5734793
| 35>     H       17.0825200   20.0341437   17.4777731
| 36>     H       18.9324346   18.0180767   20.4349173
| 37>     H       19.6052391   16.4248893   18.5973032
| 38>     H       19.2337415   14.0561279   18.7749470
| 39>     H       18.1871081   12.1907571   20.0321587
| 40>     H       16.2433531   12.6422807   21.5338852
| 41>     H       14.9207012   14.1808097   22.3639641
| 42>     H       16.4039426   16.8151597   20.5270310
| 43> *
| 44>
| 45>                          ****END OF INPUT****

CARTESIAN COORDINATES (ANGSTROEM)
---------------------------------
  C     14.936542   16.198700   17.324927
  C     15.565992   14.910476   16.755527
  O     16.867123   15.007716   16.112143
  C     18.012627   15.678522   16.477565
  O     19.092347   15.148715   16.291290
  C     17.913325   16.856739   17.379377
  C     17.436918   18.045098   16.945317
  C     16.946667   18.366135   15.549444
  N     17.456677   19.153410   17.794320
  C     18.000261   19.161285   19.052976
  S     17.994129   20.521742   19.992795
  N     18.550260   17.983504   19.498161
  C     18.553452   16.703813   18.760250
  C     17.904770   15.574657   19.560441
  C     18.393417   14.260588   19.435730
  C     17.799611   13.202302   20.142967
  C     16.705851   13.457287   20.986785
  C     16.215787   14.763242   21.117247
  O     15.153966   15.012341   21.923916
  C     16.808800   15.815060   20.411620
  H     15.482220   16.594065   18.184734
  H     13.922919   15.976457   17.680558
  H     14.840124   16.969743   16.554531
  H     15.654636   14.196293   17.585443
  H     14.863448   14.468685   16.037104
  H     16.690456   17.465220   14.978999
  H     17.723276   18.897126   14.984373
  H     16.052360   19.000833   15.573479
  H     17.082520   20.034144   17.477773
  H     18.932435   18.018077   20.434917
  H     19.605239   16.424889   18.597303
  H     19.233742   14.056128   18.774947
  H     18.187108   12.190757   20.032159
  H     16.243353   12.642281   21.533885
  H     14.920701   14.180810   22.363964
  H     16.403943   16.815160   20.527031

 Total Charge           Charge          ....    0
 Multiplicity           Mult            ....    1
 Number of Electrons    NEL             ....  154
 Basis Dimension        Dim             ....  828

ORBITAL ENERGIES
----------------

  NO   OCC          E(Eh)            E(eV)
   0   2.0000     -91.890206     -2500.4596
   1   2.0000     -20.601470      -560.5945
   2   2.0000     -20.594109      -560.3942
   3   2.0000     -20.549855      -559.1900
   4   2.0000     -15.626416      -425.2164
   5   2.0000     -15.612368      -424.8341
   6   2.0000     -11.398988      -310.1822
   7   2.0000     -11.387193      -309.8613
   8   2.0000     -11.326257      -308.2031
   9   2.0000     -11.318721      -307.9981
  10   2.0000     -11.316317      -307.9326
  11   2.0000     -11.309538      -307.7482
  12   2.0000     -11.266945      -306.5892
  13   2.0000     -11.265593      -306.5524
  14   2.0000     -11.261158      -306.4317
  15   2.0000     -11.258740      -306.3659
  16   2.0000     -11.247833      -306.0691
  17   2.0000     -11.244219      -305.9707
  18   2.0000     -11.240543      -305.8707
  19   2.0000     -11.235086      -305.7222
  20   2.0000      -8.895318      -242.0539
  21   2.0000      -6.576907      -178.9667
  22   2.0000      -6.574881      -178.9116
  23   2.0000      -6.574306      -178.8960
  24   2.0000      -1.441515       -39.2256
  25   2.0000      -1.421280       -38.6750
  26   2.0000      -1.353952       -36.8429
  27   2.0000      -1.339572       -36.4516
  28   2.0000      -1.239951       -33.7408
  29   2.0000      -1.162777       -31.6408
  30   2.0000      -1.125516       -30.6268
  31   2.0000      -1.049544       -28.5595
  32   2.0000      -1.039698       -28.2916
  33   2.0000      -1.020910       -27.7804
  34   2.0000      -1.004973       -27.3467
  35   2.0000      -0.990751       -26.9597
  36   2.0000      -0.928455       -25.2646
  37   2.0000      -0.899345       -24.4724
  38   2.0000      -0.852745       -23.2044
  39   2.0000      -0.842034       -22.9129
  40   2.0000      -0.838078       -22.8053
  41   2.0000      -0.830369       -22.5955
  42   2.0000      -0.748624       -20.3711
  43   2.0000      -0.734812       -19.9952
  44   2.0000      -0.729340       -19.8464
  45   2.0000      -0.699151       -19.0249
  46   2.0000      -0.687900       -18.7187
  47   2.0000      -0.676970       -18.4213
  48   2.0000      -0.675506       -18.3815
  49   2.0000      -0.662375       -18.0241
  50   2.0000      -0.655509       -17.8373
  51   2.0000      -0.651154       -17.7188
  52   2.0000      -0.639623       -17.4050
  53   2.0000      -0.614348       -16.7173
  54   2.0000      -0.607620       -16.5342
  55   2.0000      -0.605360       -16.4727
  56   2.0000      -0.601334       -16.3631
  57   2.0000      -0.594111       -16.1666
  58   2.0000      -0.580896       -15.8070
  59   2.0000      -0.577711       -15.7203
  60   2.0000      -0.567202       -15.4344
  61   2.0000      -0.557393       -15.1674
  62   2.0000      -0.541934       -14.7468
  63   2.0000      -0.532711       -14.4958
  64   2.0000      -0.521121       -14.1804
  65   2.0000      -0.514568       -14.0021
  66   2.0000      -0.503662       -13.7054
  67   2.0000      -0.497100       -13.5268
  68   2.0000      -0.487087       -13.2543
  69   2.0000      -0.466161       -12.6849
  70   2.0000      -0.454974       -12.3805
  71   2.0000      -0.448070       -12.1926
  72   2.0000      -0.355508        -9.6739
  73   2.0000      -0.351475        -9.5641
  74   2.0000      -0.329886        -8.9766
  75   2.0000      -0.326429        -8.8826
  76   2.0000      -0.318707        -8.6725
  77   0.0000       0.088807         2.4166
  78   0.0000       0.103753         2.8233
  79   0.0000       0.118435         3.2228
  80   0.0000       0.124256         3.3812
  81   0.0000       0.128469         3.4958

MULLIKEN ATOMIC CHARGES
-----------------------
   0 C :   -0.347155
   1 C :    0.049843
   2 O :   -0.345811
   3 C :    0.401941
   4 O :   -0.379100
   5 C :   -0.195981
   6 C :    0.145323
   7 C :   -0.324062
   8 N :   -0.138141
   9 C :    0.211789
  10 S :   -0.441847
  11 N :   -0.233553
  12 C :    0.112578
  13 C :    0.009990
  14 C :   -0.220707
  15 C :   -0.132893
  16 C :   -0.278262
  17 C :    0.324495
  18 O :   -0.355765
  19 C :   -0.284156
  20 H :    0.119390
  21 H :    0.129285
  22 H :    0.099837
  23 H :    0.104592
  24 H :    0.121203
  25 H :    0.121377
  26 H :    0.150449
  27 H :    0.109036
  28 H :    0.196209
  29 H :    0.203599
  30 H :    0.165644
  31 H :    0.175104
  32 H :    0.165942
  33 H :    0.133160
  34 H :    0.241816
  35 H :    0.184831
Sum of atomic charges:   -0.0000000

LOEWDIN ATOMIC CHARGES
----------------------
   0 C :    0.104059
   1 C :   -0.009926
   2 O :    0.286110
   3 C :   -0.416573
   4 O :    0.126513
   5 C :   -0.083548
   6 C :   -0.098402
   7 C :    0.123728
   8 N :    0.403134
   9 C :   -0.454715
  10 S :   -0.038078
  11 N :    0.397784
  12 C :   -0.043792
  13 C :   -0.042695
  14 C :    0.021182
  15 C :    0.044167
  16 C :   -0.001314
  17 C :   -0.193685
  18 O :    0.395697
  19 C :    0.025823
  20 H :   -0.034878
  21 H :   -0.018923
  22 H :   -0.031944
  23 H :   -0.025864
  24 H :   -0.019672
  25 H :   -0.010779
  26 H :   -0.007680
  27 H :   -0.018511
  28 H :   -0.058029
  29 H :   -0.064399
  30 H :   -0.003052
  31 H :   -0.021274
  32 H :   -0.017876
  33 H :   -0.034396
  34 H :   -0.152743
  35 H :   -0.025448

  Mayer bond orders larger than 0.100000
B(  0-C ,  1-C ) :   0.9598 B(  0-C , 20-H ) :   0.9673 B(  0-C , 21-H ) :   0.9769
B(  0-C , 22-H ) :   0.9769 B(  1-C ,  2-O ) :   0.9042 B(  1-C , 23-H ) :   0.9739
B(  1-C , 24-H ) :   0.9813 B(  2-O ,  3-C ) :   1.1696 B(  3-C ,  4-O ) :   2.0958
B(  3-C ,  5-C ) :   0.9319 B(  5-C ,  6-C ) :   1.6884 B(  5-C , 12-C ) :   0.9455
B(  6-C ,  7-C ) :   0.9477 B(  6-C ,  8-N ) :   1.1167 B(  7-C , 25-H ) :   0.9781
B(  7-C , 26-H ) :   0.9645 B(  7-C , 27-H ) :   0.9735 B(  8-N ,  9-C ) :   1.2004
B(  8-N , 28-H ) :   0.9516 B(  9-C , 10-S ) :   1.6069 B(  9-C , 11-N ) :   1.2847
B( 11-N , 12-C ) :   0.9921 B( 11-N , 29-H ) :   0.9462 B( 12-C , 13-C ) :   0.9464
B( 12-C , 30-H ) :   0.9964 B( 13-C , 14-C ) :   1.3890 B( 13-C , 19-C ) :   1.3369
B( 14-C , 15-C ) :   1.4042 B( 14-C , 31-H ) :   0.9596 B( 15-C , 16-C ) :   1.3567
B( 15-C , 32-H ) :   0.9693 B( 16-C , 17-C ) :   1.3323 B( 16-C , 33-H ) :   0.9844
B( 17-C , 18-O ) :   1.1107 B( 17-C , 19-C ) :   1.3642 B( 18-O , 34-H ) :   0.9789
B( 19-C , 35-H ) :   0.9525

MP2 TOTAL ENERGY:    -1274.322968199 Eh
FINAL SINGLE POINT ENERGY     -1274.322968198696

DIPOLE MOMENT
-------------
                                X             Y             Z
Electronic contribution:      9.15058       5.36998       6.10988
Nuclear contribution   :    -10.62900      -6.63920      -6.46940
                        -----------------------------------------
Total Dipole Moment    :     -1.47842      -1.26922      -0.35952
                        -----------------------------------------
Magnitude (a.u.)       :      1.98139
Magnitude (Debye)      :      5.03630

Rotational constants in cm-1:     0.012424     0.009260     0.006844
Rotational constants in MHz :   372.470327   277.620170   205.182146

                             ****ORCA TERMINATED NORMALLY****
TOTAL RUN TIME: 0 days 1 hours 50 minutes 10 seconds 224 msec
