                         Program Version 5.0.0 -  RELEASE  -
|  1> ! ri-mp2 cc-pvtz cc-pvtz/c TightSCF NoKeepInts
|  2>
|  3> %scf
|  4>   MaxCore 4096
|  5> end
|  6> *xyz  0  1
|  7>     C       15.1003386   14.1377521   15.3340081
|  8>     C       16.3757374   13.8820904   16.1649923
|  9>     O       16.9996920   15.0458552   16.7716721
| 10>     C       16.6224374   16.3654881   16.6918133
| 11>     O       15.7624880   16.7944837   15.9439869
| 12>     C       17.4651135   17.2392122   17.5832973
| 13>     C       17.3646332   18.5937031   17.5867280
| 14>     C       16.4406771   19.4505807   16.7473857
| 15>     N       18.1961862   19.3575366   18.4114124
| 16>     C       19.2108272   18.8576938   19.1826257
| 17>     S       20.2082317   19.8414711   20.0620772
| 18>     N       19.3603347   17.4948075   19.1878307
| 19>     C       18.4501481   16.5370086   18.5340320
| 20>     C       17.7270024   15.7097650   19.5931243
| 21>     C       17.9947411   14.3346277   19.7300979
| 22>     C       17.3295485   13.5702073   20.7034803
| 23>     C       16.3909690   14.1859822   21.5489952
| 24>     C       16.1254153   15.5560658   21.4184331
| 25>     O       15.2210528   16.1537697   22.2344815
| 26>     C       16.7889896   16.3141578   20.4488808
| 27>     H       14.3250588   14.6241394   15.9394027
| 28>     H       14.6908833   13.1888574   14.9675449
| 29>     H       15.3162666   14.7651642   14.4601128
| 30>     H       16.1270983   13.1724196   16.9647180
| 31>     H       17.1137356   13.3881535   15.5200606
| 32>     H       15.3919857   19.1981481   16.9502943
| 33>     H       16.6178908   19.2763460   15.6784640
| 34>     H       16.5637027   20.5240968   16.9321302
| 35>     H       18.1015272   20.3604918   18.4195141
| 36>     H       20.0918608   17.1531475   19.7976448
| 37>     H       19.0723302   15.8618122   17.9300958
| 38>     H       18.7172060   13.8556178   19.0748912
| 39>     H       17.5420848   12.5070482   20.8008620
| 40>     H       15.8748958   13.6001631   22.3024797
| 41>     H       14.8910931   15.4796379   22.8471770
| 42>     H       16.5748170   17.3744980   20.3692531
| 43> *
| 44>
| 45>                          ****END OF INPUT****

CARTESIAN COORDINATES (ANGSTROEM)
---------------------------------
  C     15.100339   14.137752   15.334008
  C     16.375737   13.882090   16.164992
  O     16.999692   15.045855   16.771672
  C     16.622437   16.365488   16.691813
  O     15.762488   16.794484   15.943987
  C     17.465114   17.239212   17.583297
  C     17.364633   18.593703   17.586728
  C     16.440677   19.450581   16.747386
  N     18.196186   19.357537   18.411412
  C     19.210827   18.857694   19.182626
  S     20.208232   19.841471   20.062077
  N     19.360335   17.494808   19.187831
  C     18.450148   16.537009   18.534032
  C     17.727002   15.709765   19.593124
  C     17.994741   14.334628   19.730098
  C     17.329548   13.570207   20.703480
  C     16.390969   14.185982   21.548995
  C     16.125415   15.556066   21.418433
  O     15.221053   16.153770   22.234482
  C     16.788990   16.314158   20.448881
  H     14.325059   14.624139   15.939403
  H     14.690883   13.188857   14.967545
  H     15.316267   14.765164   14.460113
  H     16.127098   13.172420   16.964718
  H     17.113736   13.388153   15.520061
  H     15.391986   19.198148   16.950294
  H     16.617891   19.276346   15.678464
  H     16.563703   20.524097   16.932130
  H     18.101527   20.360492   18.419514
  H     20.091861   17.153147   19.797645
  H     19.072330   15.861812   17.930096
  H     18.717206   13.855618   19.074891
  H     17.542085   12.507048   20.800862
  H     15.874896   13.600163   22.302480
  H     14.891093   15.479638   22.847177
  H     16.574817   17.374498   20.369253

 Total Charge           Charge          ....    0
 Multiplicity           Mult            ....    1
 Number of Electrons    NEL             ....  154
 Basis Dimension        Dim             ....  828

ORBITAL ENERGIES
----------------

  NO   OCC          E(Eh)            E(eV)
   0   2.0000     -91.887516     -2500.3864
   1   2.0000     -20.598985      -560.5269
   2   2.0000     -20.595517      -560.4325
   3   2.0000     -20.539494      -558.9080
   4   2.0000     -15.627489      -425.2456
   5   2.0000     -15.606703      -424.6800
   6   2.0000     -11.398376      -310.1656
   7   2.0000     -11.382477      -309.7330
   8   2.0000     -11.334357      -308.4235
   9   2.0000     -11.312530      -307.8296
  10   2.0000     -11.306863      -307.6754
  11   2.0000     -11.303908      -307.5950
  12   2.0000     -11.258358      -306.3555
  13   2.0000     -11.257753      -306.3390
  14   2.0000     -11.254131      -306.2405
  15   2.0000     -11.250740      -306.1482
  16   2.0000     -11.241865      -305.9067
  17   2.0000     -11.237167      -305.7789
  18   2.0000     -11.237116      -305.7775
  19   2.0000     -11.223038      -305.3944
  20   2.0000      -8.892593      -241.9798
  21   2.0000      -6.574172      -178.8923
  22   2.0000      -6.572164      -178.8377
  23   2.0000      -6.571581      -178.8218
  24   2.0000      -1.441914       -39.2365
  25   2.0000      -1.415159       -38.5084
  26   2.0000      -1.354185       -36.8492
  27   2.0000      -1.338626       -36.4259
  28   2.0000      -1.237068       -33.6623
  29   2.0000      -1.156221       -31.4624
  30   2.0000      -1.118385       -30.4328
  31   2.0000      -1.041400       -28.3379
  32   2.0000      -1.036796       -28.2127
  33   2.0000      -1.013834       -27.5878
  34   2.0000      -0.994186       -27.0532
  35   2.0000      -0.982416       -26.7329
  36   2.0000      -0.921016       -25.0621
  37   2.0000      -0.898506       -24.4496
  38   2.0000      -0.846046       -23.0221
  39   2.0000      -0.836807       -22.7707
  40   2.0000      -0.832867       -22.6635
  41   2.0000      -0.817812       -22.2538
  42   2.0000      -0.743952       -20.2440
  43   2.0000      -0.729325       -19.8459
  44   2.0000      -0.717334       -19.5197
  45   2.0000      -0.694543       -18.8995
  46   2.0000      -0.686626       -18.6840
  47   2.0000      -0.673954       -18.3392
  48   2.0000      -0.669879       -18.2283
  49   2.0000      -0.662293       -18.0219
  50   2.0000      -0.650141       -17.6912
  51   2.0000      -0.643054       -17.4984
  52   2.0000      -0.634733       -17.2720
  53   2.0000      -0.605681       -16.4814
  54   2.0000      -0.599451       -16.3119
  55   2.0000      -0.598726       -16.2922
  56   2.0000      -0.597191       -16.2504
  57   2.0000      -0.581208       -15.8155
  58   2.0000      -0.575366       -15.6565
  59   2.0000      -0.569637       -15.5006
  60   2.0000      -0.560634       -15.2556
  61   2.0000      -0.538762       -14.6604
  62   2.0000      -0.535177       -14.5629
  63   2.0000      -0.525193       -14.2912
  64   2.0000      -0.522694       -14.2232
  65   2.0000      -0.511937       -13.9305
  66   2.0000      -0.501471       -13.6457
  67   2.0000      -0.498005       -13.5514
  68   2.0000      -0.483862       -13.1666
  69   2.0000      -0.462270       -12.5790
  70   2.0000      -0.450548       -12.2600
  71   2.0000      -0.439910       -11.9706
  72   2.0000      -0.352611        -9.5950
  73   2.0000      -0.348183        -9.4745
  74   2.0000      -0.326986        -8.8977
  75   2.0000      -0.320210        -8.7133
  76   2.0000      -0.314681        -8.5629
  77   0.0000       0.078237         2.1289
  78   0.0000       0.107803         2.9335
  79   0.0000       0.125363         3.4113
  80   0.0000       0.133667         3.6373
  81   0.0000       0.137345         3.7373

MULLIKEN ATOMIC CHARGES
-----------------------
   0 C :   -0.288101
   1 C :    0.053204
   2 O :   -0.362435
   3 C :    0.457830
   4 O :   -0.431840
   5 C :   -0.197710
   6 C :    0.146153
   7 C :   -0.273206
   8 N :   -0.119906
   9 C :    0.212196
  10 S :   -0.442322
  11 N :   -0.204200
  12 C :    0.049702
  13 C :    0.069563
  14 C :   -0.183409
  15 C :   -0.132842
  16 C :   -0.279016
  17 C :    0.316108
  18 O :   -0.356832
  19 C :   -0.269689
  20 H :    0.108082
  21 H :    0.096944
  22 H :    0.112645
  23 H :    0.091488
  24 H :    0.087904
  25 H :    0.130995
  26 H :    0.130732
  27 H :    0.094658
  28 H :    0.197015
  29 H :    0.194349
  30 H :    0.148954
  31 H :    0.148418
  32 H :    0.159952
  33 H :    0.129291
  34 H :    0.240513
  35 H :    0.164815
Sum of atomic charges:   -0.0000000

LOEWDIN ATOMIC CHARGES
----------------------
   0 C :    0.102299
   1 C :   -0.008130
   2 O :    0.295699
   3 C :   -0.411471
   4 O :    0.106713
   5 C :   -0.092976
   6 C :   -0.059498
   7 C :    0.130395
   8 N :    0.406252
   9 C :   -0.456898
  10 S :   -0.037316
  11 N :    0.396511
  12 C :   -0.053122
  13 C :   -0.038130
  14 C :    0.014301
  15 C :    0.038519
  16 C :   -0.001956
  17 C :   -0.189526
  18 O :    0.395046
  19 C :    0.031422
  20 H :   -0.024905
  21 H :   -0.027852
  22 H :   -0.025137
  23 H :   -0.027704
  24 H :   -0.028626
  25 H :   -0.005064
  26 H :   -0.004432
  27 H :   -0.023804
  28 H :   -0.057858
  29 H :   -0.064756
  30 H :   -0.012104
  31 H :   -0.030486
  32 H :   -0.021693
  33 H :   -0.035819
  34 H :   -0.154103
  35 H :   -0.023792

  Mayer bond orders larger than 0.100000
B(  0-C ,  1-C ) :   0.9839 B(  0-C , 20-H ) :   0.9741 B(  0-C , 21-H ) :   0.9729
B(  0-C , 22-H ) :   0.9734 B(  1-C ,  2-O ) :   0.9017 B(  1-C , 23-H ) :   0.9753
B(  1-C , 24-H ) :   0.9790 B(  2-O ,  3-C ) :   1.1486 B(  3-C ,  4-O ) :   1.9740
B(  3-C ,  5-C ) :   1.0641 B(  5-C ,  6-C ) :   1.6556 B(  5-C , 12-C ) :   0.9763
B(  6-C ,  7-C ) :   0.9677 B(  6-C ,  8-N ) :   1.1613 B(  7-C , 25-H ) :   0.9609
B(  7-C , 26-H ) :   0.9600 B(  7-C , 27-H ) :   0.9909 B(  8-N ,  9-C ) :   1.1839
B(  8-N , 28-H ) :   0.9480 B(  9-C , 10-S ) :   1.6049 B(  9-C , 11-N ) :   1.3061
B( 11-N , 12-C ) :   0.9854 B( 11-N , 29-H ) :   0.9516 B( 12-C , 13-C ) :   0.9369
B( 12-C , 30-H ) :   1.0033 B( 13-C , 14-C ) :   1.3538 B( 13-C , 19-C ) :   1.3828
B( 14-C , 15-C ) :   1.3925 B( 14-C , 31-H ) :   0.9721 B( 15-C , 16-C ) :   1.3639
B( 15-C , 32-H ) :   0.9707 B( 16-C , 17-C ) :   1.3316 B( 16-C , 33-H ) :   0.9853
B( 17-C , 18-O ) :   1.1096 B( 17-C , 19-C ) :   1.3723 B( 18-O , 34-H ) :   0.9800
B( 19-C , 35-H ) :   0.9584

MP2 TOTAL ENERGY:    -1274.338437033 Eh
FINAL SINGLE POINT ENERGY     -1274.338437032678

DIPOLE MOMENT
-------------
                                X             Y             Z
Electronic contribution:      9.75882      10.02191       9.79626
Nuclear contribution   :    -10.76534     -11.84432     -10.25077
                        -----------------------------------------
Total Dipole Moment    :     -1.00651      -1.82242      -0.45451
                        -----------------------------------------
Magnitude (a.u.)       :      2.13093
Magnitude (Debye)      :      5.41639

Rotational constants in cm-1:     0.011186     0.008722     0.006026
Rotational constants in MHz :   335.353022   261.477124   180.664078

                             ****ORCA TERMINATED NORMALLY****
TOTAL RUN TIME: 0 days 1 hours 57 minutes 33 seconds 40 msec
