                         Program Version 4.2.0 -  RELEASE  -
|  1> ! ri-mp2 cc-pvtz cc-pvtz/c TightSCF  NoKeepInts
|  2>
|  3> %scf
|  4>   MaxCore 4096
|  5> end
|  6> *xyz  0  1
|  7>     C       14.7628645   15.9498651   16.7627990
|  8>     C       15.7121973   14.7930003   17.1315329
|  9>     O       16.9318223   14.8384252   16.3589859
| 10>     C       17.8702439   15.8406931   16.3320109
| 11>     O       18.7123437   15.8782765   15.4554712
| 12>     C       17.8141816   16.9035312   17.3765844
| 13>     C       17.4047995   18.1520644   17.0554459
| 14>     C       16.8309351   18.6036988   15.7297200
| 15>     N       17.5343788   19.1925129   17.9768008
| 16>     C       18.1898088   19.0919940   19.1754662
| 17>     S       18.3483181   20.3849128   20.1939804
| 18>     N       18.7114782   17.8616692   19.4912266
| 19>     C       18.5420461   16.6269555   18.6983237
| 20>     C       17.9024985   15.5255226   19.5345296
| 21>     C       18.3675571   14.2015983   19.4248891
| 22>     C       17.7821574   13.1726924   20.1812135
| 23>     C       16.7243292   13.4688271   21.0574642
| 24>     C       16.2591841   14.7857222   21.1719409
| 25>     O       15.2314072   15.0730088   22.0090898
| 26>     C       16.8411659   15.8084216   20.4158580
| 27>     H       15.0394851   16.8769574   17.2742849
| 28>     H       13.7393049   15.7050510   17.0720484
| 29>     H       14.7548837   16.1215790   15.6792018
| 30>     H       15.9036168   14.7898146   18.2060127
| 31>     H       15.2055917   13.8472798   16.8995334
| 32>     H       16.6152664   17.7633306   15.0587805
| 33>     H       17.5436060   19.2530835   15.2056171
| 34>     H       15.8962208   19.1607291   15.8667411
| 35>     H       17.1851794   20.1097777   17.7472394
| 36>     H       19.1776017   17.8170729   20.3888261
| 37>     H       19.5513436   16.2811795   18.4304897
| 38>     H       19.1812275   13.9664664   18.7423787
| 39>     H       18.1486729   12.1516017   20.0860374
| 40>     H       16.2698047   12.6763907   21.6434116
| 41>     H       15.0029439   14.2591018   22.4834620
| 42>     H       16.4585333   16.8191924   20.5166023
| 43> *
| 44>
| 45>                          ****END OF INPUT****

CARTESIAN COORDINATES (ANGSTROEM)
---------------------------------
  C     14.762864   15.949865   16.762799
  C     15.712197   14.793000   17.131533
  O     16.931822   14.838425   16.358986
  C     17.870244   15.840693   16.332011
  O     18.712344   15.878276   15.455471
  C     17.814182   16.903531   17.376584
  C     17.404799   18.152064   17.055446
  C     16.830935   18.603699   15.729720
  N     17.534379   19.192513   17.976801
  C     18.189809   19.091994   19.175466
  S     18.348318   20.384913   20.193980
  N     18.711478   17.861669   19.491227
  C     18.542046   16.626956   18.698324
  C     17.902499   15.525523   19.534530
  C     18.367557   14.201598   19.424889
  C     17.782157   13.172692   20.181213
  C     16.724329   13.468827   21.057464
  C     16.259184   14.785722   21.171941
  O     15.231407   15.073009   22.009090
  C     16.841166   15.808422   20.415858
  H     15.039485   16.876957   17.274285
  H     13.739305   15.705051   17.072048
  H     14.754884   16.121579   15.679202
  H     15.903617   14.789815   18.206013
  H     15.205592   13.847280   16.899533
  H     16.615266   17.763331   15.058780
  H     17.543606   19.253083   15.205617
  H     15.896221   19.160729   15.866741
  H     17.185179   20.109778   17.747239
  H     19.177602   17.817073   20.388826
  H     19.551344   16.281180   18.430490
  H     19.181227   13.966466   18.742379
  H     18.148673   12.151602   20.086037
  H     16.269805   12.676391   21.643412
  H     15.002944   14.259102   22.483462
  H     16.458533   16.819192   20.516602

 Total Charge           Charge          ....    0
 Multiplicity           Mult            ....    1
 Number of Electrons    NEL             ....  154
 Basis Dimension        Dim             ....  828

ORBITAL ENERGIES
----------------

  NO   OCC          E(Eh)            E(eV)
   0   2.0000     -91.889363     -2500.4367
   1   2.0000     -20.605496      -560.7040
   2   2.0000     -20.598634      -560.5173
   3   2.0000     -20.550749      -559.2143
   4   2.0000     -15.624448      -425.1629
   5   2.0000     -15.612289      -424.8320
   6   2.0000     -11.398019      -310.1559
   7   2.0000     -11.385995      -309.8287
   8   2.0000     -11.324920      -308.1667
   9   2.0000     -11.324131      -308.1453
  10   2.0000     -11.320319      -308.0415
  11   2.0000     -11.301328      -307.5248
  12   2.0000     -11.270980      -306.6990
  13   2.0000     -11.265367      -306.5462
  14   2.0000     -11.261916      -306.4523
  15   2.0000     -11.260233      -306.4065
  16   2.0000     -11.253423      -306.2212
  17   2.0000     -11.248216      -306.0795
  18   2.0000     -11.248149      -306.0777
  19   2.0000     -11.233927      -305.6907
  20   2.0000      -8.894481      -242.0311
  21   2.0000      -6.576072      -178.9440
  22   2.0000      -6.574042      -178.8888
  23   2.0000      -6.573472      -178.8733
  24   2.0000      -1.444696       -39.3122
  25   2.0000      -1.425293       -38.7842
  26   2.0000      -1.358871       -36.9768
  27   2.0000      -1.339147       -36.4400
  28   2.0000      -1.240297       -33.7502
  29   2.0000      -1.167445       -31.7678
  30   2.0000      -1.125390       -30.6234
  31   2.0000      -1.051965       -28.6254
  32   2.0000      -1.037974       -28.2447
  33   2.0000      -1.025700       -27.9107
  34   2.0000      -1.004778       -27.3414
  35   2.0000      -0.989707       -26.9313
  36   2.0000      -0.929410       -25.2905
  37   2.0000      -0.897600       -24.4249
  38   2.0000      -0.852387       -23.1946
  39   2.0000      -0.844962       -22.9926
  40   2.0000      -0.843011       -22.9395
  41   2.0000      -0.833403       -22.6780
  42   2.0000      -0.753254       -20.4971
  43   2.0000      -0.738905       -20.1066
  44   2.0000      -0.725175       -19.7330
  45   2.0000      -0.703904       -19.1542
  46   2.0000      -0.693196       -18.8628
  47   2.0000      -0.680390       -18.5143
  48   2.0000      -0.676943       -18.4206
  49   2.0000      -0.665062       -18.0973
  50   2.0000      -0.655120       -17.8267
  51   2.0000      -0.645408       -17.5624
  52   2.0000      -0.638522       -17.3751
  53   2.0000      -0.622406       -16.9365
  54   2.0000      -0.613832       -16.7032
  55   2.0000      -0.609833       -16.5944
  56   2.0000      -0.607038       -16.5184
  57   2.0000      -0.585242       -15.9252
  58   2.0000      -0.579646       -15.7730
  59   2.0000      -0.568808       -15.4780
  60   2.0000      -0.567784       -15.4502
  61   2.0000      -0.553968       -15.0742
  62   2.0000      -0.540553       -14.7092
  63   2.0000      -0.536345       -14.5947
  64   2.0000      -0.529092       -14.3973
  65   2.0000      -0.517828       -14.0908
  66   2.0000      -0.505754       -13.7623
  67   2.0000      -0.504952       -13.7404
  68   2.0000      -0.488920       -13.3042
  69   2.0000      -0.466238       -12.6870
  70   2.0000      -0.452923       -12.3246
  71   2.0000      -0.449899       -12.2424
  72   2.0000      -0.357892        -9.7387
  73   2.0000      -0.354504        -9.6465
  74   2.0000      -0.332905        -9.0588
  75   2.0000      -0.328850        -8.9485
  76   2.0000      -0.318024        -8.6539
  77   0.0000       0.089993         2.4488
  78   0.0000       0.099363         2.7038
  79   0.0000       0.119276         3.2457
  80   0.0000       0.125797         3.4231
  81   0.0000       0.129967         3.5366

MULLIKEN ATOMIC CHARGES
-----------------------
   0 C :   -0.330242
   1 C :    0.037848
   2 O :   -0.315938
   3 C :    0.387626
   4 O :   -0.374793
   5 C :   -0.176043
   6 C :    0.131052
   7 C :   -0.310910
   8 N :   -0.135385
   9 C :    0.209595
  10 S :   -0.443513
  11 N :   -0.224449
  12 C :    0.055551
  13 C :    0.005274
  14 C :   -0.197353
  15 C :   -0.135833
  16 C :   -0.269048
  17 C :    0.304413
  18 O :   -0.354586
  19 C :   -0.244576
  20 H :    0.104300
  21 H :    0.117767
  22 H :    0.109379
  23 H :    0.102066
  24 H :    0.123711
  25 H :    0.121073
  26 H :    0.146380
  27 H :    0.112723
  28 H :    0.197291
  29 H :    0.201499
  30 H :    0.165643
  31 H :    0.158224
  32 H :    0.165476
  33 H :    0.135539
  34 H :    0.241952
  35 H :    0.178287
Sum of atomic charges:   -0.0000000

LOEWDIN ATOMIC CHARGES
----------------------
   0 C :    0.103161
   1 C :   -0.015844
   2 O :    0.302571
   3 C :   -0.419571
   4 O :    0.126762
   5 C :   -0.080766
   6 C :   -0.099055
   7 C :    0.127714
   8 N :    0.403031
   9 C :   -0.455679
  10 S :   -0.039004
  11 N :    0.396966
  12 C :   -0.049953
  13 C :   -0.046264
  14 C :    0.017213
  15 C :    0.046400
  16 C :    0.001045
  17 C :   -0.192669
  18 O :    0.397890
  19 C :    0.028244
  20 H :   -0.034555
  21 H :   -0.022684
  22 H :   -0.027186
  23 H :   -0.036752
  24 H :   -0.019717
  25 H :   -0.008881
  26 H :   -0.007451
  27 H :   -0.017981
  28 H :   -0.056889
  29 H :   -0.064554
  30 H :   -0.005618
  31 H :   -0.025151
  32 H :   -0.017370
  33 H :   -0.033208
  34 H :   -0.151925
  35 H :   -0.022272

  Mayer bond orders larger than 0.100000
B(  0-C ,  1-C ) :   0.9555 B(  0-C , 20-H ) :   0.9759 B(  0-C , 21-H ) :   0.9781
B(  0-C , 22-H ) :   0.9758 B(  1-C ,  2-O ) :   0.9015 B(  1-C , 23-H ) :   0.9622
B(  1-C , 24-H ) :   0.9853 B(  2-O ,  3-C ) :   1.1974 B(  3-C ,  4-O ) :   2.1199
B(  3-C ,  5-C ) :   0.8794 B(  5-C ,  6-C ) :   1.7352 B(  5-C , 12-C ) :   0.9562
B(  6-C ,  7-C ) :   0.9551 B(  6-C ,  8-N ) :   1.1059 B(  7-C , 25-H ) :   0.9774
B(  7-C , 26-H ) :   0.9651 B(  7-C , 27-H ) :   0.9699 B(  8-N ,  9-C ) :   1.2064
B(  8-N , 28-H ) :   0.9513 B(  9-C , 10-S ) :   1.6074 B(  9-C , 11-N ) :   1.2816
B( 11-N , 12-C ) :   0.9898 B( 11-N , 29-H ) :   0.9463 B( 12-C , 13-C ) :   0.9437
B( 12-C , 30-H ) :   1.0006 B( 13-C , 14-C ) :   1.3823 B( 13-C , 19-C ) :   1.3504
B( 14-C , 15-C ) :   1.3969 B( 14-C , 31-H ) :   0.9693 B( 15-C , 16-C ) :   1.3635
B( 15-C , 32-H ) :   0.9692 B( 16-C , 17-C ) :   1.3277 B( 16-C , 33-H ) :   0.9834
B( 17-C , 18-O ) :   1.1137 B( 17-C , 19-C ) :   1.3648 B( 18-O , 34-H ) :   0.9783
B( 19-C , 35-H ) :   0.9579

MP2 TOTAL ENERGY:    -1274.330358289 Eh
FINAL SINGLE POINT ENERGY     -1274.330358288795

DIPOLE MOMENT
-------------
                                X             Y             Z
Electronic contribution:      9.76579       5.48836       6.81617
Nuclear contribution   :    -11.23092      -7.10374      -6.63474
                        -----------------------------------------
Total Dipole Moment    :     -1.46513      -1.61537       0.18143
                        -----------------------------------------
Magnitude (a.u.)       :      2.18837
Magnitude (Debye)      :      5.56239

Rotational constants in cm-1:     0.011983     0.009344     0.006614
Rotational constants in MHz :   359.238545   280.116377   198.275866

                             ****ORCA TERMINATED NORMALLY****
TOTAL RUN TIME: 0 days 1 hours 52 minutes 21 seconds 944 msec
