                         Program Version 5.0.0 -  RELEASE  -
|  1> ! ri-mp2 cc-pvtz cc-pvtz/c TightSCF NoKeepInts
|  2>
|  3> %scf
|  4>   MaxCore 4096
|  5> end
|  6> *xyz  0  1
|  7>     C       15.3144488   13.4847278   16.2149117
|  8>     C       15.7518792   14.7703374   16.9351863
|  9>     O       16.9600684   15.2228827   16.2950702
| 10>     C       17.1181405   16.5654823   16.1172250
| 11>     O       16.5290600   17.1087329   15.2009308
| 12>     C       17.6116846   17.3000071   17.3363150
| 13>     C       17.4021651   18.6299960   17.5194649
| 14>     C       16.5607133   19.5578006   16.6693149
| 15>     N       18.0482480   19.3008834   18.5630186
| 16>     C       19.0875016   18.7816956   19.2893744
| 17>     S       19.9512353   19.6959930   20.3632455
| 18>     N       19.3858013   17.4615763   19.0636600
| 19>     C       18.5251157   16.5325528   18.3092903
| 20>     C       17.7718797   15.6563204   19.3024920
| 21>     C       18.1294679   14.3042520   19.4649911
| 22>     C       17.4423494   13.4882541   20.3793685
| 23>     C       16.3944091   14.0294359   21.1434193
| 24>     C       16.0439625   15.3780484   20.9936421
| 25>     O       15.0331132   15.9040566   21.7295574
| 26>     C       16.7270355   16.1874171   20.0806975
| 27>     H       14.3823875   13.0995528   16.6456794
| 28>     H       16.0841215   12.7086653   16.3084307
| 29>     H       15.1460704   13.6794583   15.1480867
| 30>     H       14.9553391   15.5207661   16.8347978
| 31>     H       15.9006454   14.5627616   17.9983792
| 32>     H       15.5535767   19.1462501   16.5261428
| 33>     H       17.0081818   19.6792615   15.6743570
| 34>     H       16.4471509   20.5559739   17.1081629
| 35>     H       17.8535945   20.2764970   18.7232648
| 36>     H       20.1434820   17.0989016   19.6279585
| 37>     H       19.1784989   15.8850321   17.7073051
| 38>     H       18.9386088   13.8815745   18.8748841
| 39>     H       17.7240103   12.4428192   20.4953108
| 40>     H       15.8619883   13.4030069   21.8518621
| 41>     H       14.7353138   15.2203493   22.3487881
| 42>     H       16.4457512   17.2306775   19.9894142
| 43> *
| 44>
| 45>                          ****END OF INPUT****

CARTESIAN COORDINATES (ANGSTROEM)
---------------------------------
  C     15.314449   13.484728   16.214912
  C     15.751879   14.770337   16.935186
  O     16.960068   15.222883   16.295070
  C     17.118140   16.565482   16.117225
  O     16.529060   17.108733   15.200931
  C     17.611685   17.300007   17.336315
  C     17.402165   18.629996   17.519465
  C     16.560713   19.557801   16.669315
  N     18.048248   19.300883   18.563019
  C     19.087502   18.781696   19.289374
  S     19.951235   19.695993   20.363245
  N     19.385801   17.461576   19.063660
  C     18.525116   16.532553   18.309290
  C     17.771880   15.656320   19.302492
  C     18.129468   14.304252   19.464991
  C     17.442349   13.488254   20.379369
  C     16.394409   14.029436   21.143419
  C     16.043962   15.378048   20.993642
  O     15.033113   15.904057   21.729557
  C     16.727035   16.187417   20.080697
  H     14.382387   13.099553   16.645679
  H     16.084121   12.708665   16.308431
  H     15.146070   13.679458   15.148087
  H     14.955339   15.520766   16.834798
  H     15.900645   14.562762   17.998379
  H     15.553577   19.146250   16.526143
  H     17.008182   19.679261   15.674357
  H     16.447151   20.555974   17.108163
  H     17.853594   20.276497   18.723265
  H     20.143482   17.098902   19.627958
  H     19.178499   15.885032   17.707305
  H     18.938609   13.881574   18.874884
  H     17.724010   12.442819   20.495311
  H     15.861988   13.403007   21.851862
  H     14.735314   15.220349   22.348788
  H     16.445751   17.230677   19.989414

 Total Charge           Charge          ....    0
 Multiplicity           Mult            ....    1
 Number of Electrons    NEL             ....  154
 Basis Dimension        Dim             ....  828

ORBITAL ENERGIES
----------------

  NO   OCC          E(Eh)            E(eV)
   0   2.0000     -91.891605     -2500.4977
   1   2.0000     -20.602571      -560.6245
   2   2.0000     -20.579877      -560.0069
   3   2.0000     -20.549790      -559.1882
   4   2.0000     -15.631990      -425.3681
   5   2.0000     -15.610408      -424.7808
   6   2.0000     -11.392476      -310.0050
   7   2.0000     -11.386061      -309.8305
   8   2.0000     -11.338192      -308.5279
   9   2.0000     -11.320568      -308.0483
  10   2.0000     -11.313435      -307.8542
  11   2.0000     -11.293231      -307.3044
  12   2.0000     -11.264907      -306.5337
  13   2.0000     -11.261935      -306.4528
  14   2.0000     -11.260322      -306.4089
  15   2.0000     -11.254238      -306.2434
  16   2.0000     -11.249594      -306.1170
  17   2.0000     -11.243941      -305.9632
  18   2.0000     -11.243785      -305.9589
  19   2.0000     -11.223180      -305.3982
  20   2.0000      -8.896617      -242.0892
  21   2.0000      -6.578179      -179.0013
  22   2.0000      -6.576188      -178.9472
  23   2.0000      -6.575589      -178.9309
  24   2.0000      -1.448028       -39.4028
  25   2.0000      -1.422246       -38.7013
  26   2.0000      -1.352164       -36.7943
  27   2.0000      -1.343218       -36.5508
  28   2.0000      -1.241595       -33.7855
  29   2.0000      -1.163200       -31.6523
  30   2.0000      -1.121959       -30.5300
  31   2.0000      -1.047127       -28.4938
  32   2.0000      -1.032485       -28.0953
  33   2.0000      -1.021500       -27.7964
  34   2.0000      -0.999236       -27.1906
  35   2.0000      -0.986472       -26.8433
  36   2.0000      -0.926545       -25.2126
  37   2.0000      -0.876076       -23.8393
  38   2.0000      -0.850358       -23.1394
  39   2.0000      -0.844475       -22.9793
  40   2.0000      -0.839624       -22.8473
  41   2.0000      -0.831253       -22.6195
  42   2.0000      -0.760193       -20.6859
  43   2.0000      -0.736740       -20.0477
  44   2.0000      -0.724409       -19.7122
  45   2.0000      -0.701939       -19.1007
  46   2.0000      -0.692686       -18.8490
  47   2.0000      -0.679021       -18.4771
  48   2.0000      -0.671920       -18.2839
  49   2.0000      -0.658490       -17.9184
  50   2.0000      -0.649625       -17.6772
  51   2.0000      -0.646027       -17.5793
  52   2.0000      -0.638017       -17.3613
  53   2.0000      -0.613129       -16.6841
  54   2.0000      -0.611581       -16.6420
  55   2.0000      -0.603843       -16.4314
  56   2.0000      -0.600703       -16.3460
  57   2.0000      -0.582781       -15.8583
  58   2.0000      -0.573472       -15.6050
  59   2.0000      -0.566014       -15.4020
  60   2.0000      -0.559263       -15.2183
  61   2.0000      -0.541740       -14.7415
  62   2.0000      -0.537265       -14.6197
  63   2.0000      -0.530768       -14.4429
  64   2.0000      -0.518425       -14.1071
  65   2.0000      -0.510390       -13.8884
  66   2.0000      -0.506090       -13.7714
  67   2.0000      -0.497184       -13.5291
  68   2.0000      -0.487236       -13.2584
  69   2.0000      -0.467002       -12.7078
  70   2.0000      -0.453012       -12.3271
  71   2.0000      -0.444783       -12.1032
  72   2.0000      -0.359386        -9.7794
  73   2.0000      -0.355026        -9.6608
  74   2.0000      -0.331823        -9.0294
  75   2.0000      -0.327836        -8.9209
  76   2.0000      -0.318438        -8.6651
  77   0.0000       0.067306         1.8315
  78   0.0000       0.101470         2.7611
  79   0.0000       0.120851         3.2885
  80   0.0000       0.126322         3.4374
  81   0.0000       0.131322         3.5734

MULLIKEN ATOMIC CHARGES
-----------------------
   0 C :   -0.259894
   1 C :    0.035318
   2 O :   -0.378924
   3 C :    0.478298
   4 O :   -0.392757
   5 C :   -0.267487
   6 C :    0.153332
   7 C :   -0.269826
   8 N :   -0.125430
   9 C :    0.211619
  10 S :   -0.434542
  11 N :   -0.195890
  12 C :    0.042376
  13 C :    0.032222
  14 C :   -0.175472
  15 C :   -0.132245
  16 C :   -0.274235
  17 C :    0.305325
  18 O :   -0.356411
  19 C :   -0.242536
  20 H :    0.084219
  21 H :    0.092314
  22 H :    0.106558
  23 H :    0.094578
  24 H :    0.115907
  25 H :    0.127070
  26 H :    0.137351
  27 H :    0.094238
  28 H :    0.198839
  29 H :    0.191353
  30 H :    0.148032
  31 H :    0.150255
  32 H :    0.162894
  33 H :    0.133657
  34 H :    0.242138
  35 H :    0.167757
Sum of atomic charges:   -0.0000000

LOEWDIN ATOMIC CHARGES
----------------------
   0 C :    0.109111
   1 C :   -0.014797
   2 O :    0.285080
   3 C :   -0.424417
   4 O :    0.125606
   5 C :   -0.099393
   6 C :   -0.059084
   7 C :    0.130353
   8 N :    0.406996
   9 C :   -0.456670
  10 S :   -0.031207
  11 N :    0.396253
  12 C :   -0.053487
  13 C :   -0.039721
  14 C :    0.012345
  15 C :    0.042234
  16 C :   -0.000943
  17 C :   -0.190737
  18 O :    0.396752
  19 C :    0.031282
  20 H :   -0.027566
  21 H :   -0.028432
  22 H :   -0.023289
  23 H :   -0.030965
  24 H :   -0.034602
  25 H :   -0.006116
  26 H :   -0.002822
  27 H :   -0.023092
  28 H :   -0.057393
  29 H :   -0.065516
  30 H :   -0.006020
  31 H :   -0.029133
  32 H :   -0.019275
  33 H :   -0.034022
  34 H :   -0.152334
  35 H :   -0.024982

  Mayer bond orders larger than 0.100000
B(  0-C ,  1-C ) :   0.9862 B(  0-C , 20-H ) :   0.9760 B(  0-C , 21-H ) :   0.9796
B(  0-C , 22-H ) :   0.9798 B(  1-C ,  2-O ) :   0.8736 B(  1-C , 23-H ) :   0.9747
B(  1-C , 24-H ) :   0.9638 B(  2-O ,  3-C ) :   1.1104 B(  3-C ,  4-O ) :   2.0400
B(  3-C ,  5-C ) :   1.0431 B(  5-C ,  6-C ) :   1.6559 B(  5-C , 12-C ) :   0.9728
B(  6-C ,  7-C ) :   0.9712 B(  6-C ,  8-N ) :   1.1523 B(  7-C , 25-H ) :   0.9654
B(  7-C , 26-H ) :   0.9559 B(  7-C , 27-H ) :   0.9879 B(  8-N ,  9-C ) :   1.1777
B(  8-N , 28-H ) :   0.9483 B(  9-C , 10-S ) :   1.6157 B(  9-C , 11-N ) :   1.3007
B( 11-N , 12-C ) :   0.9718 B( 11-N , 29-H ) :   0.9546 B( 12-C , 13-C ) :   0.9465
B( 12-C , 30-H ) :   1.0034 B( 13-C , 14-C ) :   1.3537 B( 13-C , 19-C ) :   1.3747
B( 14-C , 15-C ) :   1.3912 B( 14-C , 31-H ) :   0.9730 B( 15-C , 16-C ) :   1.3657
B( 15-C , 32-H ) :   0.9705 B( 16-C , 17-C ) :   1.3257 B( 16-C , 33-H ) :   0.9839
B( 17-C , 18-O ) :   1.1153 B( 17-C , 19-C ) :   1.3790 B( 18-O , 34-H ) :   0.9786
B( 19-C , 35-H ) :   0.9561

MP2 TOTAL ENERGY:    -1274.325268932 Eh
FINAL SINGLE POINT ENERGY     -1274.325268931804

DIPOLE MOMENT
-------------
                                X             Y             Z
Electronic contribution:     10.42601      10.20364       6.22717
Nuclear contribution   :    -11.56684     -11.63437      -5.87023
                        -----------------------------------------
Total Dipole Moment    :     -1.14083      -1.43073       0.35694
                        -----------------------------------------
Magnitude (a.u.)       :      1.86437
Magnitude (Debye)      :      4.73886

Rotational constants in cm-1:     0.011933     0.009141     0.006344
Rotational constants in MHz :   357.756083   274.054008   190.192118

                             ****ORCA TERMINATED NORMALLY****
TOTAL RUN TIME: 0 days 1 hours 56 minutes 26 seconds 34 msec
