                         Program Version 5.0.0 -  RELEASE  -
|  1> ! ri-mp2 cc-pvtz cc-pvtz/c TightSCF NoKeepInts
|  2>
|  3> %scf
|  4>   MaxCore 4096
|  5> end
|  6> *xyz  0  1
|  7>     C       15.0630697   14.3564323   16.9152173
|  8>     C       16.4666132   13.9437929   16.4147480
|  9>     O       17.4346112   15.0169101   16.4835036
| 10>     C       17.0962458   16.3328464   16.3283914
| 11>     O       16.3158547   16.7027033   15.4682724
| 12>     C       17.7137597   17.2243900   17.3704800
| 13>     C       17.5431102   18.5709199   17.3687875
| 14>     C       16.7413226   19.3921456   16.3818394
| 15>     N       18.1740365   19.3589090   18.3361134
| 16>     C       19.0704817   18.8953297   19.2615845
| 17>     S       19.8498137   19.9099390   20.3099252
| 18>     N       19.2930889   17.5420750   19.2735164
| 19>     C       18.5522830   16.5522822   18.4703577
| 20>     C       17.6980396   15.6828128   19.3882950
| 21>     C       18.0085814   14.3225606   19.5741553
| 22>     C       17.2181854   13.5165546   20.4106271
| 23>     C       16.1110218   14.0760565   21.0709356
| 24>     C       15.8040940   15.4322948   20.8951215
| 25>     O       14.7358400   15.9754364   21.5309971
| 26>     C       16.5917112   16.2315610   20.0609672
| 27>     H       15.1224491   14.8392623   17.8980805
| 28>     H       14.4245884   13.4706234   17.0150298
| 29>     H       14.5666626   15.0393205   16.2152356
| 30>     H       16.8318224   13.0949001   17.0067532
| 31>     H       16.3764205   13.6082869   15.3732682
| 32>     H       17.1064010   19.2313966   15.3594042
| 33>     H       16.7858132   20.4688878   16.5828439
| 34>     H       15.6851351   19.0943109   16.4019593
| 35>     H       18.0248746   20.3553142   18.3401053
| 36>     H       19.9325071   17.2264113   19.9913798
| 37>     H       19.2956537   15.9109031   17.9762703
| 38>     H       18.8619837   13.8869033   19.0613052
| 39>     H       17.4651985   12.4650224   20.5465516
| 40>     H       15.4978964   13.4579702   21.7186132
| 41>     H       14.3472605   15.2863639   22.0906045
| 42>     H       16.3405688   17.2801709   19.9427598
| 43> *
| 44>
| 45>                          ****END OF INPUT****

CARTESIAN COORDINATES (ANGSTROEM)
---------------------------------
  C     15.063070   14.356432   16.915217
  C     16.466613   13.943793   16.414748
  O     17.434611   15.016910   16.483504
  C     17.096246   16.332846   16.328391
  O     16.315855   16.702703   15.468272
  C     17.713760   17.224390   17.370480
  C     17.543110   18.570920   17.368787
  C     16.741323   19.392146   16.381839
  N     18.174036   19.358909   18.336113
  C     19.070482   18.895330   19.261584
  S     19.849814   19.909939   20.309925
  N     19.293089   17.542075   19.273516
  C     18.552283   16.552282   18.470358
  C     17.698040   15.682813   19.388295
  C     18.008581   14.322561   19.574155
  C     17.218185   13.516555   20.410627
  C     16.111022   14.076056   21.070936
  C     15.804094   15.432295   20.895121
  O     14.735840   15.975436   21.530997
  C     16.591711   16.231561   20.060967
  H     15.122449   14.839262   17.898080
  H     14.424588   13.470623   17.015030
  H     14.566663   15.039321   16.215236
  H     16.831822   13.094900   17.006753
  H     16.376420   13.608287   15.373268
  H     17.106401   19.231397   15.359404
  H     16.785813   20.468888   16.582844
  H     15.685135   19.094311   16.401959
  H     18.024875   20.355314   18.340105
  H     19.932507   17.226411   19.991380
  H     19.295654   15.910903   17.976270
  H     18.861984   13.886903   19.061305
  H     17.465198   12.465022   20.546552
  H     15.497896   13.457970   21.718613
  H     14.347261   15.286364   22.090604
  H     16.340569   17.280171   19.942760

 Total Charge           Charge          ....    0
 Multiplicity           Mult            ....    1
 Number of Electrons    NEL             ....  154
 Basis Dimension        Dim             ....  828

ORBITAL ENERGIES
----------------

  NO   OCC          E(Eh)            E(eV)
   0   2.0000     -91.889530     -2500.4412
   1   2.0000     -20.599412      -560.5385
   2   2.0000     -20.590535      -560.2970
   3   2.0000     -20.542196      -558.9816
   4   2.0000     -15.629730      -425.3066
   5   2.0000     -15.608883      -424.7393
   6   2.0000     -11.394270      -310.0538
   7   2.0000     -11.384598      -309.7907
   8   2.0000     -11.336372      -308.4784
   9   2.0000     -11.316901      -307.9485
  10   2.0000     -11.309742      -307.7537
  11   2.0000     -11.299410      -307.4726
  12   2.0000     -11.262381      -306.4650
  13   2.0000     -11.258706      -306.3650
  14   2.0000     -11.258614      -306.3625
  15   2.0000     -11.252382      -306.1929
  16   2.0000     -11.246315      -306.0278
  17   2.0000     -11.241255      -305.8901
  18   2.0000     -11.241157      -305.8874
  19   2.0000     -11.222120      -305.3694
  20   2.0000      -8.894586      -242.0340
  21   2.0000      -6.576159      -178.9464
  22   2.0000      -6.574156      -178.8919
  23   2.0000      -6.573567      -178.8759
  24   2.0000      -1.444719       -39.3128
  25   2.0000      -1.419132       -38.6166
  26   2.0000      -1.351573       -36.7782
  27   2.0000      -1.340705       -36.4824
  28   2.0000      -1.239270       -33.7222
  29   2.0000      -1.160412       -31.5764
  30   2.0000      -1.120985       -30.5035
  31   2.0000      -1.044518       -28.4228
  32   2.0000      -1.032675       -28.1005
  33   2.0000      -1.018333       -27.7102
  34   2.0000      -0.996587       -27.1185
  35   2.0000      -0.985227       -26.8094
  36   2.0000      -0.923835       -25.1388
  37   2.0000      -0.897043       -24.4098
  38   2.0000      -0.847940       -23.0736
  39   2.0000      -0.840535       -22.8721
  40   2.0000      -0.837027       -22.7767
  41   2.0000      -0.817124       -22.2351
  42   2.0000      -0.745817       -20.2947
  43   2.0000      -0.733686       -19.9646
  44   2.0000      -0.722127       -19.6501
  45   2.0000      -0.698407       -19.0046
  46   2.0000      -0.689863       -18.7721
  47   2.0000      -0.674574       -18.3561
  48   2.0000      -0.671033       -18.2597
  49   2.0000      -0.660736       -17.9795
  50   2.0000      -0.651371       -17.7247
  51   2.0000      -0.641896       -17.4669
  52   2.0000      -0.635479       -17.2923
  53   2.0000      -0.620784       -16.8924
  54   2.0000      -0.609727       -16.5915
  55   2.0000      -0.602584       -16.3971
  56   2.0000      -0.600083       -16.3291
  57   2.0000      -0.579785       -15.7767
  58   2.0000      -0.571239       -15.5442
  59   2.0000      -0.566582       -15.4175
  60   2.0000      -0.551975       -15.0200
  61   2.0000      -0.543459       -14.7883
  62   2.0000      -0.534459       -14.5434
  63   2.0000      -0.527148       -14.3444
  64   2.0000      -0.523752       -14.2520
  65   2.0000      -0.514313       -13.9952
  66   2.0000      -0.502374       -13.6703
  67   2.0000      -0.499553       -13.5935
  68   2.0000      -0.484396       -13.1811
  69   2.0000      -0.464507       -12.6399
  70   2.0000      -0.453982       -12.3535
  71   2.0000      -0.442862       -12.0509
  72   2.0000      -0.354915        -9.6577
  73   2.0000      -0.352003        -9.5785
  74   2.0000      -0.329191        -8.9577
  75   2.0000      -0.324761        -8.8372
  76   2.0000      -0.316856        -8.6221
  77   0.0000       0.073626         2.0035
  78   0.0000       0.102962         2.8017
  79   0.0000       0.123763         3.3678
  80   0.0000       0.130876         3.5613
  81   0.0000       0.136353         3.7103

MULLIKEN ATOMIC CHARGES
-----------------------
   0 C :   -0.327248
   1 C :    0.034547
   2 O :   -0.382126
   3 C :    0.483486
   4 O :   -0.427041
   5 C :   -0.244437
   6 C :    0.156617
   7 C :   -0.272067
   8 N :   -0.122010
   9 C :    0.210971
  10 S :   -0.439035
  11 N :   -0.205089
  12 C :    0.064424
  13 C :    0.041993
  14 C :   -0.184203
  15 C :   -0.131855
  16 C :   -0.272439
  17 C :    0.313796
  18 O :   -0.359387
  19 C :   -0.268331
  20 H :    0.108582
  21 H :    0.101314
  22 H :    0.127546
  23 H :    0.108471
  24 H :    0.119567
  25 H :    0.132466
  26 H :    0.095342
  27 H :    0.131250
  28 H :    0.197744
  29 H :    0.194511
  30 H :    0.151648
  31 H :    0.157085
  32 H :    0.163150
  33 H :    0.132361
  34 H :    0.241051
  35 H :    0.167346
Sum of atomic charges:    0.0000000

LOEWDIN ATOMIC CHARGES
----------------------
   0 C :    0.105504
   1 C :   -0.012894
   2 O :    0.292640
   3 C :   -0.416811
   4 O :    0.104632
   5 C :   -0.096367
   6 C :   -0.058420
   7 C :    0.131737
   8 N :    0.406722
   9 C :   -0.456496
  10 S :   -0.034793
  11 N :    0.396521
  12 C :   -0.052049
  13 C :   -0.039589
  14 C :    0.016465
  15 C :    0.039596
  16 C :   -0.001548
  17 C :   -0.190821
  18 O :    0.396384
  19 C :    0.031040
  20 H :   -0.028057
  21 H :   -0.025605
  22 H :   -0.026144
  23 H :   -0.027427
  24 H :   -0.028555
  25 H :   -0.003420
  26 H :   -0.023384
  27 H :   -0.004898
  28 H :   -0.057468
  29 H :   -0.064691
  30 H :   -0.009863
  31 H :   -0.029197
  32 H :   -0.020836
  33 H :   -0.035013
  34 H :   -0.153271
  35 H :   -0.023626

  Mayer bond orders larger than 0.100000
B(  0-C ,  1-C ) :   0.9565 B(  0-C , 20-H ) :   0.9696 B(  0-C , 21-H ) :   0.9775
B(  0-C , 22-H ) :   0.9732 B(  1-C ,  2-O ) :   0.8849 B(  1-C , 23-H ) :   0.9800
B(  1-C , 24-H ) :   0.9864 B(  2-O ,  3-C ) :   1.1357 B(  3-C ,  4-O ) :   1.9884
B(  3-C ,  5-C ) :   1.0566 B(  5-C ,  6-C ) :   1.6519 B(  5-C , 12-C ) :   0.9691
B(  6-C ,  7-C ) :   0.9660 B(  6-C ,  8-N ) :   1.1627 B(  7-C , 25-H ) :   0.9599
B(  7-C , 26-H ) :   0.9902 B(  7-C , 27-H ) :   0.9607 B(  8-N ,  9-C ) :   1.1824
B(  8-N , 28-H ) :   0.9478 B(  9-C , 10-S ) :   1.6086 B(  9-C , 11-N ) :   1.3051
B( 11-N , 12-C ) :   0.9850 B( 11-N , 29-H ) :   0.9520 B( 12-C , 13-C ) :   0.9360
B( 12-C , 30-H ) :   1.0016 B( 13-C , 14-C ) :   1.3547 B( 13-C , 19-C ) :   1.3819
B( 14-C , 15-C ) :   1.3831 B( 14-C , 31-H ) :   0.9707 B( 15-C , 16-C ) :   1.3653
B( 15-C , 32-H ) :   0.9702 B( 16-C , 17-C ) :   1.3309 B( 16-C , 33-H ) :   0.9841
B( 17-C , 18-O ) :   1.1100 B( 17-C , 19-C ) :   1.3684 B( 18-O , 34-H ) :   0.9795
B( 19-C , 35-H ) :   0.9590

MP2 TOTAL ENERGY:    -1274.342525583 Eh
FINAL SINGLE POINT ENERGY     -1274.342525583379

DIPOLE MOMENT
-------------
                                X             Y             Z
Electronic contribution:      9.98590       9.56490       6.24809
Nuclear contribution   :    -10.99465     -11.28366      -6.37640
                        -----------------------------------------
Total Dipole Moment    :     -1.00875      -1.71876      -0.12832
                        -----------------------------------------
Magnitude (a.u.)       :      1.99704
Magnitude (Debye)      :      5.07608

Rotational constants in cm-1:     0.012595     0.008898     0.006485
Rotational constants in MHz :   377.595993   266.759832   194.424184

                             ****ORCA TERMINATED NORMALLY****
TOTAL RUN TIME: 0 days 2 hours 7 minutes 33 seconds 147 msec
