                         Program Version 4.2.0 -  RELEASE  -
|  1> ! ri-mp2 cc-pvtz cc-pvtz/c TightSCF  NoKeepInts
|  2>
|  3> %scf
|  4>   MaxCore 4096
|  5> end
|  6> *xyz  0  1
|  7>     C       15.1695014   14.0285655   16.9031351
|  8>     C       16.4945053   13.9906504   16.1114614
|  9>     O       17.3635838   15.0517790   16.5522420
| 10>     C       16.9897590   16.3604034   16.4151472
| 11>     O       16.1699993   16.7197041   15.5867985
| 12>     C       17.6586539   17.2647445   17.4126821
| 13>     C       17.4995964   18.6123741   17.3947125
| 14>     C       16.6729569   19.4242901   16.4206729
| 15>     N       18.1654169   19.4096792   18.3303541
| 16>     C       19.0692717   18.9503678   19.2506648
| 17>     S       19.8760558   19.9730252   20.2700969
| 18>     N       19.2744346   17.5947287   19.2839859
| 19>     C       18.5230352   16.6002043   18.4967091
| 20>     C       17.6911248   15.7255105   19.4304868
| 21>     C       18.0237199   14.3714727   19.6235786
| 22>     C       17.2550491   13.5608780   20.4757956
| 23>     C       16.1459039   14.1088396   21.1424746
| 24>     C       15.8149415   15.4580786   20.9564020
| 25>     O       14.7447877   15.9900337   21.5987164
| 26>     C       16.5819217   16.2623276   20.1079375
| 27>     H       15.3629826   14.0187044   17.9830762
| 28>     H       14.5555727   13.1534270   16.6591537
| 29>     H       14.5832297   14.9242483   16.6639903
| 30>     H       16.9890448   13.0253245   16.2784296
| 31>     H       16.2893308   14.0880719   15.0367177
| 32>     H       16.9941146   19.2335728   15.3887492
| 33>     H       16.7435869   20.5044590   16.5939518
| 34>     H       15.6136161   19.1455512   16.4898956
| 35>     H       18.0277997   20.4076829   18.3206061
| 36>     H       19.9174201   17.2829473   20.0003479
| 37>     H       19.2601035   15.9626384   17.9885317
| 38>     H       18.8770068   13.9439025   19.1039924
| 39>     H       17.5191677   12.5142688   20.6169622
| 40>     H       15.5491340   13.4870093   21.8016531
| 41>     H       14.3678128   15.2969191   22.1611412
| 42>     H       16.3128584   17.3056156   19.9827474
| 43> *
| 44>
| 45>                          ****END OF INPUT****

CARTESIAN COORDINATES (ANGSTROEM)
---------------------------------
  C     15.169501   14.028565   16.903135
  C     16.494505   13.990650   16.111461
  O     17.363584   15.051779   16.552242
  C     16.989759   16.360403   16.415147
  O     16.169999   16.719704   15.586799
  C     17.658654   17.264744   17.412682
  C     17.499596   18.612374   17.394713
  C     16.672957   19.424290   16.420673
  N     18.165417   19.409679   18.330354
  C     19.069272   18.950368   19.250665
  S     19.876056   19.973025   20.270097
  N     19.274435   17.594729   19.283986
  C     18.523035   16.600204   18.496709
  C     17.691125   15.725510   19.430487
  C     18.023720   14.371473   19.623579
  C     17.255049   13.560878   20.475796
  C     16.145904   14.108840   21.142475
  C     15.814941   15.458079   20.956402
  O     14.744788   15.990034   21.598716
  C     16.581922   16.262328   20.107937
  H     15.362983   14.018704   17.983076
  H     14.555573   13.153427   16.659154
  H     14.583230   14.924248   16.663990
  H     16.989045   13.025324   16.278430
  H     16.289331   14.088072   15.036718
  H     16.994115   19.233573   15.388749
  H     16.743587   20.504459   16.593952
  H     15.613616   19.145551   16.489896
  H     18.027800   20.407683   18.320606
  H     19.917420   17.282947   20.000348
  H     19.260103   15.962638   17.988532
  H     18.877007   13.943903   19.103992
  H     17.519168   12.514269   20.616962
  H     15.549134   13.487009   21.801653
  H     14.367813   15.296919   22.161141
  H     16.312858   17.305616   19.982747

 Total Charge           Charge          ....    0
 Multiplicity           Mult            ....    1
 Number of Electrons    NEL             ....  154
 Basis Dimension        Dim             ....  828

ORBITAL ENERGIES
----------------

  NO   OCC          E(Eh)            E(eV)
   0   2.0000     -91.889065     -2500.4286
   1   2.0000     -20.597845      -560.4959
   2   2.0000     -20.597770      -560.4938
   3   2.0000     -20.541579      -558.9648
   4   2.0000     -15.629263      -425.2939
   5   2.0000     -15.608553      -424.7303
   6   2.0000     -11.394798      -310.0682
   7   2.0000     -11.384265      -309.7816
   8   2.0000     -11.336199      -308.4737
   9   2.0000     -11.315309      -307.9052
  10   2.0000     -11.309248      -307.7403
  11   2.0000     -11.297279      -307.4146
  12   2.0000     -11.260861      -306.4236
  13   2.0000     -11.258903      -306.3703
  14   2.0000     -11.256633      -306.3085
  15   2.0000     -11.252257      -306.1895
  16   2.0000     -11.244556      -305.9799
  17   2.0000     -11.239729      -305.8486
  18   2.0000     -11.239327      -305.8376
  19   2.0000     -11.220810      -305.3338
  20   2.0000      -8.894126      -242.0215
  21   2.0000      -6.575700      -178.9339
  22   2.0000      -6.573696      -178.8793
  23   2.0000      -6.573109      -178.8634
  24   2.0000      -1.449246       -39.4360
  25   2.0000      -1.417540       -38.5732
  26   2.0000      -1.353442       -36.8290
  27   2.0000      -1.340228       -36.4695
  28   2.0000      -1.238799       -33.7094
  29   2.0000      -1.158952       -31.5367
  30   2.0000      -1.120882       -30.5008
  31   2.0000      -1.043541       -28.3962
  32   2.0000      -1.033692       -28.1282
  33   2.0000      -1.016449       -27.6590
  34   2.0000      -0.995707       -27.0946
  35   2.0000      -0.984532       -26.7905
  36   2.0000      -0.923106       -25.1190
  37   2.0000      -0.895262       -24.3613
  38   2.0000      -0.847369       -23.0581
  39   2.0000      -0.838777       -22.8243
  40   2.0000      -0.835240       -22.7280
  41   2.0000      -0.815655       -22.1951
  42   2.0000      -0.752044       -20.4642
  43   2.0000      -0.733339       -19.9552
  44   2.0000      -0.723338       -19.6830
  45   2.0000      -0.696910       -18.9639
  46   2.0000      -0.689048       -18.7499
  47   2.0000      -0.677498       -18.4357
  48   2.0000      -0.670913       -18.2565
  49   2.0000      -0.661530       -18.0012
  50   2.0000      -0.649178       -17.6650
  51   2.0000      -0.641192       -17.4477
  52   2.0000      -0.632979       -17.2242
  53   2.0000      -0.613435       -16.6924
  54   2.0000      -0.608140       -16.5483
  55   2.0000      -0.600991       -16.3538
  56   2.0000      -0.599465       -16.3123
  57   2.0000      -0.578505       -15.7419
  58   2.0000      -0.570969       -15.5368
  59   2.0000      -0.567415       -15.4401
  60   2.0000      -0.557576       -15.1724
  61   2.0000      -0.543419       -14.7872
  62   2.0000      -0.533627       -14.5207
  63   2.0000      -0.527380       -14.3508
  64   2.0000      -0.525818       -14.3082
  65   2.0000      -0.513499       -13.9730
  66   2.0000      -0.502093       -13.6626
  67   2.0000      -0.500329       -13.6146
  68   2.0000      -0.480645       -13.0790
  69   2.0000      -0.464967       -12.6524
  70   2.0000      -0.454103       -12.3568
  71   2.0000      -0.445501       -12.1227
  72   2.0000      -0.354499        -9.6464
  73   2.0000      -0.350839        -9.5468
  74   2.0000      -0.328579        -8.9411
  75   2.0000      -0.322885        -8.7862
  76   2.0000      -0.316502        -8.6125
  77   0.0000       0.075546         2.0557
  78   0.0000       0.105342         2.8665
  79   0.0000       0.124627         3.3913
  80   0.0000       0.131829         3.5873
  81   0.0000       0.137573         3.7436

MULLIKEN ATOMIC CHARGES
-----------------------
   0 C :   -0.316655
   1 C :    0.023600
   2 O :   -0.364593
   3 C :    0.468011
   4 O :   -0.434198
   5 C :   -0.231353
   6 C :    0.155079
   7 C :   -0.272179
   8 N :   -0.121573
   9 C :    0.212410
  10 S :   -0.440066
  11 N :   -0.206359
  12 C :    0.066121
  13 C :    0.048380
  14 C :   -0.185506
  15 C :   -0.133834
  16 C :   -0.278446
  17 C :    0.310804
  18 O :   -0.357425
  19 C :   -0.253403
  20 H :    0.110566
  21 H :    0.100369
  22 H :    0.117405
  23 H :    0.113448
  24 H :    0.116953
  25 H :    0.131408
  26 H :    0.095401
  27 H :    0.131846
  28 H :    0.197282
  29 H :    0.195090
  30 H :    0.150660
  31 H :    0.151983
  32 H :    0.160547
  33 H :    0.131002
  34 H :    0.240908
  35 H :    0.166319
Sum of atomic charges:   -0.0000000

LOEWDIN ATOMIC CHARGES
----------------------
   0 C :    0.105072
   1 C :   -0.016892
   2 O :    0.303065
   3 C :   -0.414412
   4 O :    0.097690
   5 C :   -0.094630
   6 C :   -0.058976
   7 C :    0.131725
   8 N :    0.406663
   9 C :   -0.456008
  10 S :   -0.035470
  11 N :    0.396477
  12 C :   -0.051720
  13 C :   -0.039227
  14 C :    0.013852
  15 C :    0.038868
  16 C :   -0.002438
  17 C :   -0.190224
  18 O :    0.396031
  19 C :    0.031576
  20 H :   -0.026084
  21 H :   -0.027392
  22 H :   -0.026361
  23 H :   -0.025024
  24 H :   -0.028042
  25 H :   -0.003744
  26 H :   -0.023354
  27 H :   -0.004725
  28 H :   -0.057524
  29 H :   -0.064590
  30 H :   -0.010760
  31 H :   -0.029759
  32 H :   -0.021120
  33 H :   -0.035347
  34 H :   -0.153616
  35 H :   -0.023578

  Mayer bond orders larger than 0.100000
B(  0-C ,  1-C ) :   0.9574 B(  0-C , 20-H ) :   0.9695 B(  0-C , 21-H ) :   0.9781
B(  0-C , 22-H ) :   0.9749 B(  1-C ,  2-O ) :   0.8917 B(  1-C , 23-H ) :   0.9841
B(  1-C , 24-H ) :   0.9835 B(  2-O ,  3-C ) :   1.1565 B(  3-C ,  4-O ) :   1.9719
B(  3-C ,  5-C ) :   1.0603 B(  5-C ,  6-C ) :   1.6541 B(  5-C , 12-C ) :   0.9714
B(  6-C ,  7-C ) :   0.9659 B(  6-C ,  8-N ) :   1.1651 B(  7-C , 25-H ) :   0.9605
B(  7-C , 26-H ) :   0.9903 B(  7-C , 27-H ) :   0.9603 B(  8-N ,  9-C ) :   1.1833
B(  8-N , 28-H ) :   0.9477 B(  9-C , 10-S ) :   1.6066 B(  9-C , 11-N ) :   1.3061
B( 11-N , 12-C ) :   0.9857 B( 11-N , 29-H ) :   0.9515 B( 12-C , 13-C ) :   0.9354
B( 12-C , 30-H ) :   1.0018 B( 13-C , 14-C ) :   1.3560 B( 13-C , 19-C ) :   1.3852
B( 14-C , 15-C ) :   1.3907 B( 14-C , 31-H ) :   0.9716 B( 15-C , 16-C ) :   1.3596
B( 15-C , 32-H ) :   0.9715 B( 16-C , 17-C ) :   1.3315 B( 16-C , 33-H ) :   0.9852
B( 17-C , 18-O ) :   1.1114 B( 17-C , 19-C ) :   1.3705 B( 18-O , 34-H ) :   0.9796
B( 19-C , 35-H ) :   0.9574

MP2 TOTAL ENERGY:    -1274.350272747 Eh
FINAL SINGLE POINT ENERGY     -1274.350272746556

DIPOLE MOMENT
-------------
                                X             Y             Z
Electronic contribution:      9.61653      10.25805       6.73734
Nuclear contribution   :    -10.53270     -12.00754      -7.06035
                        -----------------------------------------
Total Dipole Moment    :     -0.91618      -1.74949      -0.32301
                        -----------------------------------------
Magnitude (a.u.)       :      2.00111
Magnitude (Debye)      :      5.08641

Rotational constants in cm-1:     0.012492     0.008743     0.006368
Rotational constants in MHz :   374.515376   262.120263   190.916069

                             ****ORCA TERMINATED NORMALLY****
TOTAL RUN TIME: 0 days 1 hours 43 minutes 22 seconds 600 msec
