                         Program Version 4.2.0 -  RELEASE  -
|  1> ! ri-mp2 cc-pvtz cc-pvtz/c TightSCF  NoKeepInts
|  2>
|  3> %scf
|  4>   MaxCore 4096
|  5> end
|  6> *xyz  0  1
|  7>     C       14.9491211   14.6312663   17.3916312
|  8>     C       15.5391896   15.5719254   16.3279990
|  9>     O       16.8782602   15.1163301   16.0457668
| 10>     C       18.0586895   15.6926503   16.4536954
| 11>     O       19.0791064   15.0311190   16.4041958
| 12>     C       17.9761964   16.8708633   17.3708720
| 13>     C       17.5067456   18.0739559   16.9628776
| 14>     C       16.9951100   18.4352875   15.5833966
| 15>     N       17.5652334   19.1739513   17.8211328
| 16>     C       18.2134864   19.1851968   19.0284436
| 17>     S       18.3123353   20.5557189   19.9481181
| 18>     N       18.7798860   18.0018892   19.4340261
| 19>     C       18.6332411   16.7048510   18.7427619
| 20>     C       17.8752683   15.6968029   19.6013927
| 21>     C       18.2715932   14.3467404   19.6114145
| 22>     C       17.5820170   13.4025744   20.3900637
| 23>     C       16.4846947   13.8102239   21.1672527
| 24>     C       16.0826594   15.1525706   21.1571593
| 25>     O       15.0150254   15.5466534   21.8955789
| 26>     C       16.7688361   16.0903983   20.3785959
| 27>     H       15.5487542   14.6496321   18.3070269
| 28>     H       14.9264051   13.5984885   17.0219268
| 29>     H       13.9246202   14.9277952   17.6467285
| 30>     H       14.9316191   15.5031743   15.4163632
| 31>     H       15.4893034   16.6002846   16.6929463
| 32>     H       17.1212758   17.6191838   14.8615391
| 33>     H       17.5439403   19.2961643   15.1800365
| 34>     H       15.9308022   18.6993888   15.6106844
| 35>     H       17.1764852   20.0577149   17.5313282
| 36>     H       19.2398830   18.0354599   20.3351337
| 37>     H       19.6449980   16.3053959   18.5774011
| 38>     H       19.1131858   14.0256073   19.0007066
| 39>     H       17.8976253   12.3605805   20.3847267
| 40>     H       15.9486040   13.0834096   21.7685829
| 41>     H       14.7091404   14.7765349   22.3982512
| 42>     H       16.4336628   17.1222166   20.3842430
| 43> *
| 44>
| 45>                          ****END OF INPUT****

CARTESIAN COORDINATES (ANGSTROEM)
---------------------------------
  C     14.949121   14.631266   17.391631
  C     15.539190   15.571925   16.327999
  O     16.878260   15.116330   16.045767
  C     18.058689   15.692650   16.453695
  O     19.079106   15.031119   16.404196
  C     17.976196   16.870863   17.370872
  C     17.506746   18.073956   16.962878
  C     16.995110   18.435287   15.583397
  N     17.565233   19.173951   17.821133
  C     18.213486   19.185197   19.028444
  S     18.312335   20.555719   19.948118
  N     18.779886   18.001889   19.434026
  C     18.633241   16.704851   18.742762
  C     17.875268   15.696803   19.601393
  C     18.271593   14.346740   19.611414
  C     17.582017   13.402574   20.390064
  C     16.484695   13.810224   21.167253
  C     16.082659   15.152571   21.157159
  O     15.015025   15.546653   21.895579
  C     16.768836   16.090398   20.378596
  H     15.548754   14.649632   18.307027
  H     14.926405   13.598488   17.021927
  H     13.924620   14.927795   17.646728
  H     14.931619   15.503174   15.416363
  H     15.489303   16.600285   16.692946
  H     17.121276   17.619184   14.861539
  H     17.543940   19.296164   15.180036
  H     15.930802   18.699389   15.610684
  H     17.176485   20.057715   17.531328
  H     19.239883   18.035460   20.335134
  H     19.644998   16.305396   18.577401
  H     19.113186   14.025607   19.000707
  H     17.897625   12.360580   20.384727
  H     15.948604   13.083410   21.768583
  H     14.709140   14.776535   22.398251
  H     16.433663   17.122217   20.384243

 Total Charge           Charge          ....    0
 Multiplicity           Mult            ....    1
 Number of Electrons    NEL             ....  154
 Basis Dimension        Dim             ....  828

ORBITAL ENERGIES
----------------

  NO   OCC          E(Eh)            E(eV)
   0   2.0000     -91.890701     -2500.4731
   1   2.0000     -20.601795      -560.6033
   2   2.0000     -20.599016      -560.5277
   3   2.0000     -20.548931      -559.1648
   4   2.0000     -15.628174      -425.2642
   5   2.0000     -15.611822      -424.8193
   6   2.0000     -11.399916      -310.2075
   7   2.0000     -11.387257      -309.8630
   8   2.0000     -11.331958      -308.3582
   9   2.0000     -11.316145      -307.9280
  10   2.0000     -11.314918      -307.8946
  11   2.0000     -11.305074      -307.6267
  12   2.0000     -11.271286      -306.7073
  13   2.0000     -11.267387      -306.6012
  14   2.0000     -11.263467      -306.4945
  15   2.0000     -11.256520      -306.3055
  16   2.0000     -11.245452      -306.0043
  17   2.0000     -11.241428      -305.8948
  18   2.0000     -11.238321      -305.8103
  19   2.0000     -11.225256      -305.4547
  20   2.0000      -8.895804      -242.0671
  21   2.0000      -6.577391      -178.9799
  22   2.0000      -6.575366      -178.9248
  23   2.0000      -6.574789      -178.9091
  24   2.0000      -1.447447       -39.3870
  25   2.0000      -1.418813       -38.6079
  26   2.0000      -1.358789       -36.9745
  27   2.0000      -1.341553       -36.5055
  28   2.0000      -1.240809       -33.7641
  29   2.0000      -1.160840       -31.5881
  30   2.0000      -1.126320       -30.6487
  31   2.0000      -1.049123       -28.5481
  32   2.0000      -1.037924       -28.2434
  33   2.0000      -1.018692       -27.7200
  34   2.0000      -1.005963       -27.3737
  35   2.0000      -0.990180       -26.9442
  36   2.0000      -0.928372       -25.2623
  37   2.0000      -0.886937       -24.1348
  38   2.0000      -0.855638       -23.2831
  39   2.0000      -0.842053       -22.9134
  40   2.0000      -0.836237       -22.7552
  41   2.0000      -0.834238       -22.7008
  42   2.0000      -0.754325       -20.5262
  43   2.0000      -0.741001       -20.1637
  44   2.0000      -0.731099       -19.8942
  45   2.0000      -0.697065       -18.9681
  46   2.0000      -0.689007       -18.7488
  47   2.0000      -0.681750       -18.5514
  48   2.0000      -0.676510       -18.4088
  49   2.0000      -0.662371       -18.0240
  50   2.0000      -0.654510       -17.8101
  51   2.0000      -0.642740       -17.4898
  52   2.0000      -0.639163       -17.3925
  53   2.0000      -0.617325       -16.7983
  54   2.0000      -0.610203       -16.6045
  55   2.0000      -0.607423       -16.5288
  56   2.0000      -0.602357       -16.3910
  57   2.0000      -0.587543       -15.9878
  58   2.0000      -0.578249       -15.7349
  59   2.0000      -0.568269       -15.4634
  60   2.0000      -0.563517       -15.3341
  61   2.0000      -0.554836       -15.0978
  62   2.0000      -0.543706       -14.7950
  63   2.0000      -0.532977       -14.5030
  64   2.0000      -0.519233       -14.1291
  65   2.0000      -0.513313       -13.9680
  66   2.0000      -0.504101       -13.7173
  67   2.0000      -0.501907       -13.6576
  68   2.0000      -0.484493       -13.1837
  69   2.0000      -0.470512       -12.8033
  70   2.0000      -0.452884       -12.3236
  71   2.0000      -0.448546       -12.2056
  72   2.0000      -0.358730        -9.7615
  73   2.0000      -0.351577        -9.5669
  74   2.0000      -0.330298        -8.9879
  75   2.0000      -0.324378        -8.8268
  76   2.0000      -0.319390        -8.6910
  77   0.0000       0.084475         2.2987
  78   0.0000       0.105690         2.8760
  79   0.0000       0.111327         3.0294
  80   0.0000       0.129121         3.5136
  81   0.0000       0.131218         3.5706

MULLIKEN ATOMIC CHARGES
-----------------------
   0 C :   -0.264898
   1 C :    0.019374
   2 O :   -0.315469
   3 C :    0.403210
   4 O :   -0.384555
   5 C :   -0.186785
   6 C :    0.129579
   7 C :   -0.322645
   8 N :   -0.135583
   9 C :    0.202555
  10 S :   -0.439776
  11 N :   -0.219492
  12 C :    0.068276
  13 C :    0.002346
  14 C :   -0.195155
  15 C :   -0.137097
  16 C :   -0.268296
  17 C :    0.303997
  18 O :   -0.359153
  19 C :   -0.243078
  20 H :    0.106617
  21 H :    0.105869
  22 H :    0.090135
  23 H :    0.113565
  24 H :    0.089643
  25 H :    0.125846
  26 H :    0.140197
  27 H :    0.121354
  28 H :    0.196369
  29 H :    0.200632
  30 H :    0.167404
  31 H :    0.173109
  32 H :    0.163366
  33 H :    0.132194
  34 H :    0.241219
  35 H :    0.175123
Sum of atomic charges:    0.0000000

LOEWDIN ATOMIC CHARGES
----------------------
   0 C :    0.109814
   1 C :   -0.021877
   2 O :    0.309672
   3 C :   -0.416173
   4 O :    0.121624
   5 C :   -0.081255
   6 C :   -0.102996
   7 C :    0.123928
   8 N :    0.401777
   9 C :   -0.457367
  10 S :   -0.036962
  11 N :    0.397920
  12 C :   -0.043325
  13 C :   -0.044583
  14 C :    0.020753
  15 C :    0.045191
  16 C :   -0.000887
  17 C :   -0.193239
  18 O :    0.395890
  19 C :    0.025648
  20 H :   -0.025663
  21 H :   -0.024659
  22 H :   -0.026996
  23 H :   -0.026800
  24 H :   -0.040468
  25 H :   -0.007951
  26 H :   -0.009020
  27 H :   -0.017099
  28 H :   -0.057517
  29 H :   -0.063339
  30 H :   -0.001854
  31 H :   -0.021533
  32 H :   -0.018343
  33 H :   -0.034747
  34 H :   -0.153116
  35 H :   -0.024450

  Mayer bond orders larger than 0.100000
B(  0-C ,  1-C ) :   0.9781 B(  0-C , 20-H ) :   0.9693 B(  0-C , 21-H ) :   0.9809
B(  0-C , 22-H ) :   0.9755 B(  1-C ,  2-O ) :   0.9055 B(  1-C , 23-H ) :   0.9820
B(  1-C , 24-H ) :   0.9625 B(  2-O ,  3-C ) :   1.1815 B(  3-C ,  4-O ) :   2.0836
B(  3-C ,  5-C ) :   0.9231 B(  5-C ,  6-C ) :   1.6942 B(  5-C , 12-C ) :   0.9553
B(  6-C ,  7-C ) :   0.9454 B(  6-C ,  8-N ) :   1.1106 B(  7-C , 25-H ) :   0.9798
B(  7-C , 26-H ) :   0.9702 B(  7-C , 27-H ) :   0.9661 B(  8-N ,  9-C ) :   1.1940
B(  8-N , 28-H ) :   0.9519 B(  9-C , 10-S ) :   1.6112 B(  9-C , 11-N ) :   1.2891
B( 11-N , 12-C ) :   0.9906 B( 11-N , 29-H ) :   0.9483 B( 12-C , 13-C ) :   0.9472
B( 12-C , 30-H ) :   0.9954 B( 13-C , 14-C ) :   1.3924 B( 13-C , 19-C ) :   1.3534
B( 14-C , 15-C ) :   1.3962 B( 14-C , 31-H ) :   0.9587 B( 15-C , 16-C ) :   1.3594
B( 15-C , 32-H ) :   0.9708 B( 16-C , 17-C ) :   1.3323 B( 16-C , 33-H ) :   0.9850
B( 17-C , 18-O ) :   1.1104 B( 17-C , 19-C ) :   1.3687 B( 18-O , 34-H ) :   0.9793
B( 19-C , 35-H ) :   0.9567

MP2 TOTAL ENERGY:    -1274.332738605 Eh
FINAL SINGLE POINT ENERGY     -1274.332738604717

DIPOLE MOMENT
-------------
                                X             Y             Z
Electronic contribution:      9.80572       7.76128       6.17817
Nuclear contribution   :    -11.36070      -8.68867      -6.72807
                        -----------------------------------------
Total Dipole Moment    :     -1.55498      -0.92739      -0.54990
                        -----------------------------------------
Magnitude (a.u.)       :      1.89219
Magnitude (Debye)      :      4.80957

Rotational constants in cm-1:     0.011956     0.009373     0.006740
Rotational constants in MHz :   358.438062   280.983541   202.070916

                             ****ORCA TERMINATED NORMALLY****
TOTAL RUN TIME: 0 days 1 hours 47 minutes 17 seconds 787 msec
