                         Program Version 4.2.0 -  RELEASE  -
|  1> ! ri-mp2 cc-pvtz cc-pvtz/c TightSCF  NoKeepInts
|  2>
|  3> %scf
|  4>   MaxCore 4096
|  5> end
|  6> *xyz  0  1
|  7>     C       14.7653148   14.4472917   17.2330953
|  8>     C       15.5447042   15.6533932   16.6847599
|  9>     O       16.8124803   15.1489528   16.2160549
| 10>     C       18.0470374   15.6586359   16.5385076
| 11>     O       19.0268300   14.9399753   16.4693579
| 12>     C       18.0682400   16.8905968   17.3829610
| 13>     C       17.5720874   18.0769913   16.9623154
| 14>     C       16.9605045   18.3793917   15.6113391
| 15>     N       17.6588328   19.1987745   17.7894426
| 16>     C       18.3035428   19.2267191   18.9992322
| 17>     S       18.4042500   20.6121610   19.8959699
| 18>     N       18.8550075   18.0455761   19.4333784
| 19>     C       18.7300309   16.7421195   18.7505283
| 20>     C       17.9526872   15.7391033   19.5973035
| 21>     C       18.4090159   14.4141057   19.7199830
| 22>     C       17.6803757   13.4716962   20.4645151
| 23>     C       16.4811894   13.8550268   21.0886150
| 24>     C       16.0187140   15.1716195   20.9619549
| 25>     O       14.8521424   15.5410448   21.5476201
| 26>     C       16.7464797   16.1082344   20.2212904
| 27>     H       15.3149344   13.9786621   18.0597129
| 28>     H       14.6142705   13.6945619   16.4492649
| 29>     H       13.7827858   14.7587553   17.6077151
| 30>     H       14.9905646   16.1190070   15.8597972
| 31>     H       15.6463782   16.3797069   17.4990909
| 32>     H       17.1193316   17.5664120   14.8919428
| 33>     H       17.4096232   19.2789110   15.1710430
| 34>     H       15.8802327   18.5491607   15.6954770
| 35>     H       17.2728406   20.0786891   17.4843633
| 36>     H       19.3044718   18.0918489   20.3392611
| 37>     H       19.7443083   16.3469129   18.5911263
| 38>     H       19.3243395   14.1084403   19.2174167
| 39>     H       18.0421891   12.4480977   20.5464880
| 40>     H       15.9132135   13.1283226   21.6600808
| 41>     H       14.5311184   14.7823662   22.0584996
| 42>     H       16.3669307   17.1207358   20.1344962
| 43> *
| 44>
| 45>                          ****END OF INPUT****

CARTESIAN COORDINATES (ANGSTROEM)
---------------------------------
  C     14.765315   14.447292   17.233095
  C     15.544704   15.653393   16.684760
  O     16.812480   15.148953   16.216055
  C     18.047037   15.658636   16.538508
  O     19.026830   14.939975   16.469358
  C     18.068240   16.890597   17.382961
  C     17.572087   18.076991   16.962315
  C     16.960504   18.379392   15.611339
  N     17.658833   19.198774   17.789443
  C     18.303543   19.226719   18.999232
  S     18.404250   20.612161   19.895970
  N     18.855007   18.045576   19.433378
  C     18.730031   16.742120   18.750528
  C     17.952687   15.739103   19.597303
  C     18.409016   14.414106   19.719983
  C     17.680376   13.471696   20.464515
  C     16.481189   13.855027   21.088615
  C     16.018714   15.171619   20.961955
  O     14.852142   15.541045   21.547620
  C     16.746480   16.108234   20.221290
  H     15.314934   13.978662   18.059713
  H     14.614270   13.694562   16.449265
  H     13.782786   14.758755   17.607715
  H     14.990565   16.119007   15.859797
  H     15.646378   16.379707   17.499091
  H     17.119332   17.566412   14.891943
  H     17.409623   19.278911   15.171043
  H     15.880233   18.549161   15.695477
  H     17.272841   20.078689   17.484363
  H     19.304472   18.091849   20.339261
  H     19.744308   16.346913   18.591126
  H     19.324340   14.108440   19.217417
  H     18.042189   12.448098   20.546488
  H     15.913213   13.128323   21.660081
  H     14.531118   14.782366   22.058500
  H     16.366931   17.120736   20.134496

 Total Charge           Charge          ....    0
 Multiplicity           Mult            ....    1
 Number of Electrons    NEL             ....  154
 Basis Dimension        Dim             ....  828

ORBITAL ENERGIES
----------------

  NO   OCC          E(Eh)            E(eV)
   0   2.0000     -91.890713     -2500.4734
   1   2.0000     -20.601600      -560.5980
   2   2.0000     -20.600650      -560.5722
   3   2.0000     -20.548218      -559.1454
   4   2.0000     -15.628160      -425.2639
   5   2.0000     -15.612197      -424.8295
   6   2.0000     -11.397639      -310.1455
   7   2.0000     -11.387531      -309.8705
   8   2.0000     -11.330442      -308.3170
   9   2.0000     -11.317417      -307.9626
  10   2.0000     -11.314859      -307.8930
  11   2.0000     -11.303705      -307.5895
  12   2.0000     -11.269759      -306.6657
  13   2.0000     -11.264544      -306.5238
  14   2.0000     -11.264090      -306.5115
  15   2.0000     -11.257310      -306.3270
  16   2.0000     -11.246586      -306.0352
  17   2.0000     -11.243118      -305.9408
  18   2.0000     -11.239853      -305.8519
  19   2.0000     -11.227978      -305.5288
  20   2.0000      -8.895821      -242.0676
  21   2.0000      -6.577406      -178.9803
  22   2.0000      -6.575382      -178.9253
  23   2.0000      -6.574805      -178.9095
  24   2.0000      -1.447162       -39.3793
  25   2.0000      -1.420429       -38.6518
  26   2.0000      -1.358589       -36.9691
  27   2.0000      -1.341092       -36.4930
  28   2.0000      -1.240645       -33.7597
  29   2.0000      -1.162201       -31.6251
  30   2.0000      -1.126381       -30.6504
  31   2.0000      -1.049723       -28.5644
  32   2.0000      -1.038448       -28.2576
  33   2.0000      -1.019462       -27.7410
  34   2.0000      -1.005820       -27.3698
  35   2.0000      -0.990073       -26.9413
  36   2.0000      -0.928520       -25.2663
  37   2.0000      -0.882120       -24.0037
  38   2.0000      -0.855768       -23.2866
  39   2.0000      -0.842477       -22.9250
  40   2.0000      -0.837655       -22.7937
  41   2.0000      -0.836576       -22.7644
  42   2.0000      -0.755554       -20.5597
  43   2.0000      -0.740903       -20.1610
  44   2.0000      -0.731847       -19.9146
  45   2.0000      -0.698821       -19.0159
  46   2.0000      -0.689050       -18.7500
  47   2.0000      -0.681083       -18.5332
  48   2.0000      -0.677550       -18.4371
  49   2.0000      -0.659931       -17.9576
  50   2.0000      -0.657749       -17.8983
  51   2.0000      -0.648584       -17.6489
  52   2.0000      -0.640661       -17.4333
  53   2.0000      -0.612356       -16.6631
  54   2.0000      -0.608964       -16.5707
  55   2.0000      -0.605428       -16.4745
  56   2.0000      -0.599226       -16.3058
  57   2.0000      -0.583621       -15.8811
  58   2.0000      -0.579182       -15.7603
  59   2.0000      -0.570270       -15.5178
  60   2.0000      -0.560239       -15.2449
  61   2.0000      -0.559383       -15.2216
  62   2.0000      -0.548650       -14.9295
  63   2.0000      -0.528910       -14.3924
  64   2.0000      -0.518975       -14.1220
  65   2.0000      -0.515135       -14.0175
  66   2.0000      -0.503130       -13.6909
  67   2.0000      -0.501710       -13.6522
  68   2.0000      -0.489265       -13.3136
  69   2.0000      -0.472020       -12.8443
  70   2.0000      -0.451914       -12.2972
  71   2.0000      -0.450371       -12.2552
  72   2.0000      -0.357180        -9.7194
  73   2.0000      -0.352985        -9.6052
  74   2.0000      -0.330341        -8.9890
  75   2.0000      -0.325125        -8.8471
  76   2.0000      -0.318963        -8.6794
  77   0.0000       0.083102         2.2613
  78   0.0000       0.103306         2.8111
  79   0.0000       0.113412         3.0861
  80   0.0000       0.127043         3.4570
  81   0.0000       0.134409         3.6575

MULLIKEN ATOMIC CHARGES
-----------------------
   0 C :   -0.260599
   1 C :    0.002776
   2 O :   -0.312078
   3 C :    0.398602
   4 O :   -0.385565
   5 C :   -0.187031
   6 C :    0.131608
   7 C :   -0.323480
   8 N :   -0.135304
   9 C :    0.202639
  10 S :   -0.439754
  11 N :   -0.211536
  12 C :    0.071042
  13 C :    0.034093
  14 C :   -0.192584
  15 C :   -0.126565
  16 C :   -0.281662
  17 C :    0.315901
  18 O :   -0.360641
  19 C :   -0.287434
  20 H :    0.108716
  21 H :    0.106645
  22 H :    0.089610
  23 H :    0.107170
  24 H :    0.103095
  25 H :    0.130008
  26 H :    0.136869
  27 H :    0.122602
  28 H :    0.196653
  29 H :    0.197772
  30 H :    0.163643
  31 H :    0.167117
  32 H :    0.164117
  33 H :    0.132763
  34 H :    0.242131
  35 H :    0.178661
Sum of atomic charges:   -0.0000000

LOEWDIN ATOMIC CHARGES
----------------------
   0 C :    0.110307
   1 C :   -0.022529
   2 O :    0.309956
   3 C :   -0.417610
   4 O :    0.121505
   5 C :   -0.084800
   6 C :   -0.100669
   7 C :    0.125945
   8 N :    0.401511
   9 C :   -0.456009
  10 S :   -0.036783
  11 N :    0.397190
  12 C :   -0.044602
  13 C :   -0.043271
  14 C :    0.023585
  15 C :    0.045608
  16 C :   -0.000281
  17 C :   -0.193681
  18 O :    0.394877
  19 C :    0.027013
  20 H :   -0.022061
  21 H :   -0.025942
  22 H :   -0.025936
  23 H :   -0.034849
  24 H :   -0.038737
  25 H :   -0.007137
  26 H :   -0.010166
  27 H :   -0.016490
  28 H :   -0.057686
  29 H :   -0.063567
  30 H :   -0.002371
  31 H :   -0.021626
  32 H :   -0.018337
  33 H :   -0.034648
  34 H :   -0.152695
  35 H :   -0.025015

  Mayer bond orders larger than 0.100000
B(  0-C ,  1-C ) :   0.9829 B(  0-C , 20-H ) :   0.9723 B(  0-C , 21-H ) :   0.9805
B(  0-C , 22-H ) :   0.9761 B(  1-C ,  2-O ) :   0.9050 B(  1-C , 23-H ) :   0.9760
B(  1-C , 24-H ) :   0.9593 B(  2-O ,  3-C ) :   1.1930 B(  3-C ,  4-O ) :   2.0889
B(  3-C ,  5-C ) :   0.9275 B(  5-C ,  6-C ) :   1.6838 B(  5-C , 12-C ) :   0.9608
B(  6-C ,  7-C ) :   0.9430 B(  6-C ,  8-N ) :   1.1193 B(  7-C , 25-H ) :   0.9800
B(  7-C , 26-H ) :   0.9724 B(  7-C , 27-H ) :   0.9650 B(  8-N ,  9-C ) :   1.1931
B(  8-N , 28-H ) :   0.9520 B(  9-C , 10-S ) :   1.6129 B(  9-C , 11-N ) :   1.2884
B( 11-N , 12-C ) :   0.9995 B( 11-N , 29-H ) :   0.9495 B( 12-C , 13-C ) :   0.9420
B( 12-C , 30-H ) :   0.9970 B( 13-C , 14-C ) :   1.3880 B( 13-C , 19-C ) :   1.3426
B( 14-C , 15-C ) :   1.3953 B( 14-C , 31-H ) :   0.9610 B( 15-C , 16-C ) :   1.3614
B( 15-C , 32-H ) :   0.9702 B( 16-C , 17-C ) :   1.3296 B( 16-C , 33-H ) :   0.9849
B( 17-C , 18-O ) :   1.1061 B( 17-C , 19-C ) :   1.3703 B( 18-O , 34-H ) :   0.9789
B( 19-C , 35-H ) :   0.9558

MP2 TOTAL ENERGY:    -1274.335134923 Eh
FINAL SINGLE POINT ENERGY     -1274.335134923218

DIPOLE MOMENT
-------------
                                X             Y             Z
Electronic contribution:     10.38581       8.15792       6.02241
Nuclear contribution   :    -11.90655      -9.08957      -6.42539
                        -----------------------------------------
Total Dipole Moment    :     -1.52074      -0.93165      -0.40297
                        -----------------------------------------
Magnitude (a.u.)       :      1.82839
Magnitude (Debye)      :      4.64739

Rotational constants in cm-1:     0.012487     0.009070     0.006917
Rotational constants in MHz :   374.342405   271.919004   207.366390

                             ****ORCA TERMINATED NORMALLY****
TOTAL RUN TIME: 0 days 1 hours 53 minutes 16 seconds 742 msec
