                         Program Version 4.2.0 -  RELEASE  -
|  1> ! ri-mp2 cc-pvtz cc-pvtz/c TightSCF  NoKeepInts
|  2>
|  3> %scf
|  4>   MaxCore 4096
|  5> end
|  6> *xyz  0  1
|  7>     C       15.3044479   14.4269833   17.2394272
|  8>     C       16.4283327   14.0641685   16.2485699
|  9>     O       17.5811163   14.9144660   16.4308886
| 10>     C       17.4777372   16.2381528   16.1083785
| 11>     O       16.8742892   16.5830921   15.1069290
| 12>     C       17.7303419   17.1473190   17.2810229
| 13>     C       17.3677599   18.4563895   17.2831276
| 14>     C       16.5863067   19.1988310   16.2201889
| 15>     N       17.7756609   19.2917434   18.3282759
| 16>     C       18.7162634   18.9568890   19.2664648
| 17>     S       19.2976337   20.0562652   20.3568623
| 18>     N       19.1608215   17.6590163   19.2452046
| 19>     C       18.5403832   16.5773247   18.4581445
| 20>     C       17.7164154   15.6949093   19.3902268
| 21>     C       18.1089683   14.3662833   19.6408221
| 22>     C       17.3766112   13.5589898   20.5277636
| 23>     C       16.2445522   14.0850805   21.1734803
| 24>     C       15.8538080   15.4091994   20.9309696
| 25>     O       14.7609307   15.9198321   21.5517841
| 26>     C       16.5840252   16.2099608   20.0472807
| 27>     H       15.5990580   14.1878077   18.2654869
| 28>     H       14.4005874   13.8492746   17.0120892
| 29>     H       15.0449566   15.4912964   17.1843536
| 30>     H       16.7194223   13.0179814   16.4071336
| 31>     H       16.0559888   14.1531515   15.2187196
| 32>     H       17.1436607   19.2179278   15.2749133
| 33>     H       16.3648586   20.2362672   16.4966699
| 34>     H       15.6289820   18.6988875   16.0253885
| 35>     H       17.4682864   20.2510659   18.3471571
| 36>     H       19.8338025   17.4319787   19.9658926
| 37>     H       19.3524602   15.9675969   18.0376690
| 38>     H       18.9848230   13.9570191   19.1443608
| 39>     H       17.6882294   12.5326120   20.7139516
| 40>     H       15.6765011   13.4659446   21.8600617
| 41>     H       14.4273509   15.2427967   22.1595184
| 42>     H       16.2716267   17.2354962   19.8848222
| 43> *
| 44>
| 45>                          ****END OF INPUT****

CARTESIAN COORDINATES (ANGSTROEM)
---------------------------------
  C     15.304448   14.426983   17.239427
  C     16.428333   14.064168   16.248570
  O     17.581116   14.914466   16.430889
  C     17.477737   16.238153   16.108379
  O     16.874289   16.583092   15.106929
  C     17.730342   17.147319   17.281023
  C     17.367760   18.456390   17.283128
  C     16.586307   19.198831   16.220189
  N     17.775661   19.291743   18.328276
  C     18.716263   18.956889   19.266465
  S     19.297634   20.056265   20.356862
  N     19.160821   17.659016   19.245205
  C     18.540383   16.577325   18.458144
  C     17.716415   15.694909   19.390227
  C     18.108968   14.366283   19.640822
  C     17.376611   13.558990   20.527764
  C     16.244552   14.085080   21.173480
  C     15.853808   15.409199   20.930970
  O     14.760931   15.919832   21.551784
  C     16.584025   16.209961   20.047281
  H     15.599058   14.187808   18.265487
  H     14.400587   13.849275   17.012089
  H     15.044957   15.491296   17.184354
  H     16.719422   13.017981   16.407134
  H     16.055989   14.153151   15.218720
  H     17.143661   19.217928   15.274913
  H     16.364859   20.236267   16.496670
  H     15.628982   18.698888   16.025388
  H     17.468286   20.251066   18.347157
  H     19.833803   17.431979   19.965893
  H     19.352460   15.967597   18.037669
  H     18.984823   13.957019   19.144361
  H     17.688229   12.532612   20.713952
  H     15.676501   13.465945   21.860062
  H     14.427351   15.242797   22.159518
  H     16.271627   17.235496   19.884822

 Total Charge           Charge          ....    0
 Multiplicity           Mult            ....    1
 Number of Electrons    NEL             ....  154
 Basis Dimension        Dim             ....  828

ORBITAL ENERGIES
----------------

  NO   OCC          E(Eh)            E(eV)
   0   2.0000     -91.890341     -2500.4633
   1   2.0000     -20.598594      -560.5162
   2   2.0000     -20.588466      -560.2406
   3   2.0000     -20.546262      -559.0922
   4   2.0000     -15.630784      -425.3353
   5   2.0000     -15.608830      -424.7379
   6   2.0000     -11.394409      -310.0576
   7   2.0000     -11.384834      -309.7971
   8   2.0000     -11.337219      -308.5014
   9   2.0000     -11.315920      -307.9218
  10   2.0000     -11.310764      -307.7815
  11   2.0000     -11.296159      -307.3841
  12   2.0000     -11.261173      -306.4321
  13   2.0000     -11.260356      -306.4099
  14   2.0000     -11.257562      -306.3338
  15   2.0000     -11.253279      -306.2173
  16   2.0000     -11.245464      -306.0046
  17   2.0000     -11.239913      -305.8536
  18   2.0000     -11.239813      -305.8509
  19   2.0000     -11.221327      -305.3478
  20   2.0000      -8.895360      -242.0551
  21   2.0000      -6.576925      -178.9672
  22   2.0000      -6.574932      -178.9130
  23   2.0000      -6.574336      -178.8968
  24   2.0000      -1.448928       -39.4273
  25   2.0000      -1.418298       -38.5938
  26   2.0000      -1.351752       -36.7830
  27   2.0000      -1.341724       -36.5102
  28   2.0000      -1.239785       -33.7363
  29   2.0000      -1.159111       -31.5410
  30   2.0000      -1.120854       -30.5000
  31   2.0000      -1.043871       -28.4052
  32   2.0000      -1.031860       -28.0783
  33   2.0000      -1.017145       -27.6779
  34   2.0000      -0.997709       -27.1490
  35   2.0000      -0.985580       -26.8190
  36   2.0000      -0.924073       -25.1453
  37   2.0000      -0.893544       -24.3146
  38   2.0000      -0.847885       -23.0721
  39   2.0000      -0.840739       -22.8777
  40   2.0000      -0.835811       -22.7436
  41   2.0000      -0.815222       -22.1833
  42   2.0000      -0.752586       -20.4789
  43   2.0000      -0.733820       -19.9683
  44   2.0000      -0.722690       -19.6654
  45   2.0000      -0.698054       -18.9950
  46   2.0000      -0.690558       -18.7910
  47   2.0000      -0.677225       -18.4282
  48   2.0000      -0.668424       -18.1887
  49   2.0000      -0.666390       -18.1334
  50   2.0000      -0.649156       -17.6644
  51   2.0000      -0.644291       -17.5320
  52   2.0000      -0.636785       -17.3278
  53   2.0000      -0.609284       -16.5794
  54   2.0000      -0.608950       -16.5704
  55   2.0000      -0.600622       -16.3437
  56   2.0000      -0.599982       -16.3264
  57   2.0000      -0.579477       -15.7684
  58   2.0000      -0.571528       -15.5521
  59   2.0000      -0.565320       -15.3831
  60   2.0000      -0.553655       -15.0657
  61   2.0000      -0.544700       -14.8220
  62   2.0000      -0.538331       -14.6487
  63   2.0000      -0.527923       -14.3655
  64   2.0000      -0.526860       -14.3366
  65   2.0000      -0.515012       -14.0142
  66   2.0000      -0.503483       -13.7005
  67   2.0000      -0.501281       -13.6405
  68   2.0000      -0.475313       -12.9339
  69   2.0000      -0.464890       -12.6503
  70   2.0000      -0.452315       -12.3081
  71   2.0000      -0.444471       -12.0947
  72   2.0000      -0.357152        -9.7186
  73   2.0000      -0.351088        -9.5536
  74   2.0000      -0.329597        -8.9688
  75   2.0000      -0.324333        -8.8255
  76   2.0000      -0.317097        -8.6287
  77   0.0000       0.069333         1.8866
  78   0.0000       0.105544         2.8720
  79   0.0000       0.121676         3.3110
  80   0.0000       0.130325         3.5463
  81   0.0000       0.135405         3.6845

MULLIKEN ATOMIC CHARGES
-----------------------
   0 C :   -0.319234
   1 C :    0.033863
   2 O :   -0.382721
   3 C :    0.465771
   4 O :   -0.418726
   5 C :   -0.218756
   6 C :    0.152165
   7 C :   -0.270383
   8 N :   -0.124330
   9 C :    0.205963
  10 S :   -0.435259
  11 N :   -0.195473
  12 C :    0.032913
  13 C :    0.060728
  14 C :   -0.184544
  15 C :   -0.130854
  16 C :   -0.277429
  17 C :    0.302736
  18 O :   -0.358607
  19 C :   -0.247675
  20 H :    0.109252
  21 H :    0.114706
  22 H :    0.103749
  23 H :    0.111869
  24 H :    0.118973
  25 H :    0.134773
  26 H :    0.094607
  27 H :    0.128464
  28 H :    0.198535
  29 H :    0.191653
  30 H :    0.150420
  31 H :    0.153085
  32 H :    0.161137
  33 H :    0.131628
  34 H :    0.241157
  35 H :    0.165844
Sum of atomic charges:   -0.0000000

LOEWDIN ATOMIC CHARGES
----------------------
   0 C :    0.106831
   1 C :   -0.015239
   2 O :    0.287155
   3 C :   -0.417270
   4 O :    0.110802
   5 C :   -0.097077
   6 C :   -0.058542
   7 C :    0.130735
   8 N :    0.406870
   9 C :   -0.457648
  10 S :   -0.032328
  11 N :    0.396743
  12 C :   -0.052713
  13 C :   -0.037995
  14 C :    0.013680
  15 C :    0.039120
  16 C :   -0.002724
  17 C :   -0.190950
  18 O :    0.396462
  19 C :    0.033719
  20 H :   -0.027473
  21 H :   -0.025233
  22 H :   -0.028439
  23 H :   -0.023773
  24 H :   -0.028734
  25 H :   -0.003244
  26 H :   -0.023257
  27 H :   -0.006194
  28 H :   -0.057698
  29 H :   -0.065152
  30 H :   -0.006950
  31 H :   -0.029161
  32 H :   -0.020708
  33 H :   -0.035186
  34 H :   -0.153410
  35 H :   -0.025020

  Mayer bond orders larger than 0.100000
B(  0-C ,  1-C ) :   0.9568 B(  0-C , 20-H ) :   0.9726 B(  0-C , 21-H ) :   0.9781
B(  0-C , 22-H ) :   0.9731 B(  1-C ,  2-O ) :   0.8848 B(  1-C , 23-H ) :   0.9840
B(  1-C , 24-H ) :   0.9826 B(  2-O ,  3-C ) :   1.1104 B(  3-C ,  4-O ) :   1.9920
B(  3-C ,  5-C ) :   1.0699 B(  5-C ,  6-C ) :   1.6527 B(  5-C , 12-C ) :   0.9716
B(  6-C ,  7-C ) :   0.9711 B(  6-C ,  8-N ) :   1.1509 B(  7-C , 25-H ) :   0.9575
B(  7-C , 26-H ) :   0.9892 B(  7-C , 27-H ) :   0.9636 B(  8-N ,  9-C ) :   1.1781
B(  8-N , 28-H ) :   0.9483 B(  9-C , 10-S ) :   1.6159 B(  9-C , 11-N ) :   1.3013
B( 11-N , 12-C ) :   0.9819 B( 11-N , 29-H ) :   0.9540 B( 12-C , 13-C ) :   0.9399
B( 12-C , 30-H ) :   1.0044 B( 13-C , 14-C ) :   1.3585 B( 13-C , 19-C ) :   1.3735
B( 14-C , 15-C ) :   1.3867 B( 14-C , 31-H ) :   0.9705 B( 15-C , 16-C ) :   1.3615
B( 15-C , 32-H ) :   0.9717 B( 16-C , 17-C ) :   1.3306 B( 16-C , 33-H ) :   0.9850
B( 17-C , 18-O ) :   1.1134 B( 17-C , 19-C ) :   1.3777 B( 18-O , 34-H ) :   0.9795
B( 19-C , 35-H ) :   0.9571

MP2 TOTAL ENERGY:    -1274.336355919 Eh
FINAL SINGLE POINT ENERGY     -1274.336355919167

DIPOLE MOMENT
-------------
                                X             Y             Z
Electronic contribution:      9.52417       9.38987       5.56038
Nuclear contribution   :    -10.50362     -11.05829      -5.62882
                        -----------------------------------------
Total Dipole Moment    :     -0.97945      -1.66842      -0.06844
                        -----------------------------------------
Magnitude (a.u.)       :      1.93588
Magnitude (Debye)      :      4.92061

Rotational constants in cm-1:     0.011959     0.009575     0.006579
Rotational constants in MHz :   358.528287   287.037905   197.235289

                             ****ORCA TERMINATED NORMALLY****
TOTAL RUN TIME: 0 days 1 hours 47 minutes 46 seconds 185 msec
