                         Program Version 4.2.0 -  RELEASE  -
|  1> ! ri-mp2 cc-pvtz cc-pvtz/c TightSCF  NoKeepInts
|  2>
|  3> %scf
|  4>   MaxCore 4096
|  5> end
|  6> *xyz  0  1
|  7>     C       15.4269164   13.6861668   15.6066168
|  8>     C       15.1020319   15.0633144   16.2244194
|  9>     O       16.1893919   16.0028979   16.0727062
| 10>     C       17.4163996   15.8088612   16.6471789
| 11>     O       17.9092426   14.7047962   16.8015523
| 12>     C       17.8275684   16.9646907   17.5115405
| 13>     C       17.4854010   18.2572633   17.2747607
| 14>     C       16.6783822   18.8042776   16.1152904
| 15>     N       17.9611432   19.2676958   18.1164927
| 16>     C       18.8854824   19.0873325   19.1115479
| 17>     S       19.4852089   20.3578563   19.9842890
| 18>     N       19.2881729   17.7968646   19.3461555
| 19>     C       18.6935678   16.5996601   18.7220984
| 20>     C       17.8868421   15.8068535   19.7473455
| 21>     C       18.1559714   14.4431376   19.9659556
| 22>     C       17.4109914   13.7066661   20.9021548
| 23>     C       16.3863780   14.3383616   21.6272320
| 24>     C       16.1120892   15.6953560   21.4096135
| 25>     O       15.1181810   16.3063684   22.1024950
| 26>     C       16.8548213   16.4255528   20.4765578
| 27>     H       15.9114764   13.8012470   14.6291426
| 28>     H       14.5064870   13.1071702   15.4653984
| 29>     H       16.0858007   13.0985266   16.2571244
| 30>     H       14.2159813   15.4728434   15.7227630
| 31>     H       14.8569172   14.9394800   17.2879020
| 32>     H       16.9845083   18.3382426   15.1703142
| 33>     H       16.8010014   19.8871457   15.9913043
| 34>     H       15.6095006   18.6033099   16.2589728
| 35>     H       17.6781531   20.2218313   17.9595712
| 36>     H       19.9475090   17.6877772   20.1059602
| 37>     H       19.5181224   15.9651863   18.3660201
| 38>     H       18.9357508   13.9478352   19.3923889
| 39>     H       17.6258412   12.6508824   21.0571829
| 40>     H       15.8074712   13.7728274   22.3497258
| 41>     H       14.7603604   15.6583311   22.7277216
| 42>     H       16.6279356   17.4753904   20.3265048
| 43> *
| 44>
| 45>                          ****END OF INPUT****

CARTESIAN COORDINATES (ANGSTROEM)
---------------------------------
  C     15.426916   13.686167   15.606617
  C     15.102032   15.063314   16.224419
  O     16.189392   16.002898   16.072706
  C     17.416400   15.808861   16.647179
  O     17.909243   14.704796   16.801552
  C     17.827568   16.964691   17.511540
  C     17.485401   18.257263   17.274761
  C     16.678382   18.804278   16.115290
  N     17.961143   19.267696   18.116493
  C     18.885482   19.087332   19.111548
  S     19.485209   20.357856   19.984289
  N     19.288173   17.796865   19.346155
  C     18.693568   16.599660   18.722098
  C     17.886842   15.806853   19.747345
  C     18.155971   14.443138   19.965956
  C     17.410991   13.706666   20.902155
  C     16.386378   14.338362   21.627232
  C     16.112089   15.695356   21.409613
  O     15.118181   16.306368   22.102495
  C     16.854821   16.425553   20.476558
  H     15.911476   13.801247   14.629143
  H     14.506487   13.107170   15.465398
  H     16.085801   13.098527   16.257124
  H     14.215981   15.472843   15.722763
  H     14.856917   14.939480   17.287902
  H     16.984508   18.338243   15.170314
  H     16.801001   19.887146   15.991304
  H     15.609501   18.603310   16.258973
  H     17.678153   20.221831   17.959571
  H     19.947509   17.687777   20.105960
  H     19.518122   15.965186   18.366020
  H     18.935751   13.947835   19.392389
  H     17.625841   12.650882   21.057183
  H     15.807471   13.772827   22.349726
  H     14.760360   15.658331   22.727722
  H     16.627936   17.475390   20.326505

 Total Charge           Charge          ....    0
 Multiplicity           Mult            ....    1
 Number of Electrons    NEL             ....  154
 Basis Dimension        Dim             ....  828

ORBITAL ENERGIES
----------------

  NO   OCC          E(Eh)            E(eV)
   0   2.0000     -91.887751     -2500.3928
   1   2.0000     -20.593735      -560.3840
   2   2.0000     -20.592262      -560.3439
   3   2.0000     -20.551684      -559.2398
   4   2.0000     -15.627278      -425.2399
   5   2.0000     -15.606964      -424.6871
   6   2.0000     -11.397442      -310.1402
   7   2.0000     -11.382936      -309.7454
   8   2.0000     -11.332967      -308.3857
   9   2.0000     -11.309802      -307.7554
  10   2.0000     -11.306767      -307.6728
  11   2.0000     -11.303773      -307.5913
  12   2.0000     -11.259122      -306.3763
  13   2.0000     -11.258567      -306.3612
  14   2.0000     -11.255483      -306.2773
  15   2.0000     -11.250001      -306.1281
  16   2.0000     -11.239583      -305.8446
  17   2.0000     -11.235488      -305.7332
  18   2.0000     -11.232719      -305.6578
  19   2.0000     -11.220447      -305.3239
  20   2.0000      -8.892827      -241.9861
  21   2.0000      -6.574408      -178.8987
  22   2.0000      -6.572398      -178.8440
  23   2.0000      -6.571815      -178.8282
  24   2.0000      -1.449304       -39.4376
  25   2.0000      -1.413490       -38.4630
  26   2.0000      -1.358117       -36.9562
  27   2.0000      -1.338544       -36.4236
  28   2.0000      -1.236663       -33.6513
  29   2.0000      -1.153919       -31.3997
  30   2.0000      -1.119565       -30.4649
  31   2.0000      -1.042554       -28.3693
  32   2.0000      -1.032207       -28.0878
  33   2.0000      -1.011439       -27.5227
  34   2.0000      -0.997212       -27.1355
  35   2.0000      -0.982503       -26.7353
  36   2.0000      -0.921899       -25.0861
  37   2.0000      -0.890457       -24.2306
  38   2.0000      -0.847756       -23.0686
  39   2.0000      -0.837004       -22.7760
  40   2.0000      -0.830054       -22.5869
  41   2.0000      -0.821142       -22.3444
  42   2.0000      -0.746890       -20.3239
  43   2.0000      -0.729794       -19.8587
  44   2.0000      -0.726324       -19.7643
  45   2.0000      -0.692332       -18.8393
  46   2.0000      -0.684972       -18.6390
  47   2.0000      -0.680753       -18.5242
  48   2.0000      -0.671094       -18.2614
  49   2.0000      -0.665050       -18.0969
  50   2.0000      -0.645791       -17.5729
  51   2.0000      -0.642663       -17.4877
  52   2.0000      -0.634588       -17.2680
  53   2.0000      -0.603688       -16.4272
  54   2.0000      -0.601323       -16.3628
  55   2.0000      -0.597507       -16.2590
  56   2.0000      -0.595554       -16.2059
  57   2.0000      -0.584731       -15.9114
  58   2.0000      -0.574212       -15.6251
  59   2.0000      -0.570450       -15.5227
  60   2.0000      -0.560316       -15.2470
  61   2.0000      -0.546215       -14.8633
  62   2.0000      -0.535529       -14.5725
  63   2.0000      -0.519847       -14.1457
  64   2.0000      -0.518808       -14.1175
  65   2.0000      -0.510651       -13.8955
  66   2.0000      -0.500446       -13.6178
  67   2.0000      -0.495748       -13.4900
  68   2.0000      -0.479905       -13.0589
  69   2.0000      -0.463121       -12.6022
  70   2.0000      -0.456827       -12.4309
  71   2.0000      -0.446922       -12.1614
  72   2.0000      -0.353115        -9.6088
  73   2.0000      -0.345770        -9.4089
  74   2.0000      -0.327038        -8.8992
  75   2.0000      -0.316961        -8.6249
  76   2.0000      -0.314604        -8.5608
  77   0.0000       0.074577         2.0293
  78   0.0000       0.108879         2.9627
  79   0.0000       0.121028         3.2934
  80   0.0000       0.134229         3.6526
  81   0.0000       0.138894         3.7795

MULLIKEN ATOMIC CHARGES
-----------------------
   0 C :   -0.283900
   1 C :    0.047478
   2 O :   -0.370374
   3 C :    0.440750
   4 O :   -0.412920
   5 C :   -0.156775
   6 C :    0.137028
   7 C :   -0.283326
   8 N :   -0.123219
   9 C :    0.202274
  10 S :   -0.440867
  11 N :   -0.199682
  12 C :    0.045005
  13 C :    0.051511
  14 C :   -0.166185
  15 C :   -0.133263
  16 C :   -0.280554
  17 C :    0.311809
  18 O :   -0.358513
  19 C :   -0.274632
  20 H :    0.096146
  21 H :    0.091200
  22 H :    0.120707
  23 H :    0.099054
  24 H :    0.091756
  25 H :    0.124154
  26 H :    0.102435
  27 H :    0.125541
  28 H :    0.196840
  29 H :    0.193867
  30 H :    0.155076
  31 H :    0.155437
  32 H :    0.160100
  33 H :    0.129229
  34 H :    0.240323
  35 H :    0.166492
Sum of atomic charges:   -0.0000000

LOEWDIN ATOMIC CHARGES
----------------------
   0 C :    0.104032
   1 C :   -0.012635
   2 O :    0.288920
   3 C :   -0.410952
   4 O :    0.125413
   5 C :   -0.091867
   6 C :   -0.071300
   7 C :    0.125245
   8 N :    0.404114
   9 C :   -0.458197
  10 S :   -0.037233
  11 N :    0.397328
  12 C :   -0.045809
  13 C :   -0.039567
  14 C :    0.020763
  15 C :    0.040598
  16 C :   -0.002534
  17 C :   -0.193330
  18 O :    0.393274
  19 C :    0.028449
  20 H :   -0.026033
  21 H :   -0.030406
  22 H :   -0.026853
  23 H :   -0.024357
  24 H :   -0.028807
  25 H :   -0.008477
  26 H :   -0.020318
  27 H :   -0.009945
  28 H :   -0.059020
  29 H :   -0.064012
  30 H :   -0.005190
  31 H :   -0.025165
  32 H :   -0.020958
  33 H :   -0.036114
  34 H :   -0.154597
  35 H :   -0.024461

  Mayer bond orders larger than 0.100000
B(  0-C ,  1-C ) :   0.9741 B(  0-C , 20-H ) :   0.9758 B(  0-C , 21-H ) :   0.9758
B(  0-C , 22-H ) :   0.9716 B(  1-C ,  2-O ) :   0.9059 B(  1-C , 23-H ) :   0.9833
B(  1-C , 24-H ) :   0.9758 B(  2-O ,  3-C ) :   1.0889 B(  3-C ,  4-O ) :   1.9944
B(  3-C ,  5-C ) :   1.0438 B(  5-C ,  6-C ) :   1.6639 B(  5-C , 12-C ) :   0.9631
B(  6-C ,  7-C ) :   0.9536 B(  6-C ,  8-N ) :   1.1392 B(  7-C , 25-H ) :   0.9689
B(  7-C , 26-H ) :   0.9896 B(  7-C , 27-H ) :   0.9633 B(  8-N ,  9-C ) :   1.1835
B(  8-N , 28-H ) :   0.9496 B(  9-C , 10-S ) :   1.6095 B(  9-C , 11-N ) :   1.3013
B( 11-N , 12-C ) :   0.9924 B( 11-N , 29-H ) :   0.9517 B( 12-C , 13-C ) :   0.9455
B( 12-C , 30-H ) :   0.9988 B( 13-C , 14-C ) :   1.3767 B( 13-C , 19-C ) :   1.3685
B( 14-C , 15-C ) :   1.3941 B( 14-C , 31-H ) :   0.9644 B( 15-C , 16-C ) :   1.3632
B( 15-C , 32-H ) :   0.9711 B( 16-C , 17-C ) :   1.3310 B( 16-C , 33-H ) :   0.9856
B( 17-C , 18-O ) :   1.1090 B( 17-C , 19-C ) :   1.3768 B( 18-O , 34-H ) :   0.9803
B( 19-C , 35-H ) :   0.9581

MP2 TOTAL ENERGY:    -1274.329888599 Eh
FINAL SINGLE POINT ENERGY     -1274.329888598921

DIPOLE MOMENT
-------------
                                X             Y             Z
Electronic contribution:     10.31844      10.59174       9.24060
Nuclear contribution   :    -11.91788     -11.77721      -9.98960
                        -----------------------------------------
Total Dipole Moment    :     -1.59943      -1.18547      -0.74900
                        -----------------------------------------
Magnitude (a.u.)       :      2.12709
Magnitude (Debye)      :      5.40664

Rotational constants in cm-1:     0.011265     0.009000     0.006129
Rotational constants in MHz :   337.726019   269.806390   183.751566

                             ****ORCA TERMINATED NORMALLY****
TOTAL RUN TIME: 0 days 1 hours 35 minutes 58 seconds 621 msec
