                         Program Version 5.0.0 -  RELEASE  -
|  1> ! ri-mp2 cc-pvtz cc-pvtz/c TightSCF NoKeepInts
|  2>
|  3> %scf
|  4>   MaxCore 4096
|  5> end
|  6> *xyz  0  1
|  7>     C       14.9686426   14.3971218   16.0087551
|  8>     C       16.1965065   14.2889642   16.9353561
|  9>     O       17.3184858   15.0207472   16.3911981
| 10>     C       17.2275600   16.3696164   16.1933385
| 11>     O       16.6442339   16.8188442   15.2232524
| 12>     C       17.6684425   17.1945403   17.3739777
| 13>     C       17.3864280   18.5192611   17.4769534
| 14>     C       16.5308738   19.3534690   16.5476732
| 15>     N       17.9518317   19.2765796   18.5078884
| 16>     C       18.9614695   18.8424702   19.3256041
| 17>     S       19.7151978   19.8494245   20.3994900
| 18>     N       19.3253813   17.5260811   19.1961322
| 19>     C       18.5697524   16.5219318   18.4254777
| 20>     C       17.8065559   15.6294469   19.3974161
| 21>     C       18.2054104   14.2939745   19.5960757
| 22>     C       17.5048298   13.4638083   20.4871337
| 23>     C       16.4009983   13.9743966   21.1911819
| 24>     C       16.0085284   15.3069403   21.0054834
| 25>     O       14.9440477   15.8034796   21.6840443
| 26>     C       16.7055025   16.1300860   20.1156894
| 27>     H       14.5490969   15.4106684   16.0208516
| 28>     H       14.1822592   13.7053579   16.3336161
| 29>     H       15.2399971   14.1467439   14.9753329
| 30>     H       15.9204593   14.6650893   17.9265215
| 31>     H       16.4764091   13.2330850   17.0416007
| 32>     H       15.5463164   18.8897193   16.4066858
| 33>     H       17.0001330   19.4303440   15.5583363
| 34>     H       16.3636696   20.3718582   16.9174234
| 35>     H       17.7072530   20.2495351   18.6019889
| 36>     H       20.0574837   17.2277359   19.8277917
| 37>     H       19.2987677   15.9002241   17.8864524
| 38>     H       19.0583488   13.8956596   19.0524181
| 39>     H       17.8198350   12.4316600   20.6327283
| 40>     H       15.8581167   13.3374461   21.8821123
| 41>     H       14.6382605   15.1151546   22.2940786
| 42>     H       16.3899152   17.1605349   19.9939400
| 43> *
| 44>
| 45>                          ****END OF INPUT****

CARTESIAN COORDINATES (ANGSTROEM)
---------------------------------
  C     14.968643   14.397122   16.008755
  C     16.196507   14.288964   16.935356
  O     17.318486   15.020747   16.391198
  C     17.227560   16.369616   16.193338
  O     16.644234   16.818844   15.223252
  C     17.668443   17.194540   17.373978
  C     17.386428   18.519261   17.476953
  C     16.530874   19.353469   16.547673
  N     17.951832   19.276580   18.507888
  C     18.961469   18.842470   19.325604
  S     19.715198   19.849425   20.399490
  N     19.325381   17.526081   19.196132
  C     18.569752   16.521932   18.425478
  C     17.806556   15.629447   19.397416
  C     18.205410   14.293974   19.596076
  C     17.504830   13.463808   20.487134
  C     16.400998   13.974397   21.191182
  C     16.008528   15.306940   21.005483
  O     14.944048   15.803480   21.684044
  C     16.705503   16.130086   20.115689
  H     14.549097   15.410668   16.020852
  H     14.182259   13.705358   16.333616
  H     15.239997   14.146744   14.975333
  H     15.920459   14.665089   17.926521
  H     16.476409   13.233085   17.041601
  H     15.546316   18.889719   16.406686
  H     17.000133   19.430344   15.558336
  H     16.363670   20.371858   16.917423
  H     17.707253   20.249535   18.601989
  H     20.057484   17.227736   19.827792
  H     19.298768   15.900224   17.886452
  H     19.058349   13.895660   19.052418
  H     17.819835   12.431660   20.632728
  H     15.858117   13.337446   21.882112
  H     14.638260   15.115155   22.294079
  H     16.389915   17.160535   19.993940

 Total Charge           Charge          ....    0
 Multiplicity           Mult            ....    1
 Number of Electrons    NEL             ....  154
 Basis Dimension        Dim             ....  828

ORBITAL ENERGIES
----------------

  NO   OCC          E(Eh)            E(eV)
   0   2.0000     -91.891220     -2500.4872
   1   2.0000     -20.602190      -560.6141
   2   2.0000     -20.581804      -560.0594
   3   2.0000     -20.547945      -559.1380
   4   2.0000     -15.631662      -425.3591
   5   2.0000     -15.610087      -424.7721
   6   2.0000     -11.393556      -310.0344
   7   2.0000     -11.385784      -309.8229
   8   2.0000     -11.337978      -308.5221
   9   2.0000     -11.320185      -308.0379
  10   2.0000     -11.312477      -307.8282
  11   2.0000     -11.296738      -307.3999
  12   2.0000     -11.264429      -306.5207
  13   2.0000     -11.261312      -306.4359
  14   2.0000     -11.259513      -306.3869
  15   2.0000     -11.254089      -306.2393
  16   2.0000     -11.249169      -306.1054
  17   2.0000     -11.243617      -305.9544
  18   2.0000     -11.243276      -305.9451
  19   2.0000     -11.218988      -305.2842
  20   2.0000      -8.896242      -242.0791
  21   2.0000      -6.577806      -178.9912
  22   2.0000      -6.575813      -178.9370
  23   2.0000      -6.575216      -178.9207
  24   2.0000      -1.444396       -39.3040
  25   2.0000      -1.421882       -38.6914
  26   2.0000      -1.352566       -36.8052
  27   2.0000      -1.342784       -36.5390
  28   2.0000      -1.241124       -33.7727
  29   2.0000      -1.162715       -31.6391
  30   2.0000      -1.121743       -30.5242
  31   2.0000      -1.046743       -28.4833
  32   2.0000      -1.029990       -28.0274
  33   2.0000      -1.021052       -27.7842
  34   2.0000      -0.998472       -27.1698
  35   2.0000      -0.986335       -26.8395
  36   2.0000      -0.925969       -25.1969
  37   2.0000      -0.886620       -24.1262
  38   2.0000      -0.850016       -23.1301
  39   2.0000      -0.844097       -22.9691
  40   2.0000      -0.839384       -22.8408
  41   2.0000      -0.827069       -22.5057
  42   2.0000      -0.751028       -20.4365
  43   2.0000      -0.735517       -20.0144
  44   2.0000      -0.717175       -19.5153
  45   2.0000      -0.701053       -19.0766
  46   2.0000      -0.691734       -18.8230
  47   2.0000      -0.679248       -18.4833
  48   2.0000      -0.667553       -18.1650
  49   2.0000      -0.665018       -18.0961
  50   2.0000      -0.651484       -17.7278
  51   2.0000      -0.648546       -17.6478
  52   2.0000      -0.639025       -17.3888
  53   2.0000      -0.612512       -16.6673
  54   2.0000      -0.608647       -16.5621
  55   2.0000      -0.601914       -16.3789
  56   2.0000      -0.600772       -16.3478
  57   2.0000      -0.582064       -15.8388
  58   2.0000      -0.573205       -15.5977
  59   2.0000      -0.569097       -15.4859
  60   2.0000      -0.558734       -15.2039
  61   2.0000      -0.542055       -14.7501
  62   2.0000      -0.536027       -14.5860
  63   2.0000      -0.529389       -14.4054
  64   2.0000      -0.522119       -14.2076
  65   2.0000      -0.517046       -14.0695
  66   2.0000      -0.505434       -13.7536
  67   2.0000      -0.496735       -13.5168
  68   2.0000      -0.479617       -13.0510
  69   2.0000      -0.464131       -12.6296
  70   2.0000      -0.454943       -12.3796
  71   2.0000      -0.442512       -12.0414
  72   2.0000      -0.358237        -9.7481
  73   2.0000      -0.354558        -9.6480
  74   2.0000      -0.331239        -9.0135
  75   2.0000      -0.327384        -8.9086
  76   2.0000      -0.318150        -8.6573
  77   0.0000       0.068986         1.8772
  78   0.0000       0.100355         2.7308
  79   0.0000       0.121766         3.3134
  80   0.0000       0.127854         3.4791
  81   0.0000       0.132486         3.6051

MULLIKEN ATOMIC CHARGES
-----------------------
   0 C :   -0.272776
   1 C :    0.028266
   2 O :   -0.385637
   3 C :    0.492102
   4 O :   -0.400236
   5 C :   -0.266846
   6 C :    0.154522
   7 C :   -0.270338
   8 N :   -0.125445
   9 C :    0.210333
  10 S :   -0.435211
  11 N :   -0.197567
  12 C :    0.046118
  13 C :    0.026784
  14 C :   -0.161960
  15 C :   -0.133274
  16 C :   -0.274291
  17 C :    0.306644
  18 O :   -0.356105
  19 C :   -0.253372
  20 H :    0.096059
  21 H :    0.094317
  22 H :    0.108173
  23 H :    0.104588
  24 H :    0.106299
  25 H :    0.127214
  26 H :    0.136900
  27 H :    0.094647
  28 H :    0.198640
  29 H :    0.192438
  30 H :    0.151125
  31 H :    0.150181
  32 H :    0.163837
  33 H :    0.133804
  34 H :    0.241836
  35 H :    0.168231
Sum of atomic charges:    0.0000000

LOEWDIN ATOMIC CHARGES
----------------------
   0 C :    0.105225
   1 C :   -0.019124
   2 O :    0.280949
   3 C :   -0.418097
   4 O :    0.123925
   5 C :   -0.099281
   6 C :   -0.058339
   7 C :    0.130856
   8 N :    0.406896
   9 C :   -0.457000
  10 S :   -0.031871
  11 N :    0.396502
  12 C :   -0.052833
  13 C :   -0.039957
  14 C :    0.015661
  15 C :    0.042334
  16 C :   -0.000954
  17 C :   -0.191041
  18 O :    0.396701
  19 C :    0.029358
  20 H :   -0.030124
  21 H :   -0.028934
  22 H :   -0.022868
  23 H :   -0.034079
  24 H :   -0.022864
  25 H :   -0.006126
  26 H :   -0.002685
  27 H :   -0.023115
  28 H :   -0.057356
  29 H :   -0.065153
  30 H :   -0.006699
  31 H :   -0.028897
  32 H :   -0.019706
  33 H :   -0.034226
  34 H :   -0.152521
  35 H :   -0.024559

  Mayer bond orders larger than 0.100000
B(  0-C ,  1-C ) :   0.9819 B(  0-C , 20-H ) :   0.9731 B(  0-C , 21-H ) :   0.9756
B(  0-C , 22-H ) :   0.9770 B(  1-C ,  2-O ) :   0.8853 B(  1-C , 23-H ) :   0.9654
B(  1-C , 24-H ) :   0.9807 B(  2-O ,  3-C ) :   1.0954 B(  3-C ,  4-O ) :   2.0280
B(  3-C ,  5-C ) :   1.0505 B(  5-C ,  6-C ) :   1.6555 B(  5-C , 12-C ) :   0.9681
B(  6-C ,  7-C ) :   0.9701 B(  6-C ,  8-N ) :   1.1545 B(  7-C , 25-H ) :   0.9647
B(  7-C , 26-H ) :   0.9561 B(  7-C , 27-H ) :   0.9887 B(  8-N ,  9-C ) :   1.1783
B(  8-N , 28-H ) :   0.9481 B(  9-C , 10-S ) :   1.6145 B(  9-C , 11-N ) :   1.3021
B( 11-N , 12-C ) :   0.9753 B( 11-N , 29-H ) :   0.9539 B( 12-C , 13-C ) :   0.9479
B( 12-C , 30-H ) :   1.0015 B( 13-C , 14-C ) :   1.3571 B( 13-C , 19-C ) :   1.3718
B( 14-C , 15-C ) :   1.3862 B( 14-C , 31-H ) :   0.9741 B( 15-C , 16-C ) :   1.3671
B( 15-C , 32-H ) :   0.9697 B( 16-C , 17-C ) :   1.3275 B( 16-C , 33-H ) :   0.9836
B( 17-C , 18-O ) :   1.1151 B( 17-C , 19-C ) :   1.3761 B( 18-O , 34-H ) :   0.9789
B( 19-C , 35-H ) :   0.9572

MP2 TOTAL ENERGY:    -1274.330974759 Eh
FINAL SINGLE POINT ENERGY     -1274.330974758903

DIPOLE MOMENT
-------------
                                X             Y             Z
Electronic contribution:     10.66079       8.95201       6.99110
Nuclear contribution   :    -11.75419     -10.51604      -6.69858
                        -----------------------------------------
Total Dipole Moment    :     -1.09339      -1.56402       0.29253
                        -----------------------------------------
Magnitude (a.u.)       :      1.93061
Magnitude (Debye)      :      4.90722

Rotational constants in cm-1:     0.011709     0.009360     0.006423
Rotational constants in MHz :   351.029344   280.617497   192.571182

                             ****ORCA TERMINATED NORMALLY****
TOTAL RUN TIME: 0 days 1 hours 57 minutes 11 seconds 561 msec
