                         Program Version 5.0.0 -  RELEASE  -
|  1> ! ri-mp2 cc-pvtz cc-pvtz/c TightSCF NoKeepInts
|  2>
|  3> %scf
|  4>   MaxCore 4096
|  5> end
|  6> *xyz  0  1
|  7>     C       15.6843652   13.9995344   14.8860154
|  8>     C       15.4885096   14.2408303   16.3941251
|  9>     O       16.5178176   15.1382684   16.8461522
| 10>     C       16.3032972   16.4892572   16.8230890
| 11>     O       15.3496652   16.9905919   16.2514200
| 12>     C       17.3212741   17.2525406   17.6247828
| 13>     C       17.3352031   18.6085572   17.6823383
| 14>     C       16.3834291   19.5651275   16.9963783
| 15>     N       18.3306894   19.2692778   18.4084902
| 16>     C       19.3998918   18.6583931   19.0074516
| 17>     S       20.5900916   19.5223974   19.7643113
| 18>     N       19.4359435   17.2887480   18.9452016
| 19>     C       18.3613123   16.4342988   18.4075242
| 20>     C       17.7210416   15.6368168   19.5402867
| 21>     C       17.8584783   14.2369473   19.5939664
| 22>     C       17.2691248   13.4999505   20.6349958
| 23>     C       16.5384781   14.1679352   21.6324568
| 24>     C       16.4029541   15.5621911   21.5843137
| 25>     O       15.6990099   16.2101029   22.5464609
| 26>     C       16.9903763   16.2928710   20.5469385
| 27>     H       15.5542503   14.9330014   14.3238244
| 28>     H       14.9502447   13.2742559   14.5149065
| 29>     H       16.6886543   13.6082829   14.6820940
| 30>     H       14.4860122   14.6399100   16.6020052
| 31>     H       15.5885455   13.2835876   16.9216329
| 32>     H       15.3553487   19.3992044   17.3431129
| 33>     H       16.3918016   19.4062175   15.9105584
| 34>     H       16.6281175   20.6181823   17.1779933
| 35>     H       18.3211650   20.2752302   18.4633701
| 36>     H       20.2168078   16.8648462   19.4293367
| 37>     H       18.8274608   15.7285122   17.7056973
| 38>     H       18.4185804   13.7176535   18.8209609
| 39>     H       17.3794869   12.4174528   20.6666900
| 40>     H       16.0817951   13.6033383   22.4386316
| 41>     H       15.3978627   15.5458954   23.1843367
| 42>     H       16.8799136   17.3717922   20.5321503
| 43> *
| 44>
| 45>                          ****END OF INPUT****

CARTESIAN COORDINATES (ANGSTROEM)
---------------------------------
  C     15.684365   13.999534   14.886015
  C     15.488510   14.240830   16.394125
  O     16.517818   15.138268   16.846152
  C     16.303297   16.489257   16.823089
  O     15.349665   16.990592   16.251420
  C     17.321274   17.252541   17.624783
  C     17.335203   18.608557   17.682338
  C     16.383429   19.565127   16.996378
  N     18.330689   19.269278   18.408490
  C     19.399892   18.658393   19.007452
  S     20.590092   19.522397   19.764311
  N     19.435944   17.288748   18.945202
  C     18.361312   16.434299   18.407524
  C     17.721042   15.636817   19.540287
  C     17.858478   14.236947   19.593966
  C     17.269125   13.499951   20.634996
  C     16.538478   14.167935   21.632457
  C     16.402954   15.562191   21.584314
  O     15.699010   16.210103   22.546461
  C     16.990376   16.292871   20.546938
  H     15.554250   14.933001   14.323824
  H     14.950245   13.274256   14.514906
  H     16.688654   13.608283   14.682094
  H     14.486012   14.639910   16.602005
  H     15.588546   13.283588   16.921633
  H     15.355349   19.399204   17.343113
  H     16.391802   19.406218   15.910558
  H     16.628117   20.618182   17.177993
  H     18.321165   20.275230   18.463370
  H     20.216808   16.864846   19.429337
  H     18.827461   15.728512   17.705697
  H     18.418580   13.717653   18.820961
  H     17.379487   12.417453   20.666690
  H     16.081795   13.603338   22.438632
  H     15.397863   15.545895   23.184337
  H     16.879914   17.371792   20.532150

 Total Charge           Charge          ....    0
 Multiplicity           Mult            ....    1
 Number of Electrons    NEL             ....  154
 Basis Dimension        Dim             ....  828

ORBITAL ENERGIES
----------------

  NO   OCC          E(Eh)            E(eV)
   0   2.0000     -91.888737     -2500.4196
   1   2.0000     -20.601771      -560.6027
   2   2.0000     -20.595534      -560.4330
   3   2.0000     -20.542319      -558.9849
   4   2.0000     -15.628995      -425.2866
   5   2.0000     -15.608006      -424.7154
   6   2.0000     -11.395776      -310.0948
   7   2.0000     -11.383822      -309.7695
   8   2.0000     -11.335967      -308.4673
   9   2.0000     -11.312585      -307.8311
  10   2.0000     -11.308604      -307.7228
  11   2.0000     -11.297061      -307.4087
  12   2.0000     -11.258947      -306.3715
  13   2.0000     -11.258615      -306.3625
  14   2.0000     -11.254077      -306.2390
  15   2.0000     -11.252051      -306.1839
  16   2.0000     -11.241935      -305.9086
  17   2.0000     -11.237439      -305.7863
  18   2.0000     -11.237195      -305.7796
  19   2.0000     -11.224727      -305.4403
  20   2.0000      -8.893796      -242.0125
  21   2.0000      -6.575370      -178.9249
  22   2.0000      -6.573366      -178.8704
  23   2.0000      -6.572779      -178.8544
  24   2.0000      -1.451841       -39.5066
  25   2.0000      -1.415182       -38.5091
  26   2.0000      -1.355210       -36.8771
  27   2.0000      -1.339911       -36.4608
  28   2.0000      -1.238274       -33.6952
  29   2.0000      -1.156674       -31.4747
  30   2.0000      -1.120174       -30.4815
  31   2.0000      -1.042304       -28.3625
  32   2.0000      -1.037018       -28.2187
  33   2.0000      -1.013962       -27.5913
  34   2.0000      -0.995158       -27.0796
  35   2.0000      -0.983809       -26.7708
  36   2.0000      -0.922103       -25.0917
  37   2.0000      -0.892722       -24.2922
  38   2.0000      -0.846822       -23.0432
  39   2.0000      -0.836965       -22.7750
  40   2.0000      -0.833016       -22.6675
  41   2.0000      -0.817900       -22.2562
  42   2.0000      -0.759219       -20.6594
  43   2.0000      -0.731553       -19.9066
  44   2.0000      -0.722940       -19.6722
  45   2.0000      -0.694747       -18.9050
  46   2.0000      -0.687818       -18.7165
  47   2.0000      -0.680590       -18.5198
  48   2.0000      -0.671432       -18.2706
  49   2.0000      -0.653959       -17.7951
  50   2.0000      -0.645988       -17.5782
  51   2.0000      -0.645256       -17.5583
  52   2.0000      -0.629877       -17.1398
  53   2.0000      -0.612823       -16.6758
  54   2.0000      -0.605703       -16.4820
  55   2.0000      -0.598867       -16.2960
  56   2.0000      -0.598043       -16.2736
  57   2.0000      -0.578706       -15.7474
  58   2.0000      -0.571138       -15.5415
  59   2.0000      -0.570035       -15.5115
  60   2.0000      -0.563236       -15.3264
  61   2.0000      -0.539224       -14.6730
  62   2.0000      -0.535313       -14.5666
  63   2.0000      -0.529209       -14.4005
  64   2.0000      -0.524104       -14.2616
  65   2.0000      -0.513115       -13.9626
  66   2.0000      -0.500584       -13.6216
  67   2.0000      -0.497138       -13.5278
  68   2.0000      -0.485713       -13.2169
  69   2.0000      -0.463789       -12.6204
  70   2.0000      -0.454903       -12.3785
  71   2.0000      -0.448395       -12.2015
  72   2.0000      -0.354242        -9.6394
  73   2.0000      -0.348458        -9.4820
  74   2.0000      -0.328021        -8.9259
  75   2.0000      -0.320287        -8.7155
  76   2.0000      -0.315747        -8.5919
  77   0.0000       0.076380         2.0784
  78   0.0000       0.107693         2.9305
  79   0.0000       0.124942         3.3998
  80   0.0000       0.132941         3.6175
  81   0.0000       0.136838         3.7236

MULLIKEN ATOMIC CHARGES
-----------------------
   0 C :   -0.281887
   1 C :    0.035516
   2 O :   -0.351874
   3 C :    0.468382
   4 O :   -0.438053
   5 C :   -0.215492
   6 C :    0.149613
   7 C :   -0.274856
   8 N :   -0.120083
   9 C :    0.210589
  10 S :   -0.439805
  11 N :   -0.203195
  12 C :    0.048147
  13 C :    0.067368
  14 C :   -0.179243
  15 C :   -0.132724
  16 C :   -0.278123
  17 C :    0.315423
  18 O :   -0.356844
  19 C :   -0.268984
  20 H :    0.111138
  21 H :    0.092795
  22 H :    0.091438
  23 H :    0.102274
  24 H :    0.106650
  25 H :    0.132344
  26 H :    0.130360
  27 H :    0.095237
  28 H :    0.197251
  29 H :    0.194381
  30 H :    0.150722
  31 H :    0.147623
  32 H :    0.159646
  33 H :    0.129265
  34 H :    0.240551
  35 H :    0.164448
Sum of atomic charges:   -0.0000000

LOEWDIN ATOMIC CHARGES
----------------------
   0 C :    0.104604
   1 C :   -0.015790
   2 O :    0.309335
   3 C :   -0.413046
   4 O :    0.095083
   5 C :   -0.093971
   6 C :   -0.058806
   7 C :    0.131485
   8 N :    0.406552
   9 C :   -0.456645
  10 S :   -0.035399
  11 N :    0.396569
  12 C :   -0.052631
  13 C :   -0.038671
  14 C :    0.014384
  15 C :    0.038772
  16 C :   -0.001592
  17 C :   -0.189512
  18 O :    0.395019
  19 C :    0.031430
  20 H :   -0.024581
  21 H :   -0.027319
  22 H :   -0.029842
  23 H :   -0.027513
  24 H :   -0.026946
  25 H :   -0.004485
  26 H :   -0.004162
  27 H :   -0.023388
  28 H :   -0.057586
  29 H :   -0.064546
  30 H :   -0.011133
  31 H :   -0.030352
  32 H :   -0.021634
  33 H :   -0.035744
  34 H :   -0.154060
  35 H :   -0.023876

  Mayer bond orders larger than 0.100000
B(  0-C ,  1-C ) :   0.9687 B(  0-C , 20-H ) :   0.9763 B(  0-C , 21-H ) :   0.9764
B(  0-C , 22-H ) :   0.9775 B(  1-C ,  2-O ) :   0.8922 B(  1-C , 23-H ) :   0.9753
B(  1-C , 24-H ) :   0.9824 B(  2-O ,  3-C ) :   1.1646 B(  3-C ,  4-O ) :   1.9492
B(  3-C ,  5-C ) :   1.0695 B(  5-C ,  6-C ) :   1.6563 B(  5-C , 12-C ) :   0.9736
B(  6-C ,  7-C ) :   0.9674 B(  6-C ,  8-N ) :   1.1649 B(  7-C , 25-H ) :   0.9604
B(  7-C , 26-H ) :   0.9603 B(  7-C , 27-H ) :   0.9906 B(  8-N ,  9-C ) :   1.1823
B(  8-N , 28-H ) :   0.9479 B(  9-C , 10-S ) :   1.6078 B(  9-C , 11-N ) :   1.3048
B( 11-N , 12-C ) :   0.9881 B( 11-N , 29-H ) :   0.9516 B( 12-C , 13-C ) :   0.9369
B( 12-C , 30-H ) :   1.0028 B( 13-C , 14-C ) :   1.3558 B( 13-C , 19-C ) :   1.3821
B( 14-C , 15-C ) :   1.3925 B( 14-C , 31-H ) :   0.9720 B( 15-C , 16-C ) :   1.3642
B( 15-C , 32-H ) :   0.9708 B( 16-C , 17-C ) :   1.3317 B( 16-C , 33-H ) :   0.9853
B( 17-C , 18-O ) :   1.1097 B( 17-C , 19-C ) :   1.3736 B( 18-O , 34-H ) :   0.9800
B( 19-C , 35-H ) :   0.9583

MP2 TOTAL ENERGY:    -1274.350366011 Eh
FINAL SINGLE POINT ENERGY     -1274.350366010583

DIPOLE MOMENT
-------------
                                X             Y             Z
Electronic contribution:      9.70152       9.39533      10.09814
Nuclear contribution   :    -10.88022     -11.00519     -10.40029
                        -----------------------------------------
Total Dipole Moment    :     -1.17870      -1.60986      -0.30215
                        -----------------------------------------
Magnitude (a.u.)       :      2.01799
Magnitude (Debye)      :      5.12932

Rotational constants in cm-1:     0.010873     0.008813     0.006024
Rotational constants in MHz :   325.968651   264.207633   180.584424

                             ****ORCA TERMINATED NORMALLY****
TOTAL RUN TIME: 0 days 2 hours 35 minutes 51 seconds 474 msec
