                         Program Version 5.0.0 -  RELEASE  -
|  1> ! ri-mp2 cc-pvtz cc-pvtz/c TightSCF NoKeepInts
|  2>
|  3> %scf
|  4>   MaxCore 4096
|  5> end
|  6> *xyz  0  1
|  7>     C       16.0339508   13.2246797   17.3564040
|  8>     C       15.9733780   14.3458858   16.3065188
|  9>     O       17.2183976   15.0706669   16.3159157
| 10>     C       17.1610405   16.4152316   16.0844904
| 11>     O       16.4494697   16.8525108   15.1966675
| 12>     C       17.6555814   17.2473291   17.2363811
| 13>     C       17.4965870   18.5961600   17.2812984
| 14>     C       16.7711338   19.4739182   16.2835035
| 15>     N       18.0903691   19.3351868   18.3094894
| 16>     C       19.0242788   18.8399064   19.1803475
| 17>     S       19.8366774   19.8123048   20.2437321
| 18>     N       19.2689266   17.4923517   19.1060844
| 19>     C       18.4402850   16.5350340   18.3514679
| 20>     C       17.5589395   15.7775738   19.3400675
| 21>     C       18.0468831   14.6045958   19.9472900
| 22>     C       17.2760785   13.9156177   20.8990382
| 23>     C       16.0064511   14.4046965   21.2503043
| 24>     C       15.5205347   15.5770996   20.6556854
| 25>     O       14.2975380   16.0552019   20.9967306
| 26>     C       16.2905314   16.2624640   19.7107349
| 27>     H       16.9632707   12.6495872   17.2619749
| 28>     H       15.1896349   12.5368524   17.2278608
| 29>     H       15.9755070   13.6357981   18.3680379
| 30>     H       15.8012946   13.9251558   15.3071010
| 31>     H       15.1305841   15.0086934   16.5481858
| 32>     H       15.7205987   19.1693436   16.1937351
| 33>     H       17.2243345   19.3827105   15.2881040
| 34>     H       16.7845477   20.5356439   16.5563146
| 35>     H       17.9304050   20.3283039   18.3654492
| 36>     H       19.9447538   17.1511699   19.7769997
| 37>     H       19.1157589   15.8108749   17.8740262
| 38>     H       19.0309070   14.2271893   19.6823234
| 39>     H       17.6637086   13.0097659   21.3622127
| 40>     H       15.4075962   13.8769111   21.9853413
| 41>     H       13.9483960   15.4870239   21.7000162
| 42>     H       15.8986703   17.1785610   19.2841657
| 43> *
| 44>
| 45>                          ****END OF INPUT****

CARTESIAN COORDINATES (ANGSTROEM)
---------------------------------
  C     16.033951   13.224680   17.356404
  C     15.973378   14.345886   16.306519
  O     17.218398   15.070667   16.315916
  C     17.161040   16.415232   16.084490
  O     16.449470   16.852511   15.196668
  C     17.655581   17.247329   17.236381
  C     17.496587   18.596160   17.281298
  C     16.771134   19.473918   16.283503
  N     18.090369   19.335187   18.309489
  C     19.024279   18.839906   19.180347
  S     19.836677   19.812305   20.243732
  N     19.268927   17.492352   19.106084
  C     18.440285   16.535034   18.351468
  C     17.558940   15.777574   19.340067
  C     18.046883   14.604596   19.947290
  C     17.276079   13.915618   20.899038
  C     16.006451   14.404696   21.250304
  C     15.520535   15.577100   20.655685
  O     14.297538   16.055202   20.996731
  C     16.290531   16.262464   19.710735
  H     16.963271   12.649587   17.261975
  H     15.189635   12.536852   17.227861
  H     15.975507   13.635798   18.368038
  H     15.801295   13.925156   15.307101
  H     15.130584   15.008693   16.548186
  H     15.720599   19.169344   16.193735
  H     17.224334   19.382711   15.288104
  H     16.784548   20.535644   16.556315
  H     17.930405   20.328304   18.365449
  H     19.944754   17.151170   19.777000
  H     19.115759   15.810875   17.874026
  H     19.030907   14.227189   19.682323
  H     17.663709   13.009766   21.362213
  H     15.407596   13.876911   21.985341
  H     13.948396   15.487024   21.700016
  H     15.898670   17.178561   19.284166

 Total Charge           Charge          ....    0
 Multiplicity           Mult            ....    1
 Number of Electrons    NEL             ....  154
 Basis Dimension        Dim             ....  828

ORBITAL ENERGIES
----------------

  NO   OCC          E(Eh)            E(eV)
   0   2.0000     -91.890049     -2500.4553
   1   2.0000     -20.601322      -560.5905
   2   2.0000     -20.589065      -560.2569
   3   2.0000     -20.544364      -559.0406
   4   2.0000     -15.630995      -425.3410
   5   2.0000     -15.608869      -424.7389
   6   2.0000     -11.392822      -310.0144
   7   2.0000     -11.384693      -309.7932
   8   2.0000     -11.337879      -308.5194
   9   2.0000     -11.318792      -308.0000
  10   2.0000     -11.311052      -307.7894
  11   2.0000     -11.294456      -307.3378
  12   2.0000     -11.264181      -306.5140
  13   2.0000     -11.260031      -306.4010
  14   2.0000     -11.259827      -306.3955
  15   2.0000     -11.253282      -306.2174
  16   2.0000     -11.246809      -306.0412
  17   2.0000     -11.241818      -305.9054
  18   2.0000     -11.241582      -305.8990
  19   2.0000     -11.221544      -305.3537
  20   2.0000      -8.895077      -242.0473
  21   2.0000      -6.576645      -178.9596
  22   2.0000      -6.574648      -178.9053
  23   2.0000      -6.574056      -178.8892
  24   2.0000      -1.449563       -39.4446
  25   2.0000      -1.420945       -38.6659
  26   2.0000      -1.351401       -36.7735
  27   2.0000      -1.341948       -36.5163
  28   2.0000      -1.240275       -33.7496
  29   2.0000      -1.161063       -31.5941
  30   2.0000      -1.121277       -30.5115
  31   2.0000      -1.045008       -28.4361
  32   2.0000      -1.034071       -28.1385
  33   2.0000      -1.019543       -27.7432
  34   2.0000      -0.997898       -27.1542
  35   2.0000      -0.985164       -26.8077
  36   2.0000      -0.924850       -25.1665
  37   2.0000      -0.883380       -24.0380
  38   2.0000      -0.848905       -23.0999
  39   2.0000      -0.841874       -22.9086
  40   2.0000      -0.836295       -22.7567
  41   2.0000      -0.820412       -22.3246
  42   2.0000      -0.762318       -20.7437
  43   2.0000      -0.735463       -20.0130
  44   2.0000      -0.721266       -19.6266
  45   2.0000      -0.699579       -19.0365
  46   2.0000      -0.689152       -18.7528
  47   2.0000      -0.678572       -18.4649
  48   2.0000      -0.673422       -18.3247
  49   2.0000      -0.664559       -18.0836
  50   2.0000      -0.648527       -17.6473
  51   2.0000      -0.645677       -17.5698
  52   2.0000      -0.639255       -17.3950
  53   2.0000      -0.612800       -16.6751
  54   2.0000      -0.604755       -16.4562
  55   2.0000      -0.601002       -16.3541
  56   2.0000      -0.593738       -16.1564
  57   2.0000      -0.581221       -15.8158
  58   2.0000      -0.572509       -15.5788
  59   2.0000      -0.566495       -15.4151
  60   2.0000      -0.555403       -15.1133
  61   2.0000      -0.550168       -14.9708
  62   2.0000      -0.537757       -14.6331
  63   2.0000      -0.529785       -14.4162
  64   2.0000      -0.517292       -14.0762
  65   2.0000      -0.512291       -13.9402
  66   2.0000      -0.504859       -13.7379
  67   2.0000      -0.498272       -13.5587
  68   2.0000      -0.484915       -13.1952
  69   2.0000      -0.463024       -12.5995
  70   2.0000      -0.453389       -12.3373
  71   2.0000      -0.444473       -12.0947
  72   2.0000      -0.357678        -9.7329
  73   2.0000      -0.354312        -9.6413
  74   2.0000      -0.330359        -8.9895
  75   2.0000      -0.325437        -8.8556
  76   2.0000      -0.317420        -8.6374
  77   0.0000       0.071575         1.9477
  78   0.0000       0.103596         2.8190
  79   0.0000       0.120985         3.2922
  80   0.0000       0.127330         3.4648
  81   0.0000       0.131509         3.5785

MULLIKEN ATOMIC CHARGES
-----------------------
   0 C :   -0.281806
   1 C :    0.042401
   2 O :   -0.373383
   3 C :    0.475719
   4 O :   -0.416431
   5 C :   -0.265991
   6 C :    0.159484
   7 C :   -0.266529
   8 N :   -0.124595
   9 C :    0.220941
  10 S :   -0.440808
  11 N :   -0.210082
  12 C :    0.058786
  13 C :    0.070954
  14 C :   -0.211779
  15 C :   -0.127997
  16 C :   -0.274825
  17 C :    0.303969
  18 O :   -0.358490
  19 C :   -0.239737
  20 H :    0.095110
  21 H :    0.103346
  22 H :    0.105293
  23 H :    0.112354
  24 H :    0.088689
  25 H :    0.129888
  26 H :    0.133812
  27 H :    0.095196
  28 H :    0.198076
  29 H :    0.192398
  30 H :    0.148683
  31 H :    0.149965
  32 H :    0.160651
  33 H :    0.131927
  34 H :    0.242350
  35 H :    0.172462
Sum of atomic charges:   -0.0000000

LOEWDIN ATOMIC CHARGES
----------------------
   0 C :    0.108181
   1 C :   -0.015624
   2 O :    0.290001
   3 C :   -0.419353
   4 O :    0.110259
   5 C :   -0.097302
   6 C :   -0.056534
   7 C :    0.130947
   8 N :    0.408472
   9 C :   -0.453704
  10 S :   -0.034489
  11 N :    0.395849
  12 C :   -0.053281
  13 C :   -0.033262
  14 C :    0.012034
  15 C :    0.044250
  16 C :   -0.002477
  17 C :   -0.190179
  18 O :    0.396248
  19 C :    0.028250
  20 H :   -0.027854
  21 H :   -0.025689
  22 H :   -0.027852
  23 H :   -0.029280
  24 H :   -0.028989
  25 H :   -0.005554
  26 H :   -0.003070
  27 H :   -0.023208
  28 H :   -0.057360
  29 H :   -0.067055
  30 H :   -0.006940
  31 H :   -0.031031
  32 H :   -0.019776
  33 H :   -0.034883
  34 H :   -0.152520
  35 H :   -0.027226

  Mayer bond orders larger than 0.100000
B(  0-C ,  1-C ) :   0.9704 B(  0-C , 20-H ) :   0.9753 B(  0-C , 21-H ) :   0.9804
B(  0-C , 22-H ) :   0.9747 B(  1-C ,  2-O ) :   0.8874 B(  1-C , 23-H ) :   0.9884
B(  1-C , 24-H ) :   0.9708 B(  2-O ,  3-C ) :   1.1212 B(  3-C ,  4-O ) :   1.9974
B(  3-C ,  5-C ) :   1.0684 B(  5-C ,  6-C ) :   1.6441 B(  5-C , 12-C ) :   0.9756
B(  6-C ,  7-C ) :   0.9683 B(  6-C ,  8-N ) :   1.1585 B(  7-C , 25-H ) :   0.9616
B(  7-C , 26-H ) :   0.9581 B(  7-C , 27-H ) :   0.9898 B(  8-N ,  9-C ) :   1.1838
B(  8-N , 28-H ) :   0.9478 B(  9-C , 10-S ) :   1.6017 B(  9-C , 11-N ) :   1.3064
B( 11-N , 12-C ) :   0.9508 B( 11-N , 29-H ) :   0.9526 B( 12-C , 13-C ) :   0.9512
B( 12-C , 30-H ) :   1.0017 B( 13-C , 14-C ) :   1.3534 B( 13-C , 19-C ) :   1.3705
B( 14-C , 15-C ) :   1.3982 B( 14-C , 31-H ) :   0.9727 B( 15-C , 16-C ) :   1.3607
B( 15-C , 32-H ) :   0.9714 B( 16-C , 17-C ) :   1.3335 B( 16-C , 33-H ) :   0.9853
B( 17-C , 18-O ) :   1.1152 B( 17-C , 19-C ) :   1.3674 B( 18-O , 34-H ) :   0.9787
B( 19-C , 35-H ) :   0.9533

MP2 TOTAL ENERGY:    -1274.336720168 Eh
FINAL SINGLE POINT ENERGY     -1274.336720168466

DIPOLE MOMENT
-------------
                                X             Y             Z
Electronic contribution:      8.23191      10.97099       4.37435
Nuclear contribution   :     -9.26962     -12.43395      -4.20437
                        -----------------------------------------
Total Dipole Moment    :     -1.03771      -1.46296       0.16998
                        -----------------------------------------
Magnitude (a.u.)       :      1.80166
Magnitude (Debye)      :      4.57946

Rotational constants in cm-1:     0.012232     0.008998     0.006514
Rotational constants in MHz :   366.715110   269.766716   195.293854

                             ****ORCA TERMINATED NORMALLY****
TOTAL RUN TIME: 0 days 1 hours 45 minutes 38 seconds 801 msec
