                         Program Version 5.0.0 -  RELEASE  -
|  1> ! ri-mp2 cc-pvtz cc-pvtz/c TightSCF NoKeepInts
|  2>
|  3> %scf
|  4>   MaxCore 4096
|  5> end
|  6> *xyz  0  1
|  7>     C       15.2839167   14.5979128   17.4732271
|  8>     C       16.1520275   14.4790758   16.2113075
|  9>     O       17.5217302   14.8370107   16.4977372
| 10>     C       17.9348668   16.0856099   16.1359653
| 11>     O       17.8039128   16.4393084   14.9770542
| 12>     C       17.8620037   17.0567551   17.2786822
| 13>     C       17.3754442   18.3159655   17.1419494
| 14>     C       16.6783456   18.9042535   15.9343428
| 15>     N       17.5391667   19.2416999   18.1767717
| 16>     C       18.3744624   19.0624131   19.2481945
| 17>     S       18.6760606   20.2710380   20.3359297
| 18>     N       18.9533603   17.8234823   19.3692666
| 19>     C       18.5658009   16.6377243   18.5805826
| 20>     C       17.7641969   15.6838437   19.4616213
| 21>     C       18.1831235   14.3493870   19.6237658
| 22>     C       17.4826409   13.4765178   20.4735095
| 23>     C       16.3544643   13.9412078   21.1707250
| 24>     C       15.9365757   15.2700545   21.0165270
| 25>     O       14.8460336   15.7210784   21.6856059
| 26>     C       16.6372648   16.1373307   20.1724479
| 27>     H       15.6709873   13.9555599   18.2716508
| 28>     H       14.2553173   14.2843950   17.2585239
| 29>     H       15.2520976   15.6339752   17.8291848
| 30>     H       16.1258863   13.4358217   15.8713104
| 31>     H       15.7341825   15.0975190   15.4048871
| 32>     H       15.9236439   18.2098758   15.5446723
| 33>     H       17.3997022   19.0890757   15.1278501
| 34>     H       16.1697661   19.8498812   16.1555660
| 35>     H       17.1363367   20.1612281   18.0905971
| 36>     H       19.5433756   17.7115046   20.1839078
| 37>     H       19.4935686   16.1228970   18.2940766
| 38>     H       19.0543579   13.9851304   19.0857134
| 39>     H       17.8145091   12.4460611   20.5887701
| 40>     H       15.8096838   13.2705318   21.8270620
| 41>     H       14.5354648   15.0020439   22.2561682
| 42>     H       16.3027222   17.1648303   20.0788462
| 43> *
| 44>
| 45>                          ****END OF INPUT****

CARTESIAN COORDINATES (ANGSTROEM)
---------------------------------
  C     15.283917   14.597913   17.473227
  C     16.152027   14.479076   16.211308
  O     17.521730   14.837011   16.497737
  C     17.934867   16.085610   16.135965
  O     17.803913   16.439308   14.977054
  C     17.862004   17.056755   17.278682
  C     17.375444   18.315965   17.141949
  C     16.678346   18.904253   15.934343
  N     17.539167   19.241700   18.176772
  C     18.374462   19.062413   19.248195
  S     18.676061   20.271038   20.335930
  N     18.953360   17.823482   19.369267
  C     18.565801   16.637724   18.580583
  C     17.764197   15.683844   19.461621
  C     18.183124   14.349387   19.623766
  C     17.482641   13.476518   20.473509
  C     16.354464   13.941208   21.170725
  C     15.936576   15.270054   21.016527
  O     14.846034   15.721078   21.685606
  C     16.637265   16.137331   20.172448
  H     15.670987   13.955560   18.271651
  H     14.255317   14.284395   17.258524
  H     15.252098   15.633975   17.829185
  H     16.125886   13.435822   15.871310
  H     15.734182   15.097519   15.404887
  H     15.923644   18.209876   15.544672
  H     17.399702   19.089076   15.127850
  H     16.169766   19.849881   16.155566
  H     17.136337   20.161228   18.090597
  H     19.543376   17.711505   20.183908
  H     19.493569   16.122897   18.294077
  H     19.054358   13.985130   19.085713
  H     17.814509   12.446061   20.588770
  H     15.809684   13.270532   21.827062
  H     14.535465   15.002044   22.256168
  H     16.302722   17.164830   20.078846

 Total Charge           Charge          ....    0
 Multiplicity           Mult            ....    1
 Number of Electrons    NEL             ....  154
 Basis Dimension        Dim             ....  828

ORBITAL ENERGIES
----------------

  NO   OCC          E(Eh)            E(eV)
   0   2.0000     -91.890313     -2500.4625
   1   2.0000     -20.597883      -560.4969
   2   2.0000     -20.582018      -560.0652
   3   2.0000     -20.556908      -559.3819
   4   2.0000     -15.629325      -425.2956
   5   2.0000     -15.609437      -424.7544
   6   2.0000     -11.395322      -310.0825
   7   2.0000     -11.385003      -309.8017
   8   2.0000     -11.334191      -308.4190
   9   2.0000     -11.314857      -307.8929
  10   2.0000     -11.313547      -307.8573
  11   2.0000     -11.297784      -307.4283
  12   2.0000     -11.261280      -306.4350
  13   2.0000     -11.261088      -306.4298
  14   2.0000     -11.256178      -306.2962
  15   2.0000     -11.254989      -306.2638
  16   2.0000     -11.244807      -305.9868
  17   2.0000     -11.239481      -305.8418
  18   2.0000     -11.239394      -305.8395
  19   2.0000     -11.220720      -305.3313
  20   2.0000      -8.895343      -242.0546
  21   2.0000      -6.576913      -178.9669
  22   2.0000      -6.574914      -178.9125
  23   2.0000      -6.574321      -178.8964
  24   2.0000      -1.452086       -39.5133
  25   2.0000      -1.417642       -38.5760
  26   2.0000      -1.354030       -36.8450
  27   2.0000      -1.341007       -36.4907
  28   2.0000      -1.239668       -33.7331
  29   2.0000      -1.158351       -31.5203
  30   2.0000      -1.121094       -30.5065
  31   2.0000      -1.044049       -28.4100
  32   2.0000      -1.033388       -28.1199
  33   2.0000      -1.016564       -27.6621
  34   2.0000      -0.999435       -27.1960
  35   2.0000      -0.986044       -26.8316
  36   2.0000      -0.924769       -25.1642
  37   2.0000      -0.887684       -24.1551
  38   2.0000      -0.847671       -23.0663
  39   2.0000      -0.840826       -22.8800
  40   2.0000      -0.835592       -22.7376
  41   2.0000      -0.820020       -22.3139
  42   2.0000      -0.757887       -20.6232
  43   2.0000      -0.733369       -19.9560
  44   2.0000      -0.724926       -19.7262
  45   2.0000      -0.697396       -18.9771
  46   2.0000      -0.690324       -18.7847
  47   2.0000      -0.681075       -18.5330
  48   2.0000      -0.671493       -18.2723
  49   2.0000      -0.666274       -18.1302
  50   2.0000      -0.649858       -17.6835
  51   2.0000      -0.646780       -17.5998
  52   2.0000      -0.636356       -17.3161
  53   2.0000      -0.608146       -16.5485
  54   2.0000      -0.602581       -16.3971
  55   2.0000      -0.600736       -16.3469
  56   2.0000      -0.586930       -15.9712
  57   2.0000      -0.579702       -15.7745
  58   2.0000      -0.576787       -15.6952
  59   2.0000      -0.571516       -15.5517
  60   2.0000      -0.564486       -15.3604
  61   2.0000      -0.550470       -14.9791
  62   2.0000      -0.539948       -14.6927
  63   2.0000      -0.525488       -14.2993
  64   2.0000      -0.514871       -14.0103
  65   2.0000      -0.513596       -13.9757
  66   2.0000      -0.505117       -13.7449
  67   2.0000      -0.502303       -13.6684
  68   2.0000      -0.477307       -12.9882
  69   2.0000      -0.463965       -12.6251
  70   2.0000      -0.453745       -12.3470
  71   2.0000      -0.447779       -12.1847
  72   2.0000      -0.357130        -9.7180
  73   2.0000      -0.348570        -9.4851
  74   2.0000      -0.329422        -8.9640
  75   2.0000      -0.323327        -8.7982
  76   2.0000      -0.317292        -8.6340
  77   0.0000       0.069201         1.8831
  78   0.0000       0.103724         2.8225
  79   0.0000       0.115607         3.1458
  80   0.0000       0.129927         3.5355
  81   0.0000       0.131173         3.5694

MULLIKEN ATOMIC CHARGES
-----------------------
   0 C :   -0.309899
   1 C :    0.039167
   2 O :   -0.374144
   3 C :    0.457901
   4 O :   -0.392855
   5 C :   -0.218167
   6 C :    0.154190
   7 C :   -0.276264
   8 N :   -0.122462
   9 C :    0.194432
  10 S :   -0.434182
  11 N :   -0.192123
  12 C :    0.023468
  13 C :    0.080760
  14 C :   -0.173466
  15 C :   -0.139920
  16 C :   -0.280271
  17 C :    0.325338
  18 O :   -0.358931
  19 C :   -0.288274
  20 H :    0.111001
  21 H :    0.115408
  22 H :    0.100337
  23 H :    0.109315
  24 H :    0.102649
  25 H :    0.120007
  26 H :    0.140644
  27 H :    0.095546
  28 H :    0.197948
  29 H :    0.191285
  30 H :    0.148645
  31 H :    0.144870
  32 H :    0.162110
  33 H :    0.131851
  34 H :    0.240990
  35 H :    0.173094
Sum of atomic charges:    0.0000000

LOEWDIN ATOMIC CHARGES
----------------------
   0 C :    0.103975
   1 C :   -0.013171
   2 O :    0.283710
   3 C :   -0.418397
   4 O :    0.133806
   5 C :   -0.094017
   6 C :   -0.069557
   7 C :    0.128513
   8 N :    0.405687
   9 C :   -0.458724
  10 S :   -0.032849
  11 N :    0.396749
  12 C :   -0.052190
  13 C :   -0.038632
  14 C :    0.016041
  15 C :    0.039144
  16 C :   -0.002299
  17 C :   -0.190990
  18 O :    0.396322
  19 C :    0.034707
  20 H :   -0.023897
  21 H :   -0.026446
  22 H :   -0.033166
  23 H :   -0.024581
  24 H :   -0.030106
  25 H :   -0.009154
  26 H :   -0.003796
  27 H :   -0.022377
  28 H :   -0.058141
  29 H :   -0.064934
  30 H :   -0.007737
  31 H :   -0.029473
  32 H :   -0.020733
  33 H :   -0.035273
  34 H :   -0.153564
  35 H :   -0.024450

  Mayer bond orders larger than 0.100000
B(  0-C ,  1-C ) :   0.9679 B(  0-C , 20-H ) :   0.9718 B(  0-C , 21-H ) :   0.9772
B(  0-C , 22-H ) :   0.9720 B(  1-C ,  2-O ) :   0.8819 B(  1-C , 23-H ) :   0.9873
B(  1-C , 24-H ) :   0.9759 B(  2-O ,  3-C ) :   1.1091 B(  3-C ,  4-O ) :   2.0312
B(  3-C ,  5-C ) :   1.0219 B(  5-C ,  6-C ) :   1.6756 B(  5-C , 12-C ) :   0.9709
B(  6-C ,  7-C ) :   0.9624 B(  6-C ,  8-N ) :   1.1310 B(  7-C , 25-H ) :   0.9703
B(  7-C , 26-H ) :   0.9578 B(  7-C , 27-H ) :   0.9867 B(  8-N ,  9-C ) :   1.1826
B(  8-N , 28-H ) :   0.9493 B(  9-C , 10-S ) :   1.6190 B(  9-C , 11-N ) :   1.2935
B( 11-N , 12-C ) :   0.9957 B( 11-N , 29-H ) :   0.9531 B( 12-C , 13-C ) :   0.9372
B( 12-C , 30-H ) :   1.0093 B( 13-C , 14-C ) :   1.3645 B( 13-C , 19-C ) :   1.3545
B( 14-C , 15-C ) :   1.3939 B( 14-C , 31-H ) :   0.9716 B( 15-C , 16-C ) :   1.3594
B( 15-C , 32-H ) :   0.9712 B( 16-C , 17-C ) :   1.3319 B( 16-C , 33-H ) :   0.9849
B( 17-C , 18-O ) :   1.1113 B( 17-C , 19-C ) :   1.3659 B( 18-O , 34-H ) :   0.9796
B( 19-C , 35-H ) :   0.9576

MP2 TOTAL ENERGY:    -1274.316730856 Eh
FINAL SINGLE POINT ENERGY     -1274.316730855591

DIPOLE MOMENT
-------------
                                X             Y             Z
Electronic contribution:      9.56174       8.84711       5.65169
Nuclear contribution   :    -10.64364     -10.49033      -5.81207
                        -----------------------------------------
Total Dipole Moment    :     -1.08190      -1.64322      -0.16038
                        -----------------------------------------
Magnitude (a.u.)       :      1.97393
Magnitude (Debye)      :      5.01734

Rotational constants in cm-1:     0.011758     0.009903     0.006551
Rotational constants in MHz :   352.484759   296.874753   196.388936

                             ****ORCA TERMINATED NORMALLY****
TOTAL RUN TIME: 0 days 2 hours 2 minutes 22 seconds 335 msec
