                         Program Version 4.2.0 -  RELEASE  -
|  1> ! ri-mp2 cc-pvtz cc-pvtz/c TightSCF  NoKeepInts
|  2>
|  3> %scf
|  4>   MaxCore 4096
|  5> end
|  6> *xyz  0  1
|  7>     C       15.2353374   13.7327718   16.1831133
|  8>     C       15.2414632   15.1942459   16.6740135
|  9>     O       16.2995389   15.9300318   16.0291024
| 10>     C       17.5689169   15.8284203   16.5211823
| 11>     O       18.1162537   14.7479153   16.6578515
| 12>     C       17.9110000   16.9864315   17.4082534
| 13>     C       17.5234912   18.2629841   17.1635212
| 14>     C       16.7395301   18.7717564   15.9719152
| 15>     N       17.9177130   19.2872021   18.0296792
| 16>     C       18.7943274   19.1352682   19.0720848
| 17>     S       19.2918045   20.4210904   19.9854972
| 18>     N       19.2370194   17.8599732   19.3207811
| 19>     C       18.7358105   16.6440503   18.6517859
| 20>     C       17.9134731   15.7968052   19.6193312
| 21>     C       18.2222418   14.4385390   19.8176088
| 22>     C       17.4549421   13.6492156   20.6904779
| 23>     C       16.3673995   14.2218344   21.3715726
| 24>     C       16.0536254   15.5731641   21.1737611
| 25>     O       14.9973509   16.1266408   21.8208807
| 26>     C       16.8185013   16.3560104   20.3034471
| 27>     H       16.1061786   13.1822222   16.5590729
| 28>     H       15.2462121   13.6915411   15.0869690
| 29>     H       14.3359015   13.2150067   16.5370417
| 30>     H       14.2798033   15.6540725   16.4129551
| 31>     H       15.3497302   15.2300189   17.7670700
| 32>     H       17.0675178   18.2812478   15.0467635
| 33>     H       16.8613648   19.8513466   15.8209944
| 34>     H       15.6687983   18.5685202   16.0971242
| 35>     H       17.6048753   20.2304471   17.8630291
| 36>     H       19.8598960   17.7723401   20.1135314
| 37>     H       19.6065391   16.0556752   18.3276733
| 38>     H       19.0502502   13.9880426   19.2753474
| 39>     H       17.7012759   12.5980506   20.8299340
| 40>     H       15.7708656   13.6149307   22.0445958
| 41>     H       14.6389804   15.4539749   22.4195095
| 42>     H       16.5590706   17.4002119   20.1665281
| 43> *
| 44>
| 45>                          ****END OF INPUT****

CARTESIAN COORDINATES (ANGSTROEM)
---------------------------------
  C     15.235337   13.732772   16.183113
  C     15.241463   15.194246   16.674014
  O     16.299539   15.930032   16.029102
  C     17.568917   15.828420   16.521182
  O     18.116254   14.747915   16.657851
  C     17.911000   16.986431   17.408253
  C     17.523491   18.262984   17.163521
  C     16.739530   18.771756   15.971915
  N     17.917713   19.287202   18.029679
  C     18.794327   19.135268   19.072085
  S     19.291805   20.421090   19.985497
  N     19.237019   17.859973   19.320781
  C     18.735810   16.644050   18.651786
  C     17.913473   15.796805   19.619331
  C     18.222242   14.438539   19.817609
  C     17.454942   13.649216   20.690478
  C     16.367400   14.221834   21.371573
  C     16.053625   15.573164   21.173761
  O     14.997351   16.126641   21.820881
  C     16.818501   16.356010   20.303447
  H     16.106179   13.182222   16.559073
  H     15.246212   13.691541   15.086969
  H     14.335901   13.215007   16.537042
  H     14.279803   15.654072   16.412955
  H     15.349730   15.230019   17.767070
  H     17.067518   18.281248   15.046763
  H     16.861365   19.851347   15.820994
  H     15.668798   18.568520   16.097124
  H     17.604875   20.230447   17.863029
  H     19.859896   17.772340   20.113531
  H     19.606539   16.055675   18.327673
  H     19.050250   13.988043   19.275347
  H     17.701276   12.598051   20.829934
  H     15.770866   13.614931   22.044596
  H     14.638980   15.453975   22.419510
  H     16.559071   17.400212   20.166528

 Total Charge           Charge          ....    0
 Multiplicity           Mult            ....    1
 Number of Electrons    NEL             ....  154
 Basis Dimension        Dim             ....  828

ORBITAL ENERGIES
----------------

  NO   OCC          E(Eh)            E(eV)
   0   2.0000     -91.889072     -2500.4288
   1   2.0000     -20.596621      -560.4626
   2   2.0000     -20.583487      -560.1052
   3   2.0000     -20.556908      -559.3819
   4   2.0000     -15.628526      -425.2738
   5   2.0000     -15.608629      -424.7324
   6   2.0000     -11.395993      -310.1007
   7   2.0000     -11.384554      -309.7895
   8   2.0000     -11.333286      -308.3944
   9   2.0000     -11.313007      -307.8426
  10   2.0000     -11.308925      -307.7315
  11   2.0000     -11.301024      -307.5165
  12   2.0000     -11.260173      -306.4049
  13   2.0000     -11.259224      -306.3791
  14   2.0000     -11.258465      -306.3584
  15   2.0000     -11.253143      -306.2136
  16   2.0000     -11.242744      -305.9306
  17   2.0000     -11.238551      -305.8165
  18   2.0000     -11.235819      -305.7422
  19   2.0000     -11.218585      -305.2732
  20   2.0000      -8.894145      -242.0220
  21   2.0000      -6.575723      -178.9345
  22   2.0000      -6.573713      -178.8798
  23   2.0000      -6.573129      -178.8639
  24   2.0000      -1.451071       -39.4856
  25   2.0000      -1.416435       -38.5432
  26   2.0000      -1.358039       -36.9541
  27   2.0000      -1.339709       -36.4553
  28   2.0000      -1.238059       -33.6893
  29   2.0000      -1.157055       -31.4851
  30   2.0000      -1.121473       -30.5168
  31   2.0000      -1.044697       -28.4277
  32   2.0000      -1.029958       -28.0266
  33   2.0000      -1.014554       -27.6074
  34   2.0000      -0.999113       -27.1873
  35   2.0000      -0.984410       -26.7871
  36   2.0000      -0.923788       -25.1375
  37   2.0000      -0.884333       -24.0639
  38   2.0000      -0.849408       -23.1136
  39   2.0000      -0.839485       -22.8436
  40   2.0000      -0.833130       -22.6706
  41   2.0000      -0.826296       -22.4847
  42   2.0000      -0.749219       -20.3873
  43   2.0000      -0.731372       -19.9016
  44   2.0000      -0.728794       -19.8315
  45   2.0000      -0.694980       -18.9114
  46   2.0000      -0.686531       -18.6815
  47   2.0000      -0.681439       -18.5429
  48   2.0000      -0.672441       -18.2981
  49   2.0000      -0.665896       -18.1199
  50   2.0000      -0.647370       -17.6158
  51   2.0000      -0.644471       -17.5369
  52   2.0000      -0.636437       -17.3183
  53   2.0000      -0.605677       -16.4813
  54   2.0000      -0.604043       -16.4369
  55   2.0000      -0.600453       -16.3392
  56   2.0000      -0.592051       -16.1105
  57   2.0000      -0.582658       -15.8549
  58   2.0000      -0.576602       -15.6901
  59   2.0000      -0.571579       -15.5535
  60   2.0000      -0.562100       -15.2955
  61   2.0000      -0.549653       -14.9568
  62   2.0000      -0.535013       -14.5584
  63   2.0000      -0.522089       -14.2068
  64   2.0000      -0.516547       -14.0560
  65   2.0000      -0.511831       -13.9276
  66   2.0000      -0.501915       -13.6578
  67   2.0000      -0.497171       -13.5287
  68   2.0000      -0.480870       -13.0852
  69   2.0000      -0.466190       -12.6857
  70   2.0000      -0.453465       -12.3394
  71   2.0000      -0.449592       -12.2340
  72   2.0000      -0.354506        -9.6466
  73   2.0000      -0.348657        -9.4874
  74   2.0000      -0.328402        -8.9363
  75   2.0000      -0.320232        -8.7139
  76   2.0000      -0.316036        -8.5998
  77   0.0000       0.071017         1.9325
  78   0.0000       0.104687         2.8487
  79   0.0000       0.119841         3.2610
  80   0.0000       0.131475         3.5776
  81   0.0000       0.135875         3.6973

MULLIKEN ATOMIC CHARGES
-----------------------
   0 C :   -0.271796
   1 C :    0.037287
   2 O :   -0.377951
   3 C :    0.453760
   4 O :   -0.399924
   5 C :   -0.186921
   6 C :    0.134915
   7 C :   -0.279840
   8 N :   -0.123821
   9 C :    0.202151
  10 S :   -0.439353
  11 N :   -0.201664
  12 C :    0.056891
  13 C :    0.040810
  14 C :   -0.163049
  15 C :   -0.133743
  16 C :   -0.279099
  17 C :    0.317442
  18 O :   -0.359625
  19 C :   -0.287111
  20 H :    0.117231
  21 H :    0.094498
  22 H :    0.087622
  23 H :    0.101531
  24 H :    0.097561
  25 H :    0.124269
  26 H :    0.104163
  27 H :    0.124737
  28 H :    0.197207
  29 H :    0.194340
  30 H :    0.155706
  31 H :    0.158512
  32 H :    0.161541
  33 H :    0.131324
  34 H :    0.240932
  35 H :    0.169469
Sum of atomic charges:    0.0000000

LOEWDIN ATOMIC CHARGES
----------------------
   0 C :    0.106317
   1 C :   -0.015473
   2 O :    0.284899
   3 C :   -0.414274
   4 O :    0.134437
   5 C :   -0.094398
   6 C :   -0.074114
   7 C :    0.126356
   8 N :    0.404142
   9 C :   -0.457564
  10 S :   -0.036130
  11 N :    0.397003
  12 C :   -0.045535
  13 C :   -0.041597
  14 C :    0.021039
  15 C :    0.041880
  16 C :   -0.002082
  17 C :   -0.194764
  18 O :    0.393797
  19 C :    0.027696
  20 H :   -0.026848
  21 H :   -0.027097
  22 H :   -0.030377
  23 H :   -0.025479
  24 H :   -0.029069
  25 H :   -0.007668
  26 H :   -0.019465
  27 H :   -0.009837
  28 H :   -0.058629
  29 H :   -0.064115
  30 H :   -0.004818
  31 H :   -0.024455
  32 H :   -0.020128
  33 H :   -0.035430
  34 H :   -0.153856
  35 H :   -0.024361

  Mayer bond orders larger than 0.100000
B(  0-C ,  1-C ) :   0.9824 B(  0-C , 20-H ) :   0.9712 B(  0-C , 21-H ) :   0.9766
B(  0-C , 22-H ) :   0.9753 B(  1-C ,  2-O ) :   0.8947 B(  1-C , 23-H ) :   0.9826
B(  1-C , 24-H ) :   0.9676 B(  2-O ,  3-C ) :   1.0778 B(  3-C ,  4-O ) :   2.0153
B(  3-C ,  5-C ) :   1.0273 B(  5-C ,  6-C ) :   1.6723 B(  5-C , 12-C ) :   0.9600
B(  6-C ,  7-C ) :   0.9516 B(  6-C ,  8-N ) :   1.1390 B(  7-C , 25-H ) :   0.9703
B(  7-C , 26-H ) :   0.9881 B(  7-C , 27-H ) :   0.9633 B(  8-N ,  9-C ) :   1.1844
B(  8-N , 28-H ) :   0.9498 B(  9-C , 10-S ) :   1.6114 B(  9-C , 11-N ) :   1.2991
B( 11-N , 12-C ) :   0.9939 B( 11-N , 29-H ) :   0.9516 B( 12-C , 13-C ) :   0.9433
B( 12-C , 30-H ) :   0.9987 B( 13-C , 14-C ) :   1.3789 B( 13-C , 19-C ) :   1.3642
B( 14-C , 15-C ) :   1.3941 B( 14-C , 31-H ) :   0.9629 B( 15-C , 16-C ) :   1.3638
B( 15-C , 32-H ) :   0.9707 B( 16-C , 17-C ) :   1.3305 B( 16-C , 33-H ) :   0.9846
B( 17-C , 18-O ) :   1.1098 B( 17-C , 19-C ) :   1.3703 B( 18-O , 34-H ) :   0.9797
B( 19-C , 35-H ) :   0.9587

MP2 TOTAL ENERGY:    -1274.324441199 Eh
FINAL SINGLE POINT ENERGY     -1274.324441198683

DIPOLE MOMENT
-------------
                                X             Y             Z
Electronic contribution:     10.52789      10.45573       7.43502
Nuclear contribution   :    -11.99003     -11.57231      -7.93516
                        -----------------------------------------
Total Dipole Moment    :     -1.46214      -1.11658      -0.50014
                        -----------------------------------------
Magnitude (a.u.)       :      1.90650
Magnitude (Debye)      :      4.84594

Rotational constants in cm-1:     0.012047     0.009042     0.006432
Rotational constants in MHz :   361.154270   271.073682   192.814398

                             ****ORCA TERMINATED NORMALLY****
TOTAL RUN TIME: 0 days 1 hours 43 minutes 37 seconds 3 msec
