                         Program Version 4.2.0 -  RELEASE  -
|  1> ! ri-mp2 cc-pvtz cc-pvtz/c TightSCF  NoKeepInts
|  2>
|  3> %scf
|  4>   MaxCore 4096
|  5> end
|  6> *xyz  0  1
|  7>     C       15.1007087   15.5149180   17.5354285
|  8>     C       15.5659140   15.3419309   16.0750371
|  9>     O       16.9654469   14.9891498   15.9671015
| 10>     C       18.0893368   15.6002665   16.4788831
| 11>     O       19.1355481   14.9779733   16.4799906
| 12>     C       17.9308869   16.7871882   17.3746353
| 13>     C       17.4050113   17.9609241   16.9494122
| 14>     C       16.9195064   18.3005296   15.5569900
| 15>     N       17.3895283   19.0676785   17.8012321
| 16>     C       18.0224634   19.1264375   19.0148390
| 17>     S       18.0333515   20.5082702   19.9227786
| 18>     N       18.6522453   17.9817707   19.4357570
| 19>     C       18.5808812   16.6714441   18.7583519
| 20>     C       17.8817396   15.6282034   19.6280387
| 21>     C       18.3218747   14.2916125   19.6089107
| 22>     C       17.6855474   13.3141156   20.3915717
| 23>     C       16.5978563   13.6738849   21.2046412
| 24>     C       16.1548971   15.0028456   21.2285469
| 25>     O       15.0980893   15.3518234   22.0043660
| 26>     C       16.7898389   15.9742642   20.4480395
| 27>     H       15.5140129   14.7191030   18.1677618
| 28>     H       14.0075726   15.4449271   17.5897813
| 29>     H       15.3788915   16.4862217   17.9547824
| 30>     H       14.9844529   14.5246830   15.6285992
| 31>     H       15.3327778   16.2405849   15.4964074
| 32>     H       17.1627857   17.5182344   14.8277797
| 33>     H       17.3977468   19.2193127   15.1934801
| 34>     H       15.8349108   18.4624550   15.5431771
| 35>     H       16.9537876   19.9252529   17.5001506
| 36>     H       19.1020959   18.0494369   20.3400398
| 37>     H       19.6153172   16.3291066   18.6058651
| 38>     H       19.1573879   14.0060994   18.9728866
| 39>     H       18.0349675   12.2834102   20.3616513
| 40>     H       16.1022648   12.9212029   21.8088327
| 41>     H       14.8265263   14.5628172   22.4972466
| 42>     H       16.4208298   16.9939212   20.4810066
| 43> *
| 44>
| 45>                          ****END OF INPUT****

CARTESIAN COORDINATES (ANGSTROEM)
---------------------------------
  C     15.100709   15.514918   17.535428
  C     15.565914   15.341931   16.075037
  O     16.965447   14.989150   15.967102
  C     18.089337   15.600266   16.478883
  O     19.135548   14.977973   16.479991
  C     17.930887   16.787188   17.374635
  C     17.405011   17.960924   16.949412
  C     16.919506   18.300530   15.556990
  N     17.389528   19.067678   17.801232
  C     18.022463   19.126438   19.014839
  S     18.033351   20.508270   19.922779
  N     18.652245   17.981771   19.435757
  C     18.580881   16.671444   18.758352
  C     17.881740   15.628203   19.628039
  C     18.321875   14.291612   19.608911
  C     17.685547   13.314116   20.391572
  C     16.597856   13.673885   21.204641
  C     16.154897   15.002846   21.228547
  O     15.098089   15.351823   22.004366
  C     16.789839   15.974264   20.448039
  H     15.514013   14.719103   18.167762
  H     14.007573   15.444927   17.589781
  H     15.378891   16.486222   17.954782
  H     14.984453   14.524683   15.628599
  H     15.332778   16.240585   15.496407
  H     17.162786   17.518234   14.827780
  H     17.397747   19.219313   15.193480
  H     15.834911   18.462455   15.543177
  H     16.953788   19.925253   17.500151
  H     19.102096   18.049437   20.340040
  H     19.615317   16.329107   18.605865
  H     19.157388   14.006099   18.972887
  H     18.034968   12.283410   20.361651
  H     16.102265   12.921203   21.808833
  H     14.826526   14.562817   22.497247
  H     16.420830   16.993921   20.481007

 Total Charge           Charge          ....    0
 Multiplicity           Mult            ....    1
 Number of Electrons    NEL             ....  154
 Basis Dimension        Dim             ....  828

ORBITAL ENERGIES
----------------

  NO   OCC          E(Eh)            E(eV)
   0   2.0000     -91.890704     -2500.4732
   1   2.0000     -20.599282      -560.5350
   2   2.0000     -20.597454      -560.4852
   3   2.0000     -20.548023      -559.1401
   4   2.0000     -15.628520      -425.2737
   5   2.0000     -15.611390      -424.8075
   6   2.0000     -11.400819      -310.2321
   7   2.0000     -11.387089      -309.8585
   8   2.0000     -11.331819      -308.3545
   9   2.0000     -11.314162      -307.8740
  10   2.0000     -11.313994      -307.8694
  11   2.0000     -11.309950      -307.7594
  12   2.0000     -11.271554      -306.7146
  13   2.0000     -11.267448      -306.6028
  14   2.0000     -11.261569      -306.4429
  15   2.0000     -11.254546      -306.2518
  16   2.0000     -11.243841      -305.9605
  17   2.0000     -11.239230      -305.8350
  18   2.0000     -11.236136      -305.7508
  19   2.0000     -11.230056      -305.5854
  20   2.0000      -8.895806      -242.0672
  21   2.0000      -6.577394      -178.9800
  22   2.0000      -6.575368      -178.9249
  23   2.0000      -6.574791      -178.9092
  24   2.0000      -1.444281       -39.3009
  25   2.0000      -1.417275       -38.5660
  26   2.0000      -1.356376       -36.9089
  27   2.0000      -1.341788       -36.5119
  28   2.0000      -1.240758       -33.7627
  29   2.0000      -1.158976       -31.5373
  30   2.0000      -1.125489       -30.6261
  31   2.0000      -1.047906       -28.5150
  32   2.0000      -1.039011       -28.2729
  33   2.0000      -1.017201       -27.6794
  34   2.0000      -1.006102       -27.3774
  35   2.0000      -0.990389       -26.9499
  36   2.0000      -0.928220       -25.2581
  37   2.0000      -0.897770       -24.4296
  38   2.0000      -0.855370       -23.2758
  39   2.0000      -0.840918       -22.8826
  40   2.0000      -0.834395       -22.7050
  41   2.0000      -0.829359       -22.5680
  42   2.0000      -0.746739       -20.3198
  43   2.0000      -0.739575       -20.1249
  44   2.0000      -0.730518       -19.8784
  45   2.0000      -0.695272       -18.9193
  46   2.0000      -0.687274       -18.7017
  47   2.0000      -0.679125       -18.4799
  48   2.0000      -0.674972       -18.3669
  49   2.0000      -0.662611       -18.0306
  50   2.0000      -0.652572       -17.7574
  51   2.0000      -0.650988       -17.7143
  52   2.0000      -0.640356       -17.4250
  53   2.0000      -0.617356       -16.7991
  54   2.0000      -0.610409       -16.6101
  55   2.0000      -0.605840       -16.4858
  56   2.0000      -0.602008       -16.3815
  57   2.0000      -0.590699       -16.0737
  58   2.0000      -0.578403       -15.7392
  59   2.0000      -0.571751       -15.5581
  60   2.0000      -0.565769       -15.3954
  61   2.0000      -0.556176       -15.1343
  62   2.0000      -0.540892       -14.7184
  63   2.0000      -0.530769       -14.4430
  64   2.0000      -0.520154       -14.1541
  65   2.0000      -0.513182       -13.9644
  66   2.0000      -0.501647       -13.6505
  67   2.0000      -0.501227       -13.6391
  68   2.0000      -0.483093       -13.1456
  69   2.0000      -0.465562       -12.6686
  70   2.0000      -0.454437       -12.3659
  71   2.0000      -0.450556       -12.2603
  72   2.0000      -0.357452        -9.7268
  73   2.0000      -0.348391        -9.4802
  74   2.0000      -0.330277        -8.9873
  75   2.0000      -0.322975        -8.7886
  76   2.0000      -0.319087        -8.6828
  77   0.0000       0.082927         2.2566
  78   0.0000       0.107582         2.9275
  79   0.0000       0.112959         3.0738
  80   0.0000       0.130637         3.5548
  81   0.0000       0.130966         3.5638

MULLIKEN ATOMIC CHARGES
-----------------------
   0 C :   -0.329132
   1 C :    0.022112
   2 O :   -0.323409
   3 C :    0.420060
   4 O :   -0.385745
   5 C :   -0.208773
   6 C :    0.148012
   7 C :   -0.336236
   8 N :   -0.136835
   9 C :    0.201872
  10 S :   -0.439834
  11 N :   -0.223908
  12 C :    0.084451
  13 C :    0.020926
  14 C :   -0.210885
  15 C :   -0.135432
  16 C :   -0.278023
  17 C :    0.318009
  18 O :   -0.358514
  19 C :   -0.271673
  20 H :    0.128573
  21 H :    0.115822
  22 H :    0.108442
  23 H :    0.133850
  24 H :    0.087162
  25 H :    0.128709
  26 H :    0.140727
  27 H :    0.121494
  28 H :    0.196880
  29 H :    0.201881
  30 H :    0.168057
  31 H :    0.176271
  32 H :    0.163834
  33 H :    0.131958
  34 H :    0.241053
  35 H :    0.178244
Sum of atomic charges:   -0.0000000

LOEWDIN ATOMIC CHARGES
----------------------
   0 C :    0.103449
   1 C :   -0.018522
   2 O :    0.298204
   3 C :   -0.414527
   4 O :    0.121916
   5 C :   -0.078679
   6 C :   -0.098221
   7 C :    0.122713
   8 N :    0.402437
   9 C :   -0.458311
  10 S :   -0.037004
  11 N :    0.398476
  12 C :   -0.042356
  13 C :   -0.042597
  14 C :    0.020341
  15 C :    0.043287
  16 C :   -0.001814
  17 C :   -0.193855
  18 O :    0.395306
  19 C :    0.028829
  20 H :   -0.018412
  21 H :   -0.024496
  22 H :   -0.036637
  23 H :   -0.017289
  24 H :   -0.040357
  25 H :   -0.008165
  26 H :   -0.008606
  27 H :   -0.018100
  28 H :   -0.057494
  29 H :   -0.063216
  30 H :   -0.001487
  31 H :   -0.021823
  32 H :   -0.018628
  33 H :   -0.034998
  34 H :   -0.153590
  35 H :   -0.025773

  Mayer bond orders larger than 0.100000
B(  0-C ,  1-C ) :   0.9539 B(  0-C , 20-H ) :   0.9681 B(  0-C , 21-H ) :   0.9767
B(  0-C , 22-H ) :   0.9725 B(  1-C ,  2-O ) :   0.9076 B(  1-C , 23-H ) :   0.9819
B(  1-C , 24-H ) :   0.9737 B(  2-O ,  3-C ) :   1.1817 B(  3-C ,  4-O ) :   2.0761
B(  3-C ,  5-C ) :   0.9245 B(  5-C ,  6-C ) :   1.6930 B(  5-C , 12-C ) :   0.9534
B(  6-C ,  7-C ) :   0.9454 B(  6-C ,  8-N ) :   1.1050 B(  7-C , 25-H ) :   0.9806
B(  7-C , 26-H ) :   0.9703 B(  7-C , 27-H ) :   0.9657 B(  8-N ,  9-C ) :   1.1942
B(  8-N , 28-H ) :   0.9523 B(  9-C , 10-S ) :   1.6103 B(  9-C , 11-N ) :   1.2888
B( 11-N , 12-C ) :   0.9883 B( 11-N , 29-H ) :   0.9482 B( 12-C , 13-C ) :   0.9495
B( 12-C , 30-H ) :   0.9950 B( 13-C , 14-C ) :   1.3908 B( 13-C , 19-C ) :   1.3391
B( 14-C , 15-C ) :   1.4008 B( 14-C , 31-H ) :   0.9577 B( 15-C , 16-C ) :   1.3585
B( 15-C , 32-H ) :   0.9703 B( 16-C , 17-C ) :   1.3305 B( 16-C , 33-H ) :   0.9849
B( 17-C , 18-O ) :   1.1099 B( 17-C , 19-C ) :   1.3705 B( 18-O , 34-H ) :   0.9797
B( 19-C , 35-H ) :   0.9565

MP2 TOTAL ENERGY:    -1274.327653197 Eh
FINAL SINGLE POINT ENERGY     -1274.327653197142

DIPOLE MOMENT
-------------
                                X             Y             Z
Electronic contribution:      9.15284       6.02620       6.26469
Nuclear contribution   :    -10.70855      -7.01185      -6.94247
                        -----------------------------------------
Total Dipole Moment    :     -1.55571      -0.98565      -0.67779
                        -----------------------------------------
Magnitude (a.u.)       :      1.96243
Magnitude (Debye)      :      4.98810

Rotational constants in cm-1:     0.011793     0.009615     0.006824
Rotational constants in MHz :   353.553182   288.262880   204.570060

                             ****ORCA TERMINATED NORMALLY****
TOTAL RUN TIME: 0 days 1 hours 50 minutes 6 seconds 660 msec
