                         Program Version 5.0.0 -  RELEASE  -
|  1> ! ri-mp2 cc-pvtz cc-pvtz/c TightSCF NoKeepInts
|  2>
|  3> %scf
|  4>   MaxCore 4096
|  5> end
|  6> *xyz  0  1
|  7>     C       15.3257755   13.8856772   16.3216785
|  8>     C       15.4482485   15.0951865   15.3662883
|  9>     O       16.4327759   16.0828118   15.7640715
| 10>     C       17.4657009   15.8607990   16.6328150
| 11>     O       18.0429207   14.7901914   16.7213675
| 12>     C       17.7898243   17.0196147   17.5334892
| 13>     C       17.3596899   18.2977446   17.3605726
| 14>     C       16.4958661   18.8542937   16.2470643
| 15>     N       17.7742120   19.2955243   18.2494596
| 16>     C       18.7117078   19.1306038   19.2343326
| 17>     S       19.2327608   20.3964333   20.1626861
| 18>     N       19.1942834   17.8592119   19.4110613
| 19>     C       18.6722094   16.6577273   18.7338591
| 20>     C       17.9118615   15.7742555   19.7199199
| 21>     C       18.2527750   14.4173455   19.8703186
| 22>     C       17.5498353   13.5968898   20.7683693
| 23>     C       16.4954346   14.1368847   21.5241244
| 24>     C       16.1499311   15.4868244   21.3748061
| 25>     O       15.1275064   16.0095362   22.0978025
| 26>     C       16.8508775   16.3007179   20.4794121
| 27>     H       16.1797392   13.2049160   16.2182473
| 28>     H       14.4218773   13.3105278   16.0880262
| 29>     H       15.2576481   14.2111943   17.3676351
| 30>     H       15.7065198   14.7176786   14.3683170
| 31>     H       14.4713033   15.5885148   15.2842367
| 32>     H       15.4752629   18.4576754   16.3136114
| 33>     H       16.9031262   18.5814195   15.2654392
| 34>     H       16.4253045   19.9484838   16.2716031
| 35>     H       17.4321803   20.2363077   18.1363331
| 36>     H       19.8616719   17.7571408   20.1647641
| 37>     H       19.5349087   16.0896210   18.3565076
| 38>     H       19.0558278   13.9927142   19.2726109
| 39>     H       17.8199528   12.5473570   20.8701266
| 40>     H       15.9487395   13.5063384   22.2172727
| 41>     H       14.8005181   15.3106614   22.6838619
| 42>     H       16.5682231   17.3431757   20.3819086
| 43> *
| 44>
| 45>                          ****END OF INPUT****

CARTESIAN COORDINATES (ANGSTROEM)
---------------------------------
  C     15.325775   13.885677   16.321679
  C     15.448248   15.095186   15.366288
  O     16.432776   16.082812   15.764071
  C     17.465701   15.860799   16.632815
  O     18.042921   14.790191   16.721367
  C     17.789824   17.019615   17.533489
  C     17.359690   18.297745   17.360573
  C     16.495866   18.854294   16.247064
  N     17.774212   19.295524   18.249460
  C     18.711708   19.130604   19.234333
  S     19.232761   20.396433   20.162686
  N     19.194283   17.859212   19.411061
  C     18.672209   16.657727   18.733859
  C     17.911862   15.774256   19.719920
  C     18.252775   14.417345   19.870319
  C     17.549835   13.596890   20.768369
  C     16.495435   14.136885   21.524124
  C     16.149931   15.486824   21.374806
  O     15.127506   16.009536   22.097803
  C     16.850877   16.300718   20.479412
  H     16.179739   13.204916   16.218247
  H     14.421877   13.310528   16.088026
  H     15.257648   14.211194   17.367635
  H     15.706520   14.717679   14.368317
  H     14.471303   15.588515   15.284237
  H     15.475263   18.457675   16.313611
  H     16.903126   18.581419   15.265439
  H     16.425304   19.948484   16.271603
  H     17.432180   20.236308   18.136333
  H     19.861672   17.757141   20.164764
  H     19.534909   16.089621   18.356508
  H     19.055828   13.992714   19.272611
  H     17.819953   12.547357   20.870127
  H     15.948739   13.506338   22.217273
  H     14.800518   15.310661   22.683862
  H     16.568223   17.343176   20.381909

 Total Charge           Charge          ....    0
 Multiplicity           Mult            ....    1
 Number of Electrons    NEL             ....  154
 Basis Dimension        Dim             ....  828

ORBITAL ENERGIES
----------------

  NO   OCC          E(Eh)            E(eV)
   0   2.0000     -91.887906     -2500.3970
   1   2.0000     -20.596476      -560.4586
   2   2.0000     -20.592602      -560.3532
   3   2.0000     -20.545372      -559.0680
   4   2.0000     -15.628080      -425.2617
   5   2.0000     -15.606601      -424.6772
   6   2.0000     -11.397012      -310.1285
   7   2.0000     -11.382732      -309.7399
   8   2.0000     -11.335954      -308.4670
   9   2.0000     -11.308500      -307.7199
  10   2.0000     -11.306325      -307.6607
  11   2.0000     -11.305153      -307.6289
  12   2.0000     -11.259863      -306.3965
  13   2.0000     -11.258384      -306.3562
  14   2.0000     -11.254117      -306.2401
  15   2.0000     -11.248534      -306.0882
  16   2.0000     -11.238280      -305.8091
  17   2.0000     -11.234334      -305.7018
  18   2.0000     -11.231086      -305.6134
  19   2.0000     -11.226373      -305.4851
  20   2.0000      -8.892971      -241.9901
  21   2.0000      -6.574550      -178.9026
  22   2.0000      -6.572542      -178.8480
  23   2.0000      -6.571957      -178.8321
  24   2.0000      -1.446636       -39.3650
  25   2.0000      -1.412361       -38.4323
  26   2.0000      -1.355558       -36.8866
  27   2.0000      -1.339083       -36.4383
  28   2.0000      -1.236787       -33.6547
  29   2.0000      -1.152803       -31.3694
  30   2.0000      -1.118946       -30.4481
  31   2.0000      -1.041956       -28.3531
  32   2.0000      -1.033901       -28.1339
  33   2.0000      -1.010271       -27.4909
  34   2.0000      -0.997534       -27.1443
  35   2.0000      -0.982848       -26.7447
  36   2.0000      -0.921711       -25.0810
  37   2.0000      -0.897540       -24.4233
  38   2.0000      -0.847957       -23.0741
  39   2.0000      -0.836059       -22.7503
  40   2.0000      -0.828711       -22.5504
  41   2.0000      -0.817231       -22.2380
  42   2.0000      -0.743417       -20.2294
  43   2.0000      -0.729150       -19.8412
  44   2.0000      -0.725009       -19.7285
  45   2.0000      -0.690593       -18.7920
  46   2.0000      -0.684721       -18.6322
  47   2.0000      -0.676893       -18.4192
  48   2.0000      -0.672666       -18.3042
  49   2.0000      -0.662221       -18.0199
  50   2.0000      -0.649730       -17.6801
  51   2.0000      -0.644148       -17.5282
  52   2.0000      -0.633359       -17.2346
  53   2.0000      -0.617249       -16.7962
  54   2.0000      -0.601143       -16.3579
  55   2.0000      -0.600012       -16.3272
  56   2.0000      -0.596086       -16.2203
  57   2.0000      -0.577005       -15.7011
  58   2.0000      -0.573955       -15.6181
  59   2.0000      -0.564851       -15.3704
  60   2.0000      -0.555599       -15.1186
  61   2.0000      -0.543313       -14.7843
  62   2.0000      -0.537965       -14.6388
  63   2.0000      -0.524675       -14.2771
  64   2.0000      -0.516813       -14.0632
  65   2.0000      -0.510826       -13.9003
  66   2.0000      -0.501495       -13.6464
  67   2.0000      -0.495555       -13.4847
  68   2.0000      -0.478849       -13.0301
  69   2.0000      -0.463049       -12.6002
  70   2.0000      -0.455781       -12.4024
  71   2.0000      -0.448735       -12.2107
  72   2.0000      -0.353643        -9.6231
  73   2.0000      -0.344778        -9.3819
  74   2.0000      -0.327091        -8.9006
  75   2.0000      -0.315968        -8.5979
  76   2.0000      -0.314229        -8.5506
  77   0.0000       0.075351         2.0504
  78   0.0000       0.111689         3.0392
  79   0.0000       0.121632         3.3098
  80   0.0000       0.135027         3.6743
  81   0.0000       0.140181         3.8145

MULLIKEN ATOMIC CHARGES
-----------------------
   0 C :   -0.309833
   1 C :    0.054842
   2 O :   -0.360395
   3 C :    0.447205
   4 O :   -0.421541
   5 C :   -0.178684
   6 C :    0.143099
   7 C :   -0.281981
   8 N :   -0.121904
   9 C :    0.201633
  10 S :   -0.439743
  11 N :   -0.199265
  12 C :    0.043838
  13 C :    0.053706
  14 C :   -0.165696
  15 C :   -0.133403
  16 C :   -0.280368
  17 C :    0.312332
  18 O :   -0.358848
  19 C :   -0.276256
  20 H :    0.125547
  21 H :    0.098785
  22 H :    0.106007
  23 H :    0.096599
  24 H :    0.094277
  25 H :    0.123861
  26 H :    0.129062
  27 H :    0.102270
  28 H :    0.196722
  29 H :    0.194056
  30 H :    0.154589
  31 H :    0.155315
  32 H :    0.159585
  33 H :    0.128774
  34 H :    0.240168
  35 H :    0.165644
Sum of atomic charges:    0.0000000

LOEWDIN ATOMIC CHARGES
----------------------
   0 C :    0.105108
   1 C :   -0.009126
   2 O :    0.292809
   3 C :   -0.416027
   4 O :    0.112667
   5 C :   -0.091980
   6 C :   -0.065662
   7 C :    0.124889
   8 N :    0.404762
   9 C :   -0.458984
  10 S :   -0.036398
  11 N :    0.397935
  12 C :   -0.046563
  13 C :   -0.039620
  14 C :    0.022084
  15 C :    0.040477
  16 C :   -0.002736
  17 C :   -0.193352
  18 O :    0.393073
  19 C :    0.027698
  20 H :   -0.023776
  21 H :   -0.026661
  22 H :   -0.025070
  23 H :   -0.028426
  24 H :   -0.027759
  25 H :   -0.010301
  26 H :   -0.007530
  27 H :   -0.021284
  28 H :   -0.059279
  29 H :   -0.063705
  30 H :   -0.005266
  31 H :   -0.024986
  32 H :   -0.021106
  33 H :   -0.036285
  34 H :   -0.154780
  35 H :   -0.024842

  Mayer bond orders larger than 0.100000
B(  0-C ,  1-C ) :   0.9656 B(  0-C , 20-H ) :   0.9720 B(  0-C , 21-H ) :   0.9743
B(  0-C , 22-H ) :   0.9724 B(  1-C ,  2-O ) :   0.9020 B(  1-C , 23-H ) :   0.9823
B(  1-C , 24-H ) :   0.9810 B(  2-O ,  3-C ) :   1.1410 B(  3-C ,  4-O ) :   1.9923
B(  3-C ,  5-C ) :   1.0381 B(  5-C ,  6-C ) :   1.6517 B(  5-C , 12-C ) :   0.9630
B(  6-C ,  7-C ) :   0.9545 B(  6-C ,  8-N ) :   1.1484 B(  7-C , 25-H ) :   0.9650
B(  7-C , 26-H ) :   0.9648 B(  7-C , 27-H ) :   0.9916 B(  8-N ,  9-C ) :   1.1794
B(  8-N , 28-H ) :   0.9487 B(  9-C , 10-S ) :   1.6100 B(  9-C , 11-N ) :   1.3044
B( 11-N , 12-C ) :   0.9912 B( 11-N , 29-H ) :   0.9518 B( 12-C , 13-C ) :   0.9450
B( 12-C , 30-H ) :   1.0002 B( 13-C , 14-C ) :   1.3765 B( 13-C , 19-C ) :   1.3680
B( 14-C , 15-C ) :   1.3946 B( 14-C , 31-H ) :   0.9641 B( 15-C , 16-C ) :   1.3620
B( 15-C , 32-H ) :   0.9713 B( 16-C , 17-C ) :   1.3314 B( 16-C , 33-H ) :   0.9857
B( 17-C , 18-O ) :   1.1086 B( 17-C , 19-C ) :   1.3774 B( 18-O , 34-H ) :   0.9805
B( 19-C , 35-H ) :   0.9582

MP2 TOTAL ENERGY:    -1274.338065938 Eh
FINAL SINGLE POINT ENERGY     -1274.338065937556

DIPOLE MOMENT
-------------
                                X             Y             Z
Electronic contribution:     10.10338      10.28373       8.85487
Nuclear contribution   :    -11.71156     -11.53756      -9.83351
                        -----------------------------------------
Total Dipole Moment    :     -1.60818      -1.25383      -0.97863
                        -----------------------------------------
Magnitude (a.u.)       :      2.26187
Magnitude (Debye)      :      5.74921

Rotational constants in cm-1:     0.011050     0.009198     0.006135
Rotational constants in MHz :   331.283042   275.748922   183.919054

                             ****ORCA TERMINATED NORMALLY****
TOTAL RUN TIME: 0 days 1 hours 55 minutes 59 seconds 486 msec
