                         Program Version 4.2.0 -  RELEASE  -
|  1> ! ri-mp2 cc-pvtz cc-pvtz/c TightSCF  NoKeepInts
|  2>
|  3> %scf
|  4>   MaxCore 4096
|  5> end
|  6> *xyz  0  1
|  7>     C       14.7957350   14.6177437   16.1625504
|  8>     C       15.9915579   14.7023783   17.1266750
|  9>     O       17.1627891   14.9857064   16.3369629
| 10>     C       17.5534525   16.2763942   16.1193424
| 11>     O       17.4853360   16.7408198   14.9965430
| 12>     C       17.7450057   17.1228519   17.3470069
| 13>     C       17.3654191   18.4239333   17.3759482
| 14>     C       16.5547585   19.1568272   16.3296453
| 15>     N       17.7620021   19.2445199   18.4354627
| 16>     C       18.7218157   18.9081541   19.3537955
| 17>     S       19.2840272   19.9908873   20.4700215
| 18>     N       19.2001310   17.6225100   19.2941842
| 19>     C       18.6053565   16.5414336   18.4848714
| 20>     C       17.8749510   15.5749991   19.4107835
| 21>     C       18.2549270   14.2205089   19.4649525
| 22>     C       17.5864663   13.3239707   20.3154242
| 23>     C       16.5339209   13.7856753   21.1238973
| 24>     C       16.1606048   15.1357380   21.0822780
| 25>     O       15.1436529   15.5846676   21.8594379
| 26>     C       16.8262514   16.0257498   20.2337094
| 27>     H       14.6429119   15.5741192   15.6466005
| 28>     H       13.8770308   14.3705453   16.7081100
| 29>     H       14.9653502   13.8422033   15.4050259
| 30>     H       15.7918525   15.4761255   17.8756536
| 31>     H       16.1108722   13.7382613   17.6376713
| 32>     H       15.7293668   18.5324958   15.9651848
| 33>     H       17.1826624   19.4030295   15.4633276
| 34>     H       16.1183228   20.0887106   16.7078511
| 35>     H       17.4397999   20.1986236   18.4745479
| 36>     H       19.8938036   17.3989132   19.9966109
| 37>     H       19.4335699   15.9930921   18.0137340
| 38>     H       19.0660910   13.8578260   18.8383899
| 39>     H       17.8856811   12.2773445   20.3472077
| 40>     H       16.0152273   13.0964447   21.7825716
| 41>     H       14.8607814   14.8506193   22.4258284
| 42>     H       16.5255158   17.0681771   20.2221928
| 43> *
| 44>
| 45>                          ****END OF INPUT****

CARTESIAN COORDINATES (ANGSTROEM)
---------------------------------
  C     14.795735   14.617744   16.162550
  C     15.991558   14.702378   17.126675
  O     17.162789   14.985706   16.336963
  C     17.553452   16.276394   16.119342
  O     17.485336   16.740820   14.996543
  C     17.745006   17.122852   17.347007
  C     17.365419   18.423933   17.375948
  C     16.554758   19.156827   16.329645
  N     17.762002   19.244520   18.435463
  C     18.721816   18.908154   19.353796
  S     19.284027   19.990887   20.470022
  N     19.200131   17.622510   19.294184
  C     18.605356   16.541434   18.484871
  C     17.874951   15.574999   19.410784
  C     18.254927   14.220509   19.464952
  C     17.586466   13.323971   20.315424
  C     16.533921   13.785675   21.123897
  C     16.160605   15.135738   21.082278
  O     15.143653   15.584668   21.859438
  C     16.826251   16.025750   20.233709
  H     14.642912   15.574119   15.646600
  H     13.877031   14.370545   16.708110
  H     14.965350   13.842203   15.405026
  H     15.791852   15.476126   17.875654
  H     16.110872   13.738261   17.637671
  H     15.729367   18.532496   15.965185
  H     17.182662   19.403029   15.463328
  H     16.118323   20.088711   16.707851
  H     17.439800   20.198624   18.474548
  H     19.893804   17.398913   19.996611
  H     19.433570   15.993092   18.013734
  H     19.066091   13.857826   18.838390
  H     17.885681   12.277344   20.347208
  H     16.015227   13.096445   21.782572
  H     14.860781   14.850619   22.425828
  H     16.525516   17.068177   20.222193

 Total Charge           Charge          ....    0
 Multiplicity           Mult            ....    1
 Number of Electrons    NEL             ....  154
 Basis Dimension        Dim             ....  828

ORBITAL ENERGIES
----------------

  NO   OCC          E(Eh)            E(eV)
   0   2.0000     -91.891901     -2500.5057
   1   2.0000     -20.603554      -560.6512
   2   2.0000     -20.586535      -560.1881
   3   2.0000     -20.551073      -559.2231
   4   2.0000     -15.630678      -425.3324
   5   2.0000     -15.611817      -424.8191
   6   2.0000     -11.393777      -310.0404
   7   2.0000     -11.386902      -309.8533
   8   2.0000     -11.335172      -308.4457
   9   2.0000     -11.321760      -308.0808
  10   2.0000     -11.317511      -307.9651
  11   2.0000     -11.295880      -307.3765
  12   2.0000     -11.266773      -306.5845
  13   2.0000     -11.262766      -306.4754
  14   2.0000     -11.260522      -306.4144
  15   2.0000     -11.255837      -306.2869
  16   2.0000     -11.251250      -306.1621
  17   2.0000     -11.245564      -306.0073
  18   2.0000     -11.245396      -306.0028
  19   2.0000     -11.223764      -305.4142
  20   2.0000      -8.896930      -242.0978
  21   2.0000      -6.578496      -179.0100
  22   2.0000      -6.576499      -178.9556
  23   2.0000      -6.575903      -178.9394
  24   2.0000      -1.446873       -39.3714
  25   2.0000      -1.423312       -38.7303
  26   2.0000      -1.355754       -36.8920
  27   2.0000      -1.342729       -36.5375
  28   2.0000      -1.241972       -33.7958
  29   2.0000      -1.164444       -31.6861
  30   2.0000      -1.123290       -30.5663
  31   2.0000      -1.049048       -28.5460
  32   2.0000      -1.031995       -28.0820
  33   2.0000      -1.023013       -27.8376
  34   2.0000      -1.001562       -27.2539
  35   2.0000      -0.988329       -26.8938
  36   2.0000      -0.928012       -25.2525
  37   2.0000      -0.882656       -24.0183
  38   2.0000      -0.852164       -23.1886
  39   2.0000      -0.845784       -23.0149
  40   2.0000      -0.841628       -22.9019
  41   2.0000      -0.834062       -22.6960
  42   2.0000      -0.756175       -20.5766
  43   2.0000      -0.737342       -20.0641
  44   2.0000      -0.720649       -19.6099
  45   2.0000      -0.702839       -19.1252
  46   2.0000      -0.693315       -18.8661
  47   2.0000      -0.680874       -18.5275
  48   2.0000      -0.670915       -18.2565
  49   2.0000      -0.669520       -18.2186
  50   2.0000      -0.653024       -17.7697
  51   2.0000      -0.648536       -17.6476
  52   2.0000      -0.639003       -17.3882
  53   2.0000      -0.613446       -16.6927
  54   2.0000      -0.608203       -16.5500
  55   2.0000      -0.603393       -16.4192
  56   2.0000      -0.595402       -16.2017
  57   2.0000      -0.583216       -15.8701
  58   2.0000      -0.576737       -15.6938
  59   2.0000      -0.571598       -15.5540
  60   2.0000      -0.561196       -15.2709
  61   2.0000      -0.550297       -14.9743
  62   2.0000      -0.541780       -14.7426
  63   2.0000      -0.531017       -14.4497
  64   2.0000      -0.520603       -14.1663
  65   2.0000      -0.518034       -14.0964
  66   2.0000      -0.506819       -13.7912
  67   2.0000      -0.500496       -13.6192
  68   2.0000      -0.482973       -13.1423
  69   2.0000      -0.468467       -12.7476
  70   2.0000      -0.452437       -12.3114
  71   2.0000      -0.446507       -12.1501
  72   2.0000      -0.359379        -9.7792
  73   2.0000      -0.354375        -9.6430
  74   2.0000      -0.332081        -9.0364
  75   2.0000      -0.329094        -8.9551
  76   2.0000      -0.319650        -8.6981
  77   0.0000       0.073187         1.9915
  78   0.0000       0.098150         2.6708
  79   0.0000       0.118858         3.2343
  80   0.0000       0.126803         3.4505
  81   0.0000       0.129284         3.5180

MULLIKEN ATOMIC CHARGES
-----------------------
   0 C :   -0.259670
   1 C :    0.018269
   2 O :   -0.350198
   3 C :    0.430221
   4 O :   -0.375752
   5 C :   -0.257743
   6 C :    0.163700
   7 C :   -0.274498
   8 N :   -0.126432
   9 C :    0.200137
  10 S :   -0.433177
  11 N :   -0.190275
  12 C :    0.037406
  13 C :    0.040519
  14 C :   -0.178271
  15 C :   -0.143811
  16 C :   -0.269225
  17 C :    0.306853
  18 O :   -0.354396
  19 C :   -0.254903
  20 H :    0.092619
  21 H :    0.089716
  22 H :    0.103718
  23 H :    0.103223
  24 H :    0.115610
  25 H :    0.121318
  26 H :    0.142060
  27 H :    0.095316
  28 H :    0.198317
  29 H :    0.191283
  30 H :    0.151331
  31 H :    0.148627
  32 H :    0.166435
  33 H :    0.135073
  34 H :    0.241818
  35 H :    0.174779
Sum of atomic charges:   -0.0000000

LOEWDIN ATOMIC CHARGES
----------------------
   0 C :    0.106037
   1 C :   -0.024211
   2 O :    0.294860
   3 C :   -0.424032
   4 O :    0.130035
   5 C :   -0.097197
   6 C :   -0.070872
   7 C :    0.129925
   8 N :    0.405497
   9 C :   -0.457814
  10 S :   -0.031309
  11 N :    0.396535
  12 C :   -0.051625
  13 C :   -0.041509
  14 C :    0.016860
  15 C :    0.042455
  16 C :    0.000101
  17 C :   -0.191446
  18 O :    0.397083
  19 C :    0.032390
  20 H :   -0.028940
  21 H :   -0.028426
  22 H :   -0.024187
  23 H :   -0.038227
  24 H :   -0.023549
  25 H :   -0.008350
  26 H :   -0.002652
  27 H :   -0.022080
  28 H :   -0.057383
  29 H :   -0.064630
  30 H :   -0.006506
  31 H :   -0.028223
  32 H :   -0.019288
  33 H :   -0.033755
  34 H :   -0.152276
  35 H :   -0.023293

  Mayer bond orders larger than 0.100000
B(  0-C ,  1-C ) :   0.9789 B(  0-C , 20-H ) :   0.9756 B(  0-C , 21-H ) :   0.9770
B(  0-C , 22-H ) :   0.9805 B(  1-C ,  2-O ) :   0.8775 B(  1-C , 23-H ) :   0.9595
B(  1-C , 24-H ) :   0.9794 B(  2-O ,  3-C ) :   1.1552 B(  3-C ,  4-O ) :   2.0840
B(  3-C ,  5-C ) :   0.9739 B(  5-C ,  6-C ) :   1.6819 B(  5-C , 12-C ) :   0.9668
B(  6-C ,  7-C ) :   0.9602 B(  6-C ,  8-N ) :   1.1381 B(  7-C , 25-H ) :   0.9711
B(  7-C , 26-H ) :   0.9560 B(  7-C , 27-H ) :   0.9854 B(  8-N ,  9-C ) :   1.1831
B(  8-N , 28-H ) :   0.9495 B(  9-C , 10-S ) :   1.6202 B(  9-C , 11-N ) :   1.2913
B( 11-N , 12-C ) :   0.9938 B( 11-N , 29-H ) :   0.9533 B( 12-C , 13-C ) :   0.9469
B( 12-C , 30-H ) :   1.0084 B( 13-C , 14-C ) :   1.3547 B( 13-C , 19-C ) :   1.3559
B( 14-C , 15-C ) :   1.3902 B( 14-C , 31-H ) :   0.9758 B( 15-C , 16-C ) :   1.3673
B( 15-C , 32-H ) :   0.9693 B( 16-C , 17-C ) :   1.3246 B( 16-C , 33-H ) :   0.9829
B( 17-C , 18-O ) :   1.1161 B( 17-C , 19-C ) :   1.3780 B( 18-O , 34-H ) :   0.9788
B( 19-C , 35-H ) :   0.9567

MP2 TOTAL ENERGY:    -1274.327786198 Eh
FINAL SINGLE POINT ENERGY     -1274.327786197935

DIPOLE MOMENT
-------------
                                X             Y             Z
Electronic contribution:     11.04032       8.15452       6.94501
Nuclear contribution   :    -12.28846      -9.71307      -6.51715
                        -----------------------------------------
Total Dipole Moment    :     -1.24814      -1.55855       0.42785
                        -----------------------------------------
Magnitude (a.u.)       :      2.04206
Magnitude (Debye)      :      5.19049

Rotational constants in cm-1:     0.011435     0.009697     0.006411
Rotational constants in MHz :   342.823814   290.706223   192.185082

                             ****ORCA TERMINATED NORMALLY****
TOTAL RUN TIME: 0 days 1 hours 47 minutes 5 seconds 116 msec
