                         Program Version 4.2.0 -  RELEASE  -
|  1> ! ri-mp2 cc-pvtz cc-pvtz/c TightSCF  NoKeepInts
|  2>
|  3> %scf
|  4>   MaxCore 4096
|  5> end
|  6> *xyz  0  1
|  7>     C       14.9077837   14.8819117   16.1063140
|  8>     C       16.0946112   14.4849662   17.0069292
|  9>     O       17.3338033   14.8952783   16.3870309
| 10>     C       17.5737351   16.2156039   16.1331572
| 11>     O       17.3655868   16.6623493   15.0198853
| 12>     C       17.7418070   17.0768382   17.3546446
| 13>     C       17.3380756   18.3718568   17.3793788
| 14>     C       16.5229260   19.0958266   16.3299273
| 15>     N       17.7216396   19.2025760   18.4364705
| 16>     C       18.6971941   18.8907588   19.3469976
| 17>     S       19.2527509   19.9919051   20.4485542
| 18>     N       19.1969316   17.6133295   19.2907635
| 19>     C       18.6006806   16.5169110   18.5040380
| 20>     C       17.8588796   15.5781595   19.4484609
| 21>     C       18.2382246   14.2259694   19.5475145
| 22>     C       17.5557380   13.3533577   20.4115760
| 23>     C       16.4891252   13.8368399   21.1882739
| 24>     C       16.1144940   15.1843564   21.1001691
| 25>     O       15.0833183   15.6537583   21.8460090
| 26>     C       16.7933584   16.0502407   20.2372367
| 27>     H       14.7937379   15.9715179   16.0547077
| 28>     H       13.9731167   14.4629838   16.4982413
| 29>     H       15.0527003   14.5013806   15.0871105
| 30>     H       15.9504742   14.9468897   17.9865926
| 31>     H       16.1017268   13.3958916   17.1431528
| 32>     H       15.6833176   18.4765209   15.9909137
| 33>     H       17.1411334   19.3155665   15.4497258
| 34>     H       16.1053748   20.0418071   16.6941028
| 35>     H       17.3813804   20.1503972   18.4736080
| 36>     H       19.9011387   17.4055993   19.9874219
| 37>     H       19.4267400   15.9532146   18.0475663
| 38>     H       19.0600416   13.8466454   18.9452544
| 39>     H       17.8552842   12.3085702   20.4787971
| 40>     H       15.9599505   13.1663987   21.8578441
| 41>     H       14.7906471   14.9353491   22.4271393
| 42>     H       16.4895722   17.0904740   20.1884905
| 43> *
| 44>
| 45>                          ****END OF INPUT****

CARTESIAN COORDINATES (ANGSTROEM)
---------------------------------
  C     14.907784   14.881912   16.106314
  C     16.094611   14.484966   17.006929
  O     17.333803   14.895278   16.387031
  C     17.573735   16.215604   16.133157
  O     17.365587   16.662349   15.019885
  C     17.741807   17.076838   17.354645
  C     17.338076   18.371857   17.379379
  C     16.522926   19.095827   16.329927
  N     17.721640   19.202576   18.436470
  C     18.697194   18.890759   19.346998
  S     19.252751   19.991905   20.448554
  N     19.196932   17.613329   19.290764
  C     18.600681   16.516911   18.504038
  C     17.858880   15.578159   19.448461
  C     18.238225   14.225969   19.547514
  C     17.555738   13.353358   20.411576
  C     16.489125   13.836840   21.188274
  C     16.114494   15.184356   21.100169
  O     15.083318   15.653758   21.846009
  C     16.793358   16.050241   20.237237
  H     14.793738   15.971518   16.054708
  H     13.973117   14.462984   16.498241
  H     15.052700   14.501381   15.087110
  H     15.950474   14.946890   17.986593
  H     16.101727   13.395892   17.143153
  H     15.683318   18.476521   15.990914
  H     17.141133   19.315566   15.449726
  H     16.105375   20.041807   16.694103
  H     17.381380   20.150397   18.473608
  H     19.901139   17.405599   19.987422
  H     19.426740   15.953215   18.047566
  H     19.060042   13.846645   18.945254
  H     17.855284   12.308570   20.478797
  H     15.959950   13.166399   21.857844
  H     14.790647   14.935349   22.427139
  H     16.489572   17.090474   20.188490

 Total Charge           Charge          ....    0
 Multiplicity           Mult            ....    1
 Number of Electrons    NEL             ....  154
 Basis Dimension        Dim             ....  828

ORBITAL ENERGIES
----------------

  NO   OCC          E(Eh)            E(eV)
   0   2.0000     -91.891872     -2500.5050
   1   2.0000     -20.602375      -560.6191
   2   2.0000     -20.582073      -560.0667
   3   2.0000     -20.551846      -559.2442
   4   2.0000     -15.631244      -425.3478
   5   2.0000     -15.611101      -424.7997
   6   2.0000     -11.393532      -310.0338
   7   2.0000     -11.386577      -309.8445
   8   2.0000     -11.336477      -308.4812
   9   2.0000     -11.320526      -308.0472
  10   2.0000     -11.315623      -307.9138
  11   2.0000     -11.297017      -307.4075
  12   2.0000     -11.265302      -306.5444
  13   2.0000     -11.261556      -306.4425
  14   2.0000     -11.260043      -306.4013
  15   2.0000     -11.255500      -306.2777
  16   2.0000     -11.249728      -306.1207
  17   2.0000     -11.244198      -305.9702
  18   2.0000     -11.243777      -305.9587
  19   2.0000     -11.224424      -305.4321
  20   2.0000      -8.896887      -242.0966
  21   2.0000      -6.578450      -179.0087
  22   2.0000      -6.576458      -178.9545
  23   2.0000      -6.575859      -178.9382
  24   2.0000      -1.445518       -39.3345
  25   2.0000      -1.422117       -38.6978
  26   2.0000      -1.353694       -36.8359
  27   2.0000      -1.342883       -36.5417
  28   2.0000      -1.241630       -33.7865
  29   2.0000      -1.163103       -31.6496
  30   2.0000      -1.122489       -30.5445
  31   2.0000      -1.047770       -28.5113
  32   2.0000      -1.031058       -28.0565
  33   2.0000      -1.021531       -27.7973
  34   2.0000      -1.000773       -27.2324
  35   2.0000      -0.987719       -26.8772
  36   2.0000      -0.927117       -25.2281
  37   2.0000      -0.888119       -24.1670
  38   2.0000      -0.850835       -23.1524
  39   2.0000      -0.845117       -22.9968
  40   2.0000      -0.840154       -22.8618
  41   2.0000      -0.829802       -22.5801
  42   2.0000      -0.751898       -20.4602
  43   2.0000      -0.736190       -20.0327
  44   2.0000      -0.717296       -19.5186
  45   2.0000      -0.701374       -19.0854
  46   2.0000      -0.692010       -18.8305
  47   2.0000      -0.681298       -18.5390
  48   2.0000      -0.670232       -18.2380
  49   2.0000      -0.666858       -18.1461
  50   2.0000      -0.652817       -17.7640
  51   2.0000      -0.649538       -17.6748
  52   2.0000      -0.637955       -17.3596
  53   2.0000      -0.613531       -16.6950
  54   2.0000      -0.611924       -16.6513
  55   2.0000      -0.603892       -16.4327
  56   2.0000      -0.602286       -16.3890
  57   2.0000      -0.582268       -15.8443
  58   2.0000      -0.575568       -15.6620
  59   2.0000      -0.567664       -15.4469
  60   2.0000      -0.554669       -15.0933
  61   2.0000      -0.547363       -14.8945
  62   2.0000      -0.539256       -14.6739
  63   2.0000      -0.530258       -14.4290
  64   2.0000      -0.525121       -14.2893
  65   2.0000      -0.518270       -14.1029
  66   2.0000      -0.506076       -13.7710
  67   2.0000      -0.497945       -13.5498
  68   2.0000      -0.476918       -12.9776
  69   2.0000      -0.468728       -12.7547
  70   2.0000      -0.454177       -12.3588
  71   2.0000      -0.445573       -12.1247
  72   2.0000      -0.359315        -9.7775
  73   2.0000      -0.354061        -9.6345
  74   2.0000      -0.331583        -9.0228
  75   2.0000      -0.328138        -8.9291
  76   2.0000      -0.319105        -8.6833
  77   0.0000       0.070363         1.9147
  78   0.0000       0.100453         2.7335
  79   0.0000       0.120441         3.2774
  80   0.0000       0.127277         3.4634
  81   0.0000       0.131251         3.5715

MULLIKEN ATOMIC CHARGES
-----------------------
   0 C :   -0.275977
   1 C :    0.028265
   2 O :   -0.369964
   3 C :    0.437727
   4 O :   -0.378799
   5 C :   -0.231957
   6 C :    0.150458
   7 C :   -0.274111
   8 N :   -0.125476
   9 C :    0.199588
  10 S :   -0.432404
  11 N :   -0.188835
  12 C :    0.034558
  13 C :    0.030011
  14 C :   -0.160455
  15 C :   -0.137975
  16 C :   -0.272807
  17 C :    0.302888
  18 O :   -0.355285
  19 C :   -0.255303
  20 H :    0.084758
  21 H :    0.099466
  22 H :    0.112485
  23 H :    0.104750
  24 H :    0.115895
  25 H :    0.122363
  26 H :    0.140583
  27 H :    0.095393
  28 H :    0.198274
  29 H :    0.190760
  30 H :    0.149480
  31 H :    0.150340
  32 H :    0.164322
  33 H :    0.134400
  34 H :    0.241555
  35 H :    0.171029
Sum of atomic charges:   -0.0000000

LOEWDIN ATOMIC CHARGES
----------------------
   0 C :    0.106312
   1 C :   -0.018046
   2 O :    0.282741
   3 C :   -0.423436
   4 O :    0.131722
   5 C :   -0.097764
   6 C :   -0.065215
   7 C :    0.130148
   8 N :    0.406070
   9 C :   -0.458214
  10 S :   -0.030741
  11 N :    0.396557
  12 C :   -0.051865
  13 C :   -0.042514
  14 C :    0.017058
  15 C :    0.042907
  16 C :   -0.000399
  17 C :   -0.191639
  18 O :    0.396957
  19 C :    0.030102
  20 H :   -0.032293
  21 H :   -0.026883
  22 H :   -0.021773
  23 H :   -0.037926
  24 H :   -0.021503
  25 H :   -0.009220
  26 H :   -0.002652
  27 H :   -0.022307
  28 H :   -0.057441
  29 H :   -0.064851
  30 H :   -0.006031
  31 H :   -0.028241
  32 H :   -0.019374
  33 H :   -0.034073
  34 H :   -0.152542
  35 H :   -0.023632

  Mayer bond orders larger than 0.100000
B(  0-C ,  1-C ) :   0.9814 B(  0-C , 20-H ) :   0.9742 B(  0-C , 21-H ) :   0.9765
B(  0-C , 22-H ) :   0.9770 B(  1-C ,  2-O ) :   0.8826 B(  1-C , 23-H ) :   0.9609
B(  1-C , 24-H ) :   0.9796 B(  2-O ,  3-C ) :   1.1238 B(  3-C ,  4-O ) :   2.0724
B(  3-C ,  5-C ) :   0.9941 B(  5-C ,  6-C ) :   1.6752 B(  5-C , 12-C ) :   0.9638
B(  6-C ,  7-C ) :   0.9662 B(  6-C ,  8-N ) :   1.1407 B(  7-C , 25-H ) :   0.9703
B(  7-C , 26-H ) :   0.9555 B(  7-C , 27-H ) :   0.9858 B(  8-N ,  9-C ) :   1.1796
B(  8-N , 28-H ) :   0.9493 B(  9-C , 10-S ) :   1.6215 B(  9-C , 11-N ) :   1.2934
B( 11-N , 12-C ) :   0.9912 B( 11-N , 29-H ) :   0.9538 B( 12-C , 13-C ) :   0.9460
B( 12-C , 30-H ) :   1.0066 B( 13-C , 14-C ) :   1.3689 B( 13-C , 19-C ) :   1.3646
B( 14-C , 15-C ) :   1.3856 B( 14-C , 31-H ) :   0.9715 B( 15-C , 16-C ) :   1.3683
B( 15-C , 32-H ) :   0.9698 B( 16-C , 17-C ) :   1.3271 B( 16-C , 33-H ) :   0.9832
B( 17-C , 18-O ) :   1.1155 B( 17-C , 19-C ) :   1.3775 B( 18-O , 34-H ) :   0.9790
B( 19-C , 35-H ) :   0.9568

MP2 TOTAL ENERGY:    -1274.326231955 Eh
FINAL SINGLE POINT ENERGY     -1274.326231954734

DIPOLE MOMENT
-------------
                                X             Y             Z
Electronic contribution:     10.83932       7.80741       7.14189
Nuclear contribution   :    -12.05758      -9.38534      -6.80616
                        -----------------------------------------
Total Dipole Moment    :     -1.21825      -1.57793       0.33573
                        -----------------------------------------
Magnitude (a.u.)       :      2.02156
Magnitude (Debye)      :      5.13841

Rotational constants in cm-1:     0.011318     0.009852     0.006480
Rotational constants in MHz :   339.297803   295.366751   194.275694

                             ****ORCA TERMINATED NORMALLY****
TOTAL RUN TIME: 0 days 1 hours 54 minutes 34 seconds 319 msec
