                         Program Version 4.2.0 -  RELEASE  -
|  1> ! ri-mp2 cc-pvtz cc-pvtz/c TightSCF  NoKeepInts
|  2>
|  3> %scf
|  4>   MaxCore 4096
|  5> end
|  6> *xyz  0  1
|  7>     C       14.9879384   15.7623936   17.4158703
|  8>     C       15.6531717   15.0469991   16.2213433
|  9>     O       17.0626837   14.7841521   16.4059381
| 10>     C       18.0989090   15.6840356   16.4638553
| 11>     O       19.2221753   15.2431098   16.3067506
| 12>     C       17.9305832   16.8336998   17.3943286
| 13>     C       17.4202224   18.0082974   16.9620866
| 14>     C       16.8881124   18.3040387   15.5754540
| 15>     N       17.3970628   19.1139114   17.8146259
| 16>     C       17.9990074   19.1575389   19.0454469
| 17>     S       17.9903924   20.5304326   19.9671479
| 18>     N       18.6115636   18.0052553   19.4750017
| 19>     C       18.5673526   16.7020797   18.7795854
| 20>     C       17.8823279   15.6280481   19.6217766
| 21>     C       18.3081833   14.2903878   19.5237314
| 22>     C       17.6906826   13.2821714   20.2820079
| 23>     C       16.6367044   13.6122540   21.1502189
| 24>     C       16.2072237   14.9420721   21.2515080
| 25>     O       15.1819599   15.2621288   22.0803820
| 26>     C       16.8226683   15.9443182   20.4944991
| 27>     H       15.2707508   15.2748608   18.3553977
| 28>     H       13.8972543   15.6874643   17.3281692
| 29>     H       15.2257143   16.8249169   17.4796153
| 30>     H       15.1482962   14.0821501   16.0817296
| 31>     H       15.4959579   15.6301650   15.3049854
| 32>     H       17.2540946   17.5874589   14.8300287
| 33>     H       17.2071369   19.2973467   15.2345162
| 34>     H       15.7918937   18.2799646   15.5590718
| 35>     H       16.9688557   19.9743184   17.5111247
| 36>     H       19.0382371   18.0642943   20.3909440
| 37>     H       19.6080967   16.3792931   18.6274465
| 38>     H       19.1162867   14.0293725   18.8431384
| 39>     H       18.0281414   12.2511867   20.1905426
| 40>     H       16.1557693   12.8360557   21.7361426
| 41>     H       14.9194297   14.4523829   22.5435292
| 42>     H       16.4621599   16.9634449   20.5860598
| 43> *
| 44>
| 45>                          ****END OF INPUT****

CARTESIAN COORDINATES (ANGSTROEM)
---------------------------------
  C     14.987938   15.762394   17.415870
  C     15.653172   15.046999   16.221343
  O     17.062684   14.784152   16.405938
  C     18.098909   15.684036   16.463855
  O     19.222175   15.243110   16.306751
  C     17.930583   16.833700   17.394329
  C     17.420222   18.008297   16.962087
  C     16.888112   18.304039   15.575454
  N     17.397063   19.113911   17.814626
  C     17.999007   19.157539   19.045447
  S     17.990392   20.530433   19.967148
  N     18.611564   18.005255   19.475002
  C     18.567353   16.702080   18.779585
  C     17.882328   15.628048   19.621777
  C     18.308183   14.290388   19.523731
  C     17.690683   13.282171   20.282008
  C     16.636704   13.612254   21.150219
  C     16.207224   14.942072   21.251508
  O     15.181960   15.262129   22.080382
  C     16.822668   15.944318   20.494499
  H     15.270751   15.274861   18.355398
  H     13.897254   15.687464   17.328169
  H     15.225714   16.824917   17.479615
  H     15.148296   14.082150   16.081730
  H     15.495958   15.630165   15.304985
  H     17.254095   17.587459   14.830029
  H     17.207137   19.297347   15.234516
  H     15.791894   18.279965   15.559072
  H     16.968856   19.974318   17.511125
  H     19.038237   18.064294   20.390944
  H     19.608097   16.379293   18.627447
  H     19.116287   14.029372   18.843138
  H     18.028141   12.251187   20.190543
  H     16.155769   12.836056   21.736143
  H     14.919430   14.452383   22.543529
  H     16.462160   16.963445   20.586060

 Total Charge           Charge          ....    0
 Multiplicity           Mult            ....    1
 Number of Electrons    NEL             ....  154
 Basis Dimension        Dim             ....  828

ORBITAL ENERGIES
----------------

  NO   OCC          E(Eh)            E(eV)
   0   2.0000     -91.888469     -2500.4124
   1   2.0000     -20.598853      -560.5233
   2   2.0000     -20.597172      -560.4776
   3   2.0000     -20.555251      -559.3368
   4   2.0000     -15.624512      -425.1646
   5   2.0000     -15.610568      -424.7852
   6   2.0000     -11.398272      -310.1627
   7   2.0000     -11.385308      -309.8100
   8   2.0000     -11.323380      -308.1248
   9   2.0000     -11.315488      -307.9101
  10   2.0000     -11.313778      -307.8635
  11   2.0000     -11.310608      -307.7773
  12   2.0000     -11.270856      -306.6956
  13   2.0000     -11.263936      -306.5073
  14   2.0000     -11.261851      -306.4505
  15   2.0000     -11.254373      -306.2471
  16   2.0000     -11.243318      -305.9462
  17   2.0000     -11.239003      -305.8288
  18   2.0000     -11.236305      -305.7554
  19   2.0000     -11.230511      -305.5977
  20   2.0000      -8.893591      -242.0069
  21   2.0000      -6.575186      -178.9199
  22   2.0000      -6.573154      -178.8646
  23   2.0000      -6.572585      -178.8491
  24   2.0000      -1.450005       -39.4566
  25   2.0000      -1.417017       -38.5590
  26   2.0000      -1.358793       -36.9746
  27   2.0000      -1.338169       -36.4134
  28   2.0000      -1.238273       -33.6951
  29   2.0000      -1.158481       -31.5239
  30   2.0000      -1.124397       -30.5964
  31   2.0000      -1.047468       -28.5031
  32   2.0000      -1.039577       -28.2883
  33   2.0000      -1.016790       -27.6683
  34   2.0000      -1.004158       -27.3245
  35   2.0000      -0.989115       -26.9152
  36   2.0000      -0.926920       -25.2228
  37   2.0000      -0.898143       -24.4397
  38   2.0000      -0.852232       -23.1904
  39   2.0000      -0.839438       -22.8423
  40   2.0000      -0.833757       -22.6877
  41   2.0000      -0.829338       -22.5674
  42   2.0000      -0.750143       -20.4124
  43   2.0000      -0.736784       -20.0489
  44   2.0000      -0.730258       -19.8713
  45   2.0000      -0.694321       -18.8934
  46   2.0000      -0.687041       -18.6953
  47   2.0000      -0.679013       -18.4769
  48   2.0000      -0.675084       -18.3700
  49   2.0000      -0.664987       -18.0952
  50   2.0000      -0.651643       -17.7321
  51   2.0000      -0.649576       -17.6759
  52   2.0000      -0.640037       -17.4163
  53   2.0000      -0.613164       -16.6850
  54   2.0000      -0.607733       -16.5373
  55   2.0000      -0.602827       -16.4038
  56   2.0000      -0.600955       -16.3528
  57   2.0000      -0.592322       -16.1179
  58   2.0000      -0.584264       -15.8986
  59   2.0000      -0.574313       -15.6279
  60   2.0000      -0.565038       -15.3755
  61   2.0000      -0.558240       -15.1905
  62   2.0000      -0.542630       -14.7657
  63   2.0000      -0.527965       -14.3667
  64   2.0000      -0.515027       -14.0146
  65   2.0000      -0.512395       -13.9430
  66   2.0000      -0.501826       -13.6554
  67   2.0000      -0.500578       -13.6214
  68   2.0000      -0.486518       -13.2388
  69   2.0000      -0.463259       -12.6059
  70   2.0000      -0.456665       -12.4265
  71   2.0000      -0.452546       -12.3144
  72   2.0000      -0.354429        -9.6445
  73   2.0000      -0.347909        -9.4671
  74   2.0000      -0.328244        -8.9320
  75   2.0000      -0.321878        -8.7588
  76   2.0000      -0.316519        -8.6129
  77   0.0000       0.090385         2.4595
  78   0.0000       0.101376         2.7586
  79   0.0000       0.111788         3.0419
  80   0.0000       0.128716         3.5026
  81   0.0000       0.131139         3.5685

MULLIKEN ATOMIC CHARGES
-----------------------
   0 C :   -0.331753
   1 C :    0.022412
   2 O :   -0.323738
   3 C :    0.384107
   4 O :   -0.365886
   5 C :   -0.145339
   6 C :    0.122496
   7 C :   -0.326111
   8 N :   -0.140162
   9 C :    0.210876
  10 S :   -0.444290
  11 N :   -0.232777
  12 C :    0.077977
  13 C :    0.030568
  14 C :   -0.205403
  15 C :   -0.137275
  16 C :   -0.274827
  17 C :    0.318208
  18 O :   -0.359237
  19 C :   -0.275888
  20 H :    0.132014
  21 H :    0.115190
  22 H :    0.103567
  23 H :    0.128554
  24 H :    0.088912
  25 H :    0.122086
  26 H :    0.132611
  27 H :    0.123921
  28 H :    0.195517
  29 H :    0.203521
  30 H :    0.169514
  31 H :    0.167115
  32 H :    0.163116
  33 H :    0.131917
  34 H :    0.240859
  35 H :    0.177630
Sum of atomic charges:   -0.0000000

LOEWDIN ATOMIC CHARGES
----------------------
   0 C :    0.105157
   1 C :   -0.020836
   2 O :    0.306236
   3 C :   -0.420753
   4 O :    0.136616
   5 C :   -0.076595
   6 C :   -0.110187
   7 C :    0.124522
   8 N :    0.400587
   9 C :   -0.455220
  10 S :   -0.040341
  11 N :    0.398546
  12 C :   -0.040960
  13 C :   -0.041153
  14 C :    0.023253
  15 C :    0.044380
  16 C :   -0.002329
  17 C :   -0.194585
  18 O :    0.395280
  19 C :    0.027286
  20 H :   -0.021624
  21 H :   -0.024348
  22 H :   -0.038998
  23 H :   -0.016883
  24 H :   -0.038243
  25 H :   -0.010627
  26 H :   -0.010354
  27 H :   -0.017756
  28 H :   -0.059569
  29 H :   -0.064017
  30 H :   -0.001703
  31 H :   -0.021851
  32 H :   -0.018784
  33 H :   -0.035240
  34 H :   -0.153679
  35 H :   -0.025228

  Mayer bond orders larger than 0.100000
B(  0-C ,  1-C ) :   0.9541 B(  0-C , 20-H ) :   0.9677 B(  0-C , 21-H ) :   0.9788
B(  0-C , 22-H ) :   0.9758 B(  1-C ,  2-O ) :   0.9177 B(  1-C , 23-H ) :   0.9823
B(  1-C , 24-H ) :   0.9807 B(  2-O ,  3-C ) :   1.1146 B(  3-C ,  4-O ) :   2.0908
B(  3-C ,  5-C ) :   0.9159 B(  5-C ,  6-C ) :   1.7236 B(  5-C , 12-C ) :   0.9588
B(  6-C ,  7-C ) :   0.9382 B(  6-C ,  8-N ) :   1.0911 B(  7-C , 25-H ) :   0.9804
B(  7-C , 26-H ) :   0.9764 B(  7-C , 27-H ) :   0.9644 B(  8-N ,  9-C ) :   1.2024
B(  8-N , 28-H ) :   0.9531 B(  9-C , 10-S ) :   1.6037 B(  9-C , 11-N ) :   1.2854
B( 11-N , 12-C ) :   0.9818 B( 11-N , 29-H ) :   0.9462 B( 12-C , 13-C ) :   0.9498
B( 12-C , 30-H ) :   0.9950 B( 13-C , 14-C ) :   1.3855 B( 13-C , 19-C ) :   1.3431
B( 14-C , 15-C ) :   1.4030 B( 14-C , 31-H ) :   0.9628 B( 15-C , 16-C ) :   1.3568
B( 15-C , 32-H ) :   0.9701 B( 16-C , 17-C ) :   1.3321 B( 16-C , 33-H ) :   0.9849
B( 17-C , 18-O ) :   1.1077 B( 17-C , 19-C ) :   1.3649 B( 18-O , 34-H ) :   0.9797
B( 19-C , 35-H ) :   0.9582

MP2 TOTAL ENERGY:    -1274.315510861 Eh
FINAL SINGLE POINT ENERGY     -1274.315510860845

DIPOLE MOMENT
-------------
                                X             Y             Z
Electronic contribution:      9.48029       5.88829       6.77140
Nuclear contribution   :    -11.06911      -7.14493      -7.61167
                        -----------------------------------------
Total Dipole Moment    :     -1.58882      -1.25665      -0.84027
                        -----------------------------------------
Magnitude (a.u.)       :      2.19307
Magnitude (Debye)      :      5.57434

Rotational constants in cm-1:     0.011981     0.009517     0.006804
Rotational constants in MHz :   359.188560   285.306018   203.978221

                             ****ORCA TERMINATED NORMALLY****
TOTAL RUN TIME: 0 days 1 hours 49 minutes 38 seconds 342 msec
