                         Program Version 4.2.0 -  RELEASE  -
|  1> ! ri-mp2 cc-pvtz cc-pvtz/c TightSCF  NoKeepInts
|  2>
|  3> %scf
|  4>   MaxCore 4096
|  5> end
|  6> *xyz  0  1
|  7>     C       14.3045314   14.9845456   14.8189748
|  8>     C       15.6119788   14.5738431   15.5168147
|  9>     O       16.1890357   15.7608935   16.0835858
| 10>     C       17.3107568   15.6420988   16.8503901
| 11>     O       17.9258508   14.5916160   16.9397337
| 12>     C       17.6571973   16.8563982   17.6661217
| 13>     C       17.1099794   18.0916759   17.5111866
| 14>     C       16.0562311   18.5337920   16.5159595
| 15>     N       17.5692396   19.1566532   18.2939150
| 16>     C       18.6562173   19.1075925   19.1259806
| 17>     S       19.2149469   20.4517139   19.9113536
| 18>     N       19.2569515   17.8835823   19.2730222
| 19>     C       18.7237211   16.6156273   18.7413260
| 20>     C       18.1779905   15.7497160   19.8740815
| 21>     C       18.6390796   14.4316952   20.0485046
| 22>     C       18.1396248   13.6292155   21.0879844
| 23>     C       17.1698087   14.1481377   21.9624777
| 24>     C       16.7050538   15.4590225   21.7903591
| 25>     O       15.7642757   15.9611070   22.6295641
| 26>     C       17.2037472   16.2551785   20.7545299
| 27>     H       13.6066842   15.4321790   15.5374764
| 28>     H       13.8191365   14.1105398   14.3677987
| 29>     H       14.5027445   15.7153963   14.0251673
| 30>     H       15.3974132   13.8394160   16.3052837
| 31>     H       16.3026873   14.1194198   14.7936056
| 32>     H       16.3579886   18.2814879   15.4917505
| 33>     H       15.8749261   19.6150834   16.5411519
| 34>     H       15.0993389   18.0367939   16.7190908
| 35>     H       17.1414727   20.0638895   18.2000772
| 36>     H       20.0367264   17.8661310   19.9176572
| 37>     H       19.5589420   16.0777204   18.2698522
| 38>     H       19.3765646   14.0220238   19.3625583
| 39>     H       18.5002175   12.6092076   21.2076985
| 40>     H       16.7799486   13.5312069   22.7651493
| 41>     H       15.5732440   15.2793815   23.2909824
| 42>     H       16.8327470   17.2680183   20.6428344
| 43> *
| 44>
| 45>                          ****END OF INPUT****

CARTESIAN COORDINATES (ANGSTROEM)
---------------------------------
  C     14.304531   14.984546   14.818975
  C     15.611979   14.573843   15.516815
  O     16.189036   15.760893   16.083586
  C     17.310757   15.642099   16.850390
  O     17.925851   14.591616   16.939734
  C     17.657197   16.856398   17.666122
  C     17.109979   18.091676   17.511187
  C     16.056231   18.533792   16.515960
  N     17.569240   19.156653   18.293915
  C     18.656217   19.107592   19.125981
  S     19.214947   20.451714   19.911354
  N     19.256951   17.883582   19.273022
  C     18.723721   16.615627   18.741326
  C     18.177990   15.749716   19.874081
  C     18.639080   14.431695   20.048505
  C     18.139625   13.629216   21.087984
  C     17.169809   14.148138   21.962478
  C     16.705054   15.459022   21.790359
  O     15.764276   15.961107   22.629564
  C     17.203747   16.255178   20.754530
  H     13.606684   15.432179   15.537476
  H     13.819137   14.110540   14.367799
  H     14.502745   15.715396   14.025167
  H     15.397413   13.839416   16.305284
  H     16.302687   14.119420   14.793606
  H     16.357989   18.281488   15.491751
  H     15.874926   19.615083   16.541152
  H     15.099339   18.036794   16.719091
  H     17.141473   20.063889   18.200077
  H     20.036726   17.866131   19.917657
  H     19.558942   16.077720   18.269852
  H     19.376565   14.022024   19.362558
  H     18.500218   12.609208   21.207698
  H     16.779949   13.531207   22.765149
  H     15.573244   15.279381   23.290982
  H     16.832747   17.268018   20.642834

 Total Charge           Charge          ....    0
 Multiplicity           Mult            ....    1
 Number of Electrons    NEL             ....  154
 Basis Dimension        Dim             ....  828

ORBITAL ENERGIES
----------------

  NO   OCC          E(Eh)            E(eV)
   0   2.0000     -91.888054     -2500.4011
   1   2.0000     -20.605175      -560.6953
   2   2.0000     -20.590913      -560.3072
   3   2.0000     -20.544997      -559.0578
   4   2.0000     -15.628603      -425.2759
   5   2.0000     -15.606498      -424.6744
   6   2.0000     -11.395006      -310.0739
   7   2.0000     -11.382819      -309.7422
   8   2.0000     -11.337092      -308.4980
   9   2.0000     -11.306641      -307.6693
  10   2.0000     -11.305016      -307.6251
  11   2.0000     -11.299619      -307.4783
  12   2.0000     -11.260769      -306.4211
  13   2.0000     -11.259058      -306.3745
  14   2.0000     -11.252614      -306.1992
  15   2.0000     -11.246714      -306.0386
  16   2.0000     -11.236414      -305.7584
  17   2.0000     -11.235913      -305.7447
  18   2.0000     -11.232612      -305.6549
  19   2.0000     -11.229459      -305.5691
  20   2.0000      -8.893114      -241.9939
  21   2.0000      -6.574691      -178.9064
  22   2.0000      -6.572685      -178.8519
  23   2.0000      -6.572099      -178.8359
  24   2.0000      -1.456014       -39.6201
  25   2.0000      -1.410646       -38.3856
  26   2.0000      -1.357210       -36.9316
  27   2.0000      -1.339437       -36.4479
  28   2.0000      -1.236896       -33.6577
  29   2.0000      -1.151387       -31.3308
  30   2.0000      -1.119289       -30.4574
  31   2.0000      -1.045140       -28.4397
  32   2.0000      -1.036936       -28.2165
  33   2.0000      -1.008733       -27.4490
  34   2.0000      -0.997493       -27.1432
  35   2.0000      -0.983172       -26.7535
  36   2.0000      -0.920700       -25.0535
  37   2.0000      -0.889080       -24.1931
  38   2.0000      -0.846941       -23.0464
  39   2.0000      -0.834352       -22.7039
  40   2.0000      -0.826965       -22.5029
  41   2.0000      -0.817405       -22.2427
  42   2.0000      -0.762579       -20.7508
  43   2.0000      -0.735858       -20.0237
  44   2.0000      -0.724207       -19.7067
  45   2.0000      -0.690301       -18.7840
  46   2.0000      -0.684126       -18.6160
  47   2.0000      -0.681818       -18.5532
  48   2.0000      -0.675936       -18.3931
  49   2.0000      -0.659527       -17.9466
  50   2.0000      -0.649258       -17.6672
  51   2.0000      -0.643310       -17.5053
  52   2.0000      -0.634741       -17.2722
  53   2.0000      -0.600473       -16.3397
  54   2.0000      -0.599722       -16.3193
  55   2.0000      -0.594772       -16.1846
  56   2.0000      -0.593173       -16.1410
  57   2.0000      -0.583059       -15.8659
  58   2.0000      -0.572317       -15.5735
  59   2.0000      -0.564639       -15.3646
  60   2.0000      -0.562348       -15.3023
  61   2.0000      -0.554006       -15.0753
  62   2.0000      -0.540117       -14.6973
  63   2.0000      -0.519646       -14.1403
  64   2.0000      -0.516496       -14.0546
  65   2.0000      -0.511444       -13.9171
  66   2.0000      -0.505575       -13.7574
  67   2.0000      -0.495179       -13.4745
  68   2.0000      -0.480933       -13.0868
  69   2.0000      -0.464311       -12.6346
  70   2.0000      -0.459993       -12.5171
  71   2.0000      -0.455294       -12.3892
  72   2.0000      -0.354304        -9.6411
  73   2.0000      -0.343304        -9.3418
  74   2.0000      -0.327130        -8.9017
  75   2.0000      -0.315410        -8.5827
  76   2.0000      -0.312957        -8.5160
  77   0.0000       0.076108         2.0710
  78   0.0000       0.114204         3.1077
  79   0.0000       0.120295         3.2734
  80   0.0000       0.136077         3.7028
  81   0.0000       0.138565         3.7706

MULLIKEN ATOMIC CHARGES
-----------------------
   0 C :   -0.273704
   1 C :    0.046330
   2 O :   -0.332205
   3 C :    0.429836
   4 O :   -0.430658
   5 C :   -0.166469
   6 C :    0.144087
   7 C :   -0.288692
   8 N :   -0.120634
   9 C :    0.201123
  10 S :   -0.438954
  11 N :   -0.196537
  12 C :    0.033189
  13 C :    0.059890
  14 C :   -0.159804
  15 C :   -0.134030
  16 C :   -0.278877
  17 C :    0.311589
  18 O :   -0.359343
  19 C :   -0.273287
  20 H :    0.095171
  21 H :    0.101864
  22 H :    0.094884
  23 H :    0.093228
  24 H :    0.095829
  25 H :    0.127169
  26 H :    0.104251
  27 H :    0.127943
  28 H :    0.196584
  29 H :    0.193431
  30 H :    0.153291
  31 H :    0.152882
  32 H :    0.158763
  33 H :    0.127727
  34 H :    0.239979
  35 H :    0.164154
Sum of atomic charges:   -0.0000000

LOEWDIN ATOMIC CHARGES
----------------------
   0 C :    0.107189
   1 C :   -0.018305
   2 O :    0.307648
   3 C :   -0.414849
   4 O :    0.102385
   5 C :   -0.091266
   6 C :   -0.064736
   7 C :    0.124930
   8 N :    0.404943
   9 C :   -0.459087
  10 S :   -0.035749
  11 N :    0.398008
  12 C :   -0.046651
  13 C :   -0.038704
  14 C :    0.022572
  15 C :    0.040958
  16 C :   -0.002356
  17 C :   -0.192645
  18 O :    0.392863
  19 C :    0.028240
  20 H :   -0.027938
  21 H :   -0.022626
  22 H :   -0.027972
  23 H :   -0.027045
  24 H :   -0.028453
  25 H :   -0.008867
  26 H :   -0.021151
  27 H :   -0.009978
  28 H :   -0.059260
  29 H :   -0.063592
  30 H :   -0.005055
  31 H :   -0.025318
  32 H :   -0.021299
  33 H :   -0.036500
  34 H :   -0.154998
  35 H :   -0.025333

  Mayer bond orders larger than 0.100000
B(  0-C ,  1-C ) :   0.9700 B(  0-C , 20-H ) :   0.9776 B(  0-C , 21-H ) :   0.9790
B(  0-C , 22-H ) :   0.9775 B(  1-C ,  2-O ) :   0.9048 B(  1-C , 23-H ) :   0.9754
B(  1-C , 24-H ) :   0.9792 B(  2-O ,  3-C ) :   1.1763 B(  3-C ,  4-O ) :   1.9745
B(  3-C ,  5-C ) :   1.0637 B(  5-C ,  6-C ) :   1.6401 B(  5-C , 12-C ) :   0.9671
B(  6-C ,  7-C ) :   0.9547 B(  6-C ,  8-N ) :   1.1506 B(  7-C , 25-H ) :   0.9648
B(  7-C , 26-H ) :   0.9925 B(  7-C , 27-H ) :   0.9635 B(  8-N ,  9-C ) :   1.1768
B(  8-N , 28-H ) :   0.9487 B(  9-C , 10-S ) :   1.6111 B(  9-C , 11-N ) :   1.3051
B( 11-N , 12-C ) :   0.9928 B( 11-N , 29-H ) :   0.9520 B( 12-C , 13-C ) :   0.9480
B( 12-C , 30-H ) :   1.0004 B( 13-C , 14-C ) :   1.3755 B( 13-C , 19-C ) :   1.3690
B( 14-C , 15-C ) :   1.3947 B( 14-C , 31-H ) :   0.9651 B( 15-C , 16-C ) :   1.3623
B( 15-C , 32-H ) :   0.9715 B( 16-C , 17-C ) :   1.3316 B( 16-C , 33-H ) :   0.9861
B( 17-C , 18-O ) :   1.1078 B( 17-C , 19-C ) :   1.3796 B( 18-O , 34-H ) :   0.9807
B( 19-C , 35-H ) :   0.9586

MP2 TOTAL ENERGY:    -1274.350409157 Eh
FINAL SINGLE POINT ENERGY     -1274.350409157039

DIPOLE MOMENT
-------------
                                X             Y             Z
Electronic contribution:     11.86639       8.56377      11.53231
Nuclear contribution   :    -13.38894      -9.87612     -12.50261
                        -----------------------------------------
Total Dipole Moment    :     -1.52255      -1.31235      -0.97029
                        -----------------------------------------
Magnitude (a.u.)       :      2.23202
Magnitude (Debye)      :      5.67333

Rotational constants in cm-1:     0.010362     0.008710     0.005774
Rotational constants in MHz :   310.631680   261.112328   173.086531

                             ****ORCA TERMINATED NORMALLY****
TOTAL RUN TIME: 0 days 1 hours 43 minutes 6 seconds 429 msec
