                         Program Version 4.2.0 -  RELEASE  -
|  1> ! ri-mp2 cc-pvtz cc-pvtz/c TightSCF  NoKeepInts
|  2>
|  3> %scf
|  4>   MaxCore 4096
|  5> end
|  6> *xyz  0  1
|  7>     C       14.1833966   15.0789022   16.0042289
|  8>     C       15.6557114   14.6505162   16.1204173
|  9>     O       16.4605713   15.8310414   15.9722914
| 10>     C       17.6943242   15.8369099   16.5518620
| 11>     O       18.3545876   14.8148452   16.6424865
| 12>     C       17.8879756   16.9878085   17.4937199
| 13>     C       17.3118636   18.2072149   17.3380829
| 14>     C       16.4130953   18.6682213   16.2092750
| 15>     N       17.5931591   19.2297914   18.2495695
| 16>     C       18.5337053   19.1558053   19.2431883
| 17>     S       18.8884148   20.4534340   20.2053987
| 18>     N       19.1670044   17.9483914   19.3982774
| 19>     C       18.8050371   16.7069628   18.6882722
| 20>     C       18.1557748   15.7126901   19.6473806
| 21>     C       18.6816033   14.4158152   19.7940130
| 22>     C       18.0814291   13.4939197   20.6679788
| 23>     C       16.9441823   13.8707294   21.4023878
| 24>     C       16.4147507   15.1600596   21.2562359
| 25>     O       15.3120699   15.5245625   21.9580022
| 26>     C       17.0140774   16.0752627   20.3852998
| 27>     H       13.9284969   15.8033502   16.7877222
| 28>     H       13.5216025   14.2108343   16.1114494
| 29>     H       13.9905299   15.5395800   15.0274214
| 30>     H       15.8171431   14.1960300   17.1083469
| 31>     H       15.9130179   13.9115396   15.3500353
| 32>     H       16.8018999   18.3366346   15.2383468
| 33>     H       16.3232780   19.7602747   16.1617554
| 34>     H       15.4035875   18.2545467   16.3254037
| 35>     H       17.1391801   20.1239249   18.1518234
| 36>     H       19.8336225   17.9118694   20.1587121
| 37>     H       19.7324943   16.2600137   18.3019272
| 38>     H       19.5501361   14.1160161   19.2126076
| 39>     H       18.4949742   12.4919555   20.7678303
| 40>     H       16.4765089   13.1612049   22.0768130
| 41>     H       15.0778603   14.7825137   22.5354299
| 42>     H       16.5899341   17.0688281   20.2900074
| 43> *
| 44>
| 45>                          ****END OF INPUT****

CARTESIAN COORDINATES (ANGSTROEM)
---------------------------------
  C     14.183397   15.078902   16.004229
  C     15.655711   14.650516   16.120417
  O     16.460571   15.831041   15.972291
  C     17.694324   15.836910   16.551862
  O     18.354588   14.814845   16.642487
  C     17.887976   16.987808   17.493720
  C     17.311864   18.207215   17.338083
  C     16.413095   18.668221   16.209275
  N     17.593159   19.229791   18.249569
  C     18.533705   19.155805   19.243188
  S     18.888415   20.453434   20.205399
  N     19.167004   17.948391   19.398277
  C     18.805037   16.706963   18.688272
  C     18.155775   15.712690   19.647381
  C     18.681603   14.415815   19.794013
  C     18.081429   13.493920   20.667979
  C     16.944182   13.870729   21.402388
  C     16.414751   15.160060   21.256236
  O     15.312070   15.524562   21.958002
  C     17.014077   16.075263   20.385300
  H     13.928497   15.803350   16.787722
  H     13.521602   14.210834   16.111449
  H     13.990530   15.539580   15.027421
  H     15.817143   14.196030   17.108347
  H     15.913018   13.911540   15.350035
  H     16.801900   18.336635   15.238347
  H     16.323278   19.760275   16.161755
  H     15.403588   18.254547   16.325404
  H     17.139180   20.123925   18.151823
  H     19.833623   17.911869   20.158712
  H     19.732494   16.260014   18.301927
  H     19.550136   14.116016   19.212608
  H     18.494974   12.491955   20.767830
  H     16.476509   13.161205   22.076813
  H     15.077860   14.782514   22.535430
  H     16.589934   17.068828   20.290007

 Total Charge           Charge          ....    0
 Multiplicity           Mult            ....    1
 Number of Electrons    NEL             ....  154
 Basis Dimension        Dim             ....  828

ORBITAL ENERGIES
----------------

  NO   OCC          E(Eh)            E(eV)
   0   2.0000     -91.888356     -2500.4093
   1   2.0000     -20.594153      -560.3954
   2   2.0000     -20.593782      -560.3853
   3   2.0000     -20.550761      -559.2146
   4   2.0000     -15.628208      -425.2652
   5   2.0000     -15.607552      -424.7031
   6   2.0000     -11.394327      -310.0554
   7   2.0000     -11.383616      -309.7639
   8   2.0000     -11.334106      -308.4167
   9   2.0000     -11.310151      -307.7648
  10   2.0000     -11.307378      -307.6894
  11   2.0000     -11.299028      -307.4622
  12   2.0000     -11.260079      -306.4023
  13   2.0000     -11.259463      -306.3856
  14   2.0000     -11.255796      -306.2858
  15   2.0000     -11.250224      -306.1342
  16   2.0000     -11.239892      -305.8530
  17   2.0000     -11.235905      -305.7445
  18   2.0000     -11.233930      -305.6908
  19   2.0000     -11.232976      -305.6648
  20   2.0000      -8.893427      -242.0024
  21   2.0000      -6.575005      -178.9150
  22   2.0000      -6.572996      -178.8603
  23   2.0000      -6.572412      -178.8444
  24   2.0000      -1.454644       -39.5829
  25   2.0000      -1.413906       -38.4744
  26   2.0000      -1.356943       -36.9243
  27   2.0000      -1.339291       -36.4440
  28   2.0000      -1.237344       -33.6698
  29   2.0000      -1.154422       -31.4134
  30   2.0000      -1.120564       -30.4921
  31   2.0000      -1.044511       -28.4226
  32   2.0000      -1.036993       -28.2180
  33   2.0000      -1.011821       -27.5330
  34   2.0000      -0.998575       -27.1726
  35   2.0000      -0.984260       -26.7831
  36   2.0000      -0.922270       -25.0963
  37   2.0000      -0.886259       -24.1163
  38   2.0000      -0.847293       -23.0560
  39   2.0000      -0.836741       -22.7689
  40   2.0000      -0.830313       -22.5940
  41   2.0000      -0.820802       -22.3352
  42   2.0000      -0.759719       -20.6730
  43   2.0000      -0.735977       -20.0270
  44   2.0000      -0.726711       -19.7748
  45   2.0000      -0.692542       -18.8450
  46   2.0000      -0.683879       -18.6093
  47   2.0000      -0.681931       -18.5563
  48   2.0000      -0.676530       -18.4093
  49   2.0000      -0.658410       -17.9163
  50   2.0000      -0.651720       -17.7342
  51   2.0000      -0.644117       -17.5273
  52   2.0000      -0.635723       -17.2989
  53   2.0000      -0.603299       -16.4166
  54   2.0000      -0.601910       -16.3788
  55   2.0000      -0.600816       -16.3490
  56   2.0000      -0.597554       -16.2603
  57   2.0000      -0.575995       -15.6736
  58   2.0000      -0.575053       -15.6480
  59   2.0000      -0.565814       -15.3966
  60   2.0000      -0.559393       -15.2219
  61   2.0000      -0.554449       -15.0873
  62   2.0000      -0.543003       -14.7759
  63   2.0000      -0.519740       -14.1428
  64   2.0000      -0.514682       -14.0052
  65   2.0000      -0.511696       -13.9240
  66   2.0000      -0.505808       -13.7637
  67   2.0000      -0.497122       -13.5274
  68   2.0000      -0.481930       -13.1140
  69   2.0000      -0.463445       -12.6110
  70   2.0000      -0.459326       -12.4989
  71   2.0000      -0.455495       -12.3947
  72   2.0000      -0.353906        -9.6303
  73   2.0000      -0.346224        -9.4212
  74   2.0000      -0.327601        -8.9145
  75   2.0000      -0.317256        -8.6330
  76   2.0000      -0.315146        -8.5756
  77   0.0000       0.073811         2.0085
  78   0.0000       0.108156         2.9431
  79   0.0000       0.119236         3.2446
  80   0.0000       0.134006         3.6465
  81   0.0000       0.139024         3.7830

MULLIKEN ATOMIC CHARGES
-----------------------
   0 C :   -0.283713
   1 C :    0.056402
   2 O :   -0.355040
   3 C :    0.429219
   4 O :   -0.407558
   5 C :   -0.175667
   6 C :    0.141196
   7 C :   -0.285411
   8 N :   -0.124818
   9 C :    0.203061
  10 S :   -0.439975
  11 N :   -0.199796
  12 C :    0.049201
  13 C :    0.050488
  14 C :   -0.161254
  15 C :   -0.133380
  16 C :   -0.280917
  17 C :    0.311970
  18 O :   -0.358809
  19 C :   -0.277212
  20 H :    0.095376
  21 H :    0.103571
  22 H :    0.096993
  23 H :    0.093744
  24 H :    0.099981
  25 H :    0.125429
  26 H :    0.105069
  27 H :    0.125592
  28 H :    0.197136
  29 H :    0.194056
  30 H :    0.154198
  31 H :    0.154555
  32 H :    0.160230
  33 H :    0.129476
  34 H :    0.240501
  35 H :    0.166103
Sum of atomic charges:    0.0000000

LOEWDIN ATOMIC CHARGES
----------------------
   0 C :    0.106755
   1 C :   -0.016685
   2 O :    0.299115
   3 C :   -0.416625
   4 O :    0.117149
   5 C :   -0.092751
   6 C :   -0.071413
   7 C :    0.125740
   8 N :    0.404267
   9 C :   -0.457887
  10 S :   -0.036480
  11 N :    0.397342
  12 C :   -0.045687
  13 C :   -0.039728
  14 C :    0.021782
  15 C :    0.041086
  16 C :   -0.002484
  17 C :   -0.193460
  18 O :    0.393118
  19 C :    0.027715
  20 H :   -0.028185
  21 H :   -0.022869
  22 H :   -0.027891
  23 H :   -0.025715
  24 H :   -0.028972
  25 H :   -0.008134
  26 H :   -0.020058
  27 H :   -0.010481
  28 H :   -0.058908
  29 H :   -0.063933
  30 H :   -0.004740
  31 H :   -0.024950
  32 H :   -0.020740
  33 H :   -0.036038
  34 H :   -0.154527
  35 H :   -0.024727

  Mayer bond orders larger than 0.100000
B(  0-C ,  1-C ) :   0.9698 B(  0-C , 20-H ) :   0.9774 B(  0-C , 21-H ) :   0.9784
B(  0-C , 22-H ) :   0.9769 B(  1-C ,  2-O ) :   0.9037 B(  1-C , 23-H ) :   0.9711
B(  1-C , 24-H ) :   0.9827 B(  2-O ,  3-C ) :   1.1162 B(  3-C ,  4-O ) :   2.0153
B(  3-C ,  5-C ) :   1.0349 B(  5-C ,  6-C ) :   1.6610 B(  5-C , 12-C ) :   0.9661
B(  6-C ,  7-C ) :   0.9529 B(  6-C ,  8-N ) :   1.1394 B(  7-C , 25-H ) :   0.9688
B(  7-C , 26-H ) :   0.9896 B(  7-C , 27-H ) :   0.9632 B(  8-N ,  9-C ) :   1.1830
B(  8-N , 28-H ) :   0.9495 B(  9-C , 10-S ) :   1.6102 B(  9-C , 11-N ) :   1.3016
B( 11-N , 12-C ) :   0.9916 B( 11-N , 29-H ) :   0.9518 B( 12-C , 13-C ) :   0.9450
B( 12-C , 30-H ) :   0.9986 B( 13-C , 14-C ) :   1.3767 B( 13-C , 19-C ) :   1.3691
B( 14-C , 15-C ) :   1.3945 B( 14-C , 31-H ) :   0.9645 B( 15-C , 16-C ) :   1.3631
B( 15-C , 32-H ) :   0.9711 B( 16-C , 17-C ) :   1.3309 B( 16-C , 33-H ) :   0.9855
B( 17-C , 18-O ) :   1.1088 B( 17-C , 19-C ) :   1.3771 B( 18-O , 34-H ) :   0.9802
B( 19-C , 35-H ) :   0.9583

MP2 TOTAL ENERGY:    -1274.335397044 Eh
FINAL SINGLE POINT ENERGY     -1274.335397043505

DIPOLE MOMENT
-------------
                                X             Y             Z
Electronic contribution:     11.94187       8.44050       8.57654
Nuclear contribution   :    -13.33402      -9.77201      -9.35645
                        -----------------------------------------
Total Dipole Moment    :     -1.39215      -1.33151      -0.77991
                        -----------------------------------------
Magnitude (a.u.)       :      2.07829
Magnitude (Debye)      :      5.28259

Rotational constants in cm-1:     0.010822     0.009208     0.006404
Rotational constants in MHz :   324.423437   276.040020   191.974249

                             ****ORCA TERMINATED NORMALLY****
TOTAL RUN TIME: 0 days 1 hours 44 minutes 39 seconds 78 msec
