                         Program Version 5.0.0 -  RELEASE  -
|  1> ! ri-mp2 cc-pvtz cc-pvtz/c TightSCF NoKeepInts
|  2>
|  3> %scf
|  4>   MaxCore 4096
|  5> end
|  6> *xyz  0  1
|  7>     C       15.2567860   14.8952739   17.2648810
|  8>     C       15.6307177   15.0037978   15.7703057
|  9>     O       16.7782736   15.8531026   15.5492462
| 10>     C       17.8516038   15.8173335   16.3907522
| 11>     O       18.4546617   14.7739825   16.5748320
| 12>     C       17.9030075   16.9488799   17.3789972
| 13>     C       17.3396602   18.1691107   17.1808879
| 14>     C       16.5688213   18.6525811   15.9697036
| 15>     N       17.5164651   19.1782435   18.1332397
| 16>     C       18.3748992   19.1058310   19.1985841
| 17>     S       18.6378379   20.3987829   20.1956681
| 18>     N       19.0046300   17.9027808   19.3942598
| 19>     C       18.6879643   16.6604210   18.6646434
| 20>     C       17.9318654   15.6895220   19.5681014
| 21>     C       18.3785441   14.3637281   19.7191818
| 22>     C       17.6797033   13.4603705   20.5372498
| 23>     C       16.5226413   13.8850205   21.2119534
| 24>     C       16.0732123   15.2039719   21.0637440
| 25>     O       14.9505098   15.6146852   21.7054048
| 26>     C       16.7712521   16.1010585   20.2494287
| 27>     H       16.0230541   14.3479408   17.8279068
| 28>     H       14.3135870   14.3479292   17.3800555
| 29>     H       15.1274565   15.8874761   17.7139832
| 30>     H       15.8514968   13.9962790   15.3930118
| 31>     H       14.7767428   15.3932577   15.2015465
| 32>     H       15.5718394   18.1966284   15.9366519
| 33>     H       17.0922481   18.3884260   15.0421548
| 34>     H       16.4359711   19.7413043   15.9611632
| 35>     H       17.0656361   20.0700428   18.0044060
| 36>     H       19.6114204   17.8657270   20.2032773
| 37>     H       19.6403954   16.1912127   18.3781333
| 38>     H       19.2618921   14.0267603   19.1817549
| 39>     H       18.0325544   12.4356051   20.6389687
| 40>     H       15.9781353   13.1895353   21.8418999
| 41>     H       14.6462100   14.8782983   22.2569289
| 42>     H       16.4053038   17.1170991   20.1510922
| 43> *
| 44>
| 45>                          ****END OF INPUT****

CARTESIAN COORDINATES (ANGSTROEM)
---------------------------------
  C     15.256786   14.895274   17.264881
  C     15.630718   15.003798   15.770306
  O     16.778274   15.853103   15.549246
  C     17.851604   15.817334   16.390752
  O     18.454662   14.773983   16.574832
  C     17.903008   16.948880   17.378997
  C     17.339660   18.169111   17.180888
  C     16.568821   18.652581   15.969704
  N     17.516465   19.178244   18.133240
  C     18.374899   19.105831   19.198584
  S     18.637838   20.398783   20.195668
  N     19.004630   17.902781   19.394260
  C     18.687964   16.660421   18.664643
  C     17.931865   15.689522   19.568101
  C     18.378544   14.363728   19.719182
  C     17.679703   13.460370   20.537250
  C     16.522641   13.885020   21.211953
  C     16.073212   15.203972   21.063744
  O     14.950510   15.614685   21.705405
  C     16.771252   16.101059   20.249429
  H     16.023054   14.347941   17.827907
  H     14.313587   14.347929   17.380055
  H     15.127456   15.887476   17.713983
  H     15.851497   13.996279   15.393012
  H     14.776743   15.393258   15.201546
  H     15.571839   18.196628   15.936652
  H     17.092248   18.388426   15.042155
  H     16.435971   19.741304   15.961163
  H     17.065636   20.070043   18.004406
  H     19.611420   17.865727   20.203277
  H     19.640395   16.191213   18.378133
  H     19.261892   14.026760   19.181755
  H     18.032554   12.435605   20.638969
  H     15.978135   13.189535   21.841900
  H     14.646210   14.878298   22.256929
  H     16.405304   17.117099   20.151092

 Total Charge           Charge          ....    0
 Multiplicity           Mult            ....    1
 Number of Electrons    NEL             ....  154
 Basis Dimension        Dim             ....  828

ORBITAL ENERGIES
----------------

  NO   OCC          E(Eh)            E(eV)
   0   2.0000     -91.890145     -2500.4580
   1   2.0000     -20.595131      -560.4220
   2   2.0000     -20.583266      -560.0991
   3   2.0000     -20.551677      -559.2396
   4   2.0000     -15.630807      -425.3359
   5   2.0000     -15.608616      -424.7320
   6   2.0000     -11.395156      -310.0780
   7   2.0000     -11.385045      -309.8028
   8   2.0000     -11.337857      -308.5188
   9   2.0000     -11.311042      -307.7891
  10   2.0000     -11.308027      -307.7071
  11   2.0000     -11.303612      -307.5869
  12   2.0000     -11.261761      -306.4481
  13   2.0000     -11.261279      -306.4350
  14   2.0000     -11.256551      -306.3063
  15   2.0000     -11.251352      -306.1649
  16   2.0000     -11.241092      -305.8857
  17   2.0000     -11.236471      -305.7599
  18   2.0000     -11.233640      -305.6829
  19   2.0000     -11.226477      -305.4880
  20   2.0000      -8.895195      -242.0506
  21   2.0000      -6.576767      -178.9629
  22   2.0000      -6.574764      -178.9084
  23   2.0000      -6.574173      -178.8923
  24   2.0000      -1.448402       -39.4130
  25   2.0000      -1.414923       -38.5020
  26   2.0000      -1.353885       -36.8411
  27   2.0000      -1.341596       -36.5067
  28   2.0000      -1.239062       -33.7166
  29   2.0000      -1.155407       -31.4402
  30   2.0000      -1.121167       -30.5085
  31   2.0000      -1.043683       -28.4001
  32   2.0000      -1.031528       -28.0693
  33   2.0000      -1.013056       -27.5667
  34   2.0000      -1.000740       -27.2315
  35   2.0000      -0.986541       -26.8451
  36   2.0000      -0.924279       -25.1509
  37   2.0000      -0.895520       -24.3683
  38   2.0000      -0.849838       -23.1253
  39   2.0000      -0.838709       -22.8224
  40   2.0000      -0.831468       -22.6254
  41   2.0000      -0.817323       -22.2405
  42   2.0000      -0.746758       -20.3203
  43   2.0000      -0.732700       -19.9378
  44   2.0000      -0.727595       -19.7989
  45   2.0000      -0.693471       -18.8703
  46   2.0000      -0.687189       -18.6994
  47   2.0000      -0.676700       -18.4139
  48   2.0000      -0.672119       -18.2893
  49   2.0000      -0.660564       -17.9749
  50   2.0000      -0.653453       -17.7814
  51   2.0000      -0.646446       -17.5907
  52   2.0000      -0.636565       -17.3218
  53   2.0000      -0.619458       -16.8563
  54   2.0000      -0.603195       -16.4138
  55   2.0000      -0.602787       -16.4027
  56   2.0000      -0.599081       -16.3018
  57   2.0000      -0.580593       -15.7987
  58   2.0000      -0.575602       -15.6629
  59   2.0000      -0.563205       -15.3256
  60   2.0000      -0.552763       -15.0415
  61   2.0000      -0.546773       -14.8784
  62   2.0000      -0.537459       -14.6250
  63   2.0000      -0.533001       -14.5037
  64   2.0000      -0.520651       -14.1676
  65   2.0000      -0.511925       -13.9302
  66   2.0000      -0.499553       -13.5935
  67   2.0000      -0.492950       -13.4139
  68   2.0000      -0.480766       -13.0823
  69   2.0000      -0.464677       -12.6445
  70   2.0000      -0.454911       -12.3787
  71   2.0000      -0.449685       -12.2365
  72   2.0000      -0.356053        -9.6887
  73   2.0000      -0.346730        -9.4350
  74   2.0000      -0.329212        -8.9583
  75   2.0000      -0.319109        -8.6834
  76   2.0000      -0.316880        -8.6227
  77   0.0000       0.068874         1.8741
  78   0.0000       0.107557         2.9268
  79   0.0000       0.118371         3.2210
  80   0.0000       0.132610         3.6085
  81   0.0000       0.138132         3.7588

MULLIKEN ATOMIC CHARGES
-----------------------
   0 C :   -0.346808
   1 C :    0.043621
   2 O :   -0.387902
   3 C :    0.480028
   4 O :   -0.406917
   5 C :   -0.211649
   6 C :    0.151257
   7 C :   -0.285885
   8 N :   -0.123011
   9 C :    0.194938
  10 S :   -0.435992
  11 N :   -0.197454
  12 C :    0.042395
  13 C :    0.044122
  14 C :   -0.165754
  15 C :   -0.134544
  16 C :   -0.279237
  17 C :    0.317321
  18 O :   -0.360775
  19 C :   -0.279707
  20 H :    0.132727
  21 H :    0.116984
  22 H :    0.103534
  23 H :    0.112006
  24 H :    0.109579
  25 H :    0.118611
  26 H :    0.133144
  27 H :    0.106595
  28 H :    0.197461
  29 H :    0.193380
  30 H :    0.155359
  31 H :    0.158841
  32 H :    0.161228
  33 H :    0.130529
  34 H :    0.240786
  35 H :    0.171190
Sum of atomic charges:   -0.0000000

LOEWDIN ATOMIC CHARGES
----------------------
   0 C :    0.104818
   1 C :   -0.016188
   2 O :    0.283822
   3 C :   -0.419501
   4 O :    0.121931
   5 C :   -0.094019
   6 C :   -0.068012
   7 C :    0.126084
   8 N :    0.405551
   9 C :   -0.459585
  10 S :   -0.033841
  11 N :    0.397758
  12 C :   -0.045784
  13 C :   -0.040935
  14 C :    0.020696
  15 C :    0.040658
  16 C :   -0.002305
  17 C :   -0.193399
  18 O :    0.393946
  19 C :    0.030974
  20 H :   -0.020692
  21 H :   -0.023595
  22 H :   -0.032015
  23 H :   -0.026489
  24 H :   -0.025658
  25 H :   -0.011611
  26 H :   -0.006021
  27 H :   -0.019978
  28 H :   -0.058760
  29 H :   -0.063715
  30 H :   -0.003701
  31 H :   -0.024402
  32 H :   -0.020350
  33 H :   -0.035702
  34 H :   -0.154182
  35 H :   -0.025799

  Mayer bond orders larger than 0.100000
B(  0-C ,  1-C ) :   0.9585 B(  0-C , 20-H ) :   0.9654 B(  0-C , 21-H ) :   0.9759
B(  0-C , 22-H ) :   0.9707 B(  1-C ,  2-O ) :   0.8928 B(  1-C , 23-H ) :   0.9862
B(  1-C , 24-H ) :   0.9822 B(  2-O ,  3-C ) :   1.0879 B(  3-C ,  4-O ) :   2.0215
B(  3-C ,  5-C ) :   1.0338 B(  5-C ,  6-C ) :   1.6538 B(  5-C , 12-C ) :   0.9663
B(  6-C ,  7-C ) :   0.9558 B(  6-C ,  8-N ) :   1.1417 B(  7-C , 25-H ) :   0.9654
B(  7-C , 26-H ) :   0.9652 B(  7-C , 27-H ) :   0.9901 B(  8-N ,  9-C ) :   1.1784
B(  8-N , 28-H ) :   0.9488 B(  9-C , 10-S ) :   1.6152 B(  9-C , 11-N ) :   1.3020
B( 11-N , 12-C ) :   0.9888 B( 11-N , 29-H ) :   0.9524 B( 12-C , 13-C ) :   0.9459
B( 12-C , 30-H ) :   0.9995 B( 13-C , 14-C ) :   1.3825 B( 13-C , 19-C ) :   1.3546
B( 14-C , 15-C ) :   1.3943 B( 14-C , 31-H ) :   0.9626 B( 15-C , 16-C ) :   1.3622
B( 15-C , 32-H ) :   0.9711 B( 16-C , 17-C ) :   1.3315 B( 16-C , 33-H ) :   0.9850
B( 17-C , 18-O ) :   1.1093 B( 17-C , 19-C ) :   1.3722 B( 18-O , 34-H ) :   0.9802
B( 19-C , 35-H ) :   0.9584

MP2 TOTAL ENERGY:    -1274.329742237 Eh
FINAL SINGLE POINT ENERGY     -1274.329742236657

DIPOLE MOMENT
-------------
                                X             Y             Z
Electronic contribution:      9.77938       8.34435       6.22726
Nuclear contribution   :    -11.19122      -9.50100      -6.92580
                        -----------------------------------------
Total Dipole Moment    :     -1.41183      -1.15665      -0.69855
                        -----------------------------------------
Magnitude (a.u.)       :      1.95425
Magnitude (Debye)      :      4.96730

Rotational constants in cm-1:     0.011569     0.009769     0.006755
Rotational constants in MHz :   346.817560   292.862229   202.509899

                             ****ORCA TERMINATED NORMALLY****
TOTAL RUN TIME: 0 days 2 hours 1 minutes 0 seconds 170 msec
