                         Program Version 4.2.0 -  RELEASE  -
|  1> ! ri-mp2 cc-pvtz cc-pvtz/c TightSCF  NoKeepInts
|  2>
|  3> %scf
|  4>   MaxCore 4096
|  5> end
|  6> *xyz  0  1
|  7>     C       15.6114630   13.8671689   14.9523337
|  8>     C       15.0648221   14.9289054   15.9320760
|  9>     O       16.0282385   15.9766865   16.1764742
| 10>     C       17.2317898   15.7469493   16.7864990
| 11>     O       17.6902129   14.6288170   16.9490648
| 12>     C       17.7056988   16.9103204   17.6101079
| 13>     C       17.3755455   18.2076580   17.3773792
| 14>     C       16.5094668   18.7630450   16.2651701
| 15>     N       17.9243734   19.2179385   18.1741024
| 16>     C       18.9138762   19.0325111   19.1031657
| 17>     S       19.6009072   20.3022473   19.9103107
| 18>     N       19.3059922   17.7373191   19.3277090
| 19>     C       18.6367626   16.5458131   18.7725183
| 20>     C       17.8795106   15.8002157   19.8685964
| 21>     C       18.1253806   14.4344361   20.1016701
| 22>     C       17.4296187   13.7421808   21.1069663
| 23>     C       16.4784224   14.4206883   21.8876343
| 24>     C       16.2274612   15.7799638   21.6563728
| 25>     O       15.3049437   16.4364226   22.4043391
| 26>     C       16.9212023   16.4661324   20.6546931
| 27>     H       16.0924777   14.3441766   14.0896087
| 28>     H       14.7929911   13.2388874   14.5810410
| 29>     H       16.3384656   13.2034357   15.4349082
| 30>     H       14.1607047   15.3767803   15.5002988
| 31>     H       14.7826932   14.4472118   16.8780005
| 32>     H       15.4511776   18.5427643   16.4528268
| 33>     H       16.7808242   18.3188017   15.2993969
| 34>     H       16.6080805   19.8499022   16.1559292
| 35>     H       17.6495738   20.1754768   18.0238991
| 36>     H       20.0150709   17.6242932   20.0406598
| 37>     H       19.4181634   15.8791860   18.3798617
| 38>     H       18.8478914   13.9031435   19.4868880
| 39>     H       17.6251267   12.6842878   21.2725267
| 40>     H       15.9375538   13.8895019   22.6636325
| 41>     H       14.9667298   15.8101288   23.0616754
| 42>     H       16.7137874   17.5186028   20.4956637
| 43> *
| 44>
| 45>                          ****END OF INPUT****

CARTESIAN COORDINATES (ANGSTROEM)
---------------------------------
  C     15.611463   13.867169   14.952334
  C     15.064822   14.928905   15.932076
  O     16.028239   15.976686   16.176474
  C     17.231790   15.746949   16.786499
  O     17.690213   14.628817   16.949065
  C     17.705699   16.910320   17.610108
  C     17.375546   18.207658   17.377379
  C     16.509467   18.763045   16.265170
  N     17.924373   19.217938   18.174102
  C     18.913876   19.032511   19.103166
  S     19.600907   20.302247   19.910311
  N     19.305992   17.737319   19.327709
  C     18.636763   16.545813   18.772518
  C     17.879511   15.800216   19.868596
  C     18.125381   14.434436   20.101670
  C     17.429619   13.742181   21.106966
  C     16.478422   14.420688   21.887634
  C     16.227461   15.779964   21.656373
  O     15.304944   16.436423   22.404339
  C     16.921202   16.466132   20.654693
  H     16.092478   14.344177   14.089609
  H     14.792991   13.238887   14.581041
  H     16.338466   13.203436   15.434908
  H     14.160705   15.376780   15.500299
  H     14.782693   14.447212   16.878000
  H     15.451178   18.542764   16.452827
  H     16.780824   18.318802   15.299397
  H     16.608080   19.849902   16.155929
  H     17.649574   20.175477   18.023899
  H     20.015071   17.624293   20.040660
  H     19.418163   15.879186   18.379862
  H     18.847891   13.903144   19.486888
  H     17.625127   12.684288   21.272527
  H     15.937554   13.889502   22.663632
  H     14.966730   15.810129   23.061675
  H     16.713787   17.518603   20.495664

 Total Charge           Charge          ....    0
 Multiplicity           Mult            ....    1
 Number of Electrons    NEL             ....  154
 Basis Dimension        Dim             ....  828

ORBITAL ENERGIES
----------------

  NO   OCC          E(Eh)            E(eV)
   0   2.0000     -91.887415     -2500.3837
   1   2.0000     -20.599532      -560.5418
   2   2.0000     -20.591770      -560.3305
   3   2.0000     -20.548276      -559.1470
   4   2.0000     -15.627200      -425.2377
   5   2.0000     -15.606316      -424.6695
   6   2.0000     -11.397608      -310.1447
   7   2.0000     -11.382408      -309.7311
   8   2.0000     -11.333862      -308.4101
   9   2.0000     -11.307657      -307.6970
  10   2.0000     -11.305731      -307.6446
  11   2.0000     -11.303473      -307.5831
  12   2.0000     -11.259670      -306.3912
  13   2.0000     -11.258280      -306.3534
  14   2.0000     -11.253574      -306.2253
  15   2.0000     -11.247921      -306.0715
  16   2.0000     -11.237503      -305.7880
  17   2.0000     -11.233455      -305.6779
  18   2.0000     -11.230673      -305.6021
  19   2.0000     -11.222530      -305.3806
  20   2.0000      -8.892487      -241.9769
  21   2.0000      -6.574067      -178.8895
  22   2.0000      -6.572058      -178.8348
  23   2.0000      -6.571474      -178.8189
  24   2.0000      -1.450910       -39.4813
  25   2.0000      -1.411506       -38.4090
  26   2.0000      -1.358106       -36.9559
  27   2.0000      -1.338399       -36.4197
  28   2.0000      -1.236257       -33.6403
  29   2.0000      -1.152082       -31.3497
  30   2.0000      -1.118943       -30.4480
  31   2.0000      -1.041733       -28.3470
  32   2.0000      -1.033303       -28.1176
  33   2.0000      -1.009511       -27.4702
  34   2.0000      -0.996491       -27.1159
  35   2.0000      -0.981948       -26.7202
  36   2.0000      -0.921044       -25.0629
  37   2.0000      -0.893131       -24.3033
  38   2.0000      -0.847200       -23.0535
  39   2.0000      -0.835561       -22.7368
  40   2.0000      -0.828050       -22.5324
  41   2.0000      -0.818507       -22.2727
  42   2.0000      -0.748514       -20.3681
  43   2.0000      -0.731446       -19.9037
  44   2.0000      -0.724871       -19.7247
  45   2.0000      -0.690877       -18.7997
  46   2.0000      -0.684594       -18.6288
  47   2.0000      -0.679923       -18.5016
  48   2.0000      -0.670569       -18.2471
  49   2.0000      -0.663159       -18.0455
  50   2.0000      -0.645323       -17.5601
  51   2.0000      -0.641341       -17.4518
  52   2.0000      -0.632874       -17.2214
  53   2.0000      -0.605589       -16.4789
  54   2.0000      -0.599739       -16.3197
  55   2.0000      -0.598406       -16.2834
  56   2.0000      -0.594803       -16.1854
  57   2.0000      -0.586812       -15.9680
  58   2.0000      -0.572827       -15.5874
  59   2.0000      -0.568264       -15.4632
  60   2.0000      -0.559749       -15.2315
  61   2.0000      -0.544948       -14.8288
  62   2.0000      -0.535743       -14.5783
  63   2.0000      -0.519875       -14.1465
  64   2.0000      -0.517206       -14.0739
  65   2.0000      -0.510811       -13.8999
  66   2.0000      -0.501685       -13.6516
  67   2.0000      -0.495286       -13.4774
  68   2.0000      -0.479533       -13.0487
  69   2.0000      -0.461152       -12.5486
  70   2.0000      -0.457788       -12.4571
  71   2.0000      -0.449797       -12.2396
  72   2.0000      -0.353144        -9.6095
  73   2.0000      -0.343954        -9.3595
  74   2.0000      -0.326619        -8.8878
  75   2.0000      -0.315269        -8.5789
  76   2.0000      -0.313764        -8.5379
  77   0.0000       0.076588         2.0841
  78   0.0000       0.112344         3.0570
  79   0.0000       0.121564         3.3079
  80   0.0000       0.135967         3.6999
  81   0.0000       0.140739         3.8297

MULLIKEN ATOMIC CHARGES
-----------------------
   0 C :   -0.301757
   1 C :    0.048638
   2 O :   -0.354077
   3 C :    0.436674
   4 O :   -0.426545
   5 C :   -0.146746
   6 C :    0.136877
   7 C :   -0.285356
   8 N :   -0.122049
   9 C :    0.201897
  10 S :   -0.440725
  11 N :   -0.197439
  12 C :    0.036397
  13 C :    0.055083
  14 C :   -0.162959
  15 C :   -0.134275
  16 C :   -0.279433
  17 C :    0.311241
  18 O :   -0.358841
  19 C :   -0.270400
  20 H :    0.091438
  21 H :    0.094802
  22 H :    0.128437
  23 H :    0.100931
  24 H :    0.094850
  25 H :    0.127776
  26 H :    0.123577
  27 H :    0.101895
  28 H :    0.196687
  29 H :    0.193367
  30 H :    0.154115
  31 H :    0.153700
  32 H :    0.159137
  33 H :    0.128165
  34 H :    0.239974
  35 H :    0.164943
Sum of atomic charges:   -0.0000000

LOEWDIN ATOMIC CHARGES
----------------------
   0 C :    0.103974
   1 C :   -0.012231
   2 O :    0.296410
   3 C :   -0.411413
   4 O :    0.114854
   5 C :   -0.090209
   6 C :   -0.068818
   7 C :    0.124865
   8 N :    0.404323
   9 C :   -0.458642
  10 S :   -0.037117
  11 N :    0.397590
  12 C :   -0.045979
  13 C :   -0.038814
  14 C :    0.021248
  15 C :    0.040478
  16 C :   -0.002507
  17 C :   -0.192587
  18 O :    0.393113
  19 C :    0.028980
  20 H :   -0.028988
  21 H :   -0.029235
  22 H :   -0.026246
  23 H :   -0.024796
  24 H :   -0.027496
  25 H :   -0.009636
  26 H :   -0.009160
  27 H :   -0.020745
  28 H :   -0.059198
  29 H :   -0.063868
  30 H :   -0.005199
  31 H :   -0.025483
  32 H :   -0.021312
  33 H :   -0.036420
  34 H :   -0.154941
  35 H :   -0.024793

  Mayer bond orders larger than 0.100000
B(  0-C ,  1-C ) :   0.9683 B(  0-C , 20-H ) :   0.9756 B(  0-C , 21-H ) :   0.9773
B(  0-C , 22-H ) :   0.9710 B(  1-C ,  2-O ) :   0.9079 B(  1-C , 23-H ) :   0.9843
B(  1-C , 24-H ) :   0.9786 B(  2-O ,  3-C ) :   1.1304 B(  3-C ,  4-O ) :   1.9685
B(  3-C ,  5-C ) :   1.0517 B(  5-C ,  6-C ) :   1.6526 B(  5-C , 12-C ) :   0.9644
B(  6-C ,  7-C ) :   0.9552 B(  6-C ,  8-N ) :   1.1427 B(  7-C , 25-H ) :   0.9628
B(  7-C , 26-H ) :   0.9678 B(  7-C , 27-H ) :   0.9908 B(  8-N ,  9-C ) :   1.1810
B(  8-N , 28-H ) :   0.9494 B(  9-C , 10-S ) :   1.6096 B(  9-C , 11-N ) :   1.3026
B( 11-N , 12-C ) :   0.9936 B( 11-N , 29-H ) :   0.9519 B( 12-C , 13-C ) :   0.9465
B( 12-C , 30-H ) :   0.9992 B( 13-C , 14-C ) :   1.3758 B( 13-C , 19-C ) :   1.3702
B( 14-C , 15-C ) :   1.3947 B( 14-C , 31-H ) :   0.9650 B( 15-C , 16-C ) :   1.3629
B( 15-C , 32-H ) :   0.9714 B( 16-C , 17-C ) :   1.3312 B( 16-C , 33-H ) :   0.9860
B( 17-C , 18-O ) :   1.1082 B( 17-C , 19-C ) :   1.3787 B( 18-O , 34-H ) :   0.9806
B( 19-C , 35-H ) :   0.9583

MP2 TOTAL ENERGY:    -1274.338318692 Eh
FINAL SINGLE POINT ENERGY     -1274.338318691656

DIPOLE MOMENT
-------------
                                X             Y             Z
Electronic contribution:      9.89820      10.24646      11.00452
Nuclear contribution   :    -11.53787     -11.44437     -11.90218
                        -----------------------------------------
Total Dipole Moment    :     -1.63967      -1.19791      -0.89765
                        -----------------------------------------
Magnitude (a.u.)       :      2.22020
Magnitude (Debye)      :      5.64329

Rotational constants in cm-1:     0.010732     0.008939     0.005899
Rotational constants in MHz :   321.740854   267.978740   176.850304

                             ****ORCA TERMINATED NORMALLY****
TOTAL RUN TIME: 0 days 1 hours 33 minutes 49 seconds 641 msec
