                         Program Version 5.0.0 -  RELEASE  -
|  1> ! ri-mp2 cc-pvtz cc-pvtz/c TightSCF NoKeepInts
|  2>
|  3> %scf
|  4>   MaxCore 4096
|  5> end
|  6> *xyz  0  1
|  7>     C       15.4264185   13.6862557   15.6068172
|  8>     C       15.1017136   15.0634402   16.2246319
|  9>     O       16.1891375   16.0029294   16.0727931
| 10>     C       17.4161875   15.8087977   16.6471434
| 11>     O       17.9089524   14.7046932   16.8014841
| 12>     C       17.8275421   16.9646058   17.5114451
| 13>     C       17.4854611   18.2572038   17.2746792
| 14>     C       16.6783720   18.8042683   16.1152816
| 15>     N       17.9613746   19.2676090   18.1163471
| 16>     C       18.8857990   19.0871827   19.1113117
| 17>     S       19.4857224   20.3576692   19.9839718
| 18>     N       19.2884029   17.7966841   19.3458993
| 19>     C       18.6936322   16.5995205   18.7219216
| 20>     C       17.8869414   15.8067999   19.7472627
| 21>     C       18.1559739   14.4430638   19.9658662
| 22>     C       17.4110245   13.7066714   20.9021520
| 23>     C       16.3865398   14.3384673   21.6273234
| 24>     C       16.1123472   15.6954823   21.4097122
| 25>     O       15.1185624   16.3065919   22.1026850
| 26>     C       16.8550484   16.4256001   20.4765700
| 27>     H       15.9108890   13.8012800   14.6292920
| 28>     H       14.5059257   13.1073351   15.4657010
| 29>     H       16.0853190   13.0985695   16.2572667
| 30>     H       14.2156463   15.4730365   15.7230600
| 31>     H       14.8566974   14.9396428   17.2881415
| 32>     H       16.9843628   18.3381919   15.1702820
| 33>     H       16.8010712   19.8871239   15.9912656
| 34>     H       15.6094878   18.6033942   16.2590752
| 35>     H       17.6784501   20.2217662   17.9594390
| 36>     H       19.9478064   17.6875525   20.1056391
| 37>     H       19.5180964   15.9649700   18.3657706
| 38>     H       18.9356519   13.9476846   19.3922279
| 39>     H       17.6257979   12.6508714   21.0571744
| 40>     H       15.8076568   13.7729946   22.3498845
| 41>     H       14.7607488   15.6585953   22.7279579
| 42>     H       16.6282389   17.4754552   20.3265240
| 43> *
| 44>
| 45>                          ****END OF INPUT****

CARTESIAN COORDINATES (ANGSTROEM)
---------------------------------
  C     15.426418   13.686256   15.606817
  C     15.101714   15.063440   16.224632
  O     16.189138   16.002929   16.072793
  C     17.416187   15.808798   16.647143
  O     17.908952   14.704693   16.801484
  C     17.827542   16.964606   17.511445
  C     17.485461   18.257204   17.274679
  C     16.678372   18.804268   16.115282
  N     17.961375   19.267609   18.116347
  C     18.885799   19.087183   19.111312
  S     19.485722   20.357669   19.983972
  N     19.288403   17.796684   19.345899
  C     18.693632   16.599521   18.721922
  C     17.886941   15.806800   19.747263
  C     18.155974   14.443064   19.965866
  C     17.411024   13.706671   20.902152
  C     16.386540   14.338467   21.627323
  C     16.112347   15.695482   21.409712
  O     15.118562   16.306592   22.102685
  C     16.855048   16.425600   20.476570
  H     15.910889   13.801280   14.629292
  H     14.505926   13.107335   15.465701
  H     16.085319   13.098569   16.257267
  H     14.215646   15.473036   15.723060
  H     14.856697   14.939643   17.288141
  H     16.984363   18.338192   15.170282
  H     16.801071   19.887124   15.991266
  H     15.609488   18.603394   16.259075
  H     17.678450   20.221766   17.959439
  H     19.947806   17.687552   20.105639
  H     19.518096   15.964970   18.365771
  H     18.935652   13.947685   19.392228
  H     17.625798   12.650871   21.057174
  H     15.807657   13.772995   22.349885
  H     14.760749   15.658595   22.727958
  H     16.628239   17.475455   20.326524

 Total Charge           Charge          ....    0
 Multiplicity           Mult            ....    1
 Number of Electrons    NEL             ....  154
 Basis Dimension        Dim             ....  828

ORBITAL ENERGIES
----------------

  NO   OCC          E(Eh)            E(eV)
   0   2.0000     -91.887751     -2500.3928
   1   2.0000     -20.593735      -560.3840
   2   2.0000     -20.592262      -560.3439
   3   2.0000     -20.551684      -559.2398
   4   2.0000     -15.627278      -425.2399
   5   2.0000     -15.606964      -424.6871
   6   2.0000     -11.397442      -310.1402
   7   2.0000     -11.382936      -309.7454
   8   2.0000     -11.332967      -308.3857
   9   2.0000     -11.309802      -307.7554
  10   2.0000     -11.306767      -307.6728
  11   2.0000     -11.303773      -307.5913
  12   2.0000     -11.259122      -306.3763
  13   2.0000     -11.258567      -306.3612
  14   2.0000     -11.255483      -306.2773
  15   2.0000     -11.250001      -306.1281
  16   2.0000     -11.239582      -305.8446
  17   2.0000     -11.235488      -305.7332
  18   2.0000     -11.232719      -305.6578
  19   2.0000     -11.220447      -305.3239
  20   2.0000      -8.892827      -241.9861
  21   2.0000      -6.574408      -178.8987
  22   2.0000      -6.572398      -178.8440
  23   2.0000      -6.571815      -178.8282
  24   2.0000      -1.449304       -39.4376
  25   2.0000      -1.413490       -38.4630
  26   2.0000      -1.358117       -36.9562
  27   2.0000      -1.338544       -36.4236
  28   2.0000      -1.236663       -33.6513
  29   2.0000      -1.153919       -31.3997
  30   2.0000      -1.119565       -30.4649
  31   2.0000      -1.042554       -28.3694
  32   2.0000      -1.032207       -28.0878
  33   2.0000      -1.011439       -27.5227
  34   2.0000      -0.997212       -27.1355
  35   2.0000      -0.982503       -26.7353
  36   2.0000      -0.921899       -25.0861
  37   2.0000      -0.890457       -24.2306
  38   2.0000      -0.847756       -23.0686
  39   2.0000      -0.837004       -22.7760
  40   2.0000      -0.830054       -22.5869
  41   2.0000      -0.821142       -22.3444
  42   2.0000      -0.746890       -20.3239
  43   2.0000      -0.729794       -19.8587
  44   2.0000      -0.726324       -19.7643
  45   2.0000      -0.692332       -18.8393
  46   2.0000      -0.684972       -18.6390
  47   2.0000      -0.680753       -18.5242
  48   2.0000      -0.671094       -18.2614
  49   2.0000      -0.665050       -18.0969
  50   2.0000      -0.645791       -17.5729
  51   2.0000      -0.642663       -17.4877
  52   2.0000      -0.634588       -17.2680
  53   2.0000      -0.603688       -16.4272
  54   2.0000      -0.601323       -16.3628
  55   2.0000      -0.597507       -16.2590
  56   2.0000      -0.595554       -16.2059
  57   2.0000      -0.584731       -15.9114
  58   2.0000      -0.574212       -15.6251
  59   2.0000      -0.570450       -15.5227
  60   2.0000      -0.560316       -15.2470
  61   2.0000      -0.546215       -14.8633
  62   2.0000      -0.535529       -14.5725
  63   2.0000      -0.519847       -14.1457
  64   2.0000      -0.518808       -14.1175
  65   2.0000      -0.510651       -13.8955
  66   2.0000      -0.500446       -13.6178
  67   2.0000      -0.495748       -13.4900
  68   2.0000      -0.479905       -13.0589
  69   2.0000      -0.463121       -12.6022
  70   2.0000      -0.456827       -12.4309
  71   2.0000      -0.446922       -12.1614
  72   2.0000      -0.353115        -9.6088
  73   2.0000      -0.345770        -9.4089
  74   2.0000      -0.327038        -8.8992
  75   2.0000      -0.316961        -8.6249
  76   2.0000      -0.314604        -8.5608
  77   0.0000       0.074577         2.0293
  78   0.0000       0.108879         2.9627
  79   0.0000       0.121028         3.2934
  80   0.0000       0.134229         3.6526
  81   0.0000       0.138894         3.7795

MULLIKEN ATOMIC CHARGES
-----------------------
   0 C :   -0.283900
   1 C :    0.047478
   2 O :   -0.370374
   3 C :    0.440751
   4 O :   -0.412920
   5 C :   -0.156774
   6 C :    0.137027
   7 C :   -0.283327
   8 N :   -0.123218
   9 C :    0.202272
  10 S :   -0.440867
  11 N :   -0.199682
  12 C :    0.045005
  13 C :    0.051511
  14 C :   -0.166185
  15 C :   -0.133264
  16 C :   -0.280554
  17 C :    0.311806
  18 O :   -0.358513
  19 C :   -0.274630
  20 H :    0.096146
  21 H :    0.091200
  22 H :    0.120707
  23 H :    0.099054
  24 H :    0.091756
  25 H :    0.124154
  26 H :    0.102435
  27 H :    0.125541
  28 H :    0.196840
  29 H :    0.193867
  30 H :    0.155076
  31 H :    0.155437
  32 H :    0.160100
  33 H :    0.129229
  34 H :    0.240323
  35 H :    0.166492
Sum of atomic charges:   -0.0000000

LOEWDIN ATOMIC CHARGES
----------------------
   0 C :    0.104032
   1 C :   -0.012635
   2 O :    0.288920
   3 C :   -0.410952
   4 O :    0.125413
   5 C :   -0.091867
   6 C :   -0.071300
   7 C :    0.125245
   8 N :    0.404114
   9 C :   -0.458197
  10 S :   -0.037233
  11 N :    0.397328
  12 C :   -0.045809
  13 C :   -0.039567
  14 C :    0.020763
  15 C :    0.040598
  16 C :   -0.002534
  17 C :   -0.193330
  18 O :    0.393274
  19 C :    0.028449
  20 H :   -0.026033
  21 H :   -0.030406
  22 H :   -0.026853
  23 H :   -0.024357
  24 H :   -0.028807
  25 H :   -0.008477
  26 H :   -0.020318
  27 H :   -0.009945
  28 H :   -0.059020
  29 H :   -0.064012
  30 H :   -0.005190
  31 H :   -0.025165
  32 H :   -0.020958
  33 H :   -0.036114
  34 H :   -0.154597
  35 H :   -0.024461

  Mayer bond orders larger than 0.100000
B(  0-C ,  1-C ) :   0.9741 B(  0-C , 20-H ) :   0.9758 B(  0-C , 21-H ) :   0.9758
B(  0-C , 22-H ) :   0.9716 B(  1-C ,  2-O ) :   0.9059 B(  1-C , 23-H ) :   0.9833
B(  1-C , 24-H ) :   0.9758 B(  2-O ,  3-C ) :   1.0889 B(  3-C ,  4-O ) :   1.9944
B(  3-C ,  5-C ) :   1.0438 B(  5-C ,  6-C ) :   1.6639 B(  5-C , 12-C ) :   0.9631
B(  6-C ,  7-C ) :   0.9536 B(  6-C ,  8-N ) :   1.1392 B(  7-C , 25-H ) :   0.9689
B(  7-C , 26-H ) :   0.9896 B(  7-C , 27-H ) :   0.9633 B(  8-N ,  9-C ) :   1.1835
B(  8-N , 28-H ) :   0.9496 B(  9-C , 10-S ) :   1.6095 B(  9-C , 11-N ) :   1.3013
B( 11-N , 12-C ) :   0.9924 B( 11-N , 29-H ) :   0.9517 B( 12-C , 13-C ) :   0.9455
B( 12-C , 30-H ) :   0.9988 B( 13-C , 14-C ) :   1.3767 B( 13-C , 19-C ) :   1.3685
B( 14-C , 15-C ) :   1.3941 B( 14-C , 31-H ) :   0.9644 B( 15-C , 16-C ) :   1.3632
B( 15-C , 32-H ) :   0.9711 B( 16-C , 17-C ) :   1.3310 B( 16-C , 33-H ) :   0.9856
B( 17-C , 18-O ) :   1.1090 B( 17-C , 19-C ) :   1.3768 B( 18-O , 34-H ) :   0.9803
B( 19-C , 35-H ) :   0.9581

MP2 TOTAL ENERGY:    -1274.329888640 Eh
FINAL SINGLE POINT ENERGY     -1274.329888640227

DIPOLE MOMENT
-------------
                                X             Y             Z
Electronic contribution:     10.32028      10.59101       9.23939
Nuclear contribution   :    -11.91990     -11.77635      -9.98820
                        -----------------------------------------
Total Dipole Moment    :     -1.59961      -1.18535      -0.74882
                        -----------------------------------------
Magnitude (a.u.)       :      2.12709
Magnitude (Debye)      :      5.40665

Rotational constants in cm-1:     0.011265     0.009000     0.006129
Rotational constants in MHz :   337.726161   269.806384   183.751592

                             ****ORCA TERMINATED NORMALLY****
TOTAL RUN TIME: 0 days 1 hours 53 minutes 39 seconds 587 msec
