                         Program Version 5.0.0 -  RELEASE  -
|  1> ! ri-mp2 cc-pvtz cc-pvtz/c TightSCF NoKeepInts
|  2>
|  3> %scf
|  4>   MaxCore 4096
|  5> end
|  6> *xyz  0  1
|  7>     C       15.5803388   13.8028796   15.1281368
|  8>     C       15.5949546   14.3165694   16.5784546
|  9>     O       16.6984213   15.2287722   16.7139161
| 10>     C       16.4625112   16.5749074   16.6950721
| 11>     O       15.4864144   17.0544120   16.1433497
| 12>     C       17.3996910   17.3404934   17.5880244
| 13>     C       17.3557678   18.6924455   17.6995663
| 14>     C       16.4121233   19.6401876   16.9904945
| 15>     N       18.2764633   19.3591717   18.5134912
| 16>     C       19.3292868   18.7643547   19.1560157
| 17>     S       20.4326488   19.6398359   20.0231896
| 18>     N       19.4254416   17.4010503   19.0408987
| 19>     C       18.4240630   16.5297109   18.3992565
| 20>     C       17.7522225   15.6546917   19.4540296
| 21>     C       17.9736941   14.2646945   19.4737188
| 22>     C       17.3523514   13.4551734   20.4394989
| 23>     C       16.5050404   14.0402752   21.3958780
| 24>     C       16.2863306   15.4247174   21.3824339
| 25>     O       15.4698367   15.9927226   22.3052727
| 26>     C       16.9053763   16.2275802   20.4194817
| 27>     H       15.4105683   14.6313577   14.4286230
| 28>     H       14.7784108   13.0680380   14.9882773
| 29>     H       16.5347445   13.3248823   14.8753200
| 30>     H       14.6383775   14.7926257   16.8351777
| 31>     H       15.7434101   13.4665549   17.2568884
| 32>     H       15.3738280   19.4405645   17.2851467
| 33>     H       16.4745142   19.5064743   15.9030360
| 34>     H       16.6211958   20.6946687   17.2053593
| 35>     H       18.2222366   20.3607430   18.6083496
| 36>     H       20.1910556   16.9872586   19.5570971
| 37>     H       18.9616584   15.8766088   17.6974319
| 38>     H       18.6246971   13.8093903   18.7321081
| 39>     H       17.5290304   12.3809799   20.4457295
| 40>     H       16.0237179   13.4196460   22.1445455
| 41>     H       15.1682074   15.2898868   22.9001351
| 42>     H       16.7283696   17.2976749   20.4305951
| 43> *
| 44>
| 45>                          ****END OF INPUT****

CARTESIAN COORDINATES (ANGSTROEM)
---------------------------------
  C     15.580339   13.802880   15.128137
  C     15.594955   14.316569   16.578455
  O     16.698421   15.228772   16.713916
  C     16.462511   16.574907   16.695072
  O     15.486414   17.054412   16.143350
  C     17.399691   17.340493   17.588024
  C     17.355768   18.692445   17.699566
  C     16.412123   19.640188   16.990495
  N     18.276463   19.359172   18.513491
  C     19.329287   18.764355   19.156016
  S     20.432649   19.639836   20.023190
  N     19.425442   17.401050   19.040899
  C     18.424063   16.529711   18.399256
  C     17.752222   15.654692   19.454030
  C     17.973694   14.264694   19.473719
  C     17.352351   13.455173   20.439499
  C     16.505040   14.040275   21.395878
  C     16.286331   15.424717   21.382434
  O     15.469837   15.992723   22.305273
  C     16.905376   16.227580   20.419482
  H     15.410568   14.631358   14.428623
  H     14.778411   13.068038   14.988277
  H     16.534744   13.324882   14.875320
  H     14.638378   14.792626   16.835178
  H     15.743410   13.466555   17.256888
  H     15.373828   19.440564   17.285147
  H     16.474514   19.506474   15.903036
  H     16.621196   20.694669   17.205359
  H     18.222237   20.360743   18.608350
  H     20.191056   16.987259   19.557097
  H     18.961658   15.876609   17.697432
  H     18.624697   13.809390   18.732108
  H     17.529030   12.380980   20.445729
  H     16.023718   13.419646   22.144545
  H     15.168207   15.289887   22.900135
  H     16.728370   17.297675   20.430595

 Total Charge           Charge          ....    0
 Multiplicity           Mult            ....    1
 Number of Electrons    NEL             ....  154
 Basis Dimension        Dim             ....  828

ORBITAL ENERGIES
----------------

  NO   OCC          E(Eh)            E(eV)
   0   2.0000     -91.889134     -2500.4305
   1   2.0000     -20.597822      -560.4952
   2   2.0000     -20.596930      -560.4710
   3   2.0000     -20.543272      -559.0109
   4   2.0000     -15.629379      -425.2970
   5   2.0000     -15.608490      -424.7286
   6   2.0000     -11.395241      -310.0803
   7   2.0000     -11.384255      -309.7813
   8   2.0000     -11.336145      -308.4722
   9   2.0000     -11.314200      -307.8750
  10   2.0000     -11.309376      -307.7438
  11   2.0000     -11.295722      -307.3722
  12   2.0000     -11.260101      -306.4029
  13   2.0000     -11.258989      -306.3727
  14   2.0000     -11.255734      -306.2841
  15   2.0000     -11.252413      -306.1937
  16   2.0000     -11.243410      -305.9487
  17   2.0000     -11.238783      -305.8228
  18   2.0000     -11.238553      -305.8166
  19   2.0000     -11.223258      -305.4004
  20   2.0000      -8.894192      -242.0233
  21   2.0000      -6.575766      -178.9357
  22   2.0000      -6.573762      -178.8812
  23   2.0000      -6.573174      -178.8652
  24   2.0000      -1.451336       -39.4929
  25   2.0000      -1.416576       -38.5470
  26   2.0000      -1.354781       -36.8655
  27   2.0000      -1.340309       -36.4717
  28   2.0000      -1.238776       -33.7088
  29   2.0000      -1.157966       -31.5098
  30   2.0000      -1.120612       -30.4934
  31   2.0000      -1.043068       -28.3833
  32   2.0000      -1.036371       -28.2011
  33   2.0000      -1.015505       -27.6333
  34   2.0000      -0.995520       -27.0895
  35   2.0000      -0.984189       -26.7812
  36   2.0000      -0.922838       -25.1117
  37   2.0000      -0.889285       -24.1987
  38   2.0000      -0.847343       -23.0574
  39   2.0000      -0.838175       -22.8079
  40   2.0000      -0.834429       -22.7060
  41   2.0000      -0.819865       -22.3097
  42   2.0000      -0.760214       -20.6865
  43   2.0000      -0.732624       -19.9357
  44   2.0000      -0.723438       -19.6857
  45   2.0000      -0.695987       -18.9388
  46   2.0000      -0.688537       -18.7360
  47   2.0000      -0.680089       -18.5062
  48   2.0000      -0.671524       -18.2731
  49   2.0000      -0.653622       -17.7860
  50   2.0000      -0.646635       -17.5958
  51   2.0000      -0.644570       -17.5396
  52   2.0000      -0.628843       -17.1117
  53   2.0000      -0.613859       -16.7040
  54   2.0000      -0.607226       -16.5235
  55   2.0000      -0.599798       -16.3213
  56   2.0000      -0.599024       -16.3003
  57   2.0000      -0.579413       -15.7666
  58   2.0000      -0.572006       -15.5651
  59   2.0000      -0.569708       -15.5025
  60   2.0000      -0.564054       -15.3487
  61   2.0000      -0.539475       -14.6798
  62   2.0000      -0.534471       -14.5437
  63   2.0000      -0.525328       -14.2949
  64   2.0000      -0.524081       -14.2610
  65   2.0000      -0.513806       -13.9814
  66   2.0000      -0.501402       -13.6438
  67   2.0000      -0.496979       -13.5235
  68   2.0000      -0.487070       -13.2539
  69   2.0000      -0.464273       -12.6335
  70   2.0000      -0.454087       -12.3563
  71   2.0000      -0.448440       -12.2027
  72   2.0000      -0.354452        -9.6451
  73   2.0000      -0.349760        -9.5175
  74   2.0000      -0.328502        -8.9390
  75   2.0000      -0.321852        -8.7580
  76   2.0000      -0.316322        -8.6076
  77   0.0000       0.074994         2.0407
  78   0.0000       0.105738         2.8773
  79   0.0000       0.125082         3.4037
  80   0.0000       0.132238         3.5984
  81   0.0000       0.137372         3.7381

MULLIKEN ATOMIC CHARGES
-----------------------
   0 C :   -0.273645
   1 C :    0.038724
   2 O :   -0.360628
   3 C :    0.455469
   4 O :   -0.430767
   5 C :   -0.217438
   6 C :    0.154172
   7 C :   -0.272947
   8 N :   -0.121687
   9 C :    0.211312
  10 S :   -0.439495
  11 N :   -0.204791
  12 C :    0.058509
  13 C :    0.066347
  14 C :   -0.193618
  15 C :   -0.128999
  16 C :   -0.280083
  17 C :    0.316182
  18 O :   -0.356367
  19 C :   -0.268801
  20 H :    0.108431
  21 H :    0.090915
  22 H :    0.090808
  23 H :    0.100004
  24 H :    0.107985
  25 H :    0.132486
  26 H :    0.130192
  27 H :    0.095379
  28 H :    0.197522
  29 H :    0.194739
  30 H :    0.150555
  31 H :    0.151456
  32 H :    0.161953
  33 H :    0.130314
  34 H :    0.240770
  35 H :    0.165044
Sum of atomic charges:   -0.0000000

LOEWDIN ATOMIC CHARGES
----------------------
   0 C :    0.104563
   1 C :   -0.015475
   2 O :    0.307564
   3 C :   -0.415146
   4 O :    0.098299
   5 C :   -0.095160
   6 C :   -0.058838
   7 C :    0.131609
   8 N :    0.406621
   9 C :   -0.456386
  10 S :   -0.035102
  11 N :    0.396397
  12 C :   -0.052317
  13 C :   -0.038283
  14 C :    0.014606
  15 C :    0.038360
  16 C :   -0.002128
  17 C :   -0.189402
  18 O :    0.395333
  19 C :    0.031284
  20 H :   -0.023996
  21 H :   -0.028089
  22 H :   -0.029495
  23 H :   -0.027708
  24 H :   -0.028181
  25 H :   -0.004532
  26 H :   -0.004041
  27 H :   -0.023289
  28 H :   -0.057520
  29 H :   -0.064589
  30 H :   -0.010487
  31 H :   -0.029994
  32 H :   -0.021399
  33 H :   -0.035573
  34 H :   -0.153823
  35 H :   -0.023683

  Mayer bond orders larger than 0.100000
B(  0-C ,  1-C ) :   0.9752 B(  0-C , 20-H ) :   0.9771 B(  0-C , 21-H ) :   0.9768
B(  0-C , 22-H ) :   0.9779 B(  1-C ,  2-O ) :   0.8826 B(  1-C , 23-H ) :   0.9732
B(  1-C , 24-H ) :   0.9781 B(  2-O ,  3-C ) :   1.1504 B(  3-C ,  4-O ) :   1.9665
B(  3-C ,  5-C ) :   1.0657 B(  5-C ,  6-C ) :   1.6537 B(  5-C , 12-C ) :   0.9723
B(  6-C ,  7-C ) :   0.9671 B(  6-C ,  8-N ) :   1.1625 B(  7-C , 25-H ) :   0.9596
B(  7-C , 26-H ) :   0.9609 B(  7-C , 27-H ) :   0.9906 B(  8-N ,  9-C ) :   1.1828
B(  8-N , 28-H ) :   0.9478 B(  9-C , 10-S ) :   1.6078 B(  9-C , 11-N ) :   1.3052
B( 11-N , 12-C ) :   0.9854 B( 11-N , 29-H ) :   0.9516 B( 12-C , 13-C ) :   0.9362
B( 12-C , 30-H ) :   1.0025 B( 13-C , 14-C ) :   1.3519 B( 13-C , 19-C ) :   1.3825
B( 14-C , 15-C ) :   1.3884 B( 14-C , 31-H ) :   0.9720 B( 15-C , 16-C ) :   1.3636
B( 15-C , 32-H ) :   0.9703 B( 16-C , 17-C ) :   1.3312 B( 16-C , 33-H ) :   0.9849
B( 17-C , 18-O ) :   1.1104 B( 17-C , 19-C ) :   1.3720 B( 18-O , 34-H ) :   0.9798
B( 19-C , 35-H ) :   0.9583

MP2 TOTAL ENERGY:    -1274.346492612 Eh
FINAL SINGLE POINT ENERGY     -1274.346492612262

DIPOLE MOMENT
-------------
                                X             Y             Z
Electronic contribution:      9.83101      10.03969       9.47878
Nuclear contribution   :    -10.93742     -11.64875      -9.73545
                        -----------------------------------------
Total Dipole Moment    :     -1.10642      -1.60905      -0.25667
                        -----------------------------------------
Magnitude (a.u.)       :      1.96954
Magnitude (Debye)      :      5.00617

Rotational constants in cm-1:     0.011453     0.008648     0.006079
Rotational constants in MHz :   343.357189   259.273864   182.237026

                             ****ORCA TERMINATED NORMALLY****
TOTAL RUN TIME: 0 days 2 hours 8 minutes 51 seconds 517 msec
