                         Program Version 4.2.0 -  RELEASE  -
|  1> ! ri-mp2 cc-pvtz cc-pvtz/c TightSCF  NoKeepInts
|  2>
|  3> %scf
|  4>   MaxCore 4096
|  5> end
|  6> *xyz  0  1
|  7>     C       15.1795417   14.2828054   14.5384808
|  8>     C       15.1908064   14.6883604   16.0220896
|  9>     O       16.1443663   15.7564241   16.1720745
| 10>     C       17.2792193   15.5590294   16.9052121
| 11>     O       17.7202707   14.4444053   17.1335610
| 12>     C       17.7541326   16.7753566   17.6480444
| 13>     C       17.4285701   18.0569944   17.3338959
| 14>     C       16.5582940   18.5473280   16.1946510
| 15>     N       17.9830530   19.1130228   18.0649109
| 16>     C       18.9716735   18.9825249   19.0041252
| 17>     S       19.6651843   20.2977333   19.7286161
| 18>     N       19.3566562   17.7024448   19.3115989
| 19>     C       18.6810367   16.4816951   18.8334190
| 20>     C       17.9182011   15.8125678   19.9740075
| 21>     C       18.1559766   14.4632646   20.2949090
| 22>     C       17.4551587   13.8412099   21.3417279
| 23>     C       16.5070758   14.5740064   22.0757178
| 24>     C       16.2642744   15.9169918   21.7571236
| 25>     O       15.3448723   16.6255994   22.4599436
| 26>     C       16.9629757   16.5332167   20.7142505
| 27>     H       14.9282463   15.1406085   13.9025323
| 28>     H       14.4393309   13.4932213   14.3610266
| 29>     H       16.1640333   13.9029528   14.2371887
| 30>     H       14.1932829   15.0465199   16.3071434
| 31>     H       15.4316714   13.8215820   16.6529216
| 32>     H       16.8563077   18.0806962   15.2473804
| 33>     H       16.6211866   19.6327340   16.0505343
| 34>     H       15.5054169   18.2987381   16.3772336
| 35>     H       17.7140126   20.0605320   17.8532498
| 36>     H       20.0652760   17.6316277   20.0304653
| 37>     H       19.4591396   15.7866691   18.4859328
| 38>     H       18.8763573   13.8893439   19.7170069
| 39>     H       17.6444856   12.7951194   21.5755397
| 40>     H       15.9623773   14.0970109   22.8836073
| 41>     H       15.0024926   16.0450985   23.1560484
| 42>     H       16.7620437   17.5745647   20.4878300
| 43> *
| 44>
| 45>                          ****END OF INPUT****

CARTESIAN COORDINATES (ANGSTROEM)
---------------------------------
  C     15.179542   14.282805   14.538481
  C     15.190806   14.688360   16.022090
  O     16.144366   15.756424   16.172075
  C     17.279219   15.559029   16.905212
  O     17.720271   14.444405   17.133561
  C     17.754133   16.775357   17.648044
  C     17.428570   18.056994   17.333896
  C     16.558294   18.547328   16.194651
  N     17.983053   19.113023   18.064911
  C     18.971674   18.982525   19.004125
  S     19.665184   20.297733   19.728616
  N     19.356656   17.702445   19.311599
  C     18.681037   16.481695   18.833419
  C     17.918201   15.812568   19.974007
  C     18.155977   14.463265   20.294909
  C     17.455159   13.841210   21.341728
  C     16.507076   14.574006   22.075718
  C     16.264274   15.916992   21.757124
  O     15.344872   16.625599   22.459944
  C     16.962976   16.533217   20.714250
  H     14.928246   15.140608   13.902532
  H     14.439331   13.493221   14.361027
  H     16.164033   13.902953   14.237189
  H     14.193283   15.046520   16.307143
  H     15.431671   13.821582   16.652922
  H     16.856308   18.080696   15.247380
  H     16.621187   19.632734   16.050534
  H     15.505417   18.298738   16.377234
  H     17.714013   20.060532   17.853250
  H     20.065276   17.631628   20.030465
  H     19.459140   15.786669   18.485933
  H     18.876357   13.889344   19.717007
  H     17.644486   12.795119   21.575540
  H     15.962377   14.097011   22.883607
  H     15.002493   16.045099   23.156048
  H     16.762044   17.574565   20.487830

 Total Charge           Charge          ....    0
 Multiplicity           Mult            ....    1
 Number of Electrons    NEL             ....  154
 Basis Dimension        Dim             ....  828

ORBITAL ENERGIES
----------------

  NO   OCC          E(Eh)            E(eV)
   0   2.0000     -91.888064     -2500.4013
   1   2.0000     -20.600561      -560.5698
   2   2.0000     -20.591797      -560.3313
   3   2.0000     -20.547231      -559.1186
   4   2.0000     -15.628376      -425.2697
   5   2.0000     -15.606753      -424.6813
   6   2.0000     -11.396571      -310.1165
   7   2.0000     -11.383002      -309.7472
   8   2.0000     -11.336017      -308.4687
   9   2.0000     -11.307644      -307.6966
  10   2.0000     -11.305765      -307.6455
  11   2.0000     -11.299293      -307.4694
  12   2.0000     -11.260515      -306.4142
  13   2.0000     -11.259077      -306.3751
  14   2.0000     -11.253587      -306.2257
  15   2.0000     -11.247809      -306.0685
  16   2.0000     -11.237435      -305.7861
  17   2.0000     -11.233544      -305.6803
  18   2.0000     -11.230567      -305.5993
  19   2.0000     -11.229023      -305.5573
  20   2.0000      -8.893130      -241.9944
  21   2.0000      -6.574707      -178.9069
  22   2.0000      -6.572700      -178.8523
  23   2.0000      -6.572114      -178.8363
  24   2.0000      -1.453726       -39.5579
  25   2.0000      -1.411530       -38.4097
  26   2.0000      -1.357530       -36.9403
  27   2.0000      -1.339317       -36.4447
  28   2.0000      -1.236965       -33.6595
  29   2.0000      -1.152245       -31.3542
  30   2.0000      -1.119615       -30.4663
  31   2.0000      -1.043284       -28.3892
  32   2.0000      -1.035789       -28.1852
  33   2.0000      -1.009612       -27.4729
  34   2.0000      -0.997491       -27.1431
  35   2.0000      -0.982928       -26.7468
  36   2.0000      -0.921216       -25.0676
  37   2.0000      -0.889168       -24.1955
  38   2.0000      -0.847497       -23.0616
  39   2.0000      -0.835445       -22.7336
  40   2.0000      -0.828004       -22.5311
  41   2.0000      -0.819238       -22.2926
  42   2.0000      -0.759062       -20.6551
  43   2.0000      -0.735681       -20.0189
  44   2.0000      -0.725088       -19.7306
  45   2.0000      -0.690594       -18.7920
  46   2.0000      -0.685133       -18.6434
  47   2.0000      -0.680134       -18.5074
  48   2.0000      -0.672247       -18.2928
  49   2.0000      -0.655786       -17.8448
  50   2.0000      -0.647152       -17.6099
  51   2.0000      -0.641632       -17.4597
  52   2.0000      -0.628353       -17.0984
  53   2.0000      -0.616388       -16.7728
  54   2.0000      -0.600520       -16.3410
  55   2.0000      -0.599948       -16.3254
  56   2.0000      -0.595079       -16.1929
  57   2.0000      -0.582906       -15.8617
  58   2.0000      -0.573289       -15.6000
  59   2.0000      -0.564113       -15.3503
  60   2.0000      -0.561275       -15.2731
  61   2.0000      -0.545945       -14.8559
  62   2.0000      -0.533609       -14.5202
  63   2.0000      -0.529399       -14.4057
  64   2.0000      -0.517309       -14.0767
  65   2.0000      -0.509803       -13.8725
  66   2.0000      -0.500685       -13.6243
  67   2.0000      -0.495491       -13.4830
  68   2.0000      -0.480601       -13.0778
  69   2.0000      -0.462579       -12.5874
  70   2.0000      -0.458583       -12.4787
  71   2.0000      -0.454279       -12.3616
  72   2.0000      -0.354124        -9.6362
  73   2.0000      -0.344101        -9.3635
  74   2.0000      -0.327202        -8.9036
  75   2.0000      -0.315659        -8.5895
  76   2.0000      -0.313944        -8.5428
  77   0.0000       0.075388         2.0514
  78   0.0000       0.112560         3.0629
  79   0.0000       0.121106         3.2955
  80   0.0000       0.135683         3.6921
  81   0.0000       0.139771         3.8034

MULLIKEN ATOMIC CHARGES
-----------------------
   0 C :   -0.270144
   1 C :    0.030646
   2 O :   -0.351906
   3 C :    0.447711
   4 O :   -0.426154
   5 C :   -0.177337
   6 C :    0.144593
   7 C :   -0.284569
   8 N :   -0.122752
   9 C :    0.201308
  10 S :   -0.439396
  11 N :   -0.197366
  12 C :    0.037567
  13 C :    0.055625
  14 C :   -0.162106
  15 C :   -0.134105
  16 C :   -0.279057
  17 C :    0.311386
  18 O :   -0.359060
  19 C :   -0.271951
  20 H :    0.090354
  21 H :    0.092339
  22 H :    0.103481
  23 H :    0.100493
  24 H :    0.114174
  25 H :    0.126551
  26 H :    0.102556
  27 H :    0.127034
  28 H :    0.196841
  29 H :    0.193721
  30 H :    0.153737
  31 H :    0.153779
  32 H :    0.159193
  33 H :    0.128089
  34 H :    0.240062
  35 H :    0.164661
Sum of atomic charges:   -0.0000000

LOEWDIN ATOMIC CHARGES
----------------------
   0 C :    0.104191
   1 C :   -0.012837
   2 O :    0.305460
   3 C :   -0.414434
   4 O :    0.105322
   5 C :   -0.091354
   6 C :   -0.066690
   7 C :    0.125006
   8 N :    0.404752
   9 C :   -0.458812
  10 S :   -0.036076
  11 N :    0.397759
  12 C :   -0.046279
  13 C :   -0.038970
  14 C :    0.021817
  15 C :    0.040697
  16 C :   -0.002352
  17 C :   -0.192634
  18 O :    0.393006
  19 C :    0.028490
  20 H :   -0.029687
  21 H :   -0.026635
  22 H :   -0.024135
  23 H :   -0.029654
  24 H :   -0.026294
  25 H :   -0.008552
  26 H :   -0.020829
  27 H :   -0.009676
  28 H :   -0.059103
  29 H :   -0.063709
  30 H :   -0.004967
  31 H :   -0.025287
  32 H :   -0.021236
  33 H :   -0.036397
  34 H :   -0.154883
  35 H :   -0.025020

  Mayer bond orders larger than 0.100000
B(  0-C ,  1-C ) :   0.9713 B(  0-C , 20-H ) :   0.9790 B(  0-C , 21-H ) :   0.9760
B(  0-C , 22-H ) :   0.9778 B(  1-C ,  2-O ) :   0.8865 B(  1-C , 23-H ) :   0.9819
B(  1-C , 24-H ) :   0.9725 B(  2-O ,  3-C ) :   1.1416 B(  3-C ,  4-O ) :   1.9839
B(  3-C ,  5-C ) :   1.0524 B(  5-C ,  6-C ) :   1.6521 B(  5-C , 12-C ) :   0.9646
B(  6-C ,  7-C ) :   0.9539 B(  6-C ,  8-N ) :   1.1451 B(  7-C , 25-H ) :   0.9668
B(  7-C , 26-H ) :   0.9910 B(  7-C , 27-H ) :   0.9636 B(  8-N ,  9-C ) :   1.1795
B(  8-N , 28-H ) :   0.9489 B(  9-C , 10-S ) :   1.6106 B(  9-C , 11-N ) :   1.3037
B( 11-N , 12-C ) :   0.9918 B( 11-N , 29-H ) :   0.9519 B( 12-C , 13-C ) :   0.9476
B( 12-C , 30-H ) :   0.9996 B( 13-C , 14-C ) :   1.3758 B( 13-C , 19-C ) :   1.3695
B( 14-C , 15-C ) :   1.3945 B( 14-C , 31-H ) :   0.9648 B( 15-C , 16-C ) :   1.3627
B( 15-C , 32-H ) :   0.9714 B( 16-C , 17-C ) :   1.3314 B( 16-C , 33-H ) :   0.9860
B( 17-C , 18-O ) :   1.1080 B( 17-C , 19-C ) :   1.3788 B( 18-O , 34-H ) :   0.9806
B( 19-C , 35-H ) :   0.9585

MP2 TOTAL ENERGY:    -1274.343239433 Eh
FINAL SINGLE POINT ENERGY     -1274.343239433028

DIPOLE MOMENT
-------------
                                X             Y             Z
Electronic contribution:     10.83089       9.46531      11.67360
Nuclear contribution   :    -12.48783     -10.64731     -12.48102
                        -----------------------------------------
Total Dipole Moment    :     -1.65694      -1.18200      -0.80742
                        -----------------------------------------
Magnitude (a.u.)       :      2.18964
Magnitude (Debye)      :      5.56561

Rotational constants in cm-1:     0.010525     0.008831     0.005786
Rotational constants in MHz :   315.541881   264.756751   173.464390

                             ****ORCA TERMINATED NORMALLY****
TOTAL RUN TIME: 0 days 1 hours 40 minutes 23 seconds 691 msec
