                         Program Version 4.2.0 -  RELEASE  -
|  1> ! ri-mp2 cc-pvtz cc-pvtz/c TightSCF  NoKeepInts
|  2>
|  3> %scf
|  4>   MaxCore 4096
|  5> end
|  6> *xyz  0  1
|  7>     C       14.8644030   15.1080676   16.2129903
|  8>     C       16.0429950   14.5396000   17.0270134
|  9>     O       17.2828920   14.8547060   16.3562315
| 10>     C       17.6780875   16.1455481   16.1381112
| 11>     O       17.6964046   16.5813014   15.0017565
| 12>     C       17.7519199   17.0291158   17.3511298
| 13>     C       17.3295291   18.3172341   17.3152738
| 14>     C       16.5714419   18.9980928   16.1963910
| 15>     N       17.6446643   19.1857865   18.3638582
| 16>     C       18.5802044   18.9206987   19.3291461
| 17>     S       19.0532137   20.0621389   20.4281215
| 18>     N       19.1125646   17.6552516   19.3312875
| 19>     C       18.5897222   16.5235798   18.5413876
| 20>     C       17.8678683   15.5586138   19.4739378
| 21>     C       18.2544126   14.2060797   19.5318620
| 22>     C       17.5897108   13.3084821   20.3840768
| 23>     C       16.5334652   13.7667436   21.1896978
| 24>     C       16.1508416   15.1140268   21.1415830
| 25>     O       15.1287214   15.5586794   21.9145075
| 26>     C       16.8119600   16.0050867   20.2904907
| 27>     H       14.8517769   16.2031979   16.2436723
| 28>     H       13.9112469   14.7490908   16.6198274
| 29>     H       14.9299096   14.7905376   15.1643406
| 30>     H       15.9914212   14.9493910   18.0362633
| 31>     H       15.9418020   13.4491482   17.1006121
| 32>     H       15.8190102   18.3300933   15.7614699
| 33>     H       17.2587444   19.2790645   15.3877270
| 34>     H       16.0505875   19.9034763   16.5294702
| 35>     H       17.2845704   20.1269833   18.3562937
| 36>     H       19.7873344   17.4838111   20.0660402
| 37>     H       19.4565558   15.9938341   18.1211879
| 38>     H       19.0676124   13.8457522   18.9065543
| 39>     H       17.8946818   12.2636720   20.4193720
| 40>     H       16.0179576   13.0767101   21.8499791
| 41>     H       14.8478415   14.8240216   22.4809625
| 42>     H       16.5009253   17.0443828   20.2713733
| 43> *
| 44>
| 45>                          ****END OF INPUT****

CARTESIAN COORDINATES (ANGSTROEM)
---------------------------------
  C     14.864403   15.108068   16.212990
  C     16.042995   14.539600   17.027013
  O     17.282892   14.854706   16.356231
  C     17.678088   16.145548   16.138111
  O     17.696405   16.581301   15.001756
  C     17.751920   17.029116   17.351130
  C     17.329529   18.317234   17.315274
  C     16.571442   18.998093   16.196391
  N     17.644664   19.185786   18.363858
  C     18.580204   18.920699   19.329146
  S     19.053214   20.062139   20.428121
  N     19.112565   17.655252   19.331287
  C     18.589722   16.523580   18.541388
  C     17.867868   15.558614   19.473938
  C     18.254413   14.206080   19.531862
  C     17.589711   13.308482   20.384077
  C     16.533465   13.766744   21.189698
  C     16.150842   15.114027   21.141583
  O     15.128721   15.558679   21.914507
  C     16.811960   16.005087   20.290491
  H     14.851777   16.203198   16.243672
  H     13.911247   14.749091   16.619827
  H     14.929910   14.790538   15.164341
  H     15.991421   14.949391   18.036263
  H     15.941802   13.449148   17.100612
  H     15.819010   18.330093   15.761470
  H     17.258744   19.279065   15.387727
  H     16.050587   19.903476   16.529470
  H     17.284570   20.126983   18.356294
  H     19.787334   17.483811   20.066040
  H     19.456556   15.993834   18.121188
  H     19.067612   13.845752   18.906554
  H     17.894682   12.263672   20.419372
  H     16.017958   13.076710   21.849979
  H     14.847841   14.824022   22.480962
  H     16.500925   17.044383   20.271373

 Total Charge           Charge          ....    0
 Multiplicity           Mult            ....    1
 Number of Electrons    NEL             ....  154
 Basis Dimension        Dim             ....  828

ORBITAL ENERGIES
----------------

  NO   OCC          E(Eh)            E(eV)
   0   2.0000     -91.891655     -2500.4990
   1   2.0000     -20.603037      -560.6371
   2   2.0000     -20.585097      -560.1490
   3   2.0000     -20.552218      -559.2543
   4   2.0000     -15.630125      -425.3173
   5   2.0000     -15.611462      -424.8095
   6   2.0000     -11.394155      -310.0507
   7   2.0000     -11.386561      -309.8441
   8   2.0000     -11.334837      -308.4366
   9   2.0000     -11.321431      -308.0718
  10   2.0000     -11.317282      -307.9589
  11   2.0000     -11.297420      -307.4184
  12   2.0000     -11.266418      -306.5748
  13   2.0000     -11.262473      -306.4675
  14   2.0000     -11.260571      -306.4157
  15   2.0000     -11.255829      -306.2867
  16   2.0000     -11.250703      -306.1472
  17   2.0000     -11.245179      -305.9969
  18   2.0000     -11.244854      -305.9880
  19   2.0000     -11.227607      -305.5187
  20   2.0000      -8.896684      -242.0911
  21   2.0000      -6.578251      -179.0033
  22   2.0000      -6.576253      -178.9489
  23   2.0000      -6.575658      -178.9328
  24   2.0000      -1.445159       -39.3248
  25   2.0000      -1.422793       -38.7162
  26   2.0000      -1.354590       -36.8603
  27   2.0000      -1.342459       -36.5302
  28   2.0000      -1.241695       -33.7882
  29   2.0000      -1.164024       -31.6747
  30   2.0000      -1.122890       -30.5554
  31   2.0000      -1.048702       -28.5366
  32   2.0000      -1.032753       -28.1026
  33   2.0000      -1.022510       -27.8239
  34   2.0000      -1.001893       -27.2629
  35   2.0000      -0.988230       -26.8911
  36   2.0000      -0.927802       -25.2468
  37   2.0000      -0.890266       -24.2254
  38   2.0000      -0.851281       -23.1645
  39   2.0000      -0.845400       -23.0045
  40   2.0000      -0.841159       -22.8891
  41   2.0000      -0.830836       -22.6082
  42   2.0000      -0.752650       -20.4806
  43   2.0000      -0.736989       -20.0545
  44   2.0000      -0.717850       -19.5337
  45   2.0000      -0.702083       -19.1047
  46   2.0000      -0.692393       -18.8410
  47   2.0000      -0.681842       -18.5539
  48   2.0000      -0.672695       -18.3049
  49   2.0000      -0.666405       -18.1338
  50   2.0000      -0.653209       -17.7747
  51   2.0000      -0.649360       -17.6700
  52   2.0000      -0.637144       -17.3376
  53   2.0000      -0.617163       -16.7939
  54   2.0000      -0.612459       -16.6659
  55   2.0000      -0.605519       -16.4770
  56   2.0000      -0.602640       -16.3987
  57   2.0000      -0.582866       -15.8606
  58   2.0000      -0.576881       -15.6977
  59   2.0000      -0.567344       -15.4382
  60   2.0000      -0.553035       -15.0488
  61   2.0000      -0.550300       -14.9744
  62   2.0000      -0.542085       -14.7509
  63   2.0000      -0.531055       -14.4508
  64   2.0000      -0.526563       -14.3285
  65   2.0000      -0.518705       -14.1147
  66   2.0000      -0.506494       -13.7824
  67   2.0000      -0.499869       -13.6021
  68   2.0000      -0.478060       -13.0087
  69   2.0000      -0.469369       -12.7722
  70   2.0000      -0.453103       -12.3296
  71   2.0000      -0.447111       -12.1665
  72   2.0000      -0.359236        -9.7753
  73   2.0000      -0.354578        -9.6486
  74   2.0000      -0.331751        -9.0274
  75   2.0000      -0.328845        -8.9483
  76   2.0000      -0.319376        -8.6907
  77   0.0000       0.073743         2.0066
  78   0.0000       0.100130         2.7247
  79   0.0000       0.119902         3.2627
  80   0.0000       0.126879         3.4525
  81   0.0000       0.130947         3.5632

MULLIKEN ATOMIC CHARGES
-----------------------
   0 C :   -0.286736
   1 C :    0.032569
   2 O :   -0.358774
   3 C :    0.415705
   4 O :   -0.371137
   5 C :   -0.223870
   6 C :    0.156900
   7 C :   -0.281087
   8 N :   -0.125905
   9 C :    0.196545
  10 S :   -0.433171
  11 N :   -0.189478
  12 C :    0.032891
  13 C :    0.033085
  14 C :   -0.172778
  15 C :   -0.135886
  16 C :   -0.272606
  17 C :    0.301388
  18 O :   -0.354553
  19 C :   -0.251341
  20 H :    0.081181
  21 H :    0.102853
  22 H :    0.115016
  23 H :    0.104606
  24 H :    0.118980
  25 H :    0.122495
  26 H :    0.143102
  27 H :    0.095185
  28 H :    0.198085
  29 H :    0.190899
  30 H :    0.151279
  31 H :    0.151701
  32 H :    0.164521
  33 H :    0.134799
  34 H :    0.241498
  35 H :    0.172038
Sum of atomic charges:    0.0000000

LOEWDIN ATOMIC CHARGES
----------------------
   0 C :    0.106457
   1 C :   -0.017862
   2 O :    0.287187
   3 C :   -0.423675
   4 O :    0.132596
   5 C :   -0.095141
   6 C :   -0.070225
   7 C :    0.129920
   8 N :    0.405709
   9 C :   -0.458620
  10 S :   -0.031635
  11 N :    0.396638
  12 C :   -0.051815
  13 C :   -0.044372
  14 C :    0.016873
  15 C :    0.043467
  16 C :    0.000187
  17 C :   -0.191588
  18 O :    0.397355
  19 C :    0.030408
  20 H :   -0.033967
  21 H :   -0.025409
  22 H :   -0.021419
  23 H :   -0.039533
  24 H :   -0.020992
  25 H :   -0.011650
  26 H :   -0.002657
  27 H :   -0.021754
  28 H :   -0.057406
  29 H :   -0.064613
  30 H :   -0.006340
  31 H :   -0.028106
  32 H :   -0.019029
  33 H :   -0.033841
  34 H :   -0.152451
  35 H :   -0.022698

  Mayer bond orders larger than 0.100000
B(  0-C ,  1-C ) :   0.9774 B(  0-C , 20-H ) :   0.9758 B(  0-C , 21-H ) :   0.9774
B(  0-C , 22-H ) :   0.9761 B(  1-C ,  2-O ) :   0.8859 B(  1-C , 23-H ) :   0.9595
B(  1-C , 24-H ) :   0.9806 B(  2-O ,  3-C ) :   1.1409 B(  3-C ,  4-O ) :   2.0919
B(  3-C ,  5-C ) :   0.9653 B(  5-C ,  6-C ) :   1.6874 B(  5-C , 12-C ) :   0.9625
B(  6-C ,  7-C ) :   0.9629 B(  6-C ,  8-N ) :   1.1347 B(  7-C , 25-H ) :   0.9718
B(  7-C , 26-H ) :   0.9558 B(  7-C , 27-H ) :   0.9847 B(  8-N ,  9-C ) :   1.1835
B(  8-N , 28-H ) :   0.9499 B(  9-C , 10-S ) :   1.6214 B(  9-C , 11-N ) :   1.2895
B( 11-N , 12-C ) :   0.9952 B( 11-N , 29-H ) :   0.9531 B( 12-C , 13-C ) :   0.9444
B( 12-C , 30-H ) :   1.0091 B( 13-C , 14-C ) :   1.3727 B( 13-C , 19-C ) :   1.3631
B( 14-C , 15-C ) :   1.3859 B( 14-C , 31-H ) :   0.9700 B( 15-C , 16-C ) :   1.3687
B( 15-C , 32-H ) :   0.9697 B( 16-C , 17-C ) :   1.3270 B( 16-C , 33-H ) :   0.9830
B( 17-C , 18-O ) :   1.1159 B( 17-C , 19-C ) :   1.3750 B( 18-O , 34-H ) :   0.9790
B( 19-C , 35-H ) :   0.9571

MP2 TOTAL ENERGY:    -1274.325995368 Eh
FINAL SINGLE POINT ENERGY     -1274.325995368303

DIPOLE MOMENT
-------------
                                X             Y             Z
Electronic contribution:     10.69083       7.28521       7.13996
Nuclear contribution   :    -11.97404      -8.90364      -6.77837
                        -----------------------------------------
Total Dipole Moment    :     -1.28320      -1.61843       0.36159
                        -----------------------------------------
Magnitude (a.u.)       :      2.09682
Magnitude (Debye)      :      5.32970

Rotational constants in cm-1:     0.011260     0.009904     0.006483
Rotational constants in MHz :   337.578222   296.902784   194.357612

                             ****ORCA TERMINATED NORMALLY****
TOTAL RUN TIME: 0 days 1 hours 56 minutes 39 seconds 664 msec
