                         Program Version 4.2.0 -  RELEASE  -
|  1> ! ri-mp2 cc-pvtz cc-pvtz/c TightSCF  NoKeepInts
|  2>
|  3> %scf
|  4>   MaxCore 4096
|  5> end
|  6> *xyz  0  1
|  7>     C       15.2651182   14.0408789   17.0789817
|  8>     C       16.4782547   14.0138712   16.1269760
|  9>     O       17.4108879   15.0445643   16.5048442
| 10>     C       17.0815935   16.3578437   16.3130154
| 11>     O       16.2775028   16.7035590   15.4637723
| 12>     C       17.6531543   17.2649538   17.3678305
| 13>     C       17.4321910   18.6043623   17.3724097
| 14>     C       16.6043230   19.4011700   16.3868498
| 15>     N       18.0321868   19.4105460   18.3444364
| 16>     C       18.9552446   18.9785930   19.2589511
| 17>     S       19.7038843   20.0183972   20.3050630
| 18>     N       19.2339424   17.6357530   19.2588167
| 19>     C       18.5179177   16.6210260   18.4645258
| 20>     C       17.7035660   15.7287009   19.3965693
| 21>     C       18.1082634   14.4036317   19.6452846
| 22>     C       17.3676356   13.5800310   20.5099238
| 23>     C       16.2135297   14.0856108   21.1324309
| 24>     C       15.8103242   15.4060786   20.8905505
| 25>     O       14.6968938   15.8972341   21.4903550
| 26>     C       16.5501122   16.2237417   20.0308111
| 27>     H       15.5844821   13.9117546   18.1195784
| 28>     H       14.5698330   13.2292853   16.8336399
| 29>     H       14.7181896   14.9885876   16.9988735
| 30>     H       16.9699847   13.0355889   16.2009140
| 31>     H       16.1490341   14.1512047   15.0878338
| 32>     H       16.9780080   19.2592931   15.3647862
| 33>     H       16.6092624   20.4777571   16.5935713
| 34>     H       15.5594625   19.0654798   16.4023424
| 35>     H       17.8422746   20.3999084   18.3563032
| 36>     H       19.8919296   17.3419870   19.9690991
| 37>     H       19.2760471   16.0002348   17.9666449
| 38>     H       18.9983374   14.0093103   19.1624162
| 39>     H       17.6883789   12.5563323   20.6951168
| 40>     H       15.6381882   13.4536242   21.8009464
| 41>     H       14.3503648   15.2053975   22.0735942
| 42>     H       16.2266969   17.2457072   19.8659421
| 43> *
| 44>
| 45>                          ****END OF INPUT****

CARTESIAN COORDINATES (ANGSTROEM)
---------------------------------
  C     15.265118   14.040879   17.078982
  C     16.478255   14.013871   16.126976
  O     17.410888   15.044564   16.504844
  C     17.081593   16.357844   16.313015
  O     16.277503   16.703559   15.463772
  C     17.653154   17.264954   17.367831
  C     17.432191   18.604362   17.372410
  C     16.604323   19.401170   16.386850
  N     18.032187   19.410546   18.344436
  C     18.955245   18.978593   19.258951
  S     19.703884   20.018397   20.305063
  N     19.233942   17.635753   19.258817
  C     18.517918   16.621026   18.464526
  C     17.703566   15.728701   19.396569
  C     18.108263   14.403632   19.645285
  C     17.367636   13.580031   20.509924
  C     16.213530   14.085611   21.132431
  C     15.810324   15.406079   20.890550
  O     14.696894   15.897234   21.490355
  C     16.550112   16.223742   20.030811
  H     15.584482   13.911755   18.119578
  H     14.569833   13.229285   16.833640
  H     14.718190   14.988588   16.998873
  H     16.969985   13.035589   16.200914
  H     16.149034   14.151205   15.087834
  H     16.978008   19.259293   15.364786
  H     16.609262   20.477757   16.593571
  H     15.559462   19.065480   16.402342
  H     17.842275   20.399908   18.356303
  H     19.891930   17.341987   19.969099
  H     19.276047   16.000235   17.966645
  H     18.998337   14.009310   19.162416
  H     17.688379   12.556332   20.695117
  H     15.638188   13.453624   21.800946
  H     14.350365   15.205397   22.073594
  H     16.226697   17.245707   19.865942

 Total Charge           Charge          ....    0
 Multiplicity           Mult            ....    1
 Number of Electrons    NEL             ....  154
 Basis Dimension        Dim             ....  828

ORBITAL ENERGIES
----------------

  NO   OCC          E(Eh)            E(eV)
   0   2.0000     -91.889326     -2500.4357
   1   2.0000     -20.598244      -560.5067
   2   2.0000     -20.596672      -560.4639
   3   2.0000     -20.542008      -558.9765
   4   2.0000     -15.629708      -425.3060
   5   2.0000     -15.608661      -424.7333
   6   2.0000     -11.394616      -310.0633
   7   2.0000     -11.384385      -309.7849
   8   2.0000     -11.336660      -308.4862
   9   2.0000     -11.315678      -307.9152
  10   2.0000     -11.309675      -307.7519
  11   2.0000     -11.295631      -307.3697
  12   2.0000     -11.261146      -306.4314
  13   2.0000     -11.259366      -306.3829
  14   2.0000     -11.257101      -306.3213
  15   2.0000     -11.252502      -306.1961
  16   2.0000     -11.244799      -305.9865
  17   2.0000     -11.239727      -305.8485
  18   2.0000     -11.239562      -305.8440
  19   2.0000     -11.220435      -305.3236
  20   2.0000      -8.894378      -242.0283
  21   2.0000      -6.575951      -178.9407
  22   2.0000      -6.573948      -178.8862
  23   2.0000      -6.573360      -178.8702
  24   2.0000      -1.449614       -39.4460
  25   2.0000      -1.417921       -38.5836
  26   2.0000      -1.353116       -36.8202
  27   2.0000      -1.340681       -36.4818
  28   2.0000      -1.239161       -33.7193
  29   2.0000      -1.159126       -31.5414
  30   2.0000      -1.120972       -30.5032
  31   2.0000      -1.043685       -28.4001
  32   2.0000      -1.033199       -28.1148
  33   2.0000      -1.016777       -27.6679
  34   2.0000      -0.996109       -27.1055
  35   2.0000      -0.984754       -26.7965
  36   2.0000      -0.923432       -25.1279
  37   2.0000      -0.894012       -24.3273
  38   2.0000      -0.847588       -23.0640
  39   2.0000      -0.839289       -22.8382
  40   2.0000      -0.835372       -22.7316
  41   2.0000      -0.814896       -22.1745
  42   2.0000      -0.753716       -20.5097
  43   2.0000      -0.733600       -19.9623
  44   2.0000      -0.723289       -19.6817
  45   2.0000      -0.697398       -18.9772
  46   2.0000      -0.689432       -18.7604
  47   2.0000      -0.677639       -18.4395
  48   2.0000      -0.670221       -18.2376
  49   2.0000      -0.663311       -18.0496
  50   2.0000      -0.648875       -17.6568
  51   2.0000      -0.642067       -17.4715
  52   2.0000      -0.633723       -17.2445
  53   2.0000      -0.609997       -16.5989
  54   2.0000      -0.608813       -16.5666
  55   2.0000      -0.601171       -16.3587
  56   2.0000      -0.599678       -16.3181
  57   2.0000      -0.578956       -15.7542
  58   2.0000      -0.571056       -15.5392
  59   2.0000      -0.566872       -15.4254
  60   2.0000      -0.556263       -15.1367
  61   2.0000      -0.543571       -14.7913
  62   2.0000      -0.532079       -14.4786
  63   2.0000      -0.531521       -14.4634
  64   2.0000      -0.526506       -14.3270
  65   2.0000      -0.513791       -13.9810
  66   2.0000      -0.502570       -13.6756
  67   2.0000      -0.500234       -13.6121
  68   2.0000      -0.478372       -13.0172
  69   2.0000      -0.465030       -12.6541
  70   2.0000      -0.453658       -12.3447
  71   2.0000      -0.445509       -12.1229
  72   2.0000      -0.355132        -9.6636
  73   2.0000      -0.351249        -9.5580
  74   2.0000      -0.328847        -8.9484
  75   2.0000      -0.323427        -8.8009
  76   2.0000      -0.316706        -8.6180
  77   0.0000       0.074575         2.0293
  78   0.0000       0.105252         2.8641
  79   0.0000       0.123896         3.3714
  80   0.0000       0.131492         3.5781
  81   0.0000       0.137114         3.7311

MULLIKEN ATOMIC CHARGES
-----------------------
   0 C :   -0.313181
   1 C :    0.023943
   2 O :   -0.367107
   3 C :    0.459661
   4 O :   -0.430849
   5 C :   -0.228436
   6 C :    0.154745
   7 C :   -0.270864
   8 N :   -0.122849
   9 C :    0.213149
  10 S :   -0.439574
  11 N :   -0.205641
  12 C :    0.060427
  13 C :    0.053846
  14 C :   -0.186604
  15 C :   -0.132660
  16 C :   -0.279443
  17 C :    0.308452
  18 O :   -0.357826
  19 C :   -0.247857
  20 H :    0.108419
  21 H :    0.105200
  22 H :    0.110421
  23 H :    0.112714
  24 H :    0.119479
  25 H :    0.131862
  26 H :    0.095299
  27 H :    0.131599
  28 H :    0.197759
  29 H :    0.194649
  30 H :    0.150695
  31 H :    0.151046
  32 H :    0.160703
  33 H :    0.131156
  34 H :    0.241105
  35 H :    0.166562
Sum of atomic charges:    0.0000000

LOEWDIN ATOMIC CHARGES
----------------------
   0 C :    0.105537
   1 C :   -0.017109
   2 O :    0.301233
   3 C :   -0.415551
   4 O :    0.098626
   5 C :   -0.095090
   6 C :   -0.058472
   7 C :    0.131587
   8 N :    0.406858
   9 C :   -0.455971
  10 S :   -0.034943
  11 N :    0.396556
  12 C :   -0.051989
  13 C :   -0.038120
  14 C :    0.012756
  15 C :    0.039268
  16 C :   -0.002690
  17 C :   -0.189888
  18 O :    0.396263
  19 C :    0.032173
  20 H :   -0.026451
  21 H :   -0.026998
  22 H :   -0.026587
  23 H :   -0.025143
  24 H :   -0.028213
  25 H :   -0.003616
  26 H :   -0.023336
  27 H :   -0.004875
  28 H :   -0.057474
  29 H :   -0.064787
  30 H :   -0.009767
  31 H :   -0.029815
  32 H :   -0.020925
  33 H :   -0.035361
  34 H :   -0.153485
  35 H :   -0.024202

  Mayer bond orders larger than 0.100000
B(  0-C ,  1-C ) :   0.9586 B(  0-C , 20-H ) :   0.9703 B(  0-C , 21-H ) :   0.9782
B(  0-C , 22-H ) :   0.9752 B(  1-C ,  2-O ) :   0.8882 B(  1-C , 23-H ) :   0.9842
B(  1-C , 24-H ) :   0.9818 B(  2-O ,  3-C ) :   1.1498 B(  3-C ,  4-O ) :   1.9764
B(  3-C ,  5-C ) :   1.0619 B(  5-C ,  6-C ) :   1.6536 B(  5-C , 12-C ) :   0.9726
B(  6-C ,  7-C ) :   0.9667 B(  6-C ,  8-N ) :   1.1633 B(  7-C , 25-H ) :   0.9599
B(  7-C , 26-H ) :   0.9903 B(  7-C , 27-H ) :   0.9606 B(  8-N ,  9-C ) :   1.1823
B(  8-N , 28-H ) :   0.9477 B(  9-C , 10-S ) :   1.6069 B(  9-C , 11-N ) :   1.3065
B( 11-N , 12-C ) :   0.9799 B( 11-N , 29-H ) :   0.9521 B( 12-C , 13-C ) :   0.9369
B( 12-C , 30-H ) :   1.0023 B( 13-C , 14-C ) :   1.3545 B( 13-C , 19-C ) :   1.3836
B( 14-C , 15-C ) :   1.3903 B( 14-C , 31-H ) :   0.9721 B( 15-C , 16-C ) :   1.3593
B( 15-C , 32-H ) :   0.9718 B( 16-C , 17-C ) :   1.3315 B( 16-C , 33-H ) :   0.9853
B( 17-C , 18-O ) :   1.1119 B( 17-C , 19-C ) :   1.3720 B( 18-O , 34-H ) :   0.9795
B( 19-C , 35-H ) :   0.9569

MP2 TOTAL ENERGY:    -1274.349380708 Eh
FINAL SINGLE POINT ENERGY     -1274.349380707712

DIPOLE MOMENT
-------------
                                X             Y             Z
Electronic contribution:      9.34657      10.25154       6.15705
Nuclear contribution   :    -10.22174     -11.98179      -6.40906
                        -----------------------------------------
Total Dipole Moment    :     -0.87517      -1.73024      -0.25201
                        -----------------------------------------
Magnitude (a.u.)       :      1.95529
Magnitude (Debye)      :      4.96996

Rotational constants in cm-1:     0.012459     0.008893     0.006438
Rotational constants in MHz :   373.514848   266.605504   192.997905

                             ****ORCA TERMINATED NORMALLY****
TOTAL RUN TIME: 0 days 1 hours 43 minutes 24 seconds 208 msec
