                         Program Version 4.2.0 -  RELEASE  -
|  1> ! ri-mp2 cc-pvtz cc-pvtz/c TightSCF  NoKeepInts
|  2>
|  3> %scf
|  4>   MaxCore 4096
|  5> end
|  6> *xyz  0  1
|  7>     C       14.5737625   14.4154244   16.8284074
|  8>     C       15.6040046   15.5553357   16.8595302
|  9>     O       16.8802532   14.9772895   16.5324903
| 10>     C       18.0736086   15.6536064   16.5744521
| 11>     O       19.1072287   15.0265921   16.4363377
| 12>     C       18.0644788   16.8921026   17.4069133
| 13>     C       17.5745177   18.0673399   16.9523781
| 14>     C       16.9997182   18.3424096   15.5798454
| 15>     N       17.6417486   19.2059729   17.7578097
| 16>     C       18.2649157   19.2611800   18.9779208
| 17>     S       18.3432965   20.6646347   19.8484901
| 18>     N       18.8160320   18.0922826   19.4445757
| 19>     C       18.7109978   16.7743129   18.7860355
| 20>     C       17.9550278   15.7693274   19.6505920
| 21>     C       18.3890981   14.4326393   19.7156881
| 22>     C       17.6853342   13.4866555   20.4791549
| 23>     C       16.5339867   13.8784303   21.1827400
| 24>     C       16.0941723   15.2070647   21.1160117
| 25>     O       14.9741973   15.5856687   21.7814019
| 26>     C       16.7968333   16.1473785   20.3558083
| 27>     H       14.8356861   13.6425373   17.5623414
| 28>     H       14.5390989   13.9507039   15.8350951
| 29>     H       13.5723378   14.7920953   17.0692752
| 30>     H       15.3200825   16.3200012   16.1277886
| 31>     H       15.6154178   16.0007218   17.8624471
| 32>     H       17.0924459   17.4813735   14.9064917
| 33>     H       17.5284793   19.1753053   15.0985483
| 34>     H       15.9376327   18.6098396   15.6414972
| 35>     H       17.2588416   20.0781199   17.4275885
| 36>     H       19.2525170   18.1597315   20.3554908
| 37>     H       19.7328348   16.3936330   18.6397603
| 38>     H       19.2674312   14.1212265   19.1538588
| 39>     H       18.0292743   12.4543064   20.5150061
| 40>     H       15.9853007   13.1493665   21.7697814
| 41>     H       14.6636302   14.8187931   22.2863726
| 42>     H       16.4327767   17.1685974   20.3160738
| 43> *
| 44>
| 45>                          ****END OF INPUT****

CARTESIAN COORDINATES (ANGSTROEM)
---------------------------------
  C     14.573763   14.415424   16.828407
  C     15.604005   15.555336   16.859530
  O     16.880253   14.977289   16.532490
  C     18.073609   15.653606   16.574452
  O     19.107229   15.026592   16.436338
  C     18.064479   16.892103   17.406913
  C     17.574518   18.067340   16.952378
  C     16.999718   18.342410   15.579845
  N     17.641749   19.205973   17.757810
  C     18.264916   19.261180   18.977921
  S     18.343297   20.664635   19.848490
  N     18.816032   18.092283   19.444576
  C     18.710998   16.774313   18.786036
  C     17.955028   15.769327   19.650592
  C     18.389098   14.432639   19.715688
  C     17.685334   13.486655   20.479155
  C     16.533987   13.878430   21.182740
  C     16.094172   15.207065   21.116012
  O     14.974197   15.585669   21.781402
  C     16.796833   16.147378   20.355808
  H     14.835686   13.642537   17.562341
  H     14.539099   13.950704   15.835095
  H     13.572338   14.792095   17.069275
  H     15.320082   16.320001   16.127789
  H     15.615418   16.000722   17.862447
  H     17.092446   17.481374   14.906492
  H     17.528479   19.175305   15.098548
  H     15.937633   18.609840   15.641497
  H     17.258842   20.078120   17.427588
  H     19.252517   18.159731   20.355491
  H     19.732835   16.393633   18.639760
  H     19.267431   14.121227   19.153859
  H     18.029274   12.454306   20.515006
  H     15.985301   13.149366   21.769781
  H     14.663630   14.818793   22.286373
  H     16.432777   17.168597   20.316074

 Total Charge           Charge          ....    0
 Multiplicity           Mult            ....    1
 Number of Electrons    NEL             ....  154
 Basis Dimension        Dim             ....  828

ORBITAL ENERGIES
----------------

  NO   OCC          E(Eh)            E(eV)
   0   2.0000     -91.889486     -2500.4400
   1   2.0000     -20.602413      -560.6202
   2   2.0000     -20.599751      -560.5477
   3   2.0000     -20.551817      -559.2434
   4   2.0000     -15.625578      -425.1936
   5   2.0000     -15.611737      -424.8170
   6   2.0000     -11.397353      -310.1378
   7   2.0000     -11.386474      -309.8417
   8   2.0000     -11.326735      -308.2161
   9   2.0000     -11.316608      -307.9406
  10   2.0000     -11.316177      -307.9288
  11   2.0000     -11.302650      -307.5607
  12   2.0000     -11.270879      -306.6962
  13   2.0000     -11.264970      -306.5354
  14   2.0000     -11.263764      -306.5026
  15   2.0000     -11.256473      -306.3042
  16   2.0000     -11.245724      -306.0117
  17   2.0000     -11.242051      -305.9118
  18   2.0000     -11.238812      -305.8236
  19   2.0000     -11.232095      -305.6408
  20   2.0000      -8.894614      -242.0348
  21   2.0000      -6.576207      -178.9477
  22   2.0000      -6.574176      -178.8924
  23   2.0000      -6.573605      -178.8769
  24   2.0000      -1.450585       -39.4724
  25   2.0000      -1.419566       -38.6284
  26   2.0000      -1.360777       -37.0286
  27   2.0000      -1.339431       -36.4478
  28   2.0000      -1.239606       -33.7314
  29   2.0000      -1.161141       -31.5963
  30   2.0000      -1.125571       -30.6283
  31   2.0000      -1.049192       -28.5500
  32   2.0000      -1.040364       -28.3097
  33   2.0000      -1.018875       -27.7250
  34   2.0000      -1.005237       -27.3539
  35   2.0000      -0.989153       -26.9162
  36   2.0000      -0.927987       -25.2518
  37   2.0000      -0.880655       -23.9638
  38   2.0000      -0.855658       -23.2836
  39   2.0000      -0.841639       -22.9022
  40   2.0000      -0.837132       -22.7795
  41   2.0000      -0.836512       -22.7626
  42   2.0000      -0.757324       -20.6078
  43   2.0000      -0.739569       -20.1247
  44   2.0000      -0.731574       -19.9071
  45   2.0000      -0.697832       -18.9890
  46   2.0000      -0.688553       -18.7365
  47   2.0000      -0.681802       -18.5528
  48   2.0000      -0.677557       -18.4373
  49   2.0000      -0.662079       -18.0161
  50   2.0000      -0.658135       -17.9088
  51   2.0000      -0.650654       -17.7052
  52   2.0000      -0.639738       -17.4082
  53   2.0000      -0.612320       -16.6621
  54   2.0000      -0.608028       -16.5453
  55   2.0000      -0.603446       -16.4206
  56   2.0000      -0.596431       -16.2297
  57   2.0000      -0.584043       -15.8926
  58   2.0000      -0.577165       -15.7055
  59   2.0000      -0.570877       -15.5343
  60   2.0000      -0.563899       -15.3445
  61   2.0000      -0.557066       -15.1585
  62   2.0000      -0.552629       -15.0378
  63   2.0000      -0.527244       -14.3470
  64   2.0000      -0.518087       -14.0979
  65   2.0000      -0.515416       -14.0252
  66   2.0000      -0.507434       -13.8080
  67   2.0000      -0.502246       -13.6668
  68   2.0000      -0.487666       -13.2701
  69   2.0000      -0.469599       -12.7784
  70   2.0000      -0.453645       -12.3443
  71   2.0000      -0.451420       -12.2838
  72   2.0000      -0.356690        -9.7060
  73   2.0000      -0.351391        -9.5618
  74   2.0000      -0.329248        -8.9593
  75   2.0000      -0.324154        -8.8207
  76   2.0000      -0.318084        -8.6555
  77   0.0000       0.088997         2.4217
  78   0.0000       0.104187         2.8351
  79   0.0000       0.110090         2.9957
  80   0.0000       0.128083         3.4853
  81   0.0000       0.131217         3.5706

MULLIKEN ATOMIC CHARGES
-----------------------
   0 C :   -0.260749
   1 C :    0.013711
   2 O :   -0.300728
   3 C :    0.390588
   4 O :   -0.378507
   5 C :   -0.183327
   6 C :    0.146616
   7 C :   -0.332212
   8 N :   -0.140299
   9 C :    0.207329
  10 S :   -0.442252
  11 N :   -0.220012
  12 C :    0.074670
  13 C :    0.031264
  14 C :   -0.193939
  15 C :   -0.131154
  16 C :   -0.276145
  17 C :    0.323821
  18 O :   -0.357411
  19 C :   -0.296655
  20 H :    0.107905
  21 H :    0.102369
  22 H :    0.087823
  23 H :    0.088738
  24 H :    0.106454
  25 H :    0.121626
  26 H :    0.141265
  27 H :    0.121631
  28 H :    0.195694
  29 H :    0.200148
  30 H :    0.166022
  31 H :    0.166299
  32 H :    0.163677
  33 H :    0.132456
  34 H :    0.241592
  35 H :    0.181693
Sum of atomic charges:   -0.0000000

LOEWDIN ATOMIC CHARGES
----------------------
   0 C :    0.112863
   1 C :   -0.027050
   2 O :    0.314606
   3 C :   -0.418236
   4 O :    0.126927
   5 C :   -0.079521
   6 C :   -0.106838
   7 C :    0.122158
   8 N :    0.400575
   9 C :   -0.455525
  10 S :   -0.038938
  11 N :    0.397390
  12 C :   -0.043016
  13 C :   -0.042297
  14 C :    0.024321
  15 C :    0.046278
  16 C :   -0.000191
  17 C :   -0.193982
  18 O :    0.394719
  19 C :    0.026278
  20 H :   -0.022571
  21 H :   -0.025597
  22 H :   -0.025197
  23 H :   -0.038551
  24 H :   -0.035039
  25 H :   -0.009808
  26 H :   -0.009357
  27 H :   -0.017431
  28 H :   -0.058357
  29 H :   -0.063661
  30 H :   -0.002087
  31 H :   -0.021815
  32 H :   -0.018384
  33 H :   -0.034724
  34 H :   -0.152985
  35 H :   -0.024958

  Mayer bond orders larger than 0.100000
B(  0-C ,  1-C ) :   0.9849 B(  0-C , 20-H ) :   0.9787 B(  0-C , 21-H ) :   0.9791
B(  0-C , 22-H ) :   0.9769 B(  1-C ,  2-O ) :   0.9168 B(  1-C , 23-H ) :   0.9743
B(  1-C , 24-H ) :   0.9568 B(  2-O ,  3-C ) :   1.1706 B(  3-C ,  4-O ) :   2.0934
B(  3-C ,  5-C ) :   0.9176 B(  5-C ,  6-C ) :   1.6906 B(  5-C , 12-C ) :   0.9590
B(  6-C ,  7-C ) :   0.9439 B(  6-C ,  8-N ) :   1.1141 B(  7-C , 25-H ) :   0.9823
B(  7-C , 26-H ) :   0.9683 B(  7-C , 27-H ) :   0.9669 B(  8-N ,  9-C ) :   1.1986
B(  8-N , 28-H ) :   0.9530 B(  9-C , 10-S ) :   1.6090 B(  9-C , 11-N ) :   1.2855
B( 11-N , 12-C ) :   0.9945 B( 11-N , 29-H ) :   0.9480 B( 12-C , 13-C ) :   0.9442
B( 12-C , 30-H ) :   0.9973 B( 13-C , 14-C ) :   1.3880 B( 13-C , 19-C ) :   1.3388
B( 14-C , 15-C ) :   1.3984 B( 14-C , 31-H ) :   0.9622 B( 15-C , 16-C ) :   1.3623
B( 15-C , 32-H ) :   0.9699 B( 16-C , 17-C ) :   1.3305 B( 16-C , 33-H ) :   0.9843
B( 17-C , 18-O ) :   1.1100 B( 17-C , 19-C ) :   1.3625 B( 18-O , 34-H ) :   0.9793
B( 19-C , 35-H ) :   0.9567

MP2 TOTAL ENERGY:    -1274.329490180 Eh
FINAL SINGLE POINT ENERGY     -1274.329490180092

DIPOLE MOMENT
-------------
                                X             Y             Z
Electronic contribution:     10.62730       8.26574       7.00712
Nuclear contribution   :    -12.17933      -9.31457      -7.52192
                        -----------------------------------------
Total Dipole Moment    :     -1.55203      -1.04884      -0.51481
                        -----------------------------------------
Magnitude (a.u.)       :      1.94265
Magnitude (Debye)      :      4.93782

Rotational constants in cm-1:     0.012190     0.009021     0.006784
Rotational constants in MHz :   365.439194   270.428580   203.385243

                             ****ORCA TERMINATED NORMALLY****
TOTAL RUN TIME: 0 days 1 hours 58 minutes 18 seconds 293 msec
