                         Program Version 4.2.0 -  RELEASE  -
|  1> ! ri-mp2 cc-pvtz cc-pvtz/c TightSCF  NoKeepInts
|  2>
|  3> %scf
|  4>   MaxCore 4096
|  5> end
|  6> *xyz  0  1
|  7>     C       15.5052414   13.9385827   14.8790218
|  8>     C       15.0388397   14.8949844   15.9974095
|  9>     O       16.0054885   15.9460328   16.1976185
| 10>     C       17.2042523   15.7020968   16.8096081
| 11>     O       17.6326151   14.5740958   16.9889495
| 12>     C       17.7123436   16.8692041   17.6067624
| 13>     C       17.4092914   18.1691935   17.3531972
| 14>     C       16.5441251   18.7234704   16.2397747
| 15>     N       17.9890371   19.1810351   18.1256673
| 16>     C       18.9833237   18.9898991   19.0484770
| 17>     S       19.7073117   20.2580141   19.8252797
| 18>     N       19.3479508   17.6903325   19.2933108
| 19>     C       18.6461701   16.5045633   18.7667696
| 20>     C       17.8829269   15.7968694   19.8836056
| 21>     C       18.0999806   14.4303579   20.1398660
| 22>     C       17.3984923   13.7729090   21.1643656
| 23>     C       16.4706079   14.4873247   21.9410448
| 24>     C       16.2483684   15.8474922   21.6867934
| 25>     O       15.3483738   16.5386298   22.4309417
| 26>     C       16.9477144   16.4989643   20.6660249
| 27>     H       15.7719514   14.5000215   13.9752706
| 28>     H       14.7025065   13.2377411   14.6202198
| 29>     H       16.3743825   13.3458995   15.1880062
| 30>     H       14.0811842   15.3429683   15.7030609
| 31>     H       14.8799921   14.3369891   16.9303732
| 32>     H       16.7983364   18.2587965   15.2789518
| 33>     H       16.6622678   19.8063855   16.1123438
| 34>     H       15.4835277   18.5264681   16.4399339
| 35>     H       17.7347199   20.1417391   17.9603200
| 36>     H       20.0613380   17.5741646   20.0014538
| 37>     H       19.4080807   15.8129370   18.3790748
| 38>     H       18.8042641   13.8713796   19.5284929
| 39>     H       17.5715446   12.7140639   21.3478913
| 40>     H       15.9254139   13.9830985   22.7318666
| 41>     H       15.0022990   15.9324907   23.1029211
| 42>     H       16.7627364   17.5528050   20.4893314
| 43> *
| 44>
| 45>                          ****END OF INPUT****

CARTESIAN COORDINATES (ANGSTROEM)
---------------------------------
  C     15.505241   13.938583   14.879022
  C     15.038840   14.894984   15.997409
  O     16.005488   15.946033   16.197619
  C     17.204252   15.702097   16.809608
  O     17.632615   14.574096   16.988950
  C     17.712344   16.869204   17.606762
  C     17.409291   18.169193   17.353197
  C     16.544125   18.723470   16.239775
  N     17.989037   19.181035   18.125667
  C     18.983324   18.989899   19.048477
  S     19.707312   20.258014   19.825280
  N     19.347951   17.690333   19.293311
  C     18.646170   16.504563   18.766770
  C     17.882927   15.796869   19.883606
  C     18.099981   14.430358   20.139866
  C     17.398492   13.772909   21.164366
  C     16.470608   14.487325   21.941045
  C     16.248368   15.847492   21.686793
  O     15.348374   16.538630   22.430942
  C     16.947714   16.498964   20.666025
  H     15.771951   14.500022   13.975271
  H     14.702507   13.237741   14.620220
  H     16.374382   13.345899   15.188006
  H     14.081184   15.342968   15.703061
  H     14.879992   14.336989   16.930373
  H     16.798336   18.258796   15.278952
  H     16.662268   19.806386   16.112344
  H     15.483528   18.526468   16.439934
  H     17.734720   20.141739   17.960320
  H     20.061338   17.574165   20.001454
  H     19.408081   15.812937   18.379075
  H     18.804264   13.871380   19.528493
  H     17.571545   12.714064   21.347891
  H     15.925414   13.983099   22.731867
  H     15.002299   15.932491   23.102921
  H     16.762736   17.552805   20.489331

 Total Charge           Charge          ....    0
 Multiplicity           Mult            ....    1
 Number of Electrons    NEL             ....  154
 Basis Dimension        Dim             ....  828

ORBITAL ENERGIES
----------------

  NO   OCC          E(Eh)            E(eV)
   0   2.0000     -91.887620     -2500.3892
   1   2.0000     -20.600077      -560.5566
   2   2.0000     -20.591812      -560.3317
   3   2.0000     -20.548579      -559.1553
   4   2.0000     -15.627510      -425.2462
   5   2.0000     -15.606508      -424.6747
   6   2.0000     -11.397372      -310.1383
   7   2.0000     -11.382623      -309.7369
   8   2.0000     -11.334313      -308.4223
   9   2.0000     -11.307710      -307.6984
  10   2.0000     -11.305927      -307.6499
  11   2.0000     -11.302338      -307.5523
  12   2.0000     -11.259974      -306.3995
  13   2.0000     -11.258505      -306.3595
  14   2.0000     -11.253660      -306.2277
  15   2.0000     -11.247968      -306.0728
  16   2.0000     -11.237557      -305.7895
  17   2.0000     -11.233538      -305.6801
  18   2.0000     -11.230741      -305.6040
  19   2.0000     -11.222880      -305.3901
  20   2.0000      -8.892689      -241.9824
  21   2.0000      -6.574268      -178.8949
  22   2.0000      -6.572260      -178.8403
  23   2.0000      -6.571676      -178.8244
  24   2.0000      -1.452448       -39.5231
  25   2.0000      -1.411548       -38.4102
  26   2.0000      -1.358144       -36.9570
  27   2.0000      -1.338654       -36.4266
  28   2.0000      -1.236482       -33.6464
  29   2.0000      -1.152210       -31.3532
  30   2.0000      -1.119254       -30.4565
  31   2.0000      -1.041882       -28.3511
  32   2.0000      -1.033395       -28.1201
  33   2.0000      -1.009595       -27.4725
  34   2.0000      -0.996702       -27.1217
  35   2.0000      -0.982174       -26.7263
  36   2.0000      -0.921163       -25.0661
  37   2.0000      -0.892241       -24.2791
  38   2.0000      -0.847322       -23.0568
  39   2.0000      -0.835611       -22.7381
  40   2.0000      -0.828112       -22.5341
  41   2.0000      -0.818669       -22.2771
  42   2.0000      -0.750800       -20.4303
  43   2.0000      -0.732876       -19.9426
  44   2.0000      -0.725011       -19.7286
  45   2.0000      -0.690937       -18.8014
  46   2.0000      -0.684876       -18.6364
  47   2.0000      -0.680053       -18.5052
  48   2.0000      -0.670950       -18.2575
  49   2.0000      -0.661828       -18.0093
  50   2.0000      -0.645616       -17.5681
  51   2.0000      -0.641132       -17.4461
  52   2.0000      -0.631962       -17.1966
  53   2.0000      -0.607438       -16.5292
  54   2.0000      -0.599899       -16.3241
  55   2.0000      -0.599101       -16.3024
  56   2.0000      -0.594906       -16.1882
  57   2.0000      -0.586214       -15.9517
  58   2.0000      -0.573037       -15.5931
  59   2.0000      -0.567656       -15.4467
  60   2.0000      -0.560051       -15.2398
  61   2.0000      -0.545549       -14.8452
  62   2.0000      -0.535693       -14.5769
  63   2.0000      -0.520212       -14.1557
  64   2.0000      -0.517151       -14.0724
  65   2.0000      -0.510857       -13.9011
  66   2.0000      -0.501720       -13.6525
  67   2.0000      -0.495440       -13.4816
  68   2.0000      -0.479792       -13.0558
  69   2.0000      -0.461317       -12.5531
  70   2.0000      -0.457366       -12.4456
  71   2.0000      -0.452383       -12.3100
  72   2.0000      -0.353414        -9.6169
  73   2.0000      -0.344053        -9.3622
  74   2.0000      -0.326805        -8.8928
  75   2.0000      -0.315394        -8.5823
  76   2.0000      -0.313887        -8.5413
  77   0.0000       0.076239         2.0746
  78   0.0000       0.112326         3.0565
  79   0.0000       0.121560         3.3078
  80   0.0000       0.135893         3.6978
  81   0.0000       0.140823         3.8320

MULLIKEN ATOMIC CHARGES
-----------------------
   0 C :   -0.300295
   1 C :    0.045265
   2 O :   -0.351484
   3 C :    0.433544
   4 O :   -0.427820
   5 C :   -0.147081
   6 C :    0.139181
   7 C :   -0.285262
   8 N :   -0.122206
   9 C :    0.201895
  10 S :   -0.440366
  11 N :   -0.197330
  12 C :    0.036521
  13 C :    0.054963
  14 C :   -0.162514
  15 C :   -0.134284
  16 C :   -0.279364
  17 C :    0.311287
  18 O :   -0.358848
  19 C :   -0.270470
  20 H :    0.090093
  21 H :    0.094435
  22 H :    0.126121
  23 H :    0.102625
  24 H :    0.097574
  25 H :    0.123929
  26 H :    0.101843
  27 H :    0.128082
  28 H :    0.196764
  29 H :    0.193421
  30 H :    0.153921
  31 H :    0.153617
  32 H :    0.159188
  33 H :    0.128196
  34 H :    0.239992
  35 H :    0.164868
Sum of atomic charges:    0.0000000

LOEWDIN ATOMIC CHARGES
----------------------
   0 C :    0.104434
   1 C :   -0.013797
   2 O :    0.298960
   3 C :   -0.411384
   4 O :    0.112406
   5 C :   -0.090349
   6 C :   -0.068495
   7 C :    0.125002
   8 N :    0.404415
   9 C :   -0.458614
  10 S :   -0.036827
  11 N :    0.397600
  12 C :   -0.045978
  13 C :   -0.038886
  14 C :    0.021336
  15 C :    0.040508
  16 C :   -0.002446
  17 C :   -0.192559
  18 O :    0.393121
  19 C :    0.028944
  20 H :   -0.030414
  21 H :   -0.028592
  22 H :   -0.025927
  23 H :   -0.025137
  24 H :   -0.027025
  25 H :   -0.009096
  26 H :   -0.020706
  27 H :   -0.009517
  28 H :   -0.059139
  29 H :   -0.063837
  30 H :   -0.005126
  31 H :   -0.025458
  32 H :   -0.021278
  33 H :   -0.036398
  34 H :   -0.154922
  35 H :   -0.024819

  Mayer bond orders larger than 0.100000
B(  0-C ,  1-C ) :   0.9684 B(  0-C , 20-H ) :   0.9757 B(  0-C , 21-H ) :   0.9772
B(  0-C , 22-H ) :   0.9717 B(  1-C ,  2-O ) :   0.9061 B(  1-C , 23-H ) :   0.9845
B(  1-C , 24-H ) :   0.9772 B(  2-O ,  3-C ) :   1.1326 B(  3-C ,  4-O ) :   1.9644
B(  3-C ,  5-C ) :   1.0516 B(  5-C ,  6-C ) :   1.6525 B(  5-C , 12-C ) :   0.9645
B(  6-C ,  7-C ) :   0.9548 B(  6-C ,  8-N ) :   1.1431 B(  7-C , 25-H ) :   0.9677
B(  7-C , 26-H ) :   0.9908 B(  7-C , 27-H ) :   0.9627 B(  8-N ,  9-C ) :   1.1808
B(  8-N , 28-H ) :   0.9493 B(  9-C , 10-S ) :   1.6099 B(  9-C , 11-N ) :   1.3027
B( 11-N , 12-C ) :   0.9934 B( 11-N , 29-H ) :   0.9519 B( 12-C , 13-C ) :   0.9464
B( 12-C , 30-H ) :   0.9993 B( 13-C , 14-C ) :   1.3756 B( 13-C , 19-C ) :   1.3703
B( 14-C , 15-C ) :   1.3946 B( 14-C , 31-H ) :   0.9650 B( 15-C , 16-C ) :   1.3629
B( 15-C , 32-H ) :   0.9714 B( 16-C , 17-C ) :   1.3312 B( 16-C , 33-H ) :   0.9860
B( 17-C , 18-O ) :   1.1082 B( 17-C , 19-C ) :   1.3787 B( 18-O , 34-H ) :   0.9806
B( 19-C , 35-H ) :   0.9583

MP2 TOTAL ENERGY:    -1274.340401023 Eh
FINAL SINGLE POINT ENERGY     -1274.340401023016

DIPOLE MOMENT
-------------
                                X             Y             Z
Electronic contribution:     10.22973      10.03043      11.01238
Nuclear contribution   :    -11.88980     -11.19493     -11.86173
                        -----------------------------------------
Total Dipole Moment    :     -1.66007      -1.16450      -0.84935
                        -----------------------------------------
Magnitude (a.u.)       :      2.19848
Magnitude (Debye)      :      5.58808

Rotational constants in cm-1:     0.010695     0.008936     0.005880
Rotational constants in MHz :   320.614025   267.883554   176.292770

                             ****ORCA TERMINATED NORMALLY****
TOTAL RUN TIME: 0 days 1 hours 36 minutes 38 seconds 708 msec
