                         Program Version 5.0.0 -  RELEASE  -
|  1> ! ri-mp2 cc-pvtz cc-pvtz/c TightSCF NoKeepInts
|  2>
|  3> %scf
|  4>   MaxCore 4096
|  5> end
|  6> *xyz  0  1
|  7>     C       15.3176662   13.9532133   14.9501752
|  8>     C       15.1229638   14.8513756   16.1862841
|  9>     O       16.1168765   15.8917914   16.1576155
| 10>     C       17.3152654   15.6901515   16.7814718
| 11>     O       17.7612603   14.5709824   16.9756613
| 12>     C       17.7755269   16.8730010   17.5829072
| 13>     C       17.4496975   18.1629392   17.3091698
| 14>     C       16.6050960   18.6850777   16.1650282
| 15>     N       17.9812860   19.1943218   18.0901819
| 16>     C       18.9479490   19.0332423   19.0475572
| 17>     S       19.6148452   20.3236268   19.8385958
| 18>     N       19.3346650   17.7444372   19.3151574
| 19>     C       18.6820061   16.5379502   18.7725684
| 20>     C       17.9019000   15.8146729   19.8674882
| 21>     C       18.1463738   14.4554443   20.1373110
| 22>     C       17.4281520   13.7833770   21.1404983
| 23>     C       16.4556549   14.4756533   21.8818503
| 24>     C       16.2060911   15.8284098   21.6138387
| 25>     O       15.2629311   16.4979786   22.3233914
| 26>     C       16.9220769   16.4944127   20.6142014
| 27>     H       15.2643866   14.5448915   14.0280641
| 28>     H       14.5390394   13.1820443   14.9097477
| 29>     H       16.2922221   13.4498872   14.9830347
| 30>     H       14.1241256   15.3037620   16.1403911
| 31>     H       15.1887556   14.2623680   17.1119352
| 32>     H       16.8906078   18.2085492   15.2188476
| 33>     H       16.7106093   19.7674020   16.0223402
| 34>     H       15.5428131   18.4747629   16.3411214
| 35>     H       17.7105158   20.1475478   17.9082827
| 36>     H       20.0264998   17.6506810   20.0476277
| 37>     H       19.4735906   15.8652377   18.4119213
| 38>     H       18.8856761   13.9131475   19.5527987
| 39>     H       17.6231552   12.7302780   21.3349328
| 40>     H       15.8975646   13.9600346   22.6561927
| 41>     H       14.9138731   15.8870724   22.9895432
| 42>     H       16.7152818   17.5422750   20.4262659
| 43> *
| 44>
| 45>                          ****END OF INPUT****

CARTESIAN COORDINATES (ANGSTROEM)
---------------------------------
  C     15.317666   13.953213   14.950175
  C     15.122964   14.851376   16.186284
  O     16.116877   15.891791   16.157615
  C     17.315265   15.690151   16.781472
  O     17.761260   14.570982   16.975661
  C     17.775527   16.873001   17.582907
  C     17.449697   18.162939   17.309170
  C     16.605096   18.685078   16.165028
  N     17.981286   19.194322   18.090182
  C     18.947949   19.033242   19.047557
  S     19.614845   20.323627   19.838596
  N     19.334665   17.744437   19.315157
  C     18.682006   16.537950   18.772568
  C     17.901900   15.814673   19.867488
  C     18.146374   14.455444   20.137311
  C     17.428152   13.783377   21.140498
  C     16.455655   14.475653   21.881850
  C     16.206091   15.828410   21.613839
  O     15.262931   16.497979   22.323391
  C     16.922077   16.494413   20.614201
  H     15.264387   14.544891   14.028064
  H     14.539039   13.182044   14.909748
  H     16.292222   13.449887   14.983035
  H     14.124126   15.303762   16.140391
  H     15.188756   14.262368   17.111935
  H     16.890608   18.208549   15.218848
  H     16.710609   19.767402   16.022340
  H     15.542813   18.474763   16.341121
  H     17.710516   20.147548   17.908283
  H     20.026500   17.650681   20.047628
  H     19.473591   15.865238   18.411921
  H     18.885676   13.913147   19.552799
  H     17.623155   12.730278   21.334933
  H     15.897565   13.960035   22.656193
  H     14.913873   15.887072   22.989543
  H     16.715282   17.542275   20.426266

 Total Charge           Charge          ....    0
 Multiplicity           Mult            ....    1
 Number of Electrons    NEL             ....  154
 Basis Dimension        Dim             ....  828

ORBITAL ENERGIES
----------------

  NO   OCC          E(Eh)            E(eV)
   0   2.0000     -91.888074     -2500.4016
   1   2.0000     -20.597253      -560.4797
   2   2.0000     -20.592671      -560.3551
   3   2.0000     -20.550052      -559.1953
   4   2.0000     -15.628050      -425.2609
   5   2.0000     -15.607046      -424.6893
   6   2.0000     -11.396769      -310.1219
   7   2.0000     -11.383163      -309.7516
   8   2.0000     -11.334700      -308.4329
   9   2.0000     -11.308647      -307.7239
  10   2.0000     -11.306604      -307.6683
  11   2.0000     -11.300488      -307.5019
  12   2.0000     -11.260248      -306.4069
  13   2.0000     -11.259004      -306.3731
  14   2.0000     -11.254562      -306.2522
  15   2.0000     -11.248886      -306.0977
  16   2.0000     -11.238483      -305.8147
  17   2.0000     -11.234484      -305.7059
  18   2.0000     -11.231657      -305.6289
  19   2.0000     -11.223394      -305.4041
  20   2.0000      -8.893142      -241.9947
  21   2.0000      -6.574720      -178.9072
  22   2.0000      -6.572712      -178.8526
  23   2.0000      -6.572127      -178.8367
  24   2.0000      -1.453896       -39.5625
  25   2.0000      -1.412413       -38.4337
  26   2.0000      -1.357872       -36.9496
  27   2.0000      -1.339121       -36.4393
  28   2.0000      -1.236994       -33.6603
  29   2.0000      -1.153128       -31.3782
  30   2.0000      -1.119967       -30.4759
  31   2.0000      -1.042579       -28.3700
  32   2.0000      -1.033635       -28.1266
  33   2.0000      -1.010498       -27.4971
  34   2.0000      -0.997385       -27.1402
  35   2.0000      -0.982773       -26.7426
  36   2.0000      -0.921678       -25.0801
  37   2.0000      -0.888940       -24.1893
  38   2.0000      -0.847721       -23.0677
  39   2.0000      -0.836311       -22.7572
  40   2.0000      -0.829015       -22.5586
  41   2.0000      -0.820415       -22.3246
  42   2.0000      -0.754149       -20.5215
  43   2.0000      -0.734407       -19.9842
  44   2.0000      -0.725824       -19.7507
  45   2.0000      -0.691544       -18.8179
  46   2.0000      -0.685533       -18.6543
  47   2.0000      -0.680475       -18.5167
  48   2.0000      -0.671796       -18.2805
  49   2.0000      -0.660278       -17.9671
  50   2.0000      -0.646100       -17.5813
  51   2.0000      -0.641211       -17.4482
  52   2.0000      -0.630895       -17.1675
  53   2.0000      -0.609223       -16.5778
  54   2.0000      -0.600742       -16.3470
  55   2.0000      -0.600152       -16.3310
  56   2.0000      -0.595821       -16.2131
  57   2.0000      -0.585229       -15.9249
  58   2.0000      -0.573936       -15.6176
  59   2.0000      -0.566880       -15.4256
  60   2.0000      -0.560922       -15.2635
  61   2.0000      -0.546660       -14.8754
  62   2.0000      -0.534787       -14.5523
  63   2.0000      -0.520271       -14.1573
  64   2.0000      -0.517851       -14.0915
  65   2.0000      -0.510767       -13.8987
  66   2.0000      -0.501850       -13.6560
  67   2.0000      -0.496070       -13.4988
  68   2.0000      -0.480552       -13.0765
  69   2.0000      -0.462079       -12.5738
  70   2.0000      -0.455893       -12.4055
  71   2.0000      -0.455376       -12.3914
  72   2.0000      -0.353807        -9.6276
  73   2.0000      -0.344935        -9.3862
  74   2.0000      -0.327262        -8.9053
  75   2.0000      -0.316101        -8.6016
  76   2.0000      -0.314599        -8.5607
  77   0.0000       0.074890         2.0379
  78   0.0000       0.110981         3.0199
  79   0.0000       0.121427         3.3042
  80   0.0000       0.135167         3.6781
  81   0.0000       0.140148         3.8136

MULLIKEN ATOMIC CHARGES
-----------------------
   0 C :   -0.283592
   1 C :    0.043085
   2 O :   -0.355005
   3 C :    0.426954
   4 O :   -0.421460
   5 C :   -0.151641
   6 C :    0.140932
   7 C :   -0.283755
   8 N :   -0.123082
   9 C :    0.202073
  10 S :   -0.439818
  11 N :   -0.198206
  12 C :    0.040145
  13 C :    0.053382
  14 C :   -0.163765
  15 C :   -0.134216
  16 C :   -0.279670
  17 C :    0.311330
  18 O :   -0.358723
  19 C :   -0.271560
  20 H :    0.090223
  21 H :    0.091333
  22 H :    0.116046
  23 H :    0.100483
  24 H :    0.101471
  25 H :    0.124746
  26 H :    0.102050
  27 H :    0.127369
  28 H :    0.196936
  29 H :    0.193738
  30 H :    0.154030
  31 H :    0.154335
  32 H :    0.159705
  33 H :    0.128655
  34 H :    0.240150
  35 H :    0.165322
Sum of atomic charges:    0.0000000

LOEWDIN ATOMIC CHARGES
----------------------
   0 C :    0.104296
   1 C :   -0.015283
   2 O :    0.300363
   3 C :   -0.413057
   4 O :    0.112424
   5 C :   -0.091247
   6 C :   -0.068887
   7 C :    0.125374
   8 N :    0.404483
   9 C :   -0.458425
  10 S :   -0.036413
  11 N :    0.397513
  12 C :   -0.045893
  13 C :   -0.039281
  14 C :    0.021272
  15 C :    0.040476
  16 C :   -0.002419
  17 C :   -0.192743
  18 O :    0.393172
  19 C :    0.028635
  20 H :   -0.030171
  21 H :   -0.028602
  22 H :   -0.024159
  23 H :   -0.026938
  24 H :   -0.026026
  25 H :   -0.008608
  26 H :   -0.020476
  27 H :   -0.009517
  28 H :   -0.058979
  29 H :   -0.063842
  30 H :   -0.004949
  31 H :   -0.025256
  32 H :   -0.021094
  33 H :   -0.036259
  34 H :   -0.154765
  35 H :   -0.024718

  Mayer bond orders larger than 0.100000
B(  0-C ,  1-C ) :   0.9700 B(  0-C , 20-H ) :   0.9769 B(  0-C , 21-H ) :   0.9766
B(  0-C , 22-H ) :   0.9745 B(  1-C ,  2-O ) :   0.8981 B(  1-C , 23-H ) :   0.9840
B(  1-C , 24-H ) :   0.9742 B(  2-O ,  3-C ) :   1.1175 B(  3-C ,  4-O ) :   1.9764
B(  3-C ,  5-C ) :   1.0501 B(  5-C ,  6-C ) :   1.6551 B(  5-C , 12-C ) :   0.9644
B(  6-C ,  7-C ) :   0.9542 B(  6-C ,  8-N ) :   1.1412 B(  7-C , 25-H ) :   0.9680
B(  7-C , 26-H ) :   0.9903 B(  7-C , 27-H ) :   0.9630 B(  8-N ,  9-C ) :   1.1813
B(  8-N , 28-H ) :   0.9492 B(  9-C , 10-S ) :   1.6103 B(  9-C , 11-N ) :   1.3022
B( 11-N , 12-C ) :   0.9923 B( 11-N , 29-H ) :   0.9518 B( 12-C , 13-C ) :   0.9461
B( 12-C , 30-H ) :   0.9991 B( 13-C , 14-C ) :   1.3758 B( 13-C , 19-C ) :   1.3700
B( 14-C , 15-C ) :   1.3945 B( 14-C , 31-H ) :   0.9647 B( 15-C , 16-C ) :   1.3628
B( 15-C , 32-H ) :   0.9712 B( 16-C , 17-C ) :   1.3312 B( 16-C , 33-H ) :   0.9858
B( 17-C , 18-O ) :   1.1084 B( 17-C , 19-C ) :   1.3782 B( 18-O , 34-H ) :   0.9805
B( 19-C , 35-H ) :   0.9583

MP2 TOTAL ENERGY:    -1274.338665064 Eh
FINAL SINGLE POINT ENERGY     -1274.338665064201

DIPOLE MOMENT
-------------
                                X             Y             Z
Electronic contribution:     10.54269      10.15605      10.65011
Nuclear contribution   :    -12.15883     -11.32460     -11.40240
                        -----------------------------------------
Total Dipole Moment    :     -1.61614      -1.16854      -0.75229
                        -----------------------------------------
Magnitude (a.u.)       :      2.13151
Magnitude (Debye)      :      5.41787

Rotational constants in cm-1:     0.010774     0.008967     0.005931
Rotational constants in MHz :   322.991015   268.816566   177.801640

                             ****ORCA TERMINATED NORMALLY****
TOTAL RUN TIME: 0 days 2 hours 11 minutes 41 seconds 20 msec
