                         Program Version 4.2.0 -  RELEASE  -
|  1> ! ri-mp2 cc-pvtz cc-pvtz/c TightSCF  NoKeepInts
|  2>
|  3> %scf
|  4>   MaxCore 4096
|  5> end
|  6> *xyz  0  1
|  7>     C       15.5912998   13.2623250   16.4287248
|  8>     C       15.6912470   14.7287883   16.8786983
|  9>     O       16.9223694   15.2559945   16.3500492
| 10>     C       16.9933845   16.6034962   16.1577294
| 11>     O       16.2773702   17.1280322   15.3238490
| 12>     C       17.5859912   17.3433942   17.3287733
| 13>     C       17.4361365   18.6832855   17.4968922
| 14>     C       16.6100942   19.6323058   16.6548620
| 15>     N       18.1350667   19.3426142   18.5132871
| 16>     C       19.1500727   18.7857847   19.2454212
| 17>     S       20.0600822   19.6754227   20.3016805
| 18>     N       19.3818732   17.4487035   19.0448190
| 19>     C       18.4905227   16.5499160   18.2893960
| 20>     C       17.7135505   15.6833691   19.2740749
| 21>     C       17.9900617   14.3068779   19.3786920
| 22>     C       17.2754068   13.5007523   20.2805577
| 23>     C       16.2812567   14.0761394   21.0901239
| 24>     C       16.0110208   15.4481859   20.9969517
| 25>     O       15.0518888   16.0068889   21.7767640
| 26>     C       16.7211869   16.2476210   20.0959910
| 27>     H       14.6532850   12.8153762   16.7794500
| 28>     H       16.4249292   12.6768694   16.8356538
| 29>     H       15.6183355   13.1918931   15.3340222
| 30>     H       14.8332630   15.2778481   16.4664287
| 31>     H       15.6497292   14.8015273   17.9707168
| 32>     H       15.5653959   19.2992642   16.6094814
| 33>     H       16.9883791   19.6625719   15.6249597
| 34>     H       16.6113199   20.6591282   17.0388708
| 35>     H       17.9865040   20.3283218   18.6602959
| 36>     H       20.1204112   17.0589917   19.6164019
| 37>     H       19.1238848   15.8913823   17.6781447
| 38>     H       18.7557659   13.8579054   18.7513108
| 39>     H       17.4941071   12.4364662   20.3513712
| 40>     H       15.7277771   13.4576004   21.7892377
| 41>     H       14.7225471   15.3184673   22.3742574
| 42>     H       16.5014835   17.3084893   20.0460596
| 43> *
| 44>
| 45>                          ****END OF INPUT****

CARTESIAN COORDINATES (ANGSTROEM)
---------------------------------
  C     15.591300   13.262325   16.428725
  C     15.691247   14.728788   16.878698
  O     16.922369   15.255994   16.350049
  C     16.993385   16.603496   16.157729
  O     16.277370   17.128032   15.323849
  C     17.585991   17.343394   17.328773
  C     17.436136   18.683286   17.496892
  C     16.610094   19.632306   16.654862
  N     18.135067   19.342614   18.513287
  C     19.150073   18.785785   19.245421
  S     20.060082   19.675423   20.301680
  N     19.381873   17.448704   19.044819
  C     18.490523   16.549916   18.289396
  C     17.713551   15.683369   19.274075
  C     17.990062   14.306878   19.378692
  C     17.275407   13.500752   20.280558
  C     16.281257   14.076139   21.090124
  C     16.011021   15.448186   20.996952
  O     15.051889   16.006889   21.776764
  C     16.721187   16.247621   20.095991
  H     14.653285   12.815376   16.779450
  H     16.424929   12.676869   16.835654
  H     15.618335   13.191893   15.334022
  H     14.833263   15.277848   16.466429
  H     15.649729   14.801527   17.970717
  H     15.565396   19.299264   16.609481
  H     16.988379   19.662572   15.624960
  H     16.611320   20.659128   17.038871
  H     17.986504   20.328322   18.660296
  H     20.120411   17.058992   19.616402
  H     19.123885   15.891382   17.678145
  H     18.755766   13.857905   18.751311
  H     17.494107   12.436466   20.351371
  H     15.727777   13.457600   21.789238
  H     14.722547   15.318467   22.374257
  H     16.501483   17.308489   20.046060

 Total Charge           Charge          ....    0
 Multiplicity           Mult            ....    1
 Number of Electrons    NEL             ....  154
 Basis Dimension        Dim             ....  828

ORBITAL ENERGIES
----------------

  NO   OCC          E(Eh)            E(eV)
   0   2.0000     -91.891176     -2500.4860
   1   2.0000     -20.601589      -560.5977
   2   2.0000     -20.582020      -560.0652
   3   2.0000     -20.548582      -559.1553
   4   2.0000     -15.631603      -425.3576
   5   2.0000     -15.610058      -424.7713
   6   2.0000     -11.392679      -310.0105
   7   2.0000     -11.385744      -309.8219
   8   2.0000     -11.337946      -308.5212
   9   2.0000     -11.319572      -308.0212
  10   2.0000     -11.312426      -307.8268
  11   2.0000     -11.292539      -307.2856
  12   2.0000     -11.263981      -306.5085
  13   2.0000     -11.260792      -306.4217
  14   2.0000     -11.260189      -306.4053
  15   2.0000     -11.253680      -306.2282
  16   2.0000     -11.248592      -306.0897
  17   2.0000     -11.243140      -305.9414
  18   2.0000     -11.242799      -305.9321
  19   2.0000     -11.225033      -305.4487
  20   2.0000      -8.896202      -242.0780
  21   2.0000      -6.577767      -178.9901
  22   2.0000      -6.575773      -178.9359
  23   2.0000      -6.575176      -178.9196
  24   2.0000      -1.449025       -39.4300
  25   2.0000      -1.421291       -38.6753
  26   2.0000      -1.352318       -36.7984
  27   2.0000      -1.342706       -36.5369
  28   2.0000      -1.241057       -33.7709
  29   2.0000      -1.162266       -31.6269
  30   2.0000      -1.121580       -30.5198
  31   2.0000      -1.046269       -28.4704
  32   2.0000      -1.033760       -28.1300
  33   2.0000      -1.020551       -27.7706
  34   2.0000      -0.998206       -27.1626
  35   2.0000      -0.986091       -26.8329
  36   2.0000      -0.925762       -25.1913
  37   2.0000      -0.877927       -23.8896
  38   2.0000      -0.849485       -23.1157
  39   2.0000      -0.842758       -22.9326
  40   2.0000      -0.838765       -22.8239
  41   2.0000      -0.828838       -22.5538
  42   2.0000      -0.761159       -20.7122
  43   2.0000      -0.736292       -20.0355
  44   2.0000      -0.724579       -19.7168
  45   2.0000      -0.700767       -19.0688
  46   2.0000      -0.691638       -18.8204
  47   2.0000      -0.679107       -18.4794
  48   2.0000      -0.672617       -18.3028
  49   2.0000      -0.656654       -17.8685
  50   2.0000      -0.648611       -17.6496
  51   2.0000      -0.644368       -17.5341
  52   2.0000      -0.630414       -17.1544
  53   2.0000      -0.621871       -16.9220
  54   2.0000      -0.611930       -16.6515
  55   2.0000      -0.603829       -16.4310
  56   2.0000      -0.601204       -16.3596
  57   2.0000      -0.581855       -15.8331
  58   2.0000      -0.572556       -15.5800
  59   2.0000      -0.565769       -15.3954
  60   2.0000      -0.556106       -15.1324
  61   2.0000      -0.541421       -14.7328
  62   2.0000      -0.534614       -14.5476
  63   2.0000      -0.529703       -14.4139
  64   2.0000      -0.517459       -14.0808
  65   2.0000      -0.513903       -13.9840
  66   2.0000      -0.505761       -13.7625
  67   2.0000      -0.498473       -13.5641
  68   2.0000      -0.486957       -13.2508
  69   2.0000      -0.465346       -12.6627
  70   2.0000      -0.455999       -12.4084
  71   2.0000      -0.444953       -12.1078
  72   2.0000      -0.358023        -9.7423
  73   2.0000      -0.354208        -9.6385
  74   2.0000      -0.331001        -9.0070
  75   2.0000      -0.327025        -8.8988
  76   2.0000      -0.318111        -8.6562
  77   0.0000       0.067577         1.8389
  78   0.0000       0.101668         2.7665
  79   0.0000       0.122076         3.3219
  80   0.0000       0.126999         3.4558
  81   0.0000       0.132708         3.6112

MULLIKEN ATOMIC CHARGES
-----------------------
   0 C :   -0.263563
   1 C :    0.018224
   2 O :   -0.384251
   3 C :    0.505045
   4 O :   -0.404159
   5 C :   -0.277033
   6 C :    0.155852
   7 C :   -0.269638
   8 N :   -0.124802
   9 C :    0.209698
  10 S :   -0.435285
  11 N :   -0.197131
  12 C :    0.043406
  13 C :    0.025148
  14 C :   -0.162660
  15 C :   -0.135892
  16 C :   -0.272317
  17 C :    0.303615
  18 O :   -0.356430
  19 C :   -0.245709
  20 H :    0.086548
  21 H :    0.089858
  22 H :    0.105933
  23 H :    0.112446
  24 H :    0.116715
  25 H :    0.129301
  26 H :    0.134939
  27 H :    0.094534
  28 H :    0.198581
  29 H :    0.192248
  30 H :    0.148812
  31 H :    0.151053
  32 H :    0.164055
  33 H :    0.133560
  34 H :    0.241728
  35 H :    0.167571
Sum of atomic charges:    0.0000000

LOEWDIN ATOMIC CHARGES
----------------------
   0 C :    0.109352
   1 C :   -0.015976
   2 O :    0.287837
   3 C :   -0.420491
   4 O :    0.120663
   5 C :   -0.099131
   6 C :   -0.058048
   7 C :    0.130835
   8 N :    0.406898
   9 C :   -0.457342
  10 S :   -0.031994
  11 N :    0.396332
  12 C :   -0.053322
  13 C :   -0.039711
  14 C :    0.014864
  15 C :    0.042170
  16 C :   -0.001494
  17 C :   -0.191091
  18 O :    0.396710
  19 C :    0.030214
  20 H :   -0.026096
  21 H :   -0.030954
  22 H :   -0.023940
  23 H :   -0.029881
  24 H :   -0.034751
  25 H :   -0.005399
  26 H :   -0.003145
  27 H :   -0.023239
  28 H :   -0.057417
  29 H :   -0.065131
  30 H :   -0.006937
  31 H :   -0.029345
  32 H :   -0.019763
  33 H :   -0.034301
  34 H :   -0.152650
  35 H :   -0.024329

  Mayer bond orders larger than 0.100000
B(  0-C ,  1-C ) :   0.9822 B(  0-C , 20-H ) :   0.9758 B(  0-C , 21-H ) :   0.9794
B(  0-C , 22-H ) :   0.9789 B(  1-C ,  2-O ) :   0.8709 B(  1-C , 23-H ) :   0.9765
B(  1-C , 24-H ) :   0.9629 B(  2-O ,  3-C ) :   1.1075 B(  3-C ,  4-O ) :   2.0231
B(  3-C ,  5-C ) :   1.0566 B(  5-C ,  6-C ) :   1.6541 B(  5-C , 12-C ) :   0.9716
B(  6-C ,  7-C ) :   0.9700 B(  6-C ,  8-N ) :   1.1544 B(  7-C , 25-H ) :   0.9630
B(  7-C , 26-H ) :   0.9574 B(  7-C , 27-H ) :   0.9891 B(  8-N ,  9-C ) :   1.1785
B(  8-N , 28-H ) :   0.9480 B(  9-C , 10-S ) :   1.6146 B(  9-C , 11-N ) :   1.3021
B( 11-N , 12-C ) :   0.9767 B( 11-N , 29-H ) :   0.9540 B( 12-C , 13-C ) :   0.9436
B( 12-C , 30-H ) :   1.0028 B( 13-C , 14-C ) :   1.3584 B( 13-C , 19-C ) :   1.3754
B( 14-C , 15-C ) :   1.3875 B( 14-C , 31-H ) :   0.9725 B( 15-C , 16-C ) :   1.3638
B( 15-C , 32-H ) :   0.9697 B( 16-C , 17-C ) :   1.3277 B( 16-C , 33-H ) :   0.9840
B( 17-C , 18-O ) :   1.1149 B( 17-C , 19-C ) :   1.3787 B( 18-O , 34-H ) :   0.9789
B( 19-C , 35-H ) :   0.9567

MP2 TOTAL ENERGY:    -1274.329163732 Eh
FINAL SINGLE POINT ENERGY     -1274.329163731620

DIPOLE MOMENT
-------------
                                X             Y             Z
Electronic contribution:      9.88469      10.72824       5.95331
Nuclear contribution   :    -11.00946     -12.17052      -5.74512
                        -----------------------------------------
Total Dipole Moment    :     -1.12477      -1.44228       0.20818
                        -----------------------------------------
Magnitude (a.u.)       :      1.84083
Magnitude (Debye)      :      4.67901

Rotational constants in cm-1:     0.012277     0.008955     0.006357
Rotational constants in MHz :   368.045134   268.475834   190.591257

                             ****ORCA TERMINATED NORMALLY****
TOTAL RUN TIME: 0 days 1 hours 52 minutes 11 seconds 780 msec
