                         Program Version 5.0.0 -  RELEASE  -
|  1> ! ri-mp2 cc-pvtz cc-pvtz/c TightSCF NoKeepInts
|  2>
|  3> %scf
|  4>   MaxCore 4096
|  5> end
|  6> *xyz  0  1
|  7>     C       15.1709937   15.0677276   17.0338780
|  8>     C       16.3113179   14.1441383   16.5472200
|  9>     O       17.6045175   14.7932999   16.4737303
| 10>     C       17.7135675   16.1012615   16.1032834
| 11>     O       17.3008053   16.4508851   15.0116494
| 12>     C       17.8261925   17.0291120   17.2838491
| 13>     C       17.4369723   18.3288760   17.2342338
| 14>     C       16.7152701   19.0319118   16.1046822
| 15>     N       17.7580784   19.1924943   18.2864863
| 16>     C       18.6609204   18.9028551   19.2759609
| 17>     S       19.1549858   20.0381220   20.3722893
| 18>     N       19.1368313   17.6157717   19.3075191
| 19>     C       18.5749440   16.5004955   18.5217951
| 20>     C       17.7267093   15.6138521   19.4315359
| 21>     C       17.9927006   14.2344805   19.5266752
| 22>     C       17.2254851   13.4121787   20.3686567
| 23>     C       16.1878330   13.9738873   21.1313616
| 24>     C       15.9279674   15.3485903   21.0518505
| 25>     O       14.9264192   15.8942057   21.7863939
| 26>     C       16.6927571   16.1643395   20.2122341
| 27>     H       15.3826792   15.4893512   18.0188261
| 28>     H       14.2378655   14.4972777   17.1136991
| 29>     H       14.9929979   15.8896338   16.3295812
| 30>     H       16.3832732   13.2716838   17.2092280
| 31>     H       16.0471621   13.7765494   15.5468080
| 32>     H       17.3634685   19.1069296   15.2221036
| 33>     H       16.3913270   20.0452347   16.3691607
| 34>     H       15.8216823   18.4692760   15.8066688
| 35>     H       17.4275556   20.1441227   18.2671107
| 36>     H       19.7808179   17.4220175   20.0637722
| 37>     H       19.4206842   15.8986347   18.1604041
| 38>     H       18.7927906   13.7954095   18.9361609
| 39>     H       17.4376975   12.3460910   20.4298924
| 40>     H       15.5925731   13.3431228   21.7835034
| 41>     H       14.5543708   15.1921775   22.3411325
| 42>     H       16.4747864   17.2260033   20.1706634
| 43> *
| 44>
| 45>                          ****END OF INPUT****

CARTESIAN COORDINATES (ANGSTROEM)
---------------------------------
  C     15.170994   15.067728   17.033878
  C     16.311318   14.144138   16.547220
  O     17.604518   14.793300   16.473730
  C     17.713567   16.101261   16.103283
  O     17.300805   16.450885   15.011649
  C     17.826193   17.029112   17.283849
  C     17.436972   18.328876   17.234234
  C     16.715270   19.031912   16.104682
  N     17.758078   19.192494   18.286486
  C     18.660920   18.902855   19.275961
  S     19.154986   20.038122   20.372289
  N     19.136831   17.615772   19.307519
  C     18.574944   16.500495   18.521795
  C     17.726709   15.613852   19.431536
  C     17.992701   14.234481   19.526675
  C     17.225485   13.412179   20.368657
  C     16.187833   13.973887   21.131362
  C     15.927967   15.348590   21.051850
  O     14.926419   15.894206   21.786394
  C     16.692757   16.164340   20.212234
  H     15.382679   15.489351   18.018826
  H     14.237865   14.497278   17.113699
  H     14.992998   15.889634   16.329581
  H     16.383273   13.271684   17.209228
  H     16.047162   13.776549   15.546808
  H     17.363468   19.106930   15.222104
  H     16.391327   20.045235   16.369161
  H     15.821682   18.469276   15.806669
  H     17.427556   20.144123   18.267111
  H     19.780818   17.422017   20.063772
  H     19.420684   15.898635   18.160404
  H     18.792791   13.795409   18.936161
  H     17.437697   12.346091   20.429892
  H     15.592573   13.343123   21.783503
  H     14.554371   15.192177   22.341133
  H     16.474786   17.226003   20.170663

 Total Charge           Charge          ....    0
 Multiplicity           Mult            ....    1
 Number of Electrons    NEL             ....  154
 Basis Dimension        Dim             ....  828

ORBITAL ENERGIES
----------------

  NO   OCC          E(Eh)            E(eV)
   0   2.0000     -91.891257     -2500.4882
   1   2.0000     -20.599061      -560.5290
   2   2.0000     -20.579821      -560.0054
   3   2.0000     -20.550762      -559.2147
   4   2.0000     -15.630948      -425.3397
   5   2.0000     -15.609706      -424.7617
   6   2.0000     -11.394323      -310.0553
   7   2.0000     -11.385651      -309.8193
   8   2.0000     -11.336561      -308.4835
   9   2.0000     -11.316486      -307.9372
  10   2.0000     -11.312806      -307.8371
  11   2.0000     -11.300470      -307.5014
  12   2.0000     -11.262600      -306.4709
  13   2.0000     -11.260294      -306.4082
  14   2.0000     -11.258005      -306.3459
  15   2.0000     -11.254129      -306.2404
  16   2.0000     -11.246193      -306.0245
  17   2.0000     -11.241054      -305.8846
  18   2.0000     -11.240368      -305.8660
  19   2.0000     -11.224827      -305.4431
  20   2.0000      -8.896270      -242.0798
  21   2.0000      -6.577835      -178.9920
  22   2.0000      -6.575842      -178.9378
  23   2.0000      -6.575244      -178.9215
  24   2.0000      -1.446930       -39.3730
  25   2.0000      -1.418847       -38.6088
  26   2.0000      -1.350790       -36.7569
  27   2.0000      -1.342061       -36.5193
  28   2.0000      -1.240241       -33.7487
  29   2.0000      -1.159569       -31.5535
  30   2.0000      -1.120856       -30.5000
  31   2.0000      -1.044620       -28.4256
  32   2.0000      -1.031585       -28.0709
  33   2.0000      -1.018181       -27.7061
  34   2.0000      -0.999291       -27.1921
  35   2.0000      -0.986795       -26.8521
  36   2.0000      -0.924850       -25.1665
  37   2.0000      -0.896746       -24.4017
  38   2.0000      -0.848440       -23.0872
  39   2.0000      -0.842332       -22.9210
  40   2.0000      -0.837009       -22.7762
  41   2.0000      -0.817726       -22.2515
  42   2.0000      -0.747010       -20.3272
  43   2.0000      -0.734278       -19.9807
  44   2.0000      -0.722823       -19.6690
  45   2.0000      -0.698178       -18.9984
  46   2.0000      -0.691287       -18.8109
  47   2.0000      -0.674444       -18.3526
  48   2.0000      -0.669547       -18.2193
  49   2.0000      -0.663739       -18.0613
  50   2.0000      -0.651589       -17.7306
  51   2.0000      -0.645057       -17.5529
  52   2.0000      -0.637732       -17.3536
  53   2.0000      -0.622683       -16.9441
  54   2.0000      -0.609102       -16.5745
  55   2.0000      -0.601998       -16.3812
  56   2.0000      -0.600596       -16.3431
  57   2.0000      -0.579764       -15.7762
  58   2.0000      -0.572491       -15.5783
  59   2.0000      -0.564930       -15.3725
  60   2.0000      -0.549877       -14.9629
  61   2.0000      -0.544000       -14.8030
  62   2.0000      -0.538660       -14.6577
  63   2.0000      -0.530756       -14.4426
  64   2.0000      -0.526654       -14.3310
  65   2.0000      -0.515620       -14.0307
  66   2.0000      -0.503661       -13.7053
  67   2.0000      -0.498724       -13.5710
  68   2.0000      -0.478938       -13.0326
  69   2.0000      -0.464253       -12.6330
  70   2.0000      -0.454548       -12.3689
  71   2.0000      -0.444160       -12.0862
  72   2.0000      -0.357571        -9.7300
  73   2.0000      -0.350257        -9.5310
  74   2.0000      -0.330341        -8.9890
  75   2.0000      -0.324777        -8.8376
  76   2.0000      -0.318145        -8.6572
  77   0.0000       0.067093         1.8257
  78   0.0000       0.103238         2.8093
  79   0.0000       0.120361         3.2752
  80   0.0000       0.129220         3.5163
  81   0.0000       0.133146         3.6231

MULLIKEN ATOMIC CHARGES
-----------------------
   0 C :   -0.339519
   1 C :    0.038338
   2 O :   -0.392963
   3 C :    0.479388
   4 O :   -0.404879
   5 C :   -0.222944
   6 C :    0.148275
   7 C :   -0.273497
   8 N :   -0.121586
   9 C :    0.190720
  10 S :   -0.431793
  11 N :   -0.193595
  12 C :    0.039165
  13 C :    0.051747
  14 C :   -0.193359
  15 C :   -0.136538
  16 C :   -0.273816
  17 C :    0.308794
  18 O :   -0.357722
  19 C :   -0.261841
  20 H :    0.118550
  21 H :    0.114006
  22 H :    0.110487
  23 H :    0.114524
  24 H :    0.121030
  25 H :    0.137267
  26 H :    0.095090
  27 H :    0.126544
  28 H :    0.198152
  29 H :    0.191031
  30 H :    0.150297
  31 H :    0.159579
  32 H :    0.165252
  33 H :    0.133018
  34 H :    0.240670
  35 H :    0.172128
Sum of atomic charges:    0.0000000

LOEWDIN ATOMIC CHARGES
----------------------
   0 C :    0.107554
   1 C :   -0.010295
   2 O :    0.278474
   3 C :   -0.422547
   4 O :    0.123196
   5 C :   -0.096193
   6 C :   -0.060475
   7 C :    0.130454
   8 N :    0.406806
   9 C :   -0.459589
  10 S :   -0.031234
  11 N :    0.396300
  12 C :   -0.051643
  13 C :   -0.039658
  14 C :    0.018456
  15 C :    0.039117
  16 C :   -0.002089
  17 C :   -0.191863
  18 O :    0.396432
  19 C :    0.031320
  20 H :   -0.033094
  21 H :   -0.022469
  22 H :   -0.029374
  23 H :   -0.025151
  24 H :   -0.028103
  25 H :   -0.003126
  26 H :   -0.022904
  27 H :   -0.008140
  28 H :   -0.057872
  29 H :   -0.065003
  30 H :   -0.006270
  31 H :   -0.027865
  32 H :   -0.020633
  33 H :   -0.034924
  34 H :   -0.153415
  35 H :   -0.024180

  Mayer bond orders larger than 0.100000
B(  0-C ,  1-C ) :   0.9584 B(  0-C , 20-H ) :   0.9673 B(  0-C , 21-H ) :   0.9775
B(  0-C , 22-H ) :   0.9729 B(  1-C ,  2-O ) :   0.8789 B(  1-C , 23-H ) :   0.9775
B(  1-C , 24-H ) :   0.9863 B(  2-O ,  3-C ) :   1.1018 B(  3-C ,  4-O ) :   2.0194
B(  3-C ,  5-C ) :   1.0433 B(  5-C ,  6-C ) :   1.6600 B(  5-C , 12-C ) :   0.9646
B(  6-C ,  7-C ) :   0.9686 B(  6-C ,  8-N ) :   1.1394 B(  7-C , 25-H ) :   0.9567
B(  7-C , 26-H ) :   0.9880 B(  7-C , 27-H ) :   0.9667 B(  8-N ,  9-C ) :   1.1783
B(  8-N , 28-H ) :   0.9488 B(  9-C , 10-S ) :   1.6224 B(  9-C , 11-N ) :   1.2961
B( 11-N , 12-C ) :   0.9891 B( 11-N , 29-H ) :   0.9533 B( 12-C , 13-C ) :   0.9409
B( 12-C , 30-H ) :   1.0049 B( 13-C , 14-C ) :   1.3606 B( 13-C , 19-C ) :   1.3619
B( 14-C , 15-C ) :   1.3869 B( 14-C , 31-H ) :   0.9681 B( 15-C , 16-C ) :   1.3645
B( 15-C , 32-H ) :   0.9695 B( 16-C , 17-C ) :   1.3297 B( 16-C , 33-H ) :   0.9837
B( 17-C , 18-O ) :   1.1128 B( 17-C , 19-C ) :   1.3777 B( 18-O , 34-H ) :   0.9798
B( 19-C , 35-H ) :   0.9582

MP2 TOTAL ENERGY:    -1274.323360335 Eh
FINAL SINGLE POINT ENERGY     -1274.323360335032

DIPOLE MOMENT
-------------
                                X             Y             Z
Electronic contribution:     10.15759       7.90324       6.03414
Nuclear contribution   :    -11.30608      -9.50347      -6.02699
                        -----------------------------------------
Total Dipole Moment    :     -1.14848      -1.60023       0.00715
                        -----------------------------------------
Magnitude (a.u.)       :      1.96972
Magnitude (Debye)      :      5.00663

Rotational constants in cm-1:     0.011798     0.009936     0.006616
Rotational constants in MHz :   353.698915   297.866740   198.335192

                             ****ORCA TERMINATED NORMALLY****
TOTAL RUN TIME: 0 days 2 hours 17 minutes 35 seconds 582 msec
