                         Program Version 5.0.0 -  RELEASE  -
|  1> ! ri-mp2 cc-pvtz cc-pvtz/c TightSCF NoKeepInts
|  2>
|  3> %scf
|  4>   MaxCore 4096
|  5> end
|  6> *xyz  0  1
|  7>     C       15.9690581   13.1033406   16.4403523
|  8>     C       15.6857826   14.5842332   16.7419846
|  9>     O       16.8759186   15.3252901   16.4226562
| 10>     C       16.7685824   16.6812002   16.3190417
| 11>     O       15.8791909   17.1881605   15.6578844
| 12>     C       17.5406098   17.4127338   17.3844288
| 13>     C       17.4849193   18.7623621   17.5237236
| 14>     C       16.6689060   19.7377872   16.7023522
| 15>     N       18.2743346   19.4011918   18.4848156
| 16>     C       19.2408959   18.7880325   19.2363139
| 17>     S       20.2214934   19.6363431   20.2632001
| 18>     N       19.3613985   17.4301998   19.0862607
| 19>     C       18.4359972   16.5786442   18.3174379
| 20>     C       17.6295104   15.7131071   19.2807914
| 21>     C       17.9095272   14.3392388   19.4042808
| 22>     C       17.1648596   13.5337088   20.2820683
| 23>     C       16.1357749   14.1074842   21.0478808
| 24>     C       15.8612250   15.4772887   20.9355521
| 25>     O       14.8694784   16.0346892   21.6745698
| 26>     C       16.6021880   16.2759473   20.0590997
| 27>     H       16.8004218   12.7355414   17.0537850
| 28>     H       16.2303047   12.9680564   15.3833683
| 29>     H       15.0851294   12.4915481   16.6572302
| 30>     H       14.8435567   14.9186712   16.1206323
| 31>     H       15.4149016   14.7186850   17.7973646
| 32>     H       15.5961819   19.5398332   16.8238303
| 33>     H       16.9013275   19.6337767   15.6348356
| 34>     H       16.8462698   20.7841568   16.9771562
| 35>     H       18.2030817   20.3992230   18.6032756
| 36>     H       20.0615925   17.0018827   19.6779727
| 37>     H       19.0452437   15.9165897   17.6858816
| 38>     H       18.7024154   13.8923352   18.8102817
| 39>     H       17.3871689   12.4713748   20.3681673
| 40>     H       15.5588225   13.4897880   21.7284400
| 41>     H       14.5127648   15.3444002   22.2537366
| 42>     H       16.3781664   17.3351544   19.9933471
| 43> *
| 44>
| 45>                          ****END OF INPUT****

CARTESIAN COORDINATES (ANGSTROEM)
---------------------------------
  C     15.969058   13.103341   16.440352
  C     15.685783   14.584233   16.741985
  O     16.875919   15.325290   16.422656
  C     16.768582   16.681200   16.319042
  O     15.879191   17.188160   15.657884
  C     17.540610   17.412734   17.384429
  C     17.484919   18.762362   17.523724
  C     16.668906   19.737787   16.702352
  N     18.274335   19.401192   18.484816
  C     19.240896   18.788032   19.236314
  S     20.221493   19.636343   20.263200
  N     19.361398   17.430200   19.086261
  C     18.435997   16.578644   18.317438
  C     17.629510   15.713107   19.280791
  C     17.909527   14.339239   19.404281
  C     17.164860   13.533709   20.282068
  C     16.135775   14.107484   21.047881
  C     15.861225   15.477289   20.935552
  O     14.869478   16.034689   21.674570
  C     16.602188   16.275947   20.059100
  H     16.800422   12.735541   17.053785
  H     16.230305   12.968056   15.383368
  H     15.085129   12.491548   16.657230
  H     14.843557   14.918671   16.120632
  H     15.414902   14.718685   17.797365
  H     15.596182   19.539833   16.823830
  H     16.901328   19.633777   15.634836
  H     16.846270   20.784157   16.977156
  H     18.203082   20.399223   18.603276
  H     20.061592   17.001883   19.677973
  H     19.045244   15.916590   17.685882
  H     18.702415   13.892335   18.810282
  H     17.387169   12.471375   20.368167
  H     15.558822   13.489788   21.728440
  H     14.512765   15.344400   22.253737
  H     16.378166   17.335154   19.993347

 Total Charge           Charge          ....    0
 Multiplicity           Mult            ....    1
 Number of Electrons    NEL             ....  154
 Basis Dimension        Dim             ....  828

ORBITAL ENERGIES
----------------

  NO   OCC          E(Eh)            E(eV)
   0   2.0000     -91.890152     -2500.4582
   1   2.0000     -20.600573      -560.5701
   2   2.0000     -20.588083      -560.2302
   3   2.0000     -20.545309      -559.0663
   4   2.0000     -15.630515      -425.3279
   5   2.0000     -15.609544      -424.7573
   6   2.0000     -11.393015      -310.0197
   7   2.0000     -11.385122      -309.8049
   8   2.0000     -11.336952      -308.4942
   9   2.0000     -11.318408      -307.9895
  10   2.0000     -11.311164      -307.7924
  11   2.0000     -11.292616      -307.2877
  12   2.0000     -11.263381      -306.4922
  13   2.0000     -11.259828      -306.3955
  14   2.0000     -11.259441      -306.3850
  15   2.0000     -11.253023      -306.2103
  16   2.0000     -11.247424      -306.0580
  17   2.0000     -11.242199      -305.9158
  18   2.0000     -11.242009      -305.9106
  19   2.0000     -11.226402      -305.4859
  20   2.0000      -8.895202      -242.0507
  21   2.0000      -6.576773      -178.9631
  22   2.0000      -6.574771      -178.9086
  23   2.0000      -6.574181      -178.8926
  24   2.0000      -1.449783       -39.4506
  25   2.0000      -1.420263       -38.6473
  26   2.0000      -1.352999       -36.8170
  27   2.0000      -1.341567       -36.5059
  28   2.0000      -1.240162       -33.7465
  29   2.0000      -1.161456       -31.6048
  30   2.0000      -1.121391       -30.5146
  31   2.0000      -1.045440       -28.4479
  32   2.0000      -1.035724       -28.1835
  33   2.0000      -1.019556       -27.7435
  34   2.0000      -0.997106       -27.1326
  35   2.0000      -0.985557       -26.8184
  36   2.0000      -0.924785       -25.1647
  37   2.0000      -0.881540       -23.9879
  38   2.0000      -0.848571       -23.0908
  39   2.0000      -0.840918       -22.8825
  40   2.0000      -0.837686       -22.7946
  41   2.0000      -0.824173       -22.4269
  42   2.0000      -0.762340       -20.7443
  43   2.0000      -0.735719       -20.0199
  44   2.0000      -0.724164       -19.7055
  45   2.0000      -0.699661       -19.0387
  46   2.0000      -0.689802       -18.7705
  47   2.0000      -0.678381       -18.4597
  48   2.0000      -0.673948       -18.3391
  49   2.0000      -0.656941       -17.8763
  50   2.0000      -0.647884       -17.6298
  51   2.0000      -0.643700       -17.5160
  52   2.0000      -0.633381       -17.2352
  53   2.0000      -0.616742       -16.7824
  54   2.0000      -0.611222       -16.6322
  55   2.0000      -0.603173       -16.4132
  56   2.0000      -0.600647       -16.3444
  57   2.0000      -0.580943       -15.8083
  58   2.0000      -0.571969       -15.5641
  59   2.0000      -0.566041       -15.4028
  60   2.0000      -0.556101       -15.1323
  61   2.0000      -0.540397       -14.7050
  62   2.0000      -0.533695       -14.5226
  63   2.0000      -0.528659       -14.3855
  64   2.0000      -0.520641       -14.1674
  65   2.0000      -0.515496       -14.0273
  66   2.0000      -0.505330       -13.7507
  67   2.0000      -0.499737       -13.5985
  68   2.0000      -0.487239       -13.2585
  69   2.0000      -0.464914       -12.6509
  70   2.0000      -0.457045       -12.4368
  71   2.0000      -0.445031       -12.1099
  72   2.0000      -0.356014        -9.6876
  73   2.0000      -0.353479        -9.6187
  74   2.0000      -0.329969        -8.9789
  75   2.0000      -0.325754        -8.8642
  76   2.0000      -0.317452        -8.6383
  77   0.0000       0.070813         1.9269
  78   0.0000       0.102165         2.7801
  79   0.0000       0.123214         3.3528
  80   0.0000       0.129184         3.5153
  81   0.0000       0.134192         3.6515

MULLIKEN ATOMIC CHARGES
-----------------------
   0 C :   -0.266602
   1 C :    0.007540
   2 O :   -0.378085
   3 C :    0.502398
   4 O :   -0.417492
   5 C :   -0.276026
   6 C :    0.161273
   7 C :   -0.269492
   8 N :   -0.123810
   9 C :    0.213373
  10 S :   -0.438703
  11 N :   -0.205216
  12 C :    0.062713
  13 C :    0.021371
  14 C :   -0.171859
  15 C :   -0.134474
  16 C :   -0.273652
  17 C :    0.307513
  18 O :   -0.356142
  19 C :   -0.245327
  20 H :    0.088595
  21 H :    0.103787
  22 H :    0.089554
  23 H :    0.127561
  24 H :    0.109431
  25 H :    0.131923
  26 H :    0.131299
  27 H :    0.095253
  28 H :    0.197982
  29 H :    0.194386
  30 H :    0.149453
  31 H :    0.154819
  32 H :    0.164458
  33 H :    0.133119
  34 H :    0.241483
  35 H :    0.167599
Sum of atomic charges:    0.0000000

LOEWDIN ATOMIC CHARGES
----------------------
   0 C :    0.108470
   1 C :   -0.018203
   2 O :    0.295740
   3 C :   -0.416429
   4 O :    0.110756
   5 C :   -0.097860
   6 C :   -0.058339
   7 C :    0.131497
   8 N :    0.406962
   9 C :   -0.456175
  10 S :   -0.034203
  11 N :    0.396195
  12 C :   -0.052749
  13 C :   -0.038305
  14 C :    0.015052
  15 C :    0.041726
  16 C :   -0.002116
  17 C :   -0.190576
  18 O :    0.396570
  19 C :    0.030399
  20 H :   -0.032321
  21 H :   -0.025513
  22 H :   -0.025268
  23 H :   -0.028507
  24 H :   -0.032053
  25 H :   -0.004708
  26 H :   -0.003657
  27 H :   -0.023227
  28 H :   -0.057336
  29 H :   -0.064955
  30 H :   -0.008900
  31 H :   -0.030194
  32 H :   -0.020253
  33 H :   -0.034652
  34 H :   -0.152966
  35 H :   -0.023900

  Mayer bond orders larger than 0.100000
B(  0-C ,  1-C ) :   0.9774 B(  0-C , 20-H ) :   0.9779 B(  0-C , 21-H ) :   0.9783
B(  0-C , 22-H ) :   0.9766 B(  1-C ,  2-O ) :   0.8738 B(  1-C , 23-H ) :   0.9789
B(  1-C , 24-H ) :   0.9653 B(  2-O ,  3-C ) :   1.1204 B(  3-C ,  4-O ) :   2.0035
B(  3-C ,  5-C ) :   1.0678 B(  5-C ,  6-C ) :   1.6497 B(  5-C , 12-C ) :   0.9718
B(  6-C ,  7-C ) :   0.9666 B(  6-C ,  8-N ) :   1.1605 B(  7-C , 25-H ) :   0.9597
B(  7-C , 26-H ) :   0.9603 B(  7-C , 27-H ) :   0.9903 B(  8-N ,  9-C ) :   1.1821
B(  8-N , 28-H ) :   0.9477 B(  9-C , 10-S ) :   1.6078 B(  9-C , 11-N ) :   1.3061
B( 11-N , 12-C ) :   0.9760 B( 11-N , 29-H ) :   0.9525 B( 12-C , 13-C ) :   0.9409
B( 12-C , 30-H ) :   1.0012 B( 13-C , 14-C ) :   1.3561 B( 13-C , 19-C ) :   1.3788
B( 14-C , 15-C ) :   1.3864 B( 14-C , 31-H ) :   0.9719 B( 15-C , 16-C ) :   1.3634
B( 15-C , 32-H ) :   0.9693 B( 16-C , 17-C ) :   1.3291 B( 16-C , 33-H ) :   0.9841
B( 17-C , 18-O ) :   1.1140 B( 17-C , 19-C ) :   1.3743 B( 18-O , 34-H ) :   0.9791
B( 19-C , 35-H ) :   0.9576

MP2 TOTAL ENERGY:    -1274.338046859 Eh
FINAL SINGLE POINT ENERGY     -1274.338046859407

DIPOLE MOMENT
-------------
                                X             Y             Z
Electronic contribution:      8.82860      11.25368       6.28327
Nuclear contribution   :     -9.88418     -12.76619      -6.30104
                        -----------------------------------------
Total Dipole Moment    :     -1.05558      -1.51251      -0.01777
                        -----------------------------------------
Magnitude (a.u.)       :      1.84452
Magnitude (Debye)      :      4.68838

Rotational constants in cm-1:     0.012614     0.008577     0.006388
Rotational constants in MHz :   378.157025   257.137008   191.510197

                             ****ORCA TERMINATED NORMALLY****
TOTAL RUN TIME: 0 days 2 hours 7 minutes 4 seconds 300 msec
