                         Program Version 4.2.0 -  RELEASE  -
|  1> ! ri-mp2 cc-pvtz cc-pvtz/c TightSCF  NoKeepInts
|  2>
|  3> %scf
|  4>   MaxCore 4096
|  5> end
|  6> *xyz  0  1
|  7>     C       14.6968475   15.2069678   16.9981947
|  8>     C       15.7875988   14.7251041   16.0252827
|  9>     O       16.6673409   15.8337572   15.7649615
| 10>     C       17.8642970   15.8788268   16.4175430
| 11>     O       18.5580147   14.8820177   16.5317352
| 12>     C       17.9360394   17.0014014   17.4090278
| 13>     C       17.3426544   18.2090694   17.2325748
| 14>     C       16.5452250   18.6787374   16.0336657
| 15>     N       17.5096026   19.2118158   18.1927994
| 16>     C       18.3644729   19.1362886   19.2611468
| 17>     S       18.5975864   20.4160070   20.2825312
| 18>     N       19.0166561   17.9420747   19.4404176
| 19>     C       18.7451352   16.7092786   18.6764647
| 20>     C       18.0276606   15.6821546   19.5490693
| 21>     C       18.5221667   14.3692726   19.6568926
| 22>     C       17.8569709   13.4149255   20.4445989
| 23>     C       16.6849612   13.7747948   21.1311274
| 24>     C       16.1869754   15.0802504   21.0242702
| 25>     O       15.0493218   15.4283553   21.6765375
| 26>     C       16.8517291   16.0280738   20.2401080
| 27>     H       15.1379090   15.5155049   17.9538219
| 28>     H       13.9805583   14.4013168   17.1998968
| 29>     H       14.1470004   16.0574292   16.5772291
| 30>     H       16.3228433   13.8618068   16.4447665
| 31>     H       15.3148725   14.4081825   15.0868277
| 32>     H       15.5327214   18.2573820   16.0531035
| 33>     H       17.0218772   18.3631305   15.0971605
| 34>     H       16.4526846   19.7708524   15.9925073
| 35>     H       17.0403781   20.0959958   18.0777149
| 36>     H       19.6191345   17.9033378   20.2525456
| 37>     H       19.7126728   16.2865548   18.3690538
| 38>     H       19.4176799   14.0828575   19.1103933
| 39>     H       18.2474908   12.4012018   20.5141895
| 40>     H       16.1664409   13.0399481   21.7379044
| 41>     H       14.7729217   14.6646669   22.2051523
| 42>     H       16.4485577   17.0326587   20.1727840
| 43> *
| 44>
| 45>                          ****END OF INPUT****

CARTESIAN COORDINATES (ANGSTROEM)
---------------------------------
  C     14.696847   15.206968   16.998195
  C     15.787599   14.725104   16.025283
  O     16.667341   15.833757   15.764961
  C     17.864297   15.878827   16.417543
  O     18.558015   14.882018   16.531735
  C     17.936039   17.001401   17.409028
  C     17.342654   18.209069   17.232575
  C     16.545225   18.678737   16.033666
  N     17.509603   19.211816   18.192799
  C     18.364473   19.136289   19.261147
  S     18.597586   20.416007   20.282531
  N     19.016656   17.942075   19.440418
  C     18.745135   16.709279   18.676465
  C     18.027661   15.682155   19.549069
  C     18.522167   14.369273   19.656893
  C     17.856971   13.414926   20.444599
  C     16.684961   13.774795   21.131127
  C     16.186975   15.080250   21.024270
  O     15.049322   15.428355   21.676537
  C     16.851729   16.028074   20.240108
  H     15.137909   15.515505   17.953822
  H     13.980558   14.401317   17.199897
  H     14.147000   16.057429   16.577229
  H     16.322843   13.861807   16.444767
  H     15.314872   14.408183   15.086828
  H     15.532721   18.257382   16.053103
  H     17.021877   18.363131   15.097160
  H     16.452685   19.770852   15.992507
  H     17.040378   20.095996   18.077715
  H     19.619134   17.903338   20.252546
  H     19.712673   16.286555   18.369054
  H     19.417680   14.082857   19.110393
  H     18.247491   12.401202   20.514190
  H     16.166441   13.039948   21.737904
  H     14.772922   14.664667   22.205152
  H     16.448558   17.032659   20.172784

 Total Charge           Charge          ....    0
 Multiplicity           Mult            ....    1
 Number of Electrons    NEL             ....  154
 Basis Dimension        Dim             ....  828

ORBITAL ENERGIES
----------------

  NO   OCC          E(Eh)            E(eV)
   0   2.0000     -91.889161     -2500.4312
   1   2.0000     -20.595643      -560.4359
   2   2.0000     -20.589123      -560.2585
   3   2.0000     -20.552787      -559.2698
   4   2.0000     -15.628870      -425.2832
   5   2.0000     -15.608376      -424.7255
   6   2.0000     -11.395449      -310.0859
   7   2.0000     -11.384422      -309.7859
   8   2.0000     -11.334300      -308.4220
   9   2.0000     -11.311728      -307.8078
  10   2.0000     -11.308575      -307.7220
  11   2.0000     -11.298667      -307.4524
  12   2.0000     -11.260334      -306.4093
  13   2.0000     -11.259869      -306.3966
  14   2.0000     -11.257598      -306.3348
  15   2.0000     -11.251972      -306.1817
  16   2.0000     -11.241515      -305.8972
  17   2.0000     -11.237380      -305.7847
  18   2.0000     -11.234474      -305.7056
  19   2.0000     -11.227736      -305.5222
  20   2.0000      -8.894223      -242.0241
  21   2.0000      -6.575800      -178.9366
  22   2.0000      -6.573792      -178.8820
  23   2.0000      -6.573206      -178.8660
  24   2.0000      -1.452802       -39.5328
  25   2.0000      -1.415429       -38.5158
  26   2.0000      -1.356943       -36.9243
  27   2.0000      -1.339998       -36.4632
  28   2.0000      -1.238074       -33.6897
  29   2.0000      -1.155986       -31.4560
  30   2.0000      -1.121299       -30.5121
  31   2.0000      -1.044349       -28.4182
  32   2.0000      -1.034214       -28.1424
  33   2.0000      -1.013582       -27.5810
  34   2.0000      -0.999518       -27.1983
  35   2.0000      -0.985529       -26.8176
  36   2.0000      -0.923515       -25.1301
  37   2.0000      -0.889241       -24.1975
  38   2.0000      -0.848030       -23.0761
  39   2.0000      -0.838138       -22.8069
  40   2.0000      -0.832053       -22.6413
  41   2.0000      -0.818543       -22.2737
  42   2.0000      -0.757184       -20.6040
  43   2.0000      -0.736322       -20.0363
  44   2.0000      -0.727885       -19.8067
  45   2.0000      -0.694200       -18.8901
  46   2.0000      -0.685916       -18.6647
  47   2.0000      -0.677088       -18.4245
  48   2.0000      -0.676820       -18.4172
  49   2.0000      -0.660871       -17.9832
  50   2.0000      -0.652676       -17.7602
  51   2.0000      -0.645508       -17.5652
  52   2.0000      -0.636591       -17.3225
  53   2.0000      -0.605579       -16.4786
  54   2.0000      -0.602714       -16.4007
  55   2.0000      -0.599466       -16.3123
  56   2.0000      -0.590385       -16.0652
  57   2.0000      -0.584331       -15.9005
  58   2.0000      -0.575731       -15.6664
  59   2.0000      -0.566800       -15.4234
  60   2.0000      -0.561832       -15.2882
  61   2.0000      -0.552744       -15.0409
  62   2.0000      -0.543341       -14.7851
  63   2.0000      -0.521113       -14.1802
  64   2.0000      -0.519462       -14.1353
  65   2.0000      -0.512230       -13.9385
  66   2.0000      -0.500190       -13.6109
  67   2.0000      -0.497268       -13.5313
  68   2.0000      -0.482421       -13.1273
  69   2.0000      -0.463904       -12.6235
  70   2.0000      -0.458891       -12.4871
  71   2.0000      -0.451497       -12.2859
  72   2.0000      -0.354469        -9.6456
  73   2.0000      -0.347528        -9.4567
  74   2.0000      -0.328384        -8.9358
  75   2.0000      -0.319144        -8.6844
  76   2.0000      -0.316048        -8.6001
  77   0.0000       0.071647         1.9496
  78   0.0000       0.106556         2.8995
  79   0.0000       0.119928         3.2634
  80   0.0000       0.132496         3.6054
  81   0.0000       0.138587         3.7711

MULLIKEN ATOMIC CHARGES
-----------------------
   0 C :   -0.296450
   1 C :    0.037364
   2 O :   -0.371077
   3 C :    0.467962
   4 O :   -0.409573
   5 C :   -0.198949
   6 C :    0.143373
   7 C :   -0.283836
   8 N :   -0.123410
   9 C :    0.197696
  10 S :   -0.438342
  11 N :   -0.200355
  12 C :    0.049617
  13 C :    0.066370
  14 C :   -0.172854
  15 C :   -0.134095
  16 C :   -0.277532
  17 C :    0.331456
  18 O :   -0.361899
  19 C :   -0.321509
  20 H :    0.113024
  21 H :    0.105908
  22 H :    0.090042
  23 H :    0.111118
  24 H :    0.104591
  25 H :    0.125403
  26 H :    0.125410
  27 H :    0.105271
  28 H :    0.197332
  29 H :    0.194037
  30 H :    0.156408
  31 H :    0.159775
  32 H :    0.161467
  33 H :    0.130714
  34 H :    0.240571
  35 H :    0.174973
Sum of atomic charges:   -0.0000000

LOEWDIN ATOMIC CHARGES
----------------------
   0 C :    0.103986
   1 C :   -0.014225
   2 O :    0.295204
   3 C :   -0.415302
   4 O :    0.121005
   5 C :   -0.093797
   6 C :   -0.071888
   7 C :    0.126192
   8 N :    0.404723
   9 C :   -0.458400
  10 S :   -0.035586
  11 N :    0.397261
  12 C :   -0.045489
  13 C :   -0.041088
  14 C :    0.021567
  15 C :    0.041388
  16 C :   -0.002288
  17 C :   -0.194116
  18 O :    0.393953
  19 C :    0.028548
  20 H :   -0.027445
  21 H :   -0.024606
  22 H :   -0.032072
  23 H :   -0.025647
  24 H :   -0.026886
  25 H :   -0.011492
  26 H :   -0.007618
  27 H :   -0.019736
  28 H :   -0.058719
  29 H :   -0.064019
  30 H :   -0.004159
  31 H :   -0.024214
  32 H :   -0.020367
  33 H :   -0.035719
  34 H :   -0.154008
  35 H :   -0.024940

  Mayer bond orders larger than 0.100000
B(  0-C ,  1-C ) :   0.9656 B(  0-C , 20-H ) :   0.9705 B(  0-C , 21-H ) :   0.9792
B(  0-C , 22-H ) :   0.9796 B(  1-C ,  2-O ) :   0.8877 B(  1-C , 23-H ) :   0.9716
B(  1-C , 24-H ) :   0.9854 B(  2-O ,  3-C ) :   1.1085 B(  3-C ,  4-O ) :   2.0136
B(  3-C ,  5-C ) :   1.0270 B(  5-C ,  6-C ) :   1.6643 B(  5-C , 12-C ) :   0.9619
B(  6-C ,  7-C ) :   0.9552 B(  6-C ,  8-N ) :   1.1396 B(  7-C , 25-H ) :   0.9635
B(  7-C , 26-H ) :   0.9692 B(  7-C , 27-H ) :   0.9883 B(  8-N ,  9-C ) :   1.1829
B(  8-N , 28-H ) :   0.9495 B(  9-C , 10-S ) :   1.6131 B(  9-C , 11-N ) :   1.2993
B( 11-N , 12-C ) :   0.9916 B( 11-N , 29-H ) :   0.9518 B( 12-C , 13-C ) :   0.9461
B( 12-C , 30-H ) :   0.9987 B( 13-C , 14-C ) :   1.3802 B( 13-C , 19-C ) :   1.3478
B( 14-C , 15-C ) :   1.3950 B( 14-C , 31-H ) :   0.9619 B( 15-C , 16-C ) :   1.3632
B( 15-C , 32-H ) :   0.9707 B( 16-C , 17-C ) :   1.3319 B( 16-C , 33-H ) :   0.9846
B( 17-C , 18-O ) :   1.1061 B( 17-C , 19-C ) :   1.3650 B( 18-O , 34-H ) :   0.9804
B( 19-C , 35-H ) :   0.9585

MP2 TOTAL ENERGY:    -1274.331561736 Eh
FINAL SINGLE POINT ENERGY     -1274.331561736365

DIPOLE MOMENT
-------------
                                X             Y             Z
Electronic contribution:     10.62194       8.08009       6.70858
Nuclear contribution   :    -11.91576      -9.40352      -7.45846
                        -----------------------------------------
Total Dipole Moment    :     -1.29382      -1.32342      -0.74988
                        -----------------------------------------
Magnitude (a.u.)       :      1.99693
Magnitude (Debye)      :      5.07580

Rotational constants in cm-1:     0.011622     0.009454     0.006793
Rotational constants in MHz :   348.418001   283.414151   203.637749

                             ****ORCA TERMINATED NORMALLY****
TOTAL RUN TIME: 0 days 1 hours 41 minutes 20 seconds 347 msec
