                         Program Version 5.0.0 -  RELEASE  -
|  1> ! ri-mp2 cc-pvtz cc-pvtz/c TightSCF NoKeepInts
|  2>
|  3> %scf
|  4>   MaxCore 4096
|  5> end
|  6> *xyz  0  1
|  7>     C       14.1830968   15.4961082   16.1690212
|  8>     C       15.4727987   15.2822150   16.9802326
|  9>     O       16.5828635   15.3429784   16.0627144
| 10>     C       17.8348236   15.6644227   16.5113362
| 11>     O       18.7380836   14.8524164   16.4289938
| 12>     C       17.9277794   16.8562879   17.4134686
| 13>     C       17.3039286   18.0346369   17.1716549
| 14>     C       16.4641701   18.4054139   15.9689020
| 15>     N       17.4753931   19.1052706   18.0527413
| 16>     C       18.3381834   19.1106699   19.1175796
| 17>     S       18.5408749   20.4506861   20.0648096
| 18>     N       19.0219610   17.9452803   19.3610485
| 19>     C       18.8104305   16.6704268   18.6479693
| 20>     C       18.2023482   15.6196349   19.5721856
| 21>     C       18.7488714   14.3247918   19.6322707
| 22>     C       18.1763501   13.3432776   20.4583230
| 23>     C       17.0444279   13.6570067   21.2296200
| 24>     C       16.4928593   14.9435848   21.1677897
| 25>     O       15.3912355   15.2465386   21.8992482
| 26>     C       17.0645167   15.9185981   20.3443605
| 27>     H       13.3070732   15.4793942   16.8288899
| 28>     H       14.0642422   14.6987211   15.4245834
| 29>     H       14.1983179   16.4560435   15.6411781
| 30>     H       15.5318682   16.0598162   17.7514944
| 31>     H       15.4543982   14.3061842   17.4836260
| 32>     H       16.6091753   17.7129860   15.1309278
| 33>     H       16.7279373   19.4027498   15.5947584
| 34>     H       15.3981656   18.4143806   16.2235428
| 35>     H       16.9905872   19.9730642   17.8853747
| 36>     H       19.6341688   17.9702305   20.1667906
| 37>     H       19.7923911   16.3082040   18.3092095
| 38>     H       19.6118031   14.0729193   19.0194910
| 39>     H       18.6064385   12.3435950   20.4912403
| 40>     H       16.5974827   12.9002750   21.8659858
| 41>     H       15.1866946   14.4749592   22.4493007
| 42>     H       16.6212602   16.9082314   20.3133367
| 43> *
| 44>
| 45>                          ****END OF INPUT****

CARTESIAN COORDINATES (ANGSTROEM)
---------------------------------
  C     14.183097   15.496108   16.169021
  C     15.472799   15.282215   16.980233
  O     16.582863   15.342978   16.062714
  C     17.834824   15.664423   16.511336
  O     18.738084   14.852416   16.428994
  C     17.927779   16.856288   17.413469
  C     17.303929   18.034637   17.171655
  C     16.464170   18.405414   15.968902
  N     17.475393   19.105271   18.052741
  C     18.338183   19.110670   19.117580
  S     18.540875   20.450686   20.064810
  N     19.021961   17.945280   19.361048
  C     18.810430   16.670427   18.647969
  C     18.202348   15.619635   19.572186
  C     18.748871   14.324792   19.632271
  C     18.176350   13.343278   20.458323
  C     17.044428   13.657007   21.229620
  C     16.492859   14.943585   21.167790
  O     15.391235   15.246539   21.899248
  C     17.064517   15.918598   20.344361
  H     13.307073   15.479394   16.828890
  H     14.064242   14.698721   15.424583
  H     14.198318   16.456043   15.641178
  H     15.531868   16.059816   17.751494
  H     15.454398   14.306184   17.483626
  H     16.609175   17.712986   15.130928
  H     16.727937   19.402750   15.594758
  H     15.398166   18.414381   16.223543
  H     16.990587   19.973064   17.885375
  H     19.634169   17.970230   20.166791
  H     19.792391   16.308204   18.309209
  H     19.611803   14.072919   19.019491
  H     18.606438   12.343595   20.491240
  H     16.597483   12.900275   21.865986
  H     15.186695   14.474959   22.449301
  H     16.621260   16.908231   20.313337

 Total Charge           Charge          ....    0
 Multiplicity           Mult            ....    1
 Number of Electrons    NEL             ....  154
 Basis Dimension        Dim             ....  828

ORBITAL ENERGIES
----------------

  NO   OCC          E(Eh)            E(eV)
   0   2.0000     -91.890815     -2500.4762
   1   2.0000     -20.598947      -560.5259
   2   2.0000     -20.592484      -560.3500
   3   2.0000     -20.553086      -559.2779
   4   2.0000     -15.629589      -425.3027
   5   2.0000     -15.610994      -424.7968
   6   2.0000     -11.395690      -310.0925
   7   2.0000     -11.386991      -309.8558
   8   2.0000     -11.334533      -308.4283
   9   2.0000     -11.315340      -307.9060
  10   2.0000     -11.311854      -307.8112
  11   2.0000     -11.303575      -307.5859
  12   2.0000     -11.266038      -306.5645
  13   2.0000     -11.264049      -306.5104
  14   2.0000     -11.261248      -306.4341
  15   2.0000     -11.255108      -306.2670
  16   2.0000     -11.244824      -305.9872
  17   2.0000     -11.241127      -305.8866
  18   2.0000     -11.237725      -305.7940
  19   2.0000     -11.235888      -305.7441
  20   2.0000      -8.895906      -242.0699
  21   2.0000      -6.577486      -178.9825
  22   2.0000      -6.575470      -178.9276
  23   2.0000      -6.574887      -178.9118
  24   2.0000      -1.449088       -39.4317
  25   2.0000      -1.418739       -38.6058
  26   2.0000      -1.359293       -36.9882
  27   2.0000      -1.341910       -36.5152
  28   2.0000      -1.240517       -33.7562
  29   2.0000      -1.159932       -31.5634
  30   2.0000      -1.124705       -30.6048
  31   2.0000      -1.047488       -28.5036
  32   2.0000      -1.040231       -28.3061
  33   2.0000      -1.017290       -27.6819
  34   2.0000      -1.004402       -27.3312
  35   2.0000      -0.989065       -26.9138
  36   2.0000      -0.926899       -25.2222
  37   2.0000      -0.882213       -24.0062
  38   2.0000      -0.853952       -23.2372
  39   2.0000      -0.842902       -22.9365
  40   2.0000      -0.835787       -22.7429
  41   2.0000      -0.834962       -22.7205
  42   2.0000      -0.758238       -20.6327
  43   2.0000      -0.738941       -20.1076
  44   2.0000      -0.731331       -19.9005
  45   2.0000      -0.696865       -18.9627
  46   2.0000      -0.687787       -18.7156
  47   2.0000      -0.683270       -18.5927
  48   2.0000      -0.676332       -18.4039
  49   2.0000      -0.661237       -17.9932
  50   2.0000      -0.652413       -17.7531
  51   2.0000      -0.642272       -17.4771
  52   2.0000      -0.638082       -17.3631
  53   2.0000      -0.621031       -16.8991
  54   2.0000      -0.608001       -16.5445
  55   2.0000      -0.607452       -16.5296
  56   2.0000      -0.602549       -16.3962
  57   2.0000      -0.584446       -15.9036
  58   2.0000      -0.577179       -15.7059
  59   2.0000      -0.568135       -15.4597
  60   2.0000      -0.561620       -15.2825
  61   2.0000      -0.554853       -15.0983
  62   2.0000      -0.541676       -14.7398
  63   2.0000      -0.530481       -14.4351
  64   2.0000      -0.523970       -14.2579
  65   2.0000      -0.515784       -14.0352
  66   2.0000      -0.502234       -13.6665
  67   2.0000      -0.497280       -13.5317
  68   2.0000      -0.487444       -13.2640
  69   2.0000      -0.468520       -12.7491
  70   2.0000      -0.462162       -12.5761
  71   2.0000      -0.450389       -12.2557
  72   2.0000      -0.357680        -9.7330
  73   2.0000      -0.350923        -9.5491
  74   2.0000      -0.330245        -8.9864
  75   2.0000      -0.322863        -8.7856
  76   2.0000      -0.318963        -8.6794
  77   0.0000       0.075838         2.0637
  78   0.0000       0.104211         2.8357
  79   0.0000       0.116827         3.1790
  80   0.0000       0.130105         3.5403
  81   0.0000       0.134648         3.6640

MULLIKEN ATOMIC CHARGES
-----------------------
   0 C :   -0.270214
   1 C :    0.011679
   2 O :   -0.344817
   3 C :    0.443570
   4 O :   -0.380655
   5 C :   -0.226744
   6 C :    0.151410
   7 C :   -0.332180
   8 N :   -0.130759
   9 C :    0.198866
  10 S :   -0.438426
  11 N :   -0.204812
  12 C :    0.060850
  13 C :    0.042976
  14 C :   -0.180152
  15 C :   -0.130786
  16 C :   -0.279076
  17 C :    0.317076
  18 O :   -0.358313
  19 C :   -0.297050
  20 H :    0.096156
  21 H :    0.109495
  22 H :    0.091908
  23 H :    0.098996
  24 H :    0.124526
  25 H :    0.139908
  26 H :    0.135074
  27 H :    0.121280
  28 H :    0.197640
  29 H :    0.195954
  30 H :    0.161372
  31 H :    0.164110
  32 H :    0.162820
  33 H :    0.131735
  34 H :    0.241735
  35 H :    0.174850
Sum of atomic charges:    0.0000000

LOEWDIN ATOMIC CHARGES
----------------------
   0 C :    0.108803
   1 C :   -0.018092
   2 O :    0.295373
   3 C :   -0.416992
   4 O :    0.130525
   5 C :   -0.089797
   6 C :   -0.087917
   7 C :    0.126573
   8 N :    0.403368
   9 C :   -0.457705
  10 S :   -0.035416
  11 N :    0.397239
  12 C :   -0.045695
  13 C :   -0.043395
  14 C :    0.022609
  15 C :    0.044217
  16 C :   -0.000818
  17 C :   -0.194683
  18 O :    0.393656
  19 C :    0.027340
  20 H :   -0.023621
  21 H :   -0.023619
  22 H :   -0.032198
  23 H :   -0.039177
  24 H :   -0.025000
  25 H :   -0.008067
  26 H :   -0.012212
  27 H :   -0.016812
  28 H :   -0.057069
  29 H :   -0.063454
  30 H :   -0.003118
  31 H :   -0.022522
  32 H :   -0.019068
  33 H :   -0.034898
  34 H :   -0.153100
  35 H :   -0.025257

  Mayer bond orders larger than 0.100000
B(  0-C ,  1-C ) :   0.9756 B(  0-C , 20-H ) :   0.9759 B(  0-C , 21-H ) :   0.9793
B(  0-C , 22-H ) :   0.9783 B(  1-C ,  2-O ) :   0.8962 B(  1-C , 23-H ) :   0.9624
B(  1-C , 24-H ) :   0.9792 B(  2-O ,  3-C ) :   1.1467 B(  3-C ,  4-O ) :   2.0911
B(  3-C ,  5-C ) :   0.9533 B(  5-C ,  6-C ) :   1.6670 B(  5-C , 12-C ) :   0.9613
B(  6-C ,  7-C ) :   0.9442 B(  6-C ,  8-N ) :   1.1286 B(  7-C , 25-H ) :   0.9739
B(  7-C , 26-H ) :   0.9779 B(  7-C , 27-H ) :   0.9635 B(  8-N ,  9-C ) :   1.1873
B(  8-N , 28-H ) :   0.9512 B(  9-C , 10-S ) :   1.6139 B(  9-C , 11-N ) :   1.2945
B( 11-N , 12-C ) :   0.9981 B( 11-N , 29-H ) :   0.9509 B( 12-C , 13-C ) :   0.9416
B( 12-C , 30-H ) :   0.9982 B( 13-C , 14-C ) :   1.3852 B( 13-C , 19-C ) :   1.3487
B( 14-C , 15-C ) :   1.3956 B( 14-C , 31-H ) :   0.9610 B( 15-C , 16-C ) :   1.3644
B( 15-C , 32-H ) :   0.9703 B( 16-C , 17-C ) :   1.3290 B( 16-C , 33-H ) :   0.9846
B( 17-C , 18-O ) :   1.1113 B( 17-C , 19-C ) :   1.3716 B( 18-O , 34-H ) :   0.9794
B( 19-C , 35-H ) :   0.9572

MP2 TOTAL ENERGY:    -1274.332902757 Eh
FINAL SINGLE POINT ENERGY     -1274.332902756556

DIPOLE MOMENT
-------------
                                X             Y             Z
Electronic contribution:     11.98109       6.25959       7.41872
Nuclear contribution   :    -13.44584      -7.28269      -7.68489
                        -----------------------------------------
Total Dipole Moment    :     -1.46475      -1.02310      -0.26618
                        -----------------------------------------
Magnitude (a.u.)       :      1.80640
Magnitude (Debye)      :      4.59150

Rotational constants in cm-1:     0.011095     0.009377     0.006825
Rotational constants in MHz :   332.606016   281.114065   204.609281

                             ****ORCA TERMINATED NORMALLY****
TOTAL RUN TIME: 0 days 1 hours 55 minutes 6 seconds 332 msec
