                         Program Version 4.2.0 -  RELEASE  -
|  1> ! ri-mp2 cc-pvtz cc-pvtz/c TightSCF  NoKeepInts
|  2>
|  3> %scf
|  4>   MaxCore 4096
|  5> end
|  6> *xyz  0  1
|  7>     C       15.9043201   13.2777741   15.6454988
|  8>     C       15.4591179   14.4795932   16.4951131
|  9>     O       16.5978245   15.3468808   16.6368466
| 10>     C       16.4276908   16.7029549   16.6314717
| 11>     O       15.4766953   17.2385423   16.0881271
| 12>     C       17.4026995   17.4096642   17.5327508
| 13>     C       17.4287668   18.7608011   17.6589875
| 14>     C       16.5365413   19.7638920   16.9595308
| 15>     N       18.3817140   19.3700950   18.4807990
| 16>     C       19.4010517   18.7146323   19.1182999
| 17>     S       20.5466594   19.5224078   19.9963286
| 18>     N       19.4263752   17.3494528   18.9890160
| 19>     C       18.3826082   16.5381701   18.3362472
| 20>     C       17.6638224   15.6869173   19.3796158
| 21>     C       17.7984421   14.2856866   19.3725728
| 22>     C       17.1315007   13.4983419   20.3261353
| 23>     C       16.3260725   14.1169401   21.2974927
| 24>     C       16.1938754   15.5123102   21.3107157
| 25>     O       15.4176136   16.1124903   22.2477922
| 26>     C       16.8577423   16.2930699   20.3595091
| 27>     H       15.0726174   12.5766128   15.5058624
| 28>     H       16.7276944   12.7425010   16.1342328
| 29>     H       16.2435709   13.6094351   14.6561489
| 30>     H       14.6282771   14.9810440   15.9804583
| 31>     H       15.1083611   14.1507722   17.4822580
| 32>     H       15.4891377   19.6164671   17.2526906
| 33>     H       16.5919136   19.6377493   15.8707944
| 34>     H       16.8009633   20.8037223   17.1845781
| 35>     H       18.3793651   20.3720607   18.5863504
| 36>     H       20.1684289   16.8909387   19.5018248
| 37>     H       18.8874261   15.8661919   17.6279252
| 38>     H       18.4158337   13.8047439   18.6185349
| 39>     H       17.2404232   12.4152859   20.3110503
| 40>     H       15.8097895   13.5134676   22.0368294
| 41>     H       15.0750515   15.4187257   22.8310169
| 42>     H       16.7470126   17.3716653   20.3905938
| 43> *
| 44>
| 45>                          ****END OF INPUT****

CARTESIAN COORDINATES (ANGSTROEM)
---------------------------------
  C     15.904320   13.277774   15.645499
  C     15.459118   14.479593   16.495113
  O     16.597825   15.346881   16.636847
  C     16.427691   16.702955   16.631472
  O     15.476695   17.238542   16.088127
  C     17.402700   17.409664   17.532751
  C     17.428767   18.760801   17.658987
  C     16.536541   19.763892   16.959531
  N     18.381714   19.370095   18.480799
  C     19.401052   18.714632   19.118300
  S     20.546659   19.522408   19.996329
  N     19.426375   17.349453   18.989016
  C     18.382608   16.538170   18.336247
  C     17.663822   15.686917   19.379616
  C     17.798442   14.285687   19.372573
  C     17.131501   13.498342   20.326135
  C     16.326072   14.116940   21.297493
  C     16.193875   15.512310   21.310716
  O     15.417614   16.112490   22.247792
  C     16.857742   16.293070   20.359509
  H     15.072617   12.576613   15.505862
  H     16.727694   12.742501   16.134233
  H     16.243571   13.609435   14.656149
  H     14.628277   14.981044   15.980458
  H     15.108361   14.150772   17.482258
  H     15.489138   19.616467   17.252691
  H     16.591914   19.637749   15.870794
  H     16.800963   20.803722   17.184578
  H     18.379365   20.372061   18.586350
  H     20.168429   16.890939   19.501825
  H     18.887426   15.866192   17.627925
  H     18.415834   13.804744   18.618535
  H     17.240423   12.415286   20.311050
  H     15.809790   13.513468   22.036829
  H     15.075051   15.418726   22.831017
  H     16.747013   17.371665   20.390594

 Total Charge           Charge          ....    0
 Multiplicity           Mult            ....    1
 Number of Electrons    NEL             ....  154
 Basis Dimension        Dim             ....  828

ORBITAL ENERGIES
----------------

  NO   OCC          E(Eh)            E(eV)
   0   2.0000     -91.889098     -2500.4295
   1   2.0000     -20.598072      -560.5020
   2   2.0000     -20.597122      -560.4762
   3   2.0000     -20.542405      -558.9873
   4   2.0000     -15.629242      -425.2933
   5   2.0000     -15.608501      -424.7289
   6   2.0000     -11.394700      -310.0656
   7   2.0000     -11.384213      -309.7802
   8   2.0000     -11.335903      -308.4656
   9   2.0000     -11.314496      -307.8831
  10   2.0000     -11.309416      -307.7449
  11   2.0000     -11.294224      -307.3315
  12   2.0000     -11.260321      -306.4089
  13   2.0000     -11.258718      -306.3653
  14   2.0000     -11.256002      -306.2914
  15   2.0000     -11.252115      -306.1856
  16   2.0000     -11.243751      -305.9580
  17   2.0000     -11.239102      -305.8315
  18   2.0000     -11.238842      -305.8245
  19   2.0000     -11.228959      -305.5555
  20   2.0000      -8.894157      -242.0223
  21   2.0000      -6.575731      -178.9347
  22   2.0000      -6.573727      -178.8802
  23   2.0000      -6.573139      -178.8642
  24   2.0000      -1.450571       -39.4720
  25   2.0000      -1.416779       -38.5525
  26   2.0000      -1.354584       -36.8601
  27   2.0000      -1.340207       -36.4689
  28   2.0000      -1.238723       -33.7074
  29   2.0000      -1.158194       -31.5160
  30   2.0000      -1.120506       -30.4905
  31   2.0000      -1.043396       -28.3922
  32   2.0000      -1.039075       -28.2747
  33   2.0000      -1.015817       -27.6418
  34   2.0000      -0.995847       -27.0984
  35   2.0000      -0.984461       -26.7885
  36   2.0000      -0.922841       -25.1118
  37   2.0000      -0.887362       -24.1464
  38   2.0000      -0.847033       -23.0489
  39   2.0000      -0.838113       -22.8062
  40   2.0000      -0.834661       -22.7123
  41   2.0000      -0.819262       -22.2933
  42   2.0000      -0.763980       -20.7890
  43   2.0000      -0.733107       -19.9489
  44   2.0000      -0.722860       -19.6700
  45   2.0000      -0.696102       -18.9419
  46   2.0000      -0.687595       -18.7104
  47   2.0000      -0.679441       -18.4885
  48   2.0000      -0.673996       -18.3404
  49   2.0000      -0.656880       -17.8746
  50   2.0000      -0.646722       -17.5982
  51   2.0000      -0.643621       -17.5138
  52   2.0000      -0.633889       -17.2490
  53   2.0000      -0.610100       -16.6017
  54   2.0000      -0.607307       -16.5257
  55   2.0000      -0.600173       -16.3315
  56   2.0000      -0.598671       -16.2907
  57   2.0000      -0.578347       -15.7376
  58   2.0000      -0.570991       -15.5375
  59   2.0000      -0.565862       -15.3979
  60   2.0000      -0.562332       -15.3018
  61   2.0000      -0.540347       -14.7036
  62   2.0000      -0.538231       -14.6460
  63   2.0000      -0.527520       -14.3546
  64   2.0000      -0.525590       -14.3020
  65   2.0000      -0.513802       -13.9813
  66   2.0000      -0.501956       -13.6589
  67   2.0000      -0.496493       -13.5103
  68   2.0000      -0.486720       -13.2443
  69   2.0000      -0.465332       -12.6623
  70   2.0000      -0.457299       -12.4437
  71   2.0000      -0.446760       -12.1570
  72   2.0000      -0.354372        -9.6429
  73   2.0000      -0.350013        -9.5243
  74   2.0000      -0.328484        -8.9385
  75   2.0000      -0.322138        -8.7658
  76   2.0000      -0.316297        -8.6069
  77   0.0000       0.074937         2.0392
  78   0.0000       0.105533         2.8717
  79   0.0000       0.124261         3.3813
  80   0.0000       0.131368         3.5747
  81   0.0000       0.135603         3.6899

MULLIKEN ATOMIC CHARGES
-----------------------
   0 C :   -0.261545
   1 C :    0.009845
   2 O :   -0.361598
   3 C :    0.472854
   4 O :   -0.428252
   5 C :   -0.235200
   6 C :    0.153402
   7 C :   -0.272254
   8 N :   -0.121972
   9 C :    0.210826
  10 S :   -0.439454
  11 N :   -0.204429
  12 C :    0.059100
  13 C :    0.063209
  14 C :   -0.191607
  15 C :   -0.131333
  16 C :   -0.279999
  17 C :    0.316010
  18 O :   -0.356003
  19 C :   -0.267824
  20 H :    0.089705
  21 H :    0.089383
  22 H :    0.098854
  23 H :    0.129325
  24 H :    0.108668
  25 H :    0.132809
  26 H :    0.130185
  27 H :    0.095067
  28 H :    0.197629
  29 H :    0.194705
  30 H :    0.150124
  31 H :    0.151534
  32 H :    0.161296
  33 H :    0.130782
  34 H :    0.240723
  35 H :    0.165438
Sum of atomic charges:    0.0000000

LOEWDIN ATOMIC CHARGES
----------------------
   0 C :    0.105899
   1 C :   -0.013799
   2 O :    0.307399
   3 C :   -0.414460
   4 O :    0.099172
   5 C :   -0.095642
   6 C :   -0.058938
   7 C :    0.131587
   8 N :    0.406582
   9 C :   -0.456515
  10 S :   -0.035150
  11 N :    0.396390
  12 C :   -0.052384
  13 C :   -0.038455
  14 C :    0.014305
  15 C :    0.038213
  16 C :   -0.002443
  17 C :   -0.189494
  18 O :    0.395504
  19 C :    0.031530
  20 H :   -0.025635
  21 H :   -0.031076
  22 H :   -0.025293
  23 H :   -0.027896
  24 H :   -0.030264
  25 H :   -0.004423
  26 H :   -0.004033
  27 H :   -0.023368
  28 H :   -0.057529
  29 H :   -0.064580
  30 H :   -0.010580
  31 H :   -0.030575
  32 H :   -0.021323
  33 H :   -0.035502
  34 H :   -0.153799
  35 H :   -0.023426

  Mayer bond orders larger than 0.100000
B(  0-C ,  1-C ) :   0.9755 B(  0-C , 20-H ) :   0.9762 B(  0-C , 21-H ) :   0.9797
B(  0-C , 22-H ) :   0.9783 B(  1-C ,  2-O ) :   0.8757 B(  1-C , 23-H ) :   0.9755
B(  1-C , 24-H ) :   0.9720 B(  2-O ,  3-C ) :   1.1563 B(  3-C ,  4-O ) :   1.9889
B(  3-C ,  5-C ) :   1.0562 B(  5-C ,  6-C ) :   1.6548 B(  5-C , 12-C ) :   0.9720
B(  6-C ,  7-C ) :   0.9668 B(  6-C ,  8-N ) :   1.1626 B(  7-C , 25-H ) :   0.9595
B(  7-C , 26-H ) :   0.9611 B(  7-C , 27-H ) :   0.9905 B(  8-N ,  9-C ) :   1.1831
B(  8-N , 28-H ) :   0.9479 B(  9-C , 10-S ) :   1.6080 B(  9-C , 11-N ) :   1.3048
B( 11-N , 12-C ) :   0.9877 B( 11-N , 29-H ) :   0.9517 B( 12-C , 13-C ) :   0.9341
B( 12-C , 30-H ) :   1.0026 B( 13-C , 14-C ) :   1.3542 B( 13-C , 19-C ) :   1.3837
B( 14-C , 15-C ) :   1.3898 B( 14-C , 31-H ) :   0.9722 B( 15-C , 16-C ) :   1.3622
B( 15-C , 32-H ) :   0.9705 B( 16-C , 17-C ) :   1.3317 B( 16-C , 33-H ) :   0.9849
B( 17-C , 18-O ) :   1.1112 B( 17-C , 19-C ) :   1.3718 B( 18-O , 34-H ) :   0.9798
B( 19-C , 35-H ) :   0.9579

MP2 TOTAL ENERGY:    -1274.346696266 Eh
FINAL SINGLE POINT ENERGY     -1274.346696265664

DIPOLE MOMENT
-------------
                                X             Y             Z
Electronic contribution:      9.31380      10.88522       8.36010
Nuclear contribution   :    -10.49342     -12.46695      -8.64385
                        -----------------------------------------
Total Dipole Moment    :     -1.17962      -1.58173      -0.28375
                        -----------------------------------------
Magnitude (a.u.)       :      1.99346
Magnitude (Debye)      :      5.06698

Rotational constants in cm-1:     0.011786     0.008479     0.006169
Rotational constants in MHz :   353.334882   254.204647   184.933609

                             ****ORCA TERMINATED NORMALLY****
TOTAL RUN TIME: 0 days 1 hours 45 minutes 46 seconds 132 msec
