                         Program Version 5.0.0 -  RELEASE  -
|  1> ! ri-mp2 cc-pvtz cc-pvtz/c TightSCF NoKeepInts
|  2>
|  3> %scf
|  4>   MaxCore 4096
|  5> end
|  6> *xyz  0  1
|  7>     C       15.3083391   14.7880998   17.2534751
|  8>     C       15.5976257   15.0600422   15.7598357
|  9>     O       16.7882927   15.8527631   15.5458097
| 10>     C       17.8443201   15.8083721   16.4084709
| 11>     O       18.4518725   14.7671133   16.5893662
| 12>     C       17.9054620   16.9499231   17.3841777
| 13>     C       17.3515320   18.1728804   17.1767621
| 14>     C       16.5846256   18.6539055   15.9621638
| 15>     N       17.5342521   19.1869697   18.1227298
| 16>     C       18.3862042   19.1137356   19.1931807
| 17>     S       18.6538086   20.4102148   20.1844144
| 18>     N       19.0047835   17.9067467   19.3996426
| 19>     C       18.6850265   16.6632411   18.6733542
| 20>     C       17.9218655   15.6975285   19.5768111
| 21>     C       18.3573450   14.3677223   19.7253676
| 22>     C       17.6519611   13.4690298   20.5429162
| 23>     C       16.4996175   13.9024994   21.2200076
| 24>     C       16.0615870   15.2255885   21.0748008
| 25>     O       14.9435597   15.6449900   21.7189899
| 26>     C       16.7661803   16.1180221   20.2609784
| 27>     H       16.0883768   14.1647763   17.7088322
| 28>     H       14.3576904   14.2524762   17.3622135
| 29>     H       15.2298389   15.7258347   17.8164945
| 30>     H       15.7233471   14.0927386   15.2555182
| 31>     H       14.7378120   15.5634764   15.2997372
| 32>     H       15.5844298   18.2051172   15.9316854
| 33>     H       17.1068436   18.3805892   15.0365620
| 34>     H       16.4595581   19.7434857   15.9466943
| 35>     H       17.0915417   20.0817166   17.9864158
| 36>     H       19.6068269   17.8695093   20.2122043
| 37>     H       19.6365367   16.1893531   18.3914264
| 38>     H       19.2370342   14.0239709   19.1861859
| 39>     H       17.9961534   12.4411015   20.6423758
| 40>     H       15.9500139   13.2106781   21.8495588
| 41>     H       14.6337654   14.9103483   22.2697955
| 42>     H       16.4089702   17.1374399   20.1650455
| 43> *
| 44>
| 45>                          ****END OF INPUT****

CARTESIAN COORDINATES (ANGSTROEM)
---------------------------------
  C     15.308339   14.788100   17.253475
  C     15.597626   15.060042   15.759836
  O     16.788293   15.852763   15.545810
  C     17.844320   15.808372   16.408471
  O     18.451873   14.767113   16.589366
  C     17.905462   16.949923   17.384178
  C     17.351532   18.172880   17.176762
  C     16.584626   18.653906   15.962164
  N     17.534252   19.186970   18.122730
  C     18.386204   19.113736   19.193181
  S     18.653809   20.410215   20.184414
  N     19.004783   17.906747   19.399643
  C     18.685026   16.663241   18.673354
  C     17.921865   15.697529   19.576811
  C     18.357345   14.367722   19.725368
  C     17.651961   13.469030   20.542916
  C     16.499617   13.902499   21.220008
  C     16.061587   15.225589   21.074801
  O     14.943560   15.644990   21.718990
  C     16.766180   16.118022   20.260978
  H     16.088377   14.164776   17.708832
  H     14.357690   14.252476   17.362213
  H     15.229839   15.725835   17.816495
  H     15.723347   14.092739   15.255518
  H     14.737812   15.563476   15.299737
  H     15.584430   18.205117   15.931685
  H     17.106844   18.380589   15.036562
  H     16.459558   19.743486   15.946694
  H     17.091542   20.081717   17.986416
  H     19.606827   17.869509   20.212204
  H     19.636537   16.189353   18.391426
  H     19.237034   14.023971   19.186186
  H     17.996153   12.441102   20.642376
  H     15.950014   13.210678   21.849559
  H     14.633765   14.910348   22.269795
  H     16.408970   17.137440   20.165046

 Total Charge           Charge          ....    0
 Multiplicity           Mult            ....    1
 Number of Electrons    NEL             ....  154
 Basis Dimension        Dim             ....  828

ORBITAL ENERGIES
----------------

  NO   OCC          E(Eh)            E(eV)
   0   2.0000     -91.890222     -2500.4601
   1   2.0000     -20.595212      -560.4242
   2   2.0000     -20.582879      -560.0886
   3   2.0000     -20.551441      -559.2332
   4   2.0000     -15.630898      -425.3384
   5   2.0000     -15.608682      -424.7338
   6   2.0000     -11.395264      -310.0809
   7   2.0000     -11.385131      -309.8052
   8   2.0000     -11.338181      -308.5276
   9   2.0000     -11.311102      -307.7907
  10   2.0000     -11.307949      -307.7049
  11   2.0000     -11.304729      -307.6173
  12   2.0000     -11.261709      -306.4467
  13   2.0000     -11.261515      -306.4414
  14   2.0000     -11.256622      -306.3082
  15   2.0000     -11.251265      -306.1625
  16   2.0000     -11.241030      -305.8840
  17   2.0000     -11.236546      -305.7620
  18   2.0000     -11.233456      -305.6779
  19   2.0000     -11.226587      -305.4910
  20   2.0000      -8.895272      -242.0527
  21   2.0000      -6.576845      -178.9650
  22   2.0000      -6.574841      -178.9105
  23   2.0000      -6.574250      -178.8944
  24   2.0000      -1.447418       -39.3862
  25   2.0000      -1.415005       -38.5042
  26   2.0000      -1.353782       -36.8383
  27   2.0000      -1.341668       -36.5086
  28   2.0000      -1.239130       -33.7184
  29   2.0000      -1.155389       -31.4397
  30   2.0000      -1.121218       -30.5099
  31   2.0000      -1.043674       -28.3998
  32   2.0000      -1.031651       -28.0726
  33   2.0000      -1.013116       -27.5683
  34   2.0000      -1.000868       -27.2350
  35   2.0000      -0.986577       -26.8461
  36   2.0000      -0.924371       -25.1534
  37   2.0000      -0.896176       -24.3862
  38   2.0000      -0.850138       -23.1334
  39   2.0000      -0.838784       -22.8245
  40   2.0000      -0.831478       -22.6257
  41   2.0000      -0.818036       -22.2599
  42   2.0000      -0.745499       -20.2861
  43   2.0000      -0.731579       -19.9073
  44   2.0000      -0.727548       -19.7976
  45   2.0000      -0.693340       -18.8667
  46   2.0000      -0.687199       -18.6996
  47   2.0000      -0.676600       -18.4112
  48   2.0000      -0.672533       -18.3006
  49   2.0000      -0.661024       -17.9874
  50   2.0000      -0.652740       -17.7620
  51   2.0000      -0.646795       -17.6002
  52   2.0000      -0.636290       -17.3143
  53   2.0000      -0.622552       -16.9405
  54   2.0000      -0.603504       -16.4222
  55   2.0000      -0.602836       -16.4040
  56   2.0000      -0.599120       -16.3029
  57   2.0000      -0.580211       -15.7883
  58   2.0000      -0.575581       -15.6623
  59   2.0000      -0.563564       -15.3353
  60   2.0000      -0.552191       -15.0259
  61   2.0000      -0.546131       -14.8610
  62   2.0000      -0.535516       -14.5721
  63   2.0000      -0.533797       -14.5254
  64   2.0000      -0.520415       -14.1612
  65   2.0000      -0.511780       -13.9263
  66   2.0000      -0.499678       -13.5969
  67   2.0000      -0.493978       -13.4418
  68   2.0000      -0.480679       -13.0799
  69   2.0000      -0.465311       -12.6618
  70   2.0000      -0.454305       -12.3623
  71   2.0000      -0.449698       -12.2369
  72   2.0000      -0.356072        -9.6892
  73   2.0000      -0.346727        -9.4349
  74   2.0000      -0.329286        -8.9603
  75   2.0000      -0.319098        -8.6831
  76   2.0000      -0.316867        -8.6224
  77   0.0000       0.068976         1.8769
  78   0.0000       0.107348         2.9211
  79   0.0000       0.118288         3.2188
  80   0.0000       0.132533         3.6064
  81   0.0000       0.138217         3.7611

MULLIKEN ATOMIC CHARGES
-----------------------
   0 C :   -0.347298
   1 C :    0.046358
   2 O :   -0.390310
   3 C :    0.491805
   4 O :   -0.407281
   5 C :   -0.222533
   6 C :    0.154770
   7 C :   -0.287918
   8 N :   -0.122759
   9 C :    0.194846
  10 S :   -0.435907
  11 N :   -0.198623
  12 C :    0.043532
  13 C :    0.056695
  14 C :   -0.174162
  15 C :   -0.133680
  16 C :   -0.278959
  17 C :    0.321345
  18 O :   -0.360525
  19 C :   -0.293559
  20 H :    0.133805
  21 H :    0.116586
  22 H :    0.103410
  23 H :    0.112388
  24 H :    0.105899
  25 H :    0.118147
  26 H :    0.134338
  27 H :    0.107306
  28 H :    0.197429
  29 H :    0.193701
  30 H :    0.155579
  31 H :    0.159831
  32 H :    0.161695
  33 H :    0.130521
  34 H :    0.240761
  35 H :    0.172766
Sum of atomic charges:   -0.0000000

LOEWDIN ATOMIC CHARGES
----------------------
   0 C :    0.105534
   1 C :   -0.014545
   2 O :    0.283047
   3 C :   -0.420508
   4 O :    0.122316
   5 C :   -0.094454
   6 C :   -0.067771
   7 C :    0.126324
   8 N :    0.405478
   9 C :   -0.459579
  10 S :   -0.033795
  11 N :    0.397761
  12 C :   -0.045818
  13 C :   -0.040217
  14 C :    0.021170
  15 C :    0.040728
  16 C :   -0.002313
  17 C :   -0.193363
  18 O :    0.393882
  19 C :    0.030323
  20 H :   -0.020671
  21 H :   -0.023421
  22 H :   -0.032266
  23 H :   -0.026517
  24 H :   -0.027414
  25 H :   -0.011488
  26 H :   -0.005820
  27 H :   -0.019887
  28 H :   -0.058751
  29 H :   -0.063675
  30 H :   -0.003766
  31 H :   -0.024417
  32 H :   -0.020401
  33 H :   -0.035736
  34 H :   -0.154151
  35 H :   -0.025819

  Mayer bond orders larger than 0.100000
B(  0-C ,  1-C ) :   0.9596 B(  0-C , 20-H ) :   0.9645 B(  0-C , 21-H ) :   0.9752
B(  0-C , 22-H ) :   0.9708 B(  1-C ,  2-O ) :   0.8928 B(  1-C , 23-H ) :   0.9863
B(  1-C , 24-H ) :   0.9812 B(  2-O ,  3-C ) :   1.0882 B(  3-C ,  4-O ) :   2.0243
B(  3-C ,  5-C ) :   1.0309 B(  5-C ,  6-C ) :   1.6505 B(  5-C , 12-C ) :   0.9657
B(  6-C ,  7-C ) :   0.9554 B(  6-C ,  8-N ) :   1.1432 B(  7-C , 25-H ) :   0.9662
B(  7-C , 26-H ) :   0.9647 B(  7-C , 27-H ) :   0.9901 B(  8-N ,  9-C ) :   1.1784
B(  8-N , 28-H ) :   0.9487 B(  9-C , 10-S ) :   1.6152 B(  9-C , 11-N ) :   1.3021
B( 11-N , 12-C ) :   0.9889 B( 11-N , 29-H ) :   0.9522 B( 12-C , 13-C ) :   0.9465
B( 12-C , 30-H ) :   0.9996 B( 13-C , 14-C ) :   1.3814 B( 13-C , 19-C ) :   1.3489
B( 14-C , 15-C ) :   1.3939 B( 14-C , 31-H ) :   0.9624 B( 15-C , 16-C ) :   1.3619
B( 15-C , 32-H ) :   0.9709 B( 16-C , 17-C ) :   1.3320 B( 16-C , 33-H ) :   0.9850
B( 17-C , 18-O ) :   1.1097 B( 17-C , 19-C ) :   1.3687 B( 18-O , 34-H ) :   0.9803
B( 19-C , 35-H ) :   0.9585

MP2 TOTAL ENERGY:    -1274.329547217 Eh
FINAL SINGLE POINT ENERGY     -1274.329547217476

DIPOLE MOMENT
-------------
                                X             Y             Z
Electronic contribution:      9.74819       8.49624       6.30762
Nuclear contribution   :    -11.18769      -9.64045      -6.99657
                        -----------------------------------------
Total Dipole Moment    :     -1.43950      -1.14421      -0.68895
                        -----------------------------------------
Magnitude (a.u.)       :      1.96368
Magnitude (Debye)      :      4.99127

Rotational constants in cm-1:     0.011573     0.009747     0.006726
Rotational constants in MHz :   346.958326   292.215360   201.652599

                             ****ORCA TERMINATED NORMALLY****
TOTAL RUN TIME: 0 days 2 hours 16 minutes 28 seconds 876 msec
