                         Program Version 4.2.0 -  RELEASE  -
|  1> ! ri-mp2 cc-pvtz cc-pvtz/c TightSCF  NoKeepInts
|  2>
|  3> %scf
|  4>   MaxCore 4096
|  5> end
|  6> *xyz  0  1
|  7>     C       14.5340138   16.1130474   16.5725373
|  8>     C       15.5511724   15.0883666   17.1061924
|  9>     O       16.7236080   15.0144290   16.2651858
| 10>     C       17.8879860   15.7226251   16.4419275
| 11>     O       18.9490119   15.2141317   16.1318823
| 12>     C       17.8517850   16.8555847   17.4097665
| 13>     C       17.3322884   18.0567561   17.0709351
| 14>     C       16.7525385   18.4465049   15.7275951
| 15>     N       17.4224982   19.1303203   17.9589860
| 16>     C       18.1094040   19.1047045   19.1448687
| 17>     S       18.2053141   20.4349834   20.1221485
| 18>     N       18.7182258   17.9201883   19.4810697
| 19>     C       18.6194357   16.6588141   18.7188097
| 20>     C       18.0240857   15.5329125   19.5595680
| 21>     C       18.4875695   14.2151480   19.3904088
| 22>     C       17.9369192   13.1597534   20.1358756
| 23>     C       16.9118556   13.4220670   21.0602117
| 24>     C       16.4439163   14.7317328   21.2303916
| 25>     O       15.4451795   14.9865721   22.1122191
| 26>     C       16.9919655   15.7808659   20.4852190
| 27>     H       14.7372547   17.1147687   16.9619744
| 28>     H       13.5235157   15.8409200   16.9015862
| 29>     H       14.5352646   16.1384662   15.4756504
| 30>     H       15.8000953   15.2936539   18.1523029
| 31>     H       15.0696192   14.1021141   17.0822478
| 32>     H       16.5685483   17.5800073   15.0814140
| 33>     H       17.4472552   19.1036441   15.1889697
| 34>     H       15.8022387   18.9826937   15.8394637
| 35>     H       17.0093246   20.0172502   17.7166773
| 36>     H       19.2090606   17.9291479   20.3664298
| 37>     H       19.6435075   16.3595786   18.4495462
| 38>     H       19.2720932   14.0062551   18.6653561
| 39>     H       18.3035706   12.1445738   19.9919832
| 40>     H       16.4831460   12.6090115   21.6370112
| 41>     H       15.2393106   14.1562106   22.5680011
| 42>     H       16.6044220   16.7841967   20.6295874
| 43> *
| 44>
| 45>                          ****END OF INPUT****

CARTESIAN COORDINATES (ANGSTROEM)
---------------------------------
  C     14.534014   16.113047   16.572537
  C     15.551172   15.088367   17.106192
  O     16.723608   15.014429   16.265186
  C     17.887986   15.722625   16.441927
  O     18.949012   15.214132   16.131882
  C     17.851785   16.855585   17.409766
  C     17.332288   18.056756   17.070935
  C     16.752538   18.446505   15.727595
  N     17.422498   19.130320   17.958986
  C     18.109404   19.104704   19.144869
  S     18.205314   20.434983   20.122149
  N     18.718226   17.920188   19.481070
  C     18.619436   16.658814   18.718810
  C     18.024086   15.532913   19.559568
  C     18.487569   14.215148   19.390409
  C     17.936919   13.159753   20.135876
  C     16.911856   13.422067   21.060212
  C     16.443916   14.731733   21.230392
  O     15.445179   14.986572   22.112219
  C     16.991965   15.780866   20.485219
  H     14.737255   17.114769   16.961974
  H     13.523516   15.840920   16.901586
  H     14.535265   16.138466   15.475650
  H     15.800095   15.293654   18.152303
  H     15.069619   14.102114   17.082248
  H     16.568548   17.580007   15.081414
  H     17.447255   19.103644   15.188970
  H     15.802239   18.982694   15.839464
  H     17.009325   20.017250   17.716677
  H     19.209061   17.929148   20.366430
  H     19.643507   16.359579   18.449546
  H     19.272093   14.006255   18.665356
  H     18.303571   12.144574   19.991983
  H     16.483146   12.609011   21.637011
  H     15.239311   14.156211   22.568001
  H     16.604422   16.784197   20.629587

 Total Charge           Charge          ....    0
 Multiplicity           Mult            ....    1
 Number of Electrons    NEL             ....  154
 Basis Dimension        Dim             ....  828

ORBITAL ENERGIES
----------------

  NO   OCC          E(Eh)            E(eV)
   0   2.0000     -91.890253     -2500.4609
   1   2.0000     -20.601765      -560.6025
   2   2.0000     -20.596815      -560.4678
   3   2.0000     -20.551792      -559.2427
   4   2.0000     -15.626200      -425.2105
   5   2.0000     -15.612475      -424.8371
   6   2.0000     -11.398407      -310.1664
   7   2.0000     -11.387153      -309.8602
   8   2.0000     -11.328199      -308.2560
   9   2.0000     -11.319409      -308.0168
  10   2.0000     -11.317295      -307.9593
  11   2.0000     -11.302242      -307.5496
  12   2.0000     -11.266763      -306.5842
  13   2.0000     -11.266632      -306.5806
  14   2.0000     -11.264717      -306.5285
  15   2.0000     -11.259729      -306.3928
  16   2.0000     -11.248290      -306.0815
  17   2.0000     -11.244112      -305.9679
  18   2.0000     -11.241327      -305.8920
  19   2.0000     -11.235290      -305.7278
  20   2.0000      -8.895368      -242.0553
  21   2.0000      -6.576958      -178.9681
  22   2.0000      -6.574930      -178.9129
  23   2.0000      -6.574356      -178.8973
  24   2.0000      -1.446126       -39.3511
  25   2.0000      -1.421580       -38.6832
  26   2.0000      -1.358227       -36.9592
  27   2.0000      -1.340203       -36.4688
  28   2.0000      -1.240491       -33.7555
  29   2.0000      -1.163419       -31.6582
  30   2.0000      -1.126330       -30.6490
  31   2.0000      -1.050289       -28.5798
  32   2.0000      -1.039719       -28.2922
  33   2.0000      -1.021310       -27.7912
  34   2.0000      -1.005165       -27.3519
  35   2.0000      -0.990582       -26.9551
  36   2.0000      -0.928751       -25.2726
  37   2.0000      -0.893151       -24.3039
  38   2.0000      -0.853246       -23.2180
  39   2.0000      -0.842607       -22.9285
  40   2.0000      -0.838631       -22.8203
  41   2.0000      -0.835529       -22.7359
  42   2.0000      -0.755053       -20.5460
  43   2.0000      -0.735393       -20.0111
  44   2.0000      -0.731834       -19.9142
  45   2.0000      -0.699216       -19.0266
  46   2.0000      -0.690369       -18.7859
  47   2.0000      -0.679928       -18.5018
  48   2.0000      -0.676991       -18.4219
  49   2.0000      -0.665546       -18.1104
  50   2.0000      -0.654842       -17.8191
  51   2.0000      -0.639922       -17.4132
  52   2.0000      -0.634102       -17.2548
  53   2.0000      -0.622171       -16.9301
  54   2.0000      -0.610917       -16.6239
  55   2.0000      -0.608365       -16.5545
  56   2.0000      -0.605127       -16.4664
  57   2.0000      -0.586992       -15.9729
  58   2.0000      -0.579998       -15.7826
  59   2.0000      -0.577287       -15.7088
  60   2.0000      -0.567317       -15.4375
  61   2.0000      -0.559173       -15.2159
  62   2.0000      -0.539027       -14.6677
  63   2.0000      -0.536026       -14.5860
  64   2.0000      -0.523943       -14.2572
  65   2.0000      -0.515694       -14.0328
  66   2.0000      -0.503880       -13.7113
  67   2.0000      -0.496500       -13.5104
  68   2.0000      -0.489535       -13.3209
  69   2.0000      -0.469239       -12.7686
  70   2.0000      -0.453574       -12.3424
  71   2.0000      -0.450119       -12.2484
  72   2.0000      -0.357417        -9.7258
  73   2.0000      -0.353324        -9.6144
  74   2.0000      -0.330021        -8.9803
  75   2.0000      -0.327210        -8.9038
  76   2.0000      -0.319575        -8.6961
  77   0.0000       0.089529         2.4362
  78   0.0000       0.102646         2.7931
  79   0.0000       0.116382         3.1669
  80   0.0000       0.125598         3.4177
  81   0.0000       0.128388         3.4936

MULLIKEN ATOMIC CHARGES
-----------------------
   0 C :   -0.317883
   1 C :    0.034711
   2 O :   -0.325515
   3 C :    0.395954
   4 O :   -0.377072
   5 C :   -0.176481
   6 C :    0.119650
   7 C :   -0.326524
   8 N :   -0.138067
   9 C :    0.208221
  10 S :   -0.441804
  11 N :   -0.228941
  12 C :    0.092203
  13 C :    0.002648
  14 C :   -0.204460
  15 C :   -0.135677
  16 C :   -0.271979
  17 C :    0.315149
  18 O :   -0.355926
  19 C :   -0.264846
  20 H :    0.092769
  21 H :    0.118820
  22 H :    0.108548
  23 H :    0.105347
  24 H :    0.123789
  25 H :    0.121876
  26 H :    0.151163
  27 H :    0.115673
  28 H :    0.196335
  29 H :    0.203178
  30 H :    0.165355
  31 H :    0.172902
  32 H :    0.165495
  33 H :    0.133739
  34 H :    0.241617
  35 H :    0.180031
Sum of atomic charges:   -0.0000000

LOEWDIN ATOMIC CHARGES
----------------------
   0 C :    0.103556
   1 C :   -0.015731
   2 O :    0.298357
   3 C :   -0.416745
   4 O :    0.125949
   5 C :   -0.081182
   6 C :   -0.103974
   7 C :    0.124340
   8 N :    0.401961
   9 C :   -0.455353
  10 S :   -0.038088
  11 N :    0.397462
  12 C :   -0.043499
  13 C :   -0.044768
  14 C :    0.020932
  15 C :    0.046517
  16 C :    0.000000
  17 C :   -0.193535
  18 O :    0.396088
  19 C :    0.024421
  20 H :   -0.034136
  21 H :   -0.022181
  22 H :   -0.025749
  23 H :   -0.034208
  24 H :   -0.020172
  25 H :   -0.010137
  26 H :   -0.008320
  27 H :   -0.017678
  28 H :   -0.057877
  29 H :   -0.063999
  30 H :   -0.002435
  31 H :   -0.021188
  32 H :   -0.017542
  33 H :   -0.034192
  34 H :   -0.152543
  35 H :   -0.024350

  Mayer bond orders larger than 0.100000
B(  0-C ,  1-C ) :   0.9561 B(  0-C , 20-H ) :   0.9766 B(  0-C , 21-H ) :   0.9798
B(  0-C , 22-H ) :   0.9747 B(  1-C ,  2-O ) :   0.8958 B(  1-C , 23-H ) :   0.9607
B(  1-C , 24-H ) :   0.9877 B(  2-O ,  3-C ) :   1.1811 B(  3-C ,  4-O ) :   2.0990
B(  3-C ,  5-C ) :   0.9022 B(  5-C ,  6-C ) :   1.7056 B(  5-C , 12-C ) :   0.9475
B(  6-C ,  7-C ) :   0.9529 B(  6-C ,  8-N ) :   1.1018 B(  7-C , 25-H ) :   0.9792
B(  7-C , 26-H ) :   0.9639 B(  7-C , 27-H ) :   0.9701 B(  8-N ,  9-C ) :   1.2017
B(  8-N , 28-H ) :   0.9516 B(  9-C , 10-S ) :   1.6081 B(  9-C , 11-N ) :   1.2857
B( 11-N , 12-C ) :   0.9907 B( 11-N , 29-H ) :   0.9462 B( 12-C , 13-C ) :   0.9548
B( 12-C , 30-H ) :   0.9963 B( 13-C , 14-C ) :   1.3913 B( 13-C , 19-C ) :   1.3363
B( 14-C , 15-C ) :   1.3996 B( 14-C , 31-H ) :   0.9600 B( 15-C , 16-C ) :   1.3615
B( 15-C , 32-H ) :   0.9692 B( 16-C , 17-C ) :   1.3302 B( 16-C , 33-H ) :   0.9840
B( 17-C , 18-O ) :   1.1106 B( 17-C , 19-C ) :   1.3658 B( 18-O , 34-H ) :   0.9789
B( 19-C , 35-H ) :   0.9589

MP2 TOTAL ENERGY:    -1274.328005871 Eh
FINAL SINGLE POINT ENERGY     -1274.328005871083

DIPOLE MOMENT
-------------
                                X             Y             Z
Electronic contribution:     10.29170       4.98795       7.32290
Nuclear contribution   :    -11.75454      -6.19896      -7.57752
                        -----------------------------------------
Total Dipole Moment    :     -1.46284      -1.21100      -0.25462
                        -----------------------------------------
Magnitude (a.u.)       :      1.91605
Magnitude (Debye)      :      4.87022

Rotational constants in cm-1:     0.011801     0.009271     0.006784
Rotational constants in MHz :   353.773567   277.932319   203.369624

                             ****ORCA TERMINATED NORMALLY****
TOTAL RUN TIME: 0 days 1 hours 48 minutes 22 seconds 888 msec
