                         Program Version 5.0.0 -  RELEASE  -
|  1> ! ri-mp2 cc-pvtz cc-pvtz/c TightSCF NoKeepInts
|  2>
|  3> %scf
|  4>   MaxCore 4096
|  5> end
|  6> *xyz  0  1
|  7>     C       15.0946066   13.7746103   16.9779975
|  8>     C       15.6336206   15.2142455   16.9685219
|  9>     O       16.9124461   15.1913186   16.3081776
| 10>     C       17.5708156   16.3648010   16.0812538
| 11>     O       17.6069050   16.8117856   14.9500083
| 12>     C       17.7679416   17.2264690   17.2939205
| 13>     C       17.4278302   18.5378748   17.2969983
| 14>     C       16.6645393   19.2771552   16.2200943
| 15>     N       17.8161270   19.3584329   18.3590697
| 16>     C       18.7133032   18.9958427   19.3290214
| 17>     S       19.2469033   20.0659311   20.4710584
| 18>     N       19.1507658   17.6945517   19.3038420
| 19>     C       18.5905857   16.6289458   18.4493342
| 20>     C       17.8412798   15.6189595   19.3123027
| 21>     C       18.1142697   14.2434251   19.1906953
| 22>     C       17.4339941   13.3056132   19.9853760
| 23>     C       16.4725722   13.7452005   20.9108978
| 24>     C       16.2016075   15.1139041   21.0400272
| 25>     O       15.2706444   15.5415123   21.9289973
| 26>     C       16.8815603   16.0458821   20.2496106
| 27>     H       14.1056116   13.7366104   17.4502245
| 28>     H       15.7676467   13.1137385   17.5373866
| 29>     H       15.0035847   13.3896008   15.9545855
| 30>     H       14.9400110   15.8537665   16.4063385
| 31>     H       15.6925571   15.5981900   17.9897453
| 32>     H       15.8384820   18.6670026   15.8342810
| 33>     H       17.3243433   19.5028327   15.3720440
| 34>     H       16.2362723   20.2211065   16.5772584
| 35>     H       17.5241550   20.3228411   18.3769029
| 36>     H       19.7964245   17.4529639   20.0451871
| 37>     H       19.4422908   16.1032878   17.9945095
| 38>     H       18.8505460   13.8972722   18.4695761
| 39>     H       17.6509867   12.2437647   19.8802001
| 40>     H       15.9431683   13.0237561   21.5248590
| 41>     H       14.9604491   14.7678195   22.4236386
| 42>     H       16.6581529   17.1009860   20.3700581
| 43> *
| 44>
| 45>                          ****END OF INPUT****

CARTESIAN COORDINATES (ANGSTROEM)
---------------------------------
  C     15.094607   13.774610   16.977997
  C     15.633621   15.214245   16.968522
  O     16.912446   15.191319   16.308178
  C     17.570816   16.364801   16.081254
  O     17.606905   16.811786   14.950008
  C     17.767942   17.226469   17.293920
  C     17.427830   18.537875   17.296998
  C     16.664539   19.277155   16.220094
  N     17.816127   19.358433   18.359070
  C     18.713303   18.995843   19.329021
  S     19.246903   20.065931   20.471058
  N     19.150766   17.694552   19.303842
  C     18.590586   16.628946   18.449334
  C     17.841280   15.618959   19.312303
  C     18.114270   14.243425   19.190695
  C     17.433994   13.305613   19.985376
  C     16.472572   13.745200   20.910898
  C     16.201608   15.113904   21.040027
  O     15.270644   15.541512   21.928997
  C     16.881560   16.045882   20.249611
  H     14.105612   13.736610   17.450225
  H     15.767647   13.113739   17.537387
  H     15.003585   13.389601   15.954586
  H     14.940011   15.853767   16.406339
  H     15.692557   15.598190   17.989745
  H     15.838482   18.667003   15.834281
  H     17.324343   19.502833   15.372044
  H     16.236272   20.221106   16.577258
  H     17.524155   20.322841   18.376903
  H     19.796424   17.452964   20.045187
  H     19.442291   16.103288   17.994509
  H     18.850546   13.897272   18.469576
  H     17.650987   12.243765   19.880200
  H     15.943168   13.023756   21.524859
  H     14.960449   14.767819   22.423639
  H     16.658153   17.100986   20.370058

 Total Charge           Charge          ....    0
 Multiplicity           Mult            ....    1
 Number of Electrons    NEL             ....  154
 Basis Dimension        Dim             ....  828

ORBITAL ENERGIES
----------------

  NO   OCC          E(Eh)            E(eV)
   0   2.0000     -91.891358     -2500.4910
   1   2.0000     -20.602681      -560.6274
   2   2.0000     -20.584812      -560.1412
   3   2.0000     -20.555890      -559.3542
   4   2.0000     -15.629196      -425.2920
   5   2.0000     -15.611761      -424.8176
   6   2.0000     -11.393456      -310.0317
   7   2.0000     -11.386596      -309.8450
   8   2.0000     -11.333077      -308.3887
   9   2.0000     -11.320811      -308.0549
  10   2.0000     -11.317670      -307.9694
  11   2.0000     -11.296778      -307.4010
  12   2.0000     -11.266902      -306.5880
  13   2.0000     -11.261825      -306.4499
  14   2.0000     -11.260123      -306.4035
  15   2.0000     -11.255910      -306.2889
  16   2.0000     -11.250201      -306.1335
  17   2.0000     -11.245106      -305.9949
  18   2.0000     -11.244984      -305.9916
  19   2.0000     -11.226976      -305.5016
  20   2.0000      -8.896412      -242.0837
  21   2.0000      -6.577984      -178.9961
  22   2.0000      -6.575979      -178.9415
  23   2.0000      -6.575389      -178.9254
  24   2.0000      -1.449143       -39.4332
  25   2.0000      -1.422490       -38.7079
  26   2.0000      -1.356845       -36.9216
  27   2.0000      -1.341578       -36.5062
  28   2.0000      -1.241272       -33.7767
  29   2.0000      -1.163887       -31.6710
  30   2.0000      -1.123115       -30.5615
  31   2.0000      -1.048657       -28.5354
  32   2.0000      -1.034483       -28.1497
  33   2.0000      -1.022542       -27.8248
  34   2.0000      -1.001373       -27.2487
  35   2.0000      -0.988058       -26.8864
  36   2.0000      -0.927727       -25.2447
  37   2.0000      -0.876128       -23.8406
  38   2.0000      -0.851808       -23.1789
  39   2.0000      -0.844109       -22.9694
  40   2.0000      -0.841155       -22.8890
  41   2.0000      -0.836101       -22.7515
  42   2.0000      -0.760116       -20.6838
  43   2.0000      -0.737197       -20.0601
  44   2.0000      -0.728943       -19.8355
  45   2.0000      -0.701828       -19.0977
  46   2.0000      -0.691951       -18.8289
  47   2.0000      -0.683128       -18.5888
  48   2.0000      -0.675832       -18.3903
  49   2.0000      -0.659522       -17.9465
  50   2.0000      -0.650293       -17.6954
  51   2.0000      -0.645521       -17.5655
  52   2.0000      -0.639712       -17.4075
  53   2.0000      -0.616132       -16.7658
  54   2.0000      -0.610299       -16.6071
  55   2.0000      -0.604676       -16.4541
  56   2.0000      -0.601922       -16.3791
  57   2.0000      -0.582282       -15.8447
  58   2.0000      -0.575814       -15.6687
  59   2.0000      -0.566328       -15.4106
  60   2.0000      -0.556203       -15.1350
  61   2.0000      -0.547375       -14.8948
  62   2.0000      -0.539070       -14.6689
  63   2.0000      -0.530475       -14.4350
  64   2.0000      -0.520894       -14.1742
  65   2.0000      -0.517894       -14.0926
  66   2.0000      -0.506917       -13.7939
  67   2.0000      -0.501965       -13.6592
  68   2.0000      -0.482654       -13.1337
  69   2.0000      -0.468422       -12.7464
  70   2.0000      -0.457758       -12.4562
  71   2.0000      -0.449916       -12.2428
  72   2.0000      -0.358214        -9.7475
  73   2.0000      -0.353342        -9.6149
  74   2.0000      -0.330993        -9.0068
  75   2.0000      -0.328398        -8.9362
  76   2.0000      -0.319411        -8.6916
  77   0.0000       0.075630         2.0580
  78   0.0000       0.099377         2.7042
  79   0.0000       0.117562         3.1990
  80   0.0000       0.125607         3.4179
  81   0.0000       0.128341         3.4923

MULLIKEN ATOMIC CHARGES
-----------------------
   0 C :   -0.265494
   1 C :    0.015315
   2 O :   -0.340793
   3 C :    0.410723
   4 O :   -0.364326
   5 C :   -0.234486
   6 C :    0.153345
   7 C :   -0.278899
   8 N :   -0.124703
   9 C :    0.197833
  10 S :   -0.434496
  11 N :   -0.199727
  12 C :    0.039082
  13 C :    0.021879
  14 C :   -0.153068
  15 C :   -0.164865
  16 C :   -0.263443
  17 C :    0.303336
  18 O :   -0.354816
  19 C :   -0.248697
  20 H :    0.088982
  21 H :    0.098111
  22 H :    0.108119
  23 H :    0.103628
  24 H :    0.111967
  25 H :    0.120793
  26 H :    0.142388
  27 H :    0.095782
  28 H :    0.197966
  29 H :    0.193447
  30 H :    0.154088
  31 H :    0.148849
  32 H :    0.169830
  33 H :    0.135036
  34 H :    0.241413
  35 H :    0.175904
Sum of atomic charges:   -0.0000000

LOEWDIN ATOMIC CHARGES
----------------------
   0 C :    0.112267
   1 C :   -0.021229
   2 O :    0.293453
   3 C :   -0.422728
   4 O :    0.138872
   5 C :   -0.094093
   6 C :   -0.074924
   7 C :    0.129521
   8 N :    0.405096
   9 C :   -0.457952
  10 S :   -0.032982
  11 N :    0.396423
  12 C :   -0.052486
  13 C :   -0.042766
  14 C :    0.018024
  15 C :    0.044730
  16 C :    0.000684
  17 C :   -0.192513
  18 O :    0.397117
  19 C :    0.030682
  20 H :   -0.025595
  21 H :   -0.028866
  22 H :   -0.024874
  23 H :   -0.033981
  24 H :   -0.040386
  25 H :   -0.009392
  26 H :   -0.003270
  27 H :   -0.021737
  28 H :   -0.057663
  29 H :   -0.064528
  30 H :   -0.008051
  31 H :   -0.028318
  32 H :   -0.019503
  33 H :   -0.034008
  34 H :   -0.152535
  35 H :   -0.022489

  Mayer bond orders larger than 0.100000
B(  0-C ,  1-C ) :   0.9832 B(  0-C , 20-H ) :   0.9764 B(  0-C , 21-H ) :   0.9755
B(  0-C , 22-H ) :   0.9787 B(  1-C ,  2-O ) :   0.8843 B(  1-C , 23-H ) :   0.9809
B(  1-C , 24-H ) :   0.9568 B(  2-O ,  3-C ) :   1.1567 B(  3-C ,  4-O ) :   2.1096
B(  3-C ,  5-C ) :   0.9515 B(  5-C ,  6-C ) :   1.6996 B(  5-C , 12-C ) :   0.9599
B(  6-C ,  7-C ) :   0.9546 B(  6-C ,  8-N ) :   1.1325 B(  7-C , 25-H ) :   0.9720
B(  7-C , 26-H ) :   0.9577 B(  7-C , 27-H ) :   0.9854 B(  8-N ,  9-C ) :   1.1877
B(  8-N , 28-H ) :   0.9497 B(  9-C , 10-S ) :   1.6185 B(  9-C , 11-N ) :   1.2876
B( 11-N , 12-C ) :   0.9970 B( 11-N , 29-H ) :   0.9513 B( 12-C , 13-C ) :   0.9407
B( 12-C , 30-H ) :   1.0110 B( 13-C , 14-C ) :   1.3702 B( 13-C , 19-C ) :   1.3545
B( 14-C , 15-C ) :   1.3869 B( 14-C , 31-H ) :   0.9709 B( 15-C , 16-C ) :   1.3597
B( 15-C , 32-H ) :   0.9692 B( 16-C , 17-C ) :   1.3288 B( 16-C , 33-H ) :   0.9829
B( 17-C , 18-O ) :   1.1146 B( 17-C , 19-C ) :   1.3745 B( 18-O , 34-H ) :   0.9789
B( 19-C , 35-H ) :   0.9578

MP2 TOTAL ENERGY:    -1274.323113980 Eh
FINAL SINGLE POINT ENERGY     -1274.323113980060

DIPOLE MOMENT
-------------
                                X             Y             Z
Electronic contribution:     10.64725       9.50643       5.69825
Nuclear contribution   :    -11.95466     -11.01479      -5.46338
                        -----------------------------------------
Total Dipole Moment    :     -1.30741      -1.50836       0.23487
                        -----------------------------------------
Magnitude (a.u.)       :      2.00989
Magnitude (Debye)      :      5.10873

Rotational constants in cm-1:     0.012223     0.009366     0.006306
Rotational constants in MHz :   366.427388   280.773867   189.043053

                             ****ORCA TERMINATED NORMALLY****
TOTAL RUN TIME: 0 days 2 hours 12 minutes 41 seconds 203 msec
