                         Program Version 4.2.0 -  RELEASE  -
|  1> ! ri-mp2 cc-pvtz cc-pvtz/c TightSCF  NoKeepInts
|  2>
|  3> %scf
|  4>   MaxCore 4096
|  5> end
|  6> *xyz  0  1
|  7>     C       15.1818167   15.3726343   17.4498258
|  8>     C       15.5236434   15.3620411   15.9447502
|  9>     O       16.9419413   15.2838451   15.6488404
| 10>     C       18.0001850   15.5765926   16.4748320
| 11>     O       18.9325046   14.7972323   16.5505781
| 12>     C       17.9204194   16.7788128   17.3706394
| 13>     C       17.3805813   17.9684950   17.0026479
| 14>     C       16.8009707   18.3576305   15.6591368
| 15>     N       17.4325406   19.0569097   17.8776428
| 16>     C       18.1529049   19.0910235   19.0419714
| 17>     S       18.2527462   20.4604482   19.9632615
| 18>     N       18.7891601   17.9303401   19.4022529
| 19>     C       18.6259574   16.6291423   18.7250630
| 20>     C       17.9062894   15.6281345   19.6264693
| 21>     C       18.3420317   14.2913270   19.6847347
| 22>     C       17.6807877   13.3551805   20.4968686
| 23>     C       16.5723128   13.7572611   21.2607118
| 24>     C       16.1339506   15.0869381   21.2071105
| 25>     O       15.0575530   15.4765623   21.9352003
| 26>     C       16.7942462   16.0169477   20.3979340
| 27>     H       15.7524039   14.6046144   17.9873333
| 28>     H       14.1175920   15.1481009   17.5909309
| 29>     H       15.3637601   16.3490568   17.9098490
| 30>     H       15.0392491   14.4894831   15.4871633
| 31>     H       15.0840990   16.2455892   15.4688249
| 32>     H       17.1036734   17.6706458   14.8602265
| 33>     H       17.1532931   19.3508100   15.3523164
| 34>     H       15.7060563   18.3923744   15.6947947
| 35>     H       16.9866278   19.9239753   17.6224103
| 36>     H       19.3009217   17.9766651   20.2743291
| 37>     H       19.6347891   16.2358866   18.5303576
| 38>     H       19.1918861   13.9726302   19.0846496
| 39>     H       18.0265879   12.3232683   20.5270807
| 40>     H       16.0572647   13.0364739   21.8871254
| 41>     H       14.7739147   14.7156394   22.4641425
| 42>     H       16.4323382   17.0392882   20.3719947
| 43> *
| 44>
| 45>                          ****END OF INPUT****

CARTESIAN COORDINATES (ANGSTROEM)
---------------------------------
  C     15.181817   15.372634   17.449826
  C     15.523643   15.362041   15.944750
  O     16.941941   15.283845   15.648840
  C     18.000185   15.576593   16.474832
  O     18.932505   14.797232   16.550578
  C     17.920419   16.778813   17.370639
  C     17.380581   17.968495   17.002648
  C     16.800971   18.357630   15.659137
  N     17.432541   19.056910   17.877643
  C     18.152905   19.091023   19.041971
  S     18.252746   20.460448   19.963262
  N     18.789160   17.930340   19.402253
  C     18.625957   16.629142   18.725063
  C     17.906289   15.628134   19.626469
  C     18.342032   14.291327   19.684735
  C     17.680788   13.355180   20.496869
  C     16.572313   13.757261   21.260712
  C     16.133951   15.086938   21.207110
  O     15.057553   15.476562   21.935200
  C     16.794246   16.016948   20.397934
  H     15.752404   14.604614   17.987333
  H     14.117592   15.148101   17.590931
  H     15.363760   16.349057   17.909849
  H     15.039249   14.489483   15.487163
  H     15.084099   16.245589   15.468825
  H     17.103673   17.670646   14.860226
  H     17.153293   19.350810   15.352316
  H     15.706056   18.392374   15.694795
  H     16.986628   19.923975   17.622410
  H     19.300922   17.976665   20.274329
  H     19.634789   16.235887   18.530358
  H     19.191886   13.972630   19.084650
  H     18.026588   12.323268   20.527081
  H     16.057265   13.036474   21.887125
  H     14.773915   14.715639   22.464143
  H     16.432338   17.039288   20.371995

 Total Charge           Charge          ....    0
 Multiplicity           Mult            ....    1
 Number of Electrons    NEL             ....  154
 Basis Dimension        Dim             ....  828

ORBITAL ENERGIES
----------------

  NO   OCC          E(Eh)            E(eV)
   0   2.0000     -91.891000     -2500.4812
   1   2.0000     -20.597261      -560.4800
   2   2.0000     -20.594215      -560.3971
   3   2.0000     -20.548550      -559.1545
   4   2.0000     -15.630053      -425.3154
   5   2.0000     -15.610487      -424.7829
   6   2.0000     -11.399200      -310.1880
   7   2.0000     -11.386718      -309.8483
   8   2.0000     -11.336257      -308.4752
   9   2.0000     -11.313626      -307.8594
  10   2.0000     -11.311215      -307.7938
  11   2.0000     -11.310921      -307.7858
  12   2.0000     -11.267390      -306.6013
  13   2.0000     -11.266729      -306.5833
  14   2.0000     -11.260118      -306.4034
  15   2.0000     -11.253923      -306.2348
  16   2.0000     -11.243545      -305.9524
  17   2.0000     -11.238947      -305.8273
  18   2.0000     -11.235556      -305.7350
  19   2.0000     -11.233605      -305.6819
  20   2.0000      -8.896085      -242.0748
  21   2.0000      -6.577668      -178.9874
  22   2.0000      -6.575649      -178.9325
  23   2.0000      -6.575067      -178.9167
  24   2.0000      -1.443334       -39.2751
  25   2.0000      -1.417081       -38.5607
  26   2.0000      -1.355691       -36.8902
  27   2.0000      -1.342652       -36.5354
  28   2.0000      -1.240811       -33.7642
  29   2.0000      -1.158234       -31.5171
  30   2.0000      -1.123924       -30.5835
  31   2.0000      -1.046413       -28.4743
  32   2.0000      -1.038916       -28.2704
  33   2.0000      -1.016386       -27.6573
  34   2.0000      -1.005532       -27.3619
  35   2.0000      -0.989538       -26.9267
  36   2.0000      -0.927604       -25.2414
  37   2.0000      -0.899986       -24.4899
  38   2.0000      -0.854475       -23.2514
  39   2.0000      -0.840873       -22.8813
  40   2.0000      -0.834036       -22.6953
  41   2.0000      -0.826371       -22.4867
  42   2.0000      -0.744921       -20.2703
  43   2.0000      -0.734017       -19.9736
  44   2.0000      -0.730228       -19.8705
  45   2.0000      -0.694905       -18.9093
  46   2.0000      -0.686632       -18.6842
  47   2.0000      -0.680414       -18.5150
  48   2.0000      -0.674710       -18.3598
  49   2.0000      -0.661295       -17.9948
  50   2.0000      -0.657209       -17.8836
  51   2.0000      -0.651504       -17.7283
  52   2.0000      -0.641191       -17.4477
  53   2.0000      -0.621933       -16.9237
  54   2.0000      -0.608719       -16.5641
  55   2.0000      -0.605233       -16.4692
  56   2.0000      -0.601590       -16.3701
  57   2.0000      -0.587234       -15.9795
  58   2.0000      -0.576023       -15.6744
  59   2.0000      -0.565249       -15.3812
  60   2.0000      -0.564192       -15.3524
  61   2.0000      -0.552624       -15.0377
  62   2.0000      -0.542981       -14.7753
  63   2.0000      -0.533914       -14.5286
  64   2.0000      -0.522091       -14.2068
  65   2.0000      -0.513123       -13.9628
  66   2.0000      -0.500778       -13.6269
  67   2.0000      -0.492943       -13.4137
  68   2.0000      -0.484112       -13.1734
  69   2.0000      -0.471465       -12.8292
  70   2.0000      -0.456904       -12.4330
  71   2.0000      -0.448347       -12.2002
  72   2.0000      -0.357464        -9.7271
  73   2.0000      -0.348338        -9.4787
  74   2.0000      -0.330400        -8.9906
  75   2.0000      -0.322350        -8.7716
  76   2.0000      -0.319117        -8.6836
  77   0.0000       0.075952         2.0668
  78   0.0000       0.107869         2.9353
  79   0.0000       0.115307         3.1377
  80   0.0000       0.131096         3.5673
  81   0.0000       0.133347         3.6286

MULLIKEN ATOMIC CHARGES
-----------------------
   0 C :   -0.344441
   1 C :    0.035237
   2 O :   -0.344290
   3 C :    0.445866
   4 O :   -0.386430
   5 C :   -0.228121
   6 C :    0.162099
   7 C :   -0.342948
   8 N :   -0.132617
   9 C :    0.193452
  10 S :   -0.437917
  11 N :   -0.211946
  12 C :    0.065533
  13 C :    0.026257
  14 C :   -0.199071
  15 C :   -0.134451
  16 C :   -0.279218
  17 C :    0.318294
  18 O :   -0.358915
  19 C :   -0.273097
  20 H :    0.131441
  21 H :    0.121632
  22 H :    0.111319
  23 H :    0.129221
  24 H :    0.088275
  25 H :    0.144121
  26 H :    0.133106
  27 H :    0.121210
  28 H :    0.197803
  29 H :    0.198518
  30 H :    0.164398
  31 H :    0.173276
  32 H :    0.163458
  33 H :    0.131690
  34 H :    0.240999
  35 H :    0.176257
Sum of atomic charges:   -0.0000000

LOEWDIN ATOMIC CHARGES
----------------------
   0 C :    0.104083
   1 C :   -0.015543
   2 O :    0.288525
   3 C :   -0.416992
   4 O :    0.123007
   5 C :   -0.084644
   6 C :   -0.084610
   7 C :    0.125313
   8 N :    0.403836
   9 C :   -0.460020
  10 S :   -0.035522
  11 N :    0.398099
  12 C :   -0.044193
  13 C :   -0.043279
  14 C :    0.019828
  15 C :    0.041964
  16 C :   -0.001812
  17 C :   -0.193889
  18 O :    0.394744
  19 C :    0.029389
  20 H :   -0.018499
  21 H :   -0.021887
  22 H :   -0.035092
  23 H :   -0.019748
  24 H :   -0.037693
  25 H :   -0.007111
  26 H :   -0.011176
  27 H :   -0.018769
  28 H :   -0.057080
  29 H :   -0.063049
  30 H :   -0.002369
  31 H :   -0.022279
  32 H :   -0.019112
  33 H :   -0.035134
  34 H :   -0.153694
  35 H :   -0.025594

  Mayer bond orders larger than 0.100000
B(  0-C ,  1-C ) :   0.9601 B(  0-C , 20-H ) :   0.9665 B(  0-C , 21-H ) :   0.9761
B(  0-C , 22-H ) :   0.9712 B(  1-C ,  2-O ) :   0.9011 B(  1-C , 23-H ) :   0.9812
B(  1-C , 24-H ) :   0.9745 B(  2-O ,  3-C ) :   1.1618 B(  3-C ,  4-O ) :   2.0720
B(  3-C ,  5-C ) :   0.9464 B(  5-C ,  6-C ) :   1.6787 B(  5-C , 12-C ) :   0.9601
B(  6-C ,  7-C ) :   0.9423 B(  6-C ,  8-N ) :   1.1188 B(  7-C , 25-H ) :   0.9737
B(  7-C , 26-H ) :   0.9769 B(  7-C , 27-H ) :   0.9650 B(  8-N ,  9-C ) :   1.1875
B(  8-N , 28-H ) :   0.9511 B(  9-C , 10-S ) :   1.6133 B(  9-C , 11-N ) :   1.2937
B( 11-N , 12-C ) :   0.9891 B( 11-N , 29-H ) :   0.9503 B( 12-C , 13-C ) :   0.9467
B( 12-C , 30-H ) :   0.9973 B( 13-C , 14-C ) :   1.3902 B( 13-C , 19-C ) :   1.3424
B( 14-C , 15-C ) :   1.3974 B( 14-C , 31-H ) :   0.9580 B( 15-C , 16-C ) :   1.3604
B( 15-C , 32-H ) :   0.9705 B( 16-C , 17-C ) :   1.3301 B( 16-C , 33-H ) :   0.9848
B( 17-C , 18-O ) :   1.1101 B( 17-C , 19-C ) :   1.3716 B( 18-O , 34-H ) :   0.9798
B( 19-C , 35-H ) :   0.9572

MP2 TOTAL ENERGY:    -1274.330749561 Eh
FINAL SINGLE POINT ENERGY     -1274.330749561393

DIPOLE MOMENT
-------------
                                X             Y             Z
Electronic contribution:      9.45316       6.33655       6.16325
Nuclear contribution   :    -11.06102      -7.31982      -6.71254
                        -----------------------------------------
Total Dipole Moment    :     -1.60786      -0.98327      -0.54929
                        -----------------------------------------
Magnitude (a.u.)       :      1.96310
Magnitude (Debye)      :      4.98979

Rotational constants in cm-1:     0.011510     0.009760     0.006814
Rotational constants in MHz :   345.057010   292.594625   204.286011

                             ****ORCA TERMINATED NORMALLY****
TOTAL RUN TIME: 0 days 2 hours 36 minutes 12 seconds 502 msec
