                         Program Version 5.0.0 -  RELEASE  -
|  1> ! ri-mp2 cc-pvtz cc-pvtz/c TightSCF NoKeepInts
|  2>
|  3> %scf
|  4>   MaxCore 4096
|  5> end
|  6> *xyz  0  1
|  7>     C       14.5759090   14.4121591   16.1866231
|  8>     C       15.6388797   15.2446166   16.9211702
|  9>     O       16.7609283   15.3910507   16.0324216
| 10>     C       17.9852225   15.5988989   16.5960947
| 11>     O       18.7398765   14.6611444   16.7796367
| 12>     C       18.0590090   16.8470880   17.4208431
| 13>     C       17.5269776   18.0296319   17.0268868
| 14>     C       16.8296061   18.3254045   15.7154766
| 15>     N       17.6707966   19.1598382   17.8362508
| 16>     C       18.4375880   19.2137846   18.9712251
| 17>     S       18.6367850   20.6190494   19.8195643
| 18>     N       19.0286076   18.0403472   19.3706027
| 19>     C       18.7896806   16.7187961   18.7581705
| 20>     C       18.0020493   15.8152979   19.7026657
| 21>     C       18.4445661   14.5069045   19.9696047
| 22>     C       17.7079189   13.6596888   20.8140502
| 23>     C       16.5157078   14.1228175   21.3959707
| 24>     C       16.0682908   15.4234264   21.1286155
| 25>     O       14.9101092   15.8695878   21.6762453
| 26>     C       16.8030759   16.2642756   20.2869186
| 27>     H       14.9819400   13.4321201   15.9054470
| 28>     H       14.2445768   14.9238480   15.2746042
| 29>     H       13.7016806   14.2500418   16.8287524
| 30>     H       15.2333299   16.2209404   17.2152278
| 31>     H       15.9412997   14.7038919   17.8294285
| 32>     H       17.2568051   17.7345262   14.8952526
| 33>     H       16.9265880   19.3793790   15.4267083
| 34>     H       15.7602901   18.0904922   15.7751620
| 35>     H       17.2506075   20.0324212   17.5571079
| 36>     H       19.5683304   18.1040966   20.2245179
| 37>     H       19.7679532   16.2538752   18.5664371
| 38>     H       19.3551690   14.1382079   19.5025049
| 39>     H       18.0590214   12.6473693   21.0072342
| 40>     H       15.9423464   13.4699399   22.0458677
| 41>     H       14.5875521   15.1795530   22.2758257
| 42>     H       16.4379253   17.2674890   20.0948849
| 43> *
| 44>
| 45>                          ****END OF INPUT****

CARTESIAN COORDINATES (ANGSTROEM)
---------------------------------
  C     14.575909   14.412159   16.186623
  C     15.638880   15.244617   16.921170
  O     16.760928   15.391051   16.032422
  C     17.985222   15.598899   16.596095
  O     18.739877   14.661144   16.779637
  C     18.059009   16.847088   17.420843
  C     17.526978   18.029632   17.026887
  C     16.829606   18.325405   15.715477
  N     17.670797   19.159838   17.836251
  C     18.437588   19.213785   18.971225
  S     18.636785   20.619049   19.819564
  N     19.028608   18.040347   19.370603
  C     18.789681   16.718796   18.758170
  C     18.002049   15.815298   19.702666
  C     18.444566   14.506904   19.969605
  C     17.707919   13.659689   20.814050
  C     16.515708   14.122818   21.395971
  C     16.068291   15.423426   21.128615
  O     14.910109   15.869588   21.676245
  C     16.803076   16.264276   20.286919
  H     14.981940   13.432120   15.905447
  H     14.244577   14.923848   15.274604
  H     13.701681   14.250042   16.828752
  H     15.233330   16.220940   17.215228
  H     15.941300   14.703892   17.829428
  H     17.256805   17.734526   14.895253
  H     16.926588   19.379379   15.426708
  H     15.760290   18.090492   15.775162
  H     17.250608   20.032421   17.557108
  H     19.568330   18.104097   20.224518
  H     19.767953   16.253875   18.566437
  H     19.355169   14.138208   19.502505
  H     18.059021   12.647369   21.007234
  H     15.942346   13.469940   22.045868
  H     14.587552   15.179553   22.275826
  H     16.437925   17.267489   20.094885

 Total Charge           Charge          ....    0
 Multiplicity           Mult            ....    1
 Number of Electrons    NEL             ....  154
 Basis Dimension        Dim             ....  828

ORBITAL ENERGIES
----------------

  NO   OCC          E(Eh)            E(eV)
   0   2.0000     -91.890834     -2500.4767
   1   2.0000     -20.598408      -560.5112
   2   2.0000     -20.585041      -560.1474
   3   2.0000     -20.556556      -559.3723
   4   2.0000     -15.630321      -425.3226
   5   2.0000     -15.610473      -424.7826
   6   2.0000     -11.394091      -310.0490
   7   2.0000     -11.386641      -309.8463
   8   2.0000     -11.335085      -308.4433
   9   2.0000     -11.314767      -307.8905
  10   2.0000     -11.310964      -307.7870
  11   2.0000     -11.301944      -307.5415
  12   2.0000     -11.264765      -306.5298
  13   2.0000     -11.261207      -306.4330
  14   2.0000     -11.260302      -306.4084
  15   2.0000     -11.254830      -306.2595
  16   2.0000     -11.244591      -305.9809
  17   2.0000     -11.240264      -305.8631
  18   2.0000     -11.237343      -305.7836
  19   2.0000     -11.231079      -305.6132
  20   2.0000      -8.895907      -242.0699
  21   2.0000      -6.577483      -178.9824
  22   2.0000      -6.575473      -178.9277
  23   2.0000      -6.574886      -178.9118
  24   2.0000      -1.451281       -39.4914
  25   2.0000      -1.418229       -38.5920
  26   2.0000      -1.359010       -36.9805
  27   2.0000      -1.341614       -36.5072
  28   2.0000      -1.239947       -33.7407
  29   2.0000      -1.159209       -31.5437
  30   2.0000      -1.123847       -30.5814
  31   2.0000      -1.047032       -28.4912
  32   2.0000      -1.036051       -28.1924
  33   2.0000      -1.016578       -27.6625
  34   2.0000      -1.002681       -27.2843
  35   2.0000      -0.988032       -26.8857
  36   2.0000      -0.926102       -25.2005
  37   2.0000      -0.877126       -23.8678
  38   2.0000      -0.853525       -23.2256
  39   2.0000      -0.842516       -22.9260
  40   2.0000      -0.835209       -22.7272
  41   2.0000      -0.833998       -22.6942
  42   2.0000      -0.756746       -20.5921
  43   2.0000      -0.736919       -20.0526
  44   2.0000      -0.730900       -19.8888
  45   2.0000      -0.696287       -18.9469
  46   2.0000      -0.688270       -18.7288
  47   2.0000      -0.681988       -18.5578
  48   2.0000      -0.675872       -18.3914
  49   2.0000      -0.661374       -17.9969
  50   2.0000      -0.650623       -17.7044
  51   2.0000      -0.645920       -17.5764
  52   2.0000      -0.640599       -17.4316
  53   2.0000      -0.612098       -16.6560
  54   2.0000      -0.606682       -16.5087
  55   2.0000      -0.604583       -16.4515
  56   2.0000      -0.602186       -16.3863
  57   2.0000      -0.582592       -15.8531
  58   2.0000      -0.577530       -15.7154
  59   2.0000      -0.565685       -15.3931
  60   2.0000      -0.559097       -15.2138
  61   2.0000      -0.555622       -15.1193
  62   2.0000      -0.540826       -14.7166
  63   2.0000      -0.524468       -14.2715
  64   2.0000      -0.516764       -14.0619
  65   2.0000      -0.515023       -14.0145
  66   2.0000      -0.502547       -13.6750
  67   2.0000      -0.498114       -13.5544
  68   2.0000      -0.487007       -13.2521
  69   2.0000      -0.467453       -12.7201
  70   2.0000      -0.459376       -12.5003
  71   2.0000      -0.453302       -12.3350
  72   2.0000      -0.357394        -9.7252
  73   2.0000      -0.350301        -9.5322
  74   2.0000      -0.330138        -8.9835
  75   2.0000      -0.322425        -8.7736
  76   2.0000      -0.318376        -8.6635
  77   0.0000       0.071370         1.9421
  78   0.0000       0.103718         2.8223
  79   0.0000       0.116286         3.1643
  80   0.0000       0.130123         3.5408
  81   0.0000       0.133966         3.6454

MULLIKEN ATOMIC CHARGES
-----------------------
   0 C :   -0.256370
   1 C :    0.019874
   2 O :   -0.356128
   3 C :    0.444592
   4 O :   -0.379844
   5 C :   -0.207472
   6 C :    0.132905
   7 C :   -0.290385
   8 N :   -0.127246
   9 C :    0.198521
  10 S :   -0.437086
  11 N :   -0.202427
  12 C :    0.050898
  13 C :    0.023585
  14 C :   -0.164439
  15 C :   -0.135488
  16 C :   -0.278382
  17 C :    0.311308
  18 O :   -0.358735
  19 C :   -0.270496
  20 H :    0.107486
  21 H :    0.093897
  22 H :    0.089749
  23 H :    0.090730
  24 H :    0.113562
  25 H :    0.132596
  26 H :    0.114362
  27 H :    0.120136
  28 H :    0.197200
  29 H :    0.194786
  30 H :    0.158624
  31 H :    0.162653
  32 H :    0.162418
  33 H :    0.132189
  34 H :    0.241568
  35 H :    0.170856
Sum of atomic charges:    0.0000000

LOEWDIN ATOMIC CHARGES
----------------------
   0 C :    0.112270
   1 C :   -0.023272
   2 O :    0.289924
   3 C :   -0.421900
   4 O :    0.134831
   5 C :   -0.092711
   6 C :   -0.080514
   7 C :    0.127908
   8 N :    0.403881
   9 C :   -0.457611
  10 S :   -0.034477
  11 N :    0.397054
  12 C :   -0.045548
  13 C :   -0.043483
  14 C :    0.021352
  15 C :    0.042878
  16 C :   -0.001627
  17 C :   -0.195489
  18 O :    0.393863
  19 C :    0.028372
  20 H :   -0.021314
  21 H :   -0.028506
  22 H :   -0.025019
  23 H :   -0.039367
  24 H :   -0.023971
  25 H :   -0.006348
  26 H :   -0.016517
  27 H :   -0.013693
  28 H :   -0.058199
  29 H :   -0.063797
  30 H :   -0.003521
  31 H :   -0.023126
  32 H :   -0.019293
  33 H :   -0.034938
  34 H :   -0.153273
  35 H :   -0.024817

  Mayer bond orders larger than 0.100000
B(  0-C ,  1-C ) :   0.9813 B(  0-C , 20-H ) :   0.9782 B(  0-C , 21-H ) :   0.9798
B(  0-C , 22-H ) :   0.9762 B(  1-C ,  2-O ) :   0.8904 B(  1-C , 23-H ) :   0.9701
B(  1-C , 24-H ) :   0.9708 B(  2-O ,  3-C ) :   1.1247 B(  3-C ,  4-O ) :   2.0787
B(  3-C ,  5-C ) :   0.9733 B(  5-C ,  6-C ) :   1.6654 B(  5-C , 12-C ) :   0.9665
B(  6-C ,  7-C ) :   0.9495 B(  6-C ,  8-N ) :   1.1340 B(  7-C , 25-H ) :   0.9709
B(  7-C , 26-H ) :   0.9844 B(  7-C , 27-H ) :   0.9641 B(  8-N ,  9-C ) :   1.1843
B(  8-N , 28-H ) :   0.9501 B(  9-C , 10-S ) :   1.6143 B(  9-C , 11-N ) :   1.2966
B( 11-N , 12-C ) :   0.9946 B( 11-N , 29-H ) :   0.9517 B( 12-C , 13-C ) :   0.9430
B( 12-C , 30-H ) :   0.9984 B( 13-C , 14-C ) :   1.3846 B( 13-C , 19-C ) :   1.3595
B( 14-C , 15-C ) :   1.3950 B( 14-C , 31-H ) :   0.9612 B( 15-C , 16-C ) :   1.3643
B( 15-C , 32-H ) :   0.9707 B( 16-C , 17-C ) :   1.3284 B( 16-C , 33-H ) :   0.9845
B( 17-C , 18-O ) :   1.1117 B( 17-C , 19-C ) :   1.3738 B( 18-O , 34-H ) :   0.9794
B( 19-C , 35-H ) :   0.9586

MP2 TOTAL ENERGY:    -1274.327508784 Eh
FINAL SINGLE POINT ENERGY     -1274.327508783639

DIPOLE MOMENT
-------------
                                X             Y             Z
Electronic contribution:     11.11103       8.99720       7.30217
Nuclear contribution   :    -12.48188     -10.05420      -7.65610
                        -----------------------------------------
Total Dipole Moment    :     -1.37086      -1.05701      -0.35394
                        -----------------------------------------
Magnitude (a.u.)       :      1.76686
Magnitude (Debye)      :      4.49099

Rotational constants in cm-1:     0.011585     0.009237     0.006719
Rotational constants in MHz :   347.311625   276.930854   201.436231

                             ****ORCA TERMINATED NORMALLY****
TOTAL RUN TIME: 0 days 1 hours 58 minutes 16 seconds 0 msec
