                         Program Version 5.0.0 -  RELEASE  -
|  1> ! ri-mp2 cc-pvtz cc-pvtz/c TightSCF NoKeepInts
|  2>
|  3> %scf
|  4>   MaxCore 4096
|  5> end
|  6> *xyz  0  1
|  7>     C       14.8945540   14.7181355   16.0683777
|  8>     C       16.0733893   14.5336784   17.0432561
|  9>     O       17.2932300   14.9333263   16.3834803
| 10>     C       17.5219908   16.2552722   16.1310515
| 11>     O       17.2742327   16.7097507   15.0292100
| 12>     C       17.7303260   17.1060480   17.3542897
| 13>     C       17.3438076   18.4058322   17.3984224
| 14>     C       16.5160265   19.1490227   16.3726006
| 15>     N       17.7574046   19.2216233   18.4558386
| 16>     C       18.7424225   18.8875165   19.3480678
| 17>     S       19.3309555   19.9704451   20.4505478
| 18>     N       19.2227072   17.6036613   19.2727028
| 19>     C       18.5997722   16.5233259   18.4845502
| 20>     C       17.8596934   15.5848755   19.4313700
| 21>     C       18.2295519   14.2293396   19.5197242
| 22>     C       17.5491587   13.3574622   20.3861685
| 23>     C       16.4944906   13.8451357   21.1764048
| 24>     C       16.1300895   15.1961338   21.0997204
| 25>     O       15.1108229   15.6698579   21.8590505
| 26>     C       16.8069791   16.0612795   20.2345118
| 27>     H       14.7383413   15.7778656   15.8314243
| 28>     H       13.9684249   14.3284937   16.5078412
| 29>     H       15.0821452   14.1801710   15.1304773
| 30>     H       15.8781013   15.1246704   17.9429523
| 31>     H       16.1440441   13.4773013   17.3329081
| 32>     H       15.6567234   18.5460004   16.0535103
| 33>     H       17.1153822   19.3607474   15.4775310
| 34>     H       16.1253122   20.1011535   16.7502748
| 35>     H       17.4310269   20.1736584   18.5072932
| 36>     H       19.9344660   17.3795623   19.9565052
| 37>     H       19.4109846   15.9533990   18.0095443
| 38>     H       19.0422365   13.8468621   18.9071403
| 39>     H       17.8411647   12.3100169   20.4448386
| 40>     H       15.9669204   13.1752983   21.8478563
| 41>     H       14.8183757   14.9506926   22.4393833
| 42>     H       16.5117457   17.1043850   20.1951738
| 43> *
| 44>
| 45>                          ****END OF INPUT****

CARTESIAN COORDINATES (ANGSTROEM)
---------------------------------
  C     14.894554   14.718135   16.068378
  C     16.073389   14.533678   17.043256
  O     17.293230   14.933326   16.383480
  C     17.521991   16.255272   16.131052
  O     17.274233   16.709751   15.029210
  C     17.730326   17.106048   17.354290
  C     17.343808   18.405832   17.398422
  C     16.516026   19.149023   16.372601
  N     17.757405   19.221623   18.455839
  C     18.742422   18.887516   19.348068
  S     19.330956   19.970445   20.450548
  N     19.222707   17.603661   19.272703
  C     18.599772   16.523326   18.484550
  C     17.859693   15.584875   19.431370
  C     18.229552   14.229340   19.519724
  C     17.549159   13.357462   20.386168
  C     16.494491   13.845136   21.176405
  C     16.130090   15.196134   21.099720
  O     15.110823   15.669858   21.859050
  C     16.806979   16.061280   20.234512
  H     14.738341   15.777866   15.831424
  H     13.968425   14.328494   16.507841
  H     15.082145   14.180171   15.130477
  H     15.878101   15.124670   17.942952
  H     16.144044   13.477301   17.332908
  H     15.656723   18.546000   16.053510
  H     17.115382   19.360747   15.477531
  H     16.125312   20.101153   16.750275
  H     17.431027   20.173658   18.507293
  H     19.934466   17.379562   19.956505
  H     19.410985   15.953399   18.009544
  H     19.042236   13.846862   18.907140
  H     17.841165   12.310017   20.444839
  H     15.966920   13.175298   21.847856
  H     14.818376   14.950693   22.439383
  H     16.511746   17.104385   20.195174

 Total Charge           Charge          ....    0
 Multiplicity           Mult            ....    1
 Number of Electrons    NEL             ....  154
 Basis Dimension        Dim             ....  828

ORBITAL ENERGIES
----------------

  NO   OCC          E(Eh)            E(eV)
   0   2.0000     -91.891987     -2500.5081
   1   2.0000     -20.602440      -560.6209
   2   2.0000     -20.582472      -560.0775
   3   2.0000     -20.551750      -559.2416
   4   2.0000     -15.631460      -425.3537
   5   2.0000     -15.611214      -424.8027
   6   2.0000     -11.393544      -310.0341
   7   2.0000     -11.386701      -309.8479
   8   2.0000     -11.336786      -308.4896
   9   2.0000     -11.320539      -308.0475
  10   2.0000     -11.315687      -307.9155
  11   2.0000     -11.296563      -307.3951
  12   2.0000     -11.265413      -306.5475
  13   2.0000     -11.261604      -306.4438
  14   2.0000     -11.260202      -306.4057
  15   2.0000     -11.255485      -306.2773
  16   2.0000     -11.249779      -306.1220
  17   2.0000     -11.244151      -305.9689
  18   2.0000     -11.243899      -305.9621
  19   2.0000     -11.222588      -305.3821
  20   2.0000      -8.897003      -242.0998
  21   2.0000      -6.578566      -179.0119
  22   2.0000      -6.576573      -178.9577
  23   2.0000      -6.575974      -178.9414
  24   2.0000      -1.446429       -39.3593
  25   2.0000      -1.422181       -38.6995
  26   2.0000      -1.354356       -36.8539
  27   2.0000      -1.343036       -36.5459
  28   2.0000      -1.241757       -33.7899
  29   2.0000      -1.163144       -31.6508
  30   2.0000      -1.122572       -30.5467
  31   2.0000      -1.047808       -28.5123
  32   2.0000      -1.030704       -28.0469
  33   2.0000      -1.021612       -27.7995
  34   2.0000      -1.000604       -27.2278
  35   2.0000      -0.987733       -26.8776
  36   2.0000      -0.927165       -25.2294
  37   2.0000      -0.885651       -24.0998
  38   2.0000      -0.851114       -23.1600
  39   2.0000      -0.845187       -22.9987
  40   2.0000      -0.840257       -22.8645
  41   2.0000      -0.830909       -22.6102
  42   2.0000      -0.753252       -20.4970
  43   2.0000      -0.736227       -20.0338
  44   2.0000      -0.718150       -19.5419
  45   2.0000      -0.701511       -19.0891
  46   2.0000      -0.692370       -18.8404
  47   2.0000      -0.681539       -18.5456
  48   2.0000      -0.669346       -18.2138
  49   2.0000      -0.667866       -18.1736
  50   2.0000      -0.652500       -17.7554
  51   2.0000      -0.649421       -17.6716
  52   2.0000      -0.638531       -17.3753
  53   2.0000      -0.612450       -16.6656
  54   2.0000      -0.609318       -16.5804
  55   2.0000      -0.602790       -16.4028
  56   2.0000      -0.601122       -16.3574
  57   2.0000      -0.582288       -15.8449
  58   2.0000      -0.575395       -15.6573
  59   2.0000      -0.568922       -15.4812
  60   2.0000      -0.557874       -15.1805
  61   2.0000      -0.547350       -14.8942
  62   2.0000      -0.539089       -14.6694
  63   2.0000      -0.529978       -14.4214
  64   2.0000      -0.523036       -14.2325
  65   2.0000      -0.518270       -14.1028
  66   2.0000      -0.506140       -13.7728
  67   2.0000      -0.498375       -13.5615
  68   2.0000      -0.478241       -13.0136
  69   2.0000      -0.468180       -12.7398
  70   2.0000      -0.454321       -12.3627
  71   2.0000      -0.445441       -12.1211
  72   2.0000      -0.359339        -9.7781
  73   2.0000      -0.353936        -9.6311
  74   2.0000      -0.331654        -9.0248
  75   2.0000      -0.328173        -8.9300
  76   2.0000      -0.319292        -8.6884
  77   0.0000       0.070246         1.9115
  78   0.0000       0.099675         2.7123
  79   0.0000       0.120042         3.2665
  80   0.0000       0.127219         3.4618
  81   0.0000       0.130902         3.5620

MULLIKEN ATOMIC CHARGES
-----------------------
   0 C :   -0.267895
   1 C :    0.023933
   2 O :   -0.368038
   3 C :    0.448880
   4 O :   -0.380878
   5 C :   -0.247979
   6 C :    0.153539
   7 C :   -0.272695
   8 N :   -0.125767
   9 C :    0.200030
  10 S :   -0.432302
  11 N :   -0.189457
  12 C :    0.036089
  13 C :    0.032429
  14 C :   -0.158532
  15 C :   -0.141153
  16 C :   -0.272029
  17 C :    0.305039
  18 O :   -0.355100
  19 C :   -0.258952
  20 H :    0.089912
  21 H :    0.094401
  22 H :    0.107591
  23 H :    0.104810
  24 H :    0.114844
  25 H :    0.122646
  26 H :    0.140239
  27 H :    0.095335
  28 H :    0.198340
  29 H :    0.190967
  30 H :    0.149640
  31 H :    0.148674
  32 H :    0.165073
  33 H :    0.134477
  34 H :    0.241606
  35 H :    0.172283
Sum of atomic charges:    0.0000000

LOEWDIN ATOMIC CHARGES
----------------------
   0 C :    0.106428
   1 C :   -0.020792
   2 O :    0.285245
   3 C :   -0.423116
   4 O :    0.131087
   5 C :   -0.098495
   6 C :   -0.065058
   7 C :    0.130164
   8 N :    0.406088
   9 C :   -0.458147
  10 S :   -0.030604
  11 N :    0.396500
  12 C :   -0.051774
  13 C :   -0.041720
  14 C :    0.017413
  15 C :    0.042743
  16 C :   -0.000471
  17 C :   -0.191547
  18 O :    0.396886
  19 C :    0.030417
  20 H :   -0.031082
  21 H :   -0.028114
  22 H :   -0.022813
  23 H :   -0.037455
  24 H :   -0.022045
  25 H :   -0.008178
  26 H :   -0.002674
  27 H :   -0.022408
  28 H :   -0.057400
  29 H :   -0.064814
  30 H :   -0.006119
  31 H :   -0.028257
  32 H :   -0.019472
  33 H :   -0.034082
  34 H :   -0.152515
  35 H :   -0.023820

  Mayer bond orders larger than 0.100000
B(  0-C ,  1-C ) :   0.9819 B(  0-C , 20-H ) :   0.9736 B(  0-C , 21-H ) :   0.9764
B(  0-C , 22-H ) :   0.9787 B(  1-C ,  2-O ) :   0.8790 B(  1-C , 23-H ) :   0.9606
B(  1-C , 24-H ) :   0.9798 B(  2-O ,  3-C ) :   1.1269 B(  3-C ,  4-O ) :   2.0681
B(  3-C ,  5-C ) :   0.9961 B(  5-C ,  6-C ) :   1.6747 B(  5-C , 12-C ) :   0.9650
B(  6-C ,  7-C ) :   0.9653 B(  6-C ,  8-N ) :   1.1413 B(  7-C , 25-H ) :   0.9697
B(  7-C , 26-H ) :   0.9555 B(  7-C , 27-H ) :   0.9861 B(  8-N ,  9-C ) :   1.1795
B(  8-N , 28-H ) :   0.9492 B(  9-C , 10-S ) :   1.6212 B(  9-C , 11-N ) :   1.2940
B( 11-N , 12-C ) :   0.9907 B( 11-N , 29-H ) :   0.9538 B( 12-C , 13-C ) :   0.9479
B( 12-C , 30-H ) :   1.0060 B( 13-C , 14-C ) :   1.3618 B( 13-C , 19-C ) :   1.3620
B( 14-C , 15-C ) :   1.3872 B( 14-C , 31-H ) :   0.9743 B( 15-C , 16-C ) :   1.3678
B( 15-C , 32-H ) :   0.9696 B( 16-C , 17-C ) :   1.3266 B( 16-C , 33-H ) :   0.9831
B( 17-C , 18-O ) :   1.1157 B( 17-C , 19-C ) :   1.3778 B( 18-O , 34-H ) :   0.9790
B( 19-C , 35-H ) :   0.9565

MP2 TOTAL ENERGY:    -1274.326886166 Eh
FINAL SINGLE POINT ENERGY     -1274.326886165644

DIPOLE MOMENT
-------------
                                X             Y             Z
Electronic contribution:     10.92859       8.09771       7.12867
Nuclear contribution   :    -12.12801      -9.65196      -6.77590
                        -----------------------------------------
Total Dipole Moment    :     -1.19942      -1.55425       0.35277
                        -----------------------------------------
Magnitude (a.u.)       :      1.99468
Magnitude (Debye)      :      5.07007

Rotational constants in cm-1:     0.011369     0.009781     0.006444
Rotational constants in MHz :   340.843299   293.235045   193.191944

                             ****ORCA TERMINATED NORMALLY****
TOTAL RUN TIME: 0 days 1 hours 52 minutes 7 seconds 124 msec
