                         Program Version 5.0.0 -  RELEASE  -
|  1> ! ri-mp2 cc-pvtz cc-pvtz/c TightSCF NoKeepInts
|  2>
|  3> %scf
|  4>   MaxCore 4096
|  5> end
|  6> *xyz  0  1
|  7>     C       15.7557386   13.4179076   15.5287798
|  8>     C       15.5767963   14.4496986   16.6547055
|  9>     O       16.7146508   15.3296644   16.6161304
| 10>     C       16.5200969   16.6816219   16.5946777
| 11>     O       15.5621103   17.1871573   16.0352377
| 12>     C       17.4368226   17.4133221   17.5365252
| 13>     C       17.4101432   18.7634393   17.6740227
| 14>     C       16.5076380   19.7406842   16.9514838
| 15>     N       18.3111103   19.3988896   18.5337022
| 16>     C       19.3309917   18.7747321   19.2009143
| 17>     S       20.4152456   19.6148695   20.1252542
| 18>     N       19.4113499   17.4128769   19.0602126
| 19>     C       18.4214719   16.5703943   18.3647598
| 20>     C       17.7049981   15.6803798   19.3767100
| 21>     C       17.9399953   14.2926018   19.3963692
| 22>     C       17.2762104   13.4679736   20.3201710
| 23>     C       16.3729211   14.0357384   21.2348285
| 24>     C       16.1415431   15.4181243   21.2224873
| 25>     O       15.2712496   15.9694514   22.1053288
| 26>     C       16.8025171   16.2359931   20.3009294
| 27>     H       14.9207229   12.7069553   15.5221101
| 28>     H       16.6873840   12.8547104   15.6635348
| 29>     H       15.7892807   13.9170196   14.5521103
| 30>     H       14.6328637   14.9911149   16.5040682
| 31>     H       15.5289802   13.9442219   17.6281378
| 32>     H       15.4569330   19.5571524   17.2104337
| 33>     H       16.6014435   19.6228989   15.8644262
| 34>     H       16.7303645   20.7873560   17.1895989
| 35>     H       18.2684225   20.3990452   18.6476011
| 36>     H       20.1519703   16.9769739   19.5943686
| 37>     H       18.9738551   15.9258347   17.6664666
| 38>     H       18.6342042   13.8505915   18.6865186
| 39>     H       17.4635946   12.3955354   20.3264263
| 40>     H       15.8588596   13.4034119   21.9513149
| 41>     H       14.9500939   15.2594550   22.6812403
| 42>     H       16.6144263   17.3042027   20.3124133
| 43> *
| 44>
| 45>                          ****END OF INPUT****

CARTESIAN COORDINATES (ANGSTROEM)
---------------------------------
  C     15.755739   13.417908   15.528780
  C     15.576796   14.449699   16.654705
  O     16.714651   15.329664   16.616130
  C     16.520097   16.681622   16.594678
  O     15.562110   17.187157   16.035238
  C     17.436823   17.413322   17.536525
  C     17.410143   18.763439   17.674023
  C     16.507638   19.740684   16.951484
  N     18.311110   19.398890   18.533702
  C     19.330992   18.774732   19.200914
  S     20.415246   19.614870   20.125254
  N     19.411350   17.412877   19.060213
  C     18.421472   16.570394   18.364760
  C     17.704998   15.680380   19.376710
  C     17.939995   14.292602   19.396369
  C     17.276210   13.467974   20.320171
  C     16.372921   14.035738   21.234828
  C     16.141543   15.418124   21.222487
  O     15.271250   15.969451   22.105329
  C     16.802517   16.235993   20.300929
  H     14.920723   12.706955   15.522110
  H     16.687384   12.854710   15.663535
  H     15.789281   13.917020   14.552110
  H     14.632864   14.991115   16.504068
  H     15.528980   13.944222   17.628138
  H     15.456933   19.557152   17.210434
  H     16.601443   19.622899   15.864426
  H     16.730365   20.787356   17.189599
  H     18.268422   20.399045   18.647601
  H     20.151970   16.976974   19.594369
  H     18.973855   15.925835   17.666467
  H     18.634204   13.850592   18.686519
  H     17.463595   12.395535   20.326426
  H     15.858860   13.403412   21.951315
  H     14.950094   15.259455   22.681240
  H     16.614426   17.304203   20.312413

 Total Charge           Charge          ....    0
 Multiplicity           Mult            ....    1
 Number of Electrons    NEL             ....  154
 Basis Dimension        Dim             ....  828

ORBITAL ENERGIES
----------------

  NO   OCC          E(Eh)            E(eV)
   0   2.0000     -91.889361     -2500.4366
   1   2.0000     -20.598250      -560.5069
   2   2.0000     -20.594818      -560.4135
   3   2.0000     -20.543358      -559.0132
   4   2.0000     -15.629562      -425.3020
   5   2.0000     -15.608808      -424.7373
   6   2.0000     -11.394563      -310.0618
   7   2.0000     -11.384486      -309.7876
   8   2.0000     -11.336188      -308.4734
   9   2.0000     -11.315794      -307.9184
  10   2.0000     -11.309892      -307.7578
  11   2.0000     -11.293538      -307.3128
  12   2.0000     -11.261372      -306.4375
  13   2.0000     -11.258868      -306.3694
  14   2.0000     -11.257219      -306.3245
  15   2.0000     -11.252474      -306.1954
  16   2.0000     -11.244888      -305.9890
  17   2.0000     -11.240101      -305.8587
  18   2.0000     -11.239806      -305.8507
  19   2.0000     -11.225820      -305.4701
  20   2.0000      -8.894420      -242.0295
  21   2.0000      -6.575994      -178.9419
  22   2.0000      -6.573990      -178.8874
  23   2.0000      -6.573402      -178.8714
  24   2.0000      -1.449986       -39.4561
  25   2.0000      -1.417898       -38.5830
  26   2.0000      -1.354090       -36.8467
  27   2.0000      -1.340552       -36.4783
  28   2.0000      -1.239128       -33.7184
  29   2.0000      -1.159208       -31.5436
  30   2.0000      -1.120825       -30.4992
  31   2.0000      -1.043894       -28.4058
  32   2.0000      -1.037176       -28.2230
  33   2.0000      -1.016970       -27.6732
  34   2.0000      -0.996085       -27.1049
  35   2.0000      -0.984620       -26.7929
  36   2.0000      -0.923425       -25.1277
  37   2.0000      -0.886030       -24.1101
  38   2.0000      -0.847594       -23.0642
  39   2.0000      -0.839118       -22.8336
  40   2.0000      -0.835668       -22.7397
  41   2.0000      -0.820850       -22.3365
  42   2.0000      -0.762458       -20.7475
  43   2.0000      -0.733835       -19.9687
  44   2.0000      -0.723772       -19.6948
  45   2.0000      -0.697159       -18.9707
  46   2.0000      -0.688578       -18.7372
  47   2.0000      -0.679323       -18.4853
  48   2.0000      -0.672678       -18.3045
  49   2.0000      -0.654551       -17.8112
  50   2.0000      -0.647156       -17.6100
  51   2.0000      -0.642846       -17.4927
  52   2.0000      -0.628511       -17.1027
  53   2.0000      -0.617774       -16.8105
  54   2.0000      -0.608667       -16.5627
  55   2.0000      -0.601097       -16.3567
  56   2.0000      -0.599508       -16.3134
  57   2.0000      -0.579336       -15.7645
  58   2.0000      -0.571561       -15.5530
  59   2.0000      -0.566013       -15.4020
  60   2.0000      -0.563882       -15.3440
  61   2.0000      -0.539841       -14.6898
  62   2.0000      -0.533639       -14.5211
  63   2.0000      -0.526727       -14.3330
  64   2.0000      -0.524835       -14.2815
  65   2.0000      -0.514301       -13.9949
  66   2.0000      -0.502360       -13.6699
  67   2.0000      -0.495958       -13.4957
  68   2.0000      -0.487889       -13.2761
  69   2.0000      -0.464540       -12.6408
  70   2.0000      -0.455282       -12.3888
  71   2.0000      -0.447749       -12.1839
  72   2.0000      -0.354613        -9.6495
  73   2.0000      -0.351107        -9.5541
  74   2.0000      -0.328876        -8.9492
  75   2.0000      -0.323352        -8.7989
  76   2.0000      -0.316706        -8.6180
  77   0.0000       0.073958         2.0125
  78   0.0000       0.104537         2.8446
  79   0.0000       0.124132         3.3778
  80   0.0000       0.131139         3.5685
  81   0.0000       0.135255         3.6805

MULLIKEN ATOMIC CHARGES
-----------------------
   0 C :   -0.262658
   1 C :    0.020398
   2 O :   -0.369673
   3 C :    0.472884
   4 O :   -0.424312
   5 C :   -0.246194
   6 C :    0.158379
   7 C :   -0.270859
   8 N :   -0.122869
   9 C :    0.212217
  10 S :   -0.439553
  11 N :   -0.205860
  12 C :    0.066601
  13 C :    0.063176
  14 C :   -0.201298
  15 C :   -0.129223
  16 C :   -0.280099
  17 C :    0.315059
  18 O :   -0.355705
  19 C :   -0.264298
  20 H :    0.088209
  21 H :    0.089861
  22 H :    0.101423
  23 H :    0.115498
  24 H :    0.114669
  25 H :    0.132391
  26 H :    0.130466
  27 H :    0.095215
  28 H :    0.197693
  29 H :    0.195048
  30 H :    0.149773
  31 H :    0.152489
  32 H :    0.162630
  33 H :    0.131543
  34 H :    0.240953
  35 H :    0.166025
Sum of atomic charges:   -0.0000000

LOEWDIN ATOMIC CHARGES
----------------------
   0 C :    0.105427
   1 C :   -0.014077
   2 O :    0.305389
   3 C :   -0.415758
   4 O :    0.101190
   5 C :   -0.096454
   6 C :   -0.058912
   7 C :    0.131634
   8 N :    0.406688
   9 C :   -0.456179
  10 S :   -0.035063
  11 N :    0.396278
  12 C :   -0.052352
  13 C :   -0.037933
  14 C :    0.014002
  15 C :    0.038426
  16 C :   -0.002682
  17 C :   -0.189315
  18 O :    0.395781
  19 C :    0.031366
  20 H :   -0.027043
  21 H :   -0.030030
  22 H :   -0.024406
  23 H :   -0.028400
  24 H :   -0.030200
  25 H :   -0.004553
  26 H :   -0.003927
  27 H :   -0.023292
  28 H :   -0.057476
  29 H :   -0.064662
  30 H :   -0.010260
  31 H :   -0.029883
  32 H :   -0.021017
  33 H :   -0.035307
  34 H :   -0.153543
  35 H :   -0.023457

  Mayer bond orders larger than 0.100000
B(  0-C ,  1-C ) :   0.9793 B(  0-C , 20-H ) :   0.9762 B(  0-C , 21-H ) :   0.9794
B(  0-C , 22-H ) :   0.9788 B(  1-C ,  2-O ) :   0.8719 B(  1-C , 23-H ) :   0.9733
B(  1-C , 24-H ) :   0.9708 B(  2-O ,  3-C ) :   1.1419 B(  3-C ,  4-O ) :   1.9908
B(  3-C ,  5-C ) :   1.0635 B(  5-C ,  6-C ) :   1.6517 B(  5-C , 12-C ) :   0.9709
B(  6-C ,  7-C ) :   0.9664 B(  6-C ,  8-N ) :   1.1618 B(  7-C , 25-H ) :   0.9594
B(  7-C , 26-H ) :   0.9611 B(  7-C , 27-H ) :   0.9905 B(  8-N ,  9-C ) :   1.1832
B(  8-N , 28-H ) :   0.9477 B(  9-C , 10-S ) :   1.6072 B(  9-C , 11-N ) :   1.3057
B( 11-N , 12-C ) :   0.9839 B( 11-N , 29-H ) :   0.9517 B( 12-C , 13-C ) :   0.9358
B( 12-C , 30-H ) :   1.0020 B( 13-C , 14-C ) :   1.3509 B( 13-C , 19-C ) :   1.3830
B( 14-C , 15-C ) :   1.3896 B( 14-C , 31-H ) :   0.9729 B( 15-C , 16-C ) :   1.3606
B( 15-C , 32-H ) :   0.9705 B( 16-C , 17-C ) :   1.3309 B( 16-C , 33-H ) :   0.9847
B( 17-C , 18-O ) :   1.1119 B( 17-C , 19-C ) :   1.3712 B( 18-O , 34-H ) :   0.9796
B( 19-C , 35-H ) :   0.9578

MP2 TOTAL ENERGY:    -1274.343672415 Eh
FINAL SINGLE POINT ENERGY     -1274.343672415060

DIPOLE MOMENT
-------------
                                X             Y             Z
Electronic contribution:      9.43599      10.76432       8.50450
Nuclear contribution   :    -10.54062     -12.34550      -8.70692
                        -----------------------------------------
Total Dipole Moment    :     -1.10463      -1.58118      -0.20242
                        -----------------------------------------
Magnitude (a.u.)       :      1.93941
Magnitude (Debye)      :      4.92958

Rotational constants in cm-1:     0.011937     0.008494     0.006172
Rotational constants in MHz :   357.852058   254.658417   185.022278

                             ****ORCA TERMINATED NORMALLY****
TOTAL RUN TIME: 0 days 2 hours 0 minutes 28 seconds 198 msec
