                         Program Version 5.0.0 -  RELEASE  -
|  1> ! ri-mp2 cc-pvtz cc-pvtz/c TightSCF NoKeepInts
|  2>
|  3> %scf
|  4>   MaxCore 4096
|  5> end
|  6> *xyz  0  1
|  7>     C       15.3825757   13.4185667   16.1765484
|  8>     C       16.2974468   14.4586282   16.8429407
|  9>     O       16.7080814   15.3721950   15.8176718
| 10>     C       16.8539305   16.7265852   15.9786566
| 11>     O       16.5622641   17.4401288   15.0375777
| 12>     C       17.4348483   17.2802779   17.2636719
| 13>     C       17.3391611   18.6071683   17.5522721
| 14>     C       16.5279383   19.6581039   16.8241673
| 15>     N       18.1002768   19.1547427   18.5914317
| 16>     C       19.1902594   18.5348257   19.1443857
| 17>     S       20.2372109   19.3210725   20.1549430
| 18>     N       19.3793277   17.2243116   18.7848478
| 19>     C       18.3296633   16.4001359   18.1607757
| 20>     C       17.5961169   15.6777971   19.2919077
| 21>     C       18.0856284   14.4402946   19.7529972
| 22>     C       17.4405465   13.7561793   20.7965297
| 23>     C       16.2993095   14.3167187   21.3935403
| 24>     C       15.8169288   15.5553110   20.9509359
| 25>     O       14.7179905   16.1028602   21.5276199
| 26>     C       16.4595347   16.2334460   19.9104599
| 27>     H       15.0227870   12.6919261   16.9150968
| 28>     H       15.9230134   12.8739386   15.3921659
| 29>     H       14.5114182   13.9054894   15.7201735
| 30>     H       15.7167274   14.9758744   17.6168841
| 31>     H       17.1625656   13.9559469   17.2900801
| 32>     H       15.5224063   19.2854056   16.5916854
| 33>     H       17.0069689   19.9199914   15.8715952
| 34>     H       16.4071795   20.5803300   17.4044154
| 35>     H       17.9845813   20.1256885   18.8349369
| 36>     H       20.1844193   16.7843253   19.2111077
| 37>     H       18.8221189   15.6529003   17.5224511
| 38>     H       18.9743880   14.0067860   19.3016753
| 39>     H       17.8293674   12.8006028   21.1452577
| 40>     H       15.7998333   13.7941769   22.2031076
| 41>     H       14.4506857   15.5228701   22.2570760
| 42>     H       16.0695002   17.1963988   19.6024103
| 43> *
| 44>
| 45>                          ****END OF INPUT****

CARTESIAN COORDINATES (ANGSTROEM)
---------------------------------
  C     15.382576   13.418567   16.176548
  C     16.297447   14.458628   16.842941
  O     16.708081   15.372195   15.817672
  C     16.853931   16.726585   15.978657
  O     16.562264   17.440129   15.037578
  C     17.434848   17.280278   17.263672
  C     17.339161   18.607168   17.552272
  C     16.527938   19.658104   16.824167
  N     18.100277   19.154743   18.591432
  C     19.190259   18.534826   19.144386
  S     20.237211   19.321072   20.154943
  N     19.379328   17.224312   18.784848
  C     18.329663   16.400136   18.160776
  C     17.596117   15.677797   19.291908
  C     18.085628   14.440295   19.752997
  C     17.440546   13.756179   20.796530
  C     16.299309   14.316719   21.393540
  C     15.816929   15.555311   20.950936
  O     14.717991   16.102860   21.527620
  C     16.459535   16.233446   19.910460
  H     15.022787   12.691926   16.915097
  H     15.923013   12.873939   15.392166
  H     14.511418   13.905489   15.720173
  H     15.716727   14.975874   17.616884
  H     17.162566   13.955947   17.290080
  H     15.522406   19.285406   16.591685
  H     17.006969   19.919991   15.871595
  H     16.407180   20.580330   17.404415
  H     17.984581   20.125688   18.834937
  H     20.184419   16.784325   19.211108
  H     18.822119   15.652900   17.522451
  H     18.974388   14.006786   19.301675
  H     17.829367   12.800603   21.145258
  H     15.799833   13.794177   22.203108
  H     14.450686   15.522870   22.257076
  H     16.069500   17.196399   19.602410

 Total Charge           Charge          ....    0
 Multiplicity           Mult            ....    1
 Number of Electrons    NEL             ....  154
 Basis Dimension        Dim             ....  828

ORBITAL ENERGIES
----------------

  NO   OCC          E(Eh)            E(eV)
   0   2.0000     -91.892853     -2500.5316
   1   2.0000     -20.604997      -560.6905
   2   2.0000     -20.593301      -560.3722
   3   2.0000     -20.538402      -558.8783
   4   2.0000     -15.632913      -425.3932
   5   2.0000     -15.612370      -424.8342
   6   2.0000     -11.393911      -310.0441
   7   2.0000     -11.386790      -309.8503
   8   2.0000     -11.338756      -308.5432
   9   2.0000     -11.322919      -308.1123
  10   2.0000     -11.319958      -308.0317
  11   2.0000     -11.298334      -307.4433
  12   2.0000     -11.270191      -306.6775
  13   2.0000     -11.265064      -306.5380
  14   2.0000     -11.263380      -306.4922
  15   2.0000     -11.253323      -306.2185
  16   2.0000     -11.250401      -306.1390
  17   2.0000     -11.246945      -306.0449
  18   2.0000     -11.245638      -306.0094
  19   2.0000     -11.227850      -305.5253
  20   2.0000      -8.897813      -242.1218
  21   2.0000      -6.579366      -179.0336
  22   2.0000      -6.577386      -178.9798
  23   2.0000      -6.576780      -178.9633
  24   2.0000      -1.443928       -39.2913
  25   2.0000      -1.424541       -38.7637
  26   2.0000      -1.352629       -36.8069
  27   2.0000      -1.345159       -36.6036
  28   2.0000      -1.243797       -33.8454
  29   2.0000      -1.165539       -31.7159
  30   2.0000      -1.122306       -30.5395
  31   2.0000      -1.049155       -28.5490
  32   2.0000      -1.036244       -28.1976
  33   2.0000      -1.024432       -27.8762
  34   2.0000      -1.001253       -27.2455
  35   2.0000      -0.987532       -26.8721
  36   2.0000      -0.928649       -25.2698
  37   2.0000      -0.879854       -23.9420
  38   2.0000      -0.852990       -23.2110
  39   2.0000      -0.850357       -23.1394
  40   2.0000      -0.842135       -22.9157
  41   2.0000      -0.833770       -22.6880
  42   2.0000      -0.764286       -20.7973
  43   2.0000      -0.738921       -20.1071
  44   2.0000      -0.717337       -19.5197
  45   2.0000      -0.705045       -19.1852
  46   2.0000      -0.697134       -18.9700
  47   2.0000      -0.677526       -18.4364
  48   2.0000      -0.673492       -18.3267
  49   2.0000      -0.668827       -18.1997
  50   2.0000      -0.654108       -17.7992
  51   2.0000      -0.646182       -17.5835
  52   2.0000      -0.643049       -17.4983
  53   2.0000      -0.617332       -16.7985
  54   2.0000      -0.607855       -16.5406
  55   2.0000      -0.603197       -16.4138
  56   2.0000      -0.588245       -16.0070
  57   2.0000      -0.584866       -15.9150
  58   2.0000      -0.573880       -15.6161
  59   2.0000      -0.570318       -15.5191
  60   2.0000      -0.564962       -15.3734
  61   2.0000      -0.550270       -14.9736
  62   2.0000      -0.540378       -14.7044
  63   2.0000      -0.534749       -14.5513
  64   2.0000      -0.521326       -14.1860
  65   2.0000      -0.517292       -14.0762
  66   2.0000      -0.511444       -13.9171
  67   2.0000      -0.503673       -13.7056
  68   2.0000      -0.482713       -13.1353
  69   2.0000      -0.465267       -12.6606
  70   2.0000      -0.451532       -12.2868
  71   2.0000      -0.443307       -12.0630
  72   2.0000      -0.363332        -9.8868
  73   2.0000      -0.356971        -9.7137
  74   2.0000      -0.333722        -9.0810
  75   2.0000      -0.328423        -8.9368
  76   2.0000      -0.319143        -8.6843
  77   0.0000       0.072665         1.9773
  78   0.0000       0.098428         2.6784
  79   0.0000       0.115097         3.1319
  80   0.0000       0.123429         3.3587
  81   0.0000       0.129194         3.5155

MULLIKEN ATOMIC CHARGES
-----------------------
   0 C :   -0.256322
   1 C :    0.022907
   2 O :   -0.309766
   3 C :    0.441391
   4 O :   -0.390121
   5 C :   -0.259750
   6 C :    0.130500
   7 C :   -0.270277
   8 N :   -0.121562
   9 C :    0.216381
  10 S :   -0.434605
  11 N :   -0.204529
  12 C :    0.051606
  13 C :    0.055340
  14 C :   -0.227686
  15 C :   -0.129498
  16 C :   -0.276033
  17 C :    0.316874
  18 O :   -0.355619
  19 C :   -0.254047
  20 H :    0.087668
  21 H :    0.100303
  22 H :    0.102683
  23 H :    0.101813
  24 H :    0.083657
  25 H :    0.124568
  26 H :    0.143605
  27 H :    0.093381
  28 H :    0.199655
  29 H :    0.189407
  30 H :    0.159502
  31 H :    0.156244
  32 H :    0.163179
  33 H :    0.132887
  34 H :    0.243123
  35 H :    0.173142
Sum of atomic charges:    0.0000000

LOEWDIN ATOMIC CHARGES
----------------------
   0 C :    0.111192
   1 C :   -0.032768
   2 O :    0.307099
   3 C :   -0.422552
   4 O :    0.115621
   5 C :   -0.097785
   6 C :   -0.057527
   7 C :    0.129216
   8 N :    0.409445
   9 C :   -0.453740
  10 S :   -0.029055
  11 N :    0.396104
  12 C :   -0.053523
  13 C :   -0.036958
  14 C :    0.005309
  15 C :    0.044120
  16 C :   -0.000822
  17 C :   -0.188974
  18 O :    0.396680
  19 C :    0.027219
  20 H :   -0.026486
  21 H :   -0.025800
  22 H :   -0.023536
  23 H :   -0.030786
  24 H :   -0.036218
  25 H :   -0.006432
  26 H :   -0.001447
  27 H :   -0.023215
  28 H :   -0.056508
  29 H :   -0.067858
  30 H :   -0.005331
  31 H :   -0.032161
  32 H :   -0.018522
  33 H :   -0.034060
  34 H :   -0.151324
  35 H :   -0.028616

  Mayer bond orders larger than 0.100000
B(  0-C ,  1-C ) :   0.9830 B(  0-C , 20-H ) :   0.9778 B(  0-C , 21-H ) :   0.9804
B(  0-C , 22-H ) :   0.9788 B(  1-C ,  2-O ) :   0.8999 B(  1-C , 23-H ) :   0.9637
B(  1-C , 24-H ) :   0.9712 B(  2-O ,  3-C ) :   1.1882 B(  3-C ,  4-O ) :   2.0670
B(  3-C ,  5-C ) :   0.9924 B(  5-C ,  6-C ) :   1.6485 B(  5-C , 12-C ) :   0.9608
B(  6-C ,  7-C ) :   0.9777 B(  6-C ,  8-N ) :   1.1471 B(  7-C , 25-H ) :   0.9673
B(  7-C , 26-H ) :   0.9522 B(  7-C , 27-H ) :   0.9858 B(  8-N ,  9-C ) :   1.1871
B(  8-N , 28-H ) :   0.9489 B(  9-C , 10-S ) :   1.6148 B(  9-C , 11-N ) :   1.2934
B( 11-N , 12-C ) :   0.9537 B( 11-N , 29-H ) :   0.9540 B( 12-C , 13-C ) :   0.9615
B( 12-C , 30-H ) :   0.9992 B( 13-C , 14-C ) :   1.3388 B( 13-C , 19-C ) :   1.3657
B( 14-C , 15-C ) :   1.4064 B( 14-C , 31-H ) :   0.9720 B( 15-C , 16-C ) :   1.3635
B( 15-C , 32-H ) :   0.9693 B( 16-C , 17-C ) :   1.3344 B( 16-C , 33-H ) :   0.9838
B( 17-C , 18-O ) :   1.1172 B( 17-C , 19-C ) :   1.3650 B( 18-O , 34-H ) :   0.9782
B( 19-C , 35-H ) :   0.9517

MP2 TOTAL ENERGY:    -1274.331934036 Eh
FINAL SINGLE POINT ENERGY     -1274.331934036013

DIPOLE MOMENT
-------------
                                X             Y             Z
Electronic contribution:      9.10188      10.21303       4.88186
Nuclear contribution   :    -10.22473     -11.80863      -3.93454
                        -----------------------------------------
Total Dipole Moment    :     -1.12285      -1.59560       0.94732
                        -----------------------------------------
Magnitude (a.u.)       :      2.16890
Magnitude (Debye)      :      5.51292

Rotational constants in cm-1:     0.011039     0.009441     0.006461
Rotational constants in MHz :   330.927308   283.019380   193.684037

                             ****ORCA TERMINATED NORMALLY****
TOTAL RUN TIME: 0 days 2 hours 5 minutes 47 seconds 690 msec
