                         Program Version 4.2.0 -  RELEASE  -
|  1> ! ri-mp2 cc-pvtz cc-pvtz/c TightSCF  NoKeepInts
|  2>
|  3> %scf
|  4>   MaxCore 4096
|  5> end
|  6> *xyz  0  1
|  7>     C       14.9676217   14.2163068   15.9538319
|  8>     C       16.2590410   14.0475030   16.7814280
|  9>     O       17.2435364   15.0902563   16.5682766
| 10>     C       16.9375064   16.4189802   16.4308239
| 11>     O       16.1169011   16.8323601   15.6310583
| 12>     C       17.6336952   17.2810855   17.4502130
| 13>     C       17.4763290   18.6293730   17.4916703
| 14>     C       16.6146456   19.4829174   16.5855187
| 15>     N       18.1791156   19.3898943   18.4309591
| 16>     C       19.1314070   18.8992189   19.2832347
| 17>     S       19.9873428   19.8835129   20.3003168
| 18>     N       19.3448342   17.5453275   19.2472924
| 19>     C       18.5476057   16.5793331   18.4704222
| 20>     C       17.7721485   15.6783264   19.4269026
| 21>     C       18.2000240   14.3577052   19.6603150
| 22>     C       17.4868446   13.5188865   20.5331563
| 23>     C       16.3391208   14.0056453   21.1817486
| 24>     C       15.9158108   15.3231574   20.9592185
| 25>     O       14.8098198   15.7969427   21.5859369
| 26>     C       16.6267262   16.1551984   20.0889809
| 27>     H       14.3747945   15.0676522   16.3107982
| 28>     H       14.3425121   13.3193421   16.0375075
| 29>     H       15.2010921   14.3697629   14.8925852
| 30>     H       15.9819812   14.0256721   17.8434749
| 31>     H       16.7157836   13.0783236   16.5439805
| 32>     H       15.5602415   19.1897175   16.6683391
| 33>     H       16.9088512   19.3506567   15.5364651
| 34>     H       16.6793333   20.5532017   16.8137217
| 35>     H       18.0384034   20.3868230   18.4683993
| 36>     H       20.0284377   17.2093328   19.9132918
| 37>     H       19.2528552   15.9549426   17.9037893
| 38>     H       19.0861945   13.9784044   19.1581434
| 39>     H       17.8252589   12.4986882   20.7069504
| 40>     H       15.7859100   13.3623664   21.8583549
| 41>     H       14.4886520   15.1011546   22.1791134
| 42>     H       16.2866224   17.1740285   19.9377807
| 43> *
| 44>
| 45>                          ****END OF INPUT****

CARTESIAN COORDINATES (ANGSTROEM)
---------------------------------
  C     14.967622   14.216307   15.953832
  C     16.259041   14.047503   16.781428
  O     17.243536   15.090256   16.568277
  C     16.937506   16.418980   16.430824
  O     16.116901   16.832360   15.631058
  C     17.633695   17.281085   17.450213
  C     17.476329   18.629373   17.491670
  C     16.614646   19.482917   16.585519
  N     18.179116   19.389894   18.430959
  C     19.131407   18.899219   19.283235
  S     19.987343   19.883513   20.300317
  N     19.344834   17.545327   19.247292
  C     18.547606   16.579333   18.470422
  C     17.772149   15.678326   19.426903
  C     18.200024   14.357705   19.660315
  C     17.486845   13.518886   20.533156
  C     16.339121   14.005645   21.181749
  C     15.915811   15.323157   20.959218
  O     14.809820   15.796943   21.585937
  C     16.626726   16.155198   20.088981
  H     14.374795   15.067652   16.310798
  H     14.342512   13.319342   16.037508
  H     15.201092   14.369763   14.892585
  H     15.981981   14.025672   17.843475
  H     16.715784   13.078324   16.543980
  H     15.560242   19.189718   16.668339
  H     16.908851   19.350657   15.536465
  H     16.679333   20.553202   16.813722
  H     18.038403   20.386823   18.468399
  H     20.028438   17.209333   19.913292
  H     19.252855   15.954943   17.903789
  H     19.086195   13.978404   19.158143
  H     17.825259   12.498688   20.706950
  H     15.785910   13.362366   21.858355
  H     14.488652   15.101155   22.179113
  H     16.286622   17.174028   19.937781

 Total Charge           Charge          ....    0
 Multiplicity           Mult            ....    1
 Number of Electrons    NEL             ....  154
 Basis Dimension        Dim             ....  828

ORBITAL ENERGIES
----------------

  NO   OCC          E(Eh)            E(eV)
   0   2.0000     -91.889203     -2500.4323
   1   2.0000     -20.600575      -560.5702
   2   2.0000     -20.588285      -560.2357
   3   2.0000     -20.543439      -559.0154
   4   2.0000     -15.629394      -425.2974
   5   2.0000     -15.608633      -424.7325
   6   2.0000     -11.395275      -310.0812
   7   2.0000     -11.384228      -309.7806
   8   2.0000     -11.336145      -308.4722
   9   2.0000     -11.318347      -307.9879
  10   2.0000     -11.309614      -307.7502
  11   2.0000     -11.298609      -307.4508
  12   2.0000     -11.263140      -306.4856
  13   2.0000     -11.259489      -306.3863
  14   2.0000     -11.258022      -306.3464
  15   2.0000     -11.252366      -306.1924
  16   2.0000     -11.247063      -306.0482
  17   2.0000     -11.242016      -305.9108
  18   2.0000     -11.241535      -305.8977
  19   2.0000     -11.219234      -305.2909
  20   2.0000      -8.894268      -242.0253
  21   2.0000      -6.575843      -178.9378
  22   2.0000      -6.573838      -178.8832
  23   2.0000      -6.573252      -178.8673
  24   2.0000      -1.441944       -39.2373
  25   2.0000      -1.420234       -38.6465
  26   2.0000      -1.352586       -36.8057
  27   2.0000      -1.340552       -36.4783
  28   2.0000      -1.239229       -33.7211
  29   2.0000      -1.160993       -31.5922
  30   2.0000      -1.120451       -30.4890
  31   2.0000      -1.044829       -28.4313
  32   2.0000      -1.032218       -28.0881
  33   2.0000      -1.019118       -27.7316
  34   2.0000      -0.996211       -27.1083
  35   2.0000      -0.984343       -26.7853
  36   2.0000      -0.923927       -25.1413
  37   2.0000      -0.891844       -24.2683
  38   2.0000      -0.848360       -23.0850
  39   2.0000      -0.840933       -22.8829
  40   2.0000      -0.837368       -22.7859
  41   2.0000      -0.821469       -22.3533
  42   2.0000      -0.746798       -20.3214
  43   2.0000      -0.733472       -19.9588
  44   2.0000      -0.717492       -19.5239
  45   2.0000      -0.699001       -19.0208
  46   2.0000      -0.688998       -18.7486
  47   2.0000      -0.676746       -18.4152
  48   2.0000      -0.667706       -18.1692
  49   2.0000      -0.662408       -18.0250
  50   2.0000      -0.651041       -17.7157
  51   2.0000      -0.646131       -17.5821
  52   2.0000      -0.637123       -17.3370
  53   2.0000      -0.610879       -16.6229
  54   2.0000      -0.606011       -16.4904
  55   2.0000      -0.601262       -16.3612
  56   2.0000      -0.600290       -16.3347
  57   2.0000      -0.580383       -15.7930
  58   2.0000      -0.572021       -15.5655
  59   2.0000      -0.569894       -15.5076
  60   2.0000      -0.560918       -15.2634
  61   2.0000      -0.539256       -14.6739
  62   2.0000      -0.534255       -14.5378
  63   2.0000      -0.527634       -14.3576
  64   2.0000      -0.522837       -14.2271
  65   2.0000      -0.514104       -13.9895
  66   2.0000      -0.502858       -13.6835
  67   2.0000      -0.495055       -13.4711
  68   2.0000      -0.485363       -13.2074
  69   2.0000      -0.463211       -12.6046
  70   2.0000      -0.451644       -12.2899
  71   2.0000      -0.440472       -11.9858
  72   2.0000      -0.354877        -9.6567
  73   2.0000      -0.352929        -9.6037
  74   2.0000      -0.329354        -8.9622
  75   2.0000      -0.325341        -8.8530
  76   2.0000      -0.316855        -8.6221
  77   0.0000       0.073482         1.9995
  78   0.0000       0.102518         2.7897
  79   0.0000       0.123563         3.3623
  80   0.0000       0.130494         3.5509
  81   0.0000       0.134820         3.6686

MULLIKEN ATOMIC CHARGES
-----------------------
   0 C :   -0.278907
   1 C :    0.036570
   2 O :   -0.385316
   3 C :    0.476641
   4 O :   -0.415894
   5 C :   -0.254630
   6 C :    0.164167
   7 C :   -0.268723
   8 N :   -0.124016
   9 C :    0.215138
  10 S :   -0.441014
  11 N :   -0.208722
  12 C :    0.077516
  13 C :    0.028827
  14 C :   -0.180378
  15 C :   -0.130778
  16 C :   -0.279114
  17 C :    0.310432
  18 O :   -0.355870
  19 C :   -0.251337
  20 H :    0.102102
  21 H :    0.094563
  22 H :    0.110406
  23 H :    0.099696
  24 H :    0.102393
  25 H :    0.129960
  26 H :    0.132675
  27 H :    0.095163
  28 H :    0.197423
  29 H :    0.195240
  30 H :    0.149220
  31 H :    0.152308
  32 H :    0.162238
  33 H :    0.132590
  34 H :    0.241563
  35 H :    0.167867
Sum of atomic charges:   -0.0000000

LOEWDIN ATOMIC CHARGES
----------------------
   0 C :    0.103259
   1 C :   -0.014455
   2 O :    0.287434
   3 C :   -0.413168
   4 O :    0.115081
   5 C :   -0.097313
   6 C :   -0.058577
   7 C :    0.131129
   8 N :    0.406824
   9 C :   -0.455771
  10 S :   -0.035837
  11 N :    0.396184
  12 C :   -0.052558
  13 C :   -0.037486
  14 C :    0.013940
  15 C :    0.040278
  16 C :   -0.002788
  17 C :   -0.190262
  18 O :    0.396353
  19 C :    0.029590
  20 H :   -0.028171
  21 H :   -0.028717
  22 H :   -0.023608
  23 H :   -0.030281
  24 H :   -0.024618
  25 H :   -0.005315
  26 H :   -0.003536
  27 H :   -0.023458
  28 H :   -0.057539
  29 H :   -0.065002
  30 H :   -0.010025
  31 H :   -0.029479
  32 H :   -0.020319
  33 H :   -0.034877
  34 H :   -0.153000
  35 H :   -0.023913

  Mayer bond orders larger than 0.100000
B(  0-C ,  1-C ) :   0.9830 B(  0-C , 20-H ) :   0.9736 B(  0-C , 21-H ) :   0.9741
B(  0-C , 22-H ) :   0.9749 B(  1-C ,  2-O ) :   0.8921 B(  1-C , 23-H ) :   0.9680
B(  1-C , 24-H ) :   0.9808 B(  2-O ,  3-C ) :   1.1020 B(  3-C ,  4-O ) :   2.0030
B(  3-C ,  5-C ) :   1.0704 B(  5-C ,  6-C ) :   1.6487 B(  5-C , 12-C ) :   0.9724
B(  6-C ,  7-C ) :   0.9659 B(  6-C ,  8-N ) :   1.1602 B(  7-C , 25-H ) :   0.9605
B(  7-C , 26-H ) :   0.9595 B(  7-C , 27-H ) :   0.9908 B(  8-N ,  9-C ) :   1.1841
B(  8-N , 28-H ) :   0.9476 B(  9-C , 10-S ) :   1.6041 B(  9-C , 11-N ) :   1.3081
B( 11-N , 12-C ) :   0.9748 B( 11-N , 29-H ) :   0.9517 B( 12-C , 13-C ) :   0.9378
B( 12-C , 30-H ) :   1.0013 B( 13-C , 14-C ) :   1.3535 B( 13-C , 19-C ) :   1.3809
B( 14-C , 15-C ) :   1.3934 B( 14-C , 31-H ) :   0.9728 B( 15-C , 16-C ) :   1.3613
B( 15-C , 32-H ) :   0.9706 B( 16-C , 17-C ) :   1.3300 B( 16-C , 33-H ) :   0.9845
B( 17-C , 18-O ) :   1.1131 B( 17-C , 19-C ) :   1.3704 B( 18-O , 34-H ) :   0.9791
B( 19-C , 35-H ) :   0.9578

MP2 TOTAL ENERGY:    -1274.335909272 Eh
FINAL SINGLE POINT ENERGY     -1274.335909272473

DIPOLE MOMENT
-------------
                                X             Y             Z
Electronic contribution:     10.25674       9.71482       7.52732
Nuclear contribution   :    -11.24874     -11.40800      -7.55474
                        -----------------------------------------
Total Dipole Moment    :     -0.99200      -1.69318      -0.02742
                        -----------------------------------------
Magnitude (a.u.)       :      1.96257
Magnitude (Debye)      :      4.98845

Rotational constants in cm-1:     0.012244     0.008746     0.006296
Rotational constants in MHz :   367.072418   262.189501   188.752322

                             ****ORCA TERMINATED NORMALLY****
TOTAL RUN TIME: 0 days 1 hours 42 minutes 24 seconds 249 msec
