                         Program Version 5.0.0 -  RELEASE  -
|  1> ! ri-mp2 cc-pvtz cc-pvtz/c TightSCF NoKeepInts
|  2>
|  3> %scf
|  4>   MaxCore 4096
|  5> end
|  6> *xyz  0  1
|  7>     C       16.1721885   13.5551036   15.1530273
|  8>     C       15.4031914   14.4541374   16.1356615
|  9>     O       16.3690453   15.3057586   16.7789517
| 10>     C       16.1834619   16.6601444   16.8363151
| 11>     O       15.2588905   17.2224235   16.2743682
| 12>     C       17.2455635   17.3542213   17.6441041
| 13>     C       17.3091658   18.7053705   17.7574892
| 14>     C       16.3760525   19.7228806   17.1366233
| 15>     N       18.3437774   19.2999368   18.4861843
| 16>     C       19.4029358   18.6275829   19.0350049
| 17>     S       20.6396137   19.4171248   19.7986555
| 18>     N       19.3878050   17.2612552   18.9170067
| 19>     C       18.2720121   16.4682412   18.3690631
| 20>     C       17.6265830   15.6466901   19.4814769
| 21>     C       17.6940366   14.2408251   19.4618215
| 22>     C       17.0997218   13.4820124   20.4841713
| 23>     C       16.4346402   14.1338206   21.5366861
| 24>     C       16.3685452   15.5336946   21.5612835
| 25>     O       15.7276055   16.1659306   22.5764447
| 26>     C       16.9606854   16.2861342   20.5422948
| 27>     H       15.4858932   12.8677799   14.6435592
| 28>     H       16.9263658   12.9592722   15.6818056
| 29>     H       16.6786171   14.1610244   14.3912829
| 30>     H       14.6483653   15.0261314   15.5795513
| 31>     H       14.8862243   13.8423820   16.8863072
| 32>     H       15.3483011   19.5677270   17.4892415
| 33>     H       16.3657026   19.6211744   16.0439732
| 34>     H       16.6527828   20.7576798   17.3698309
| 35>     H       18.3720114   20.3024858   18.5817254
| 36>     H       20.1628149   16.7903201   19.3657886
| 37>     H       18.6984600   15.7767232   17.6288531
| 38>     H       18.2022443   13.7343399   18.6456959
| 39>     H       17.1550170   12.3951766   20.4585555
| 40>     H       15.9741541   13.5522870   22.3285098
| 41>     H       15.4101473   15.4856586   23.1889640
| 42>     H       16.9043774   17.3685495   20.5837223
| 43> *
| 44>
| 45>                          ****END OF INPUT****

CARTESIAN COORDINATES (ANGSTROEM)
---------------------------------
  C     16.172189   13.555104   15.153027
  C     15.403191   14.454137   16.135662
  O     16.369045   15.305759   16.778952
  C     16.183462   16.660144   16.836315
  O     15.258890   17.222424   16.274368
  C     17.245563   17.354221   17.644104
  C     17.309166   18.705371   17.757489
  C     16.376053   19.722881   17.136623
  N     18.343777   19.299937   18.486184
  C     19.402936   18.627583   19.035005
  S     20.639614   19.417125   19.798655
  N     19.387805   17.261255   18.917007
  C     18.272012   16.468241   18.369063
  C     17.626583   15.646690   19.481477
  C     17.694037   14.240825   19.461821
  C     17.099722   13.482012   20.484171
  C     16.434640   14.133821   21.536686
  C     16.368545   15.533695   21.561283
  O     15.727605   16.165931   22.576445
  C     16.960685   16.286134   20.542295
  H     15.485893   12.867780   14.643559
  H     16.926366   12.959272   15.681806
  H     16.678617   14.161024   14.391283
  H     14.648365   15.026131   15.579551
  H     14.886224   13.842382   16.886307
  H     15.348301   19.567727   17.489241
  H     16.365703   19.621174   16.043973
  H     16.652783   20.757680   17.369831
  H     18.372011   20.302486   18.581725
  H     20.162815   16.790320   19.365789
  H     18.698460   15.776723   17.628853
  H     18.202244   13.734340   18.645696
  H     17.155017   12.395177   20.458555
  H     15.974154   13.552287   22.328510
  H     15.410147   15.485659   23.188964
  H     16.904377   17.368549   20.583722

 Total Charge           Charge          ....    0
 Multiplicity           Mult            ....    1
 Number of Electrons    NEL             ....  154
 Basis Dimension        Dim             ....  828

ORBITAL ENERGIES
----------------

  NO   OCC          E(Eh)            E(eV)
   0   2.0000     -91.888567     -2500.4150
   1   2.0000     -20.602849      -560.6320
   2   2.0000     -20.595248      -560.4252
   3   2.0000     -20.541138      -558.9528
   4   2.0000     -15.628729      -425.2793
   5   2.0000     -15.607848      -424.7111
   6   2.0000     -11.395600      -310.0900
   7   2.0000     -11.383628      -309.7643
   8   2.0000     -11.335687      -308.4597
   9   2.0000     -11.312301      -307.8234
  10   2.0000     -11.308332      -307.7153
  11   2.0000     -11.295762      -307.3733
  12   2.0000     -11.258724      -306.3655
  13   2.0000     -11.258358      -306.3555
  14   2.0000     -11.253806      -306.2316
  15   2.0000     -11.251624      -306.1723
  16   2.0000     -11.241768      -305.9041
  17   2.0000     -11.237292      -305.7823
  18   2.0000     -11.237097      -305.7770
  19   2.0000     -11.230951      -305.6097
  20   2.0000      -8.893629      -242.0080
  21   2.0000      -6.575204      -178.9204
  22   2.0000      -6.573200      -178.8659
  23   2.0000      -6.572613      -178.8499
  24   2.0000      -1.451087       -39.4861
  25   2.0000      -1.414905       -38.5015
  26   2.0000      -1.355109       -36.8744
  27   2.0000      -1.339684       -36.4546
  28   2.0000      -1.238065       -33.6895
  29   2.0000      -1.156465       -31.4690
  30   2.0000      -1.119889       -30.4737
  31   2.0000      -1.043253       -28.3884
  32   2.0000      -1.039644       -28.2902
  33   2.0000      -1.013776       -27.5862
  34   2.0000      -0.995451       -27.0876
  35   2.0000      -0.983961       -26.7750
  36   2.0000      -0.921857       -25.0850
  37   2.0000      -0.890962       -24.2443
  38   2.0000      -0.846367       -23.0308
  39   2.0000      -0.836556       -22.7638
  40   2.0000      -0.832793       -22.6614
  41   2.0000      -0.817052       -22.2331
  42   2.0000      -0.764586       -20.8054
  43   2.0000      -0.731504       -19.9052
  44   2.0000      -0.721688       -19.6381
  45   2.0000      -0.694385       -18.8952
  46   2.0000      -0.686265       -18.6742
  47   2.0000      -0.680094       -18.5063
  48   2.0000      -0.675124       -18.3711
  49   2.0000      -0.659587       -17.9483
  50   2.0000      -0.645534       -17.5659
  51   2.0000      -0.644103       -17.5269
  52   2.0000      -0.634113       -17.2551
  53   2.0000      -0.605474       -16.4758
  54   2.0000      -0.602646       -16.3988
  55   2.0000      -0.598117       -16.2756
  56   2.0000      -0.597384       -16.2556
  57   2.0000      -0.577339       -15.7102
  58   2.0000      -0.570299       -15.5186
  59   2.0000      -0.568124       -15.4594
  60   2.0000      -0.562663       -15.3108
  61   2.0000      -0.546590       -14.8735
  62   2.0000      -0.539943       -14.6926
  63   2.0000      -0.528590       -14.3837
  64   2.0000      -0.523992       -14.2585
  65   2.0000      -0.512900       -13.9567
  66   2.0000      -0.501166       -13.6374
  67   2.0000      -0.497069       -13.5259
  68   2.0000      -0.485075       -13.1996
  69   2.0000      -0.464031       -12.6269
  70   2.0000      -0.456463       -12.4210
  71   2.0000      -0.448366       -12.2007
  72   2.0000      -0.354060        -9.6345
  73   2.0000      -0.348263        -9.4767
  74   2.0000      -0.327851        -8.9213
  75   2.0000      -0.320055        -8.7091
  76   2.0000      -0.315539        -8.5862
  77   0.0000       0.076871         2.0918
  78   0.0000       0.107920         2.9366
  79   0.0000       0.123259         3.3541
  80   0.0000       0.132447         3.6041
  81   0.0000       0.135868         3.6972

MULLIKEN ATOMIC CHARGES
-----------------------
   0 C :   -0.264102
   1 C :    0.010406
   2 O :   -0.346578
   3 C :    0.476960
   4 O :   -0.436136
   5 C :   -0.224331
   6 C :    0.148190
   7 C :   -0.274637
   8 N :   -0.120137
   9 C :    0.209960
  10 S :   -0.439965
  11 N :   -0.202642
  12 C :    0.044360
  13 C :    0.068015
  14 C :   -0.179555
  15 C :   -0.134152
  16 C :   -0.277838
  17 C :    0.315645
  18 O :   -0.356813
  19 C :   -0.268319
  20 H :    0.092123
  21 H :    0.090620
  22 H :    0.096630
  23 H :    0.128464
  24 H :    0.100650
  25 H :    0.132334
  26 H :    0.130654
  27 H :    0.094725
  28 H :    0.197331
  29 H :    0.194289
  30 H :    0.151159
  31 H :    0.149244
  32 H :    0.159208
  33 H :    0.129186
  34 H :    0.240476
  35 H :    0.164577
Sum of atomic charges:    0.0000000

LOEWDIN ATOMIC CHARGES
----------------------
   0 C :    0.104327
   1 C :   -0.011405
   2 O :    0.311135
   3 C :   -0.413079
   4 O :    0.094573
   5 C :   -0.094304
   6 C :   -0.058859
   7 C :    0.131399
   8 N :    0.406497
   9 C :   -0.456857
  10 S :   -0.035612
  11 N :    0.396619
  12 C :   -0.052945
  13 C :   -0.038933
  14 C :    0.014071
  15 C :    0.038895
  16 C :   -0.001420
  17 C :   -0.189521
  18 O :    0.395019
  19 C :    0.031687
  20 H :   -0.025229
  21 H :   -0.030510
  22 H :   -0.026235
  23 H :   -0.027853
  24 H :   -0.029488
  25 H :   -0.004415
  26 H :   -0.004123
  27 H :   -0.023518
  28 H :   -0.057614
  29 H :   -0.064540
  30 H :   -0.011577
  31 H :   -0.030918
  32 H :   -0.021680
  33 H :   -0.035730
  34 H :   -0.154102
  35 H :   -0.023755

  Mayer bond orders larger than 0.100000
B(  0-C ,  1-C ) :   0.9721 B(  0-C , 20-H ) :   0.9760 B(  0-C , 21-H ) :   0.9795
B(  0-C , 22-H ) :   0.9781 B(  1-C ,  2-O ) :   0.8862 B(  1-C , 23-H ) :   0.9750
B(  1-C , 24-H ) :   0.9792 B(  2-O ,  3-C ) :   1.1799 B(  3-C ,  4-O ) :   1.9709
B(  3-C ,  5-C ) :   1.0521 B(  5-C ,  6-C ) :   1.6578 B(  5-C , 12-C ) :   0.9714
B(  6-C ,  7-C ) :   0.9675 B(  6-C ,  8-N ) :   1.1649 B(  7-C , 25-H ) :   0.9608
B(  7-C , 26-H ) :   0.9601 B(  7-C , 27-H ) :   0.9903 B(  8-N ,  9-C ) :   1.1826
B(  8-N , 28-H ) :   0.9480 B(  9-C , 10-S ) :   1.6079 B(  9-C , 11-N ) :   1.3045
B( 11-N , 12-C ) :   0.9901 B( 11-N , 29-H ) :   0.9518 B( 12-C , 13-C ) :   0.9358
B( 12-C , 30-H ) :   1.0039 B( 13-C , 14-C ) :   1.3557 B( 13-C , 19-C ) :   1.3825
B( 14-C , 15-C ) :   1.3933 B( 14-C , 31-H ) :   0.9711 B( 15-C , 16-C ) :   1.3637
B( 15-C , 32-H ) :   0.9710 B( 16-C , 17-C ) :   1.3318 B( 16-C , 33-H ) :   0.9854
B( 17-C , 18-O ) :   1.1097 B( 17-C , 19-C ) :   1.3737 B( 18-O , 34-H ) :   0.9801
B( 19-C , 35-H ) :   0.9582

MP2 TOTAL ENERGY:    -1274.350263418 Eh
FINAL SINGLE POINT ENERGY     -1274.350263418140

DIPOLE MOMENT
-------------
                                X             Y             Z
Electronic contribution:      8.61928      10.08673       9.79826
Nuclear contribution   :     -9.82812     -11.68143     -10.21308
                        -----------------------------------------
Total Dipole Moment    :     -1.20884      -1.59470      -0.41482
                        -----------------------------------------
Magnitude (a.u.)       :      2.04364
Magnitude (Debye)      :      5.19451

Rotational constants in cm-1:     0.010894     0.008671     0.006099
Rotational constants in MHz :   326.583418   259.937628   182.836929

                             ****ORCA TERMINATED NORMALLY****
TOTAL RUN TIME: 0 days 2 hours 4 minutes 49 seconds 49 msec
