                         Program Version 4.2.0 -  RELEASE  -
|  1> ! ri-mp2 cc-pvtz cc-pvtz/c TightSCF  NoKeepInts
|  2>
|  3> %scf
|  4>   MaxCore 4096
|  5> end
|  6> *xyz  0  1
|  7>     C       15.7933584   13.6107228   17.4166102
|  8>     C       16.2570986   14.2182056   16.0843116
|  9>     O       17.4404596   15.0200723   16.2927235
| 10>     C       17.3635605   16.3627945   16.0474621
| 11>     O       16.7717705   16.7753331   15.0648147
| 12>     C       17.6687297   17.2154629   17.2495946
| 13>     C       17.3692062   18.5401658   17.2989238
| 14>     C       16.6067990   19.3543943   16.2753120
| 15>     N       17.8404526   19.3221041   18.3589707
| 16>     C       18.8042384   18.9200613   19.2460857
| 17>     S       19.4830351   19.9614296   20.3373400
| 18>     N       19.1930534   17.6067607   19.1643842
| 19>     C       18.4723888   16.5762784   18.3951438
| 20>     C       17.6226781   15.7608961   19.3635668
| 21>     C       18.0692240   14.4992547   19.7999830
| 22>     C       17.3209797   13.7569751   20.7294240
| 23>     C       16.1200271   14.2837226   21.2342128
| 24>     C       15.6800432   15.5464306   20.8145446
| 25>     O       14.5241609   16.0607824   21.3044398
| 26>     C       16.4263504   16.2828772   19.8893292
| 27>     H       16.6060131   13.0498492   17.8926686
| 28>     H       14.9570102   12.9213222   17.2502755
| 29>     H       15.4501374   14.3934008   18.1011139
| 30>     H       16.4950961   13.4070884   15.3841879
| 31>     H       15.4372524   14.8044433   15.6467322
| 32>     H       15.6270991   18.9026289   16.0742778
| 33>     H       17.1535732   19.3870987   15.3242198
| 34>     H       16.4319591   20.3886224   16.5940553
| 35>     H       17.5765639   20.2926965   18.4173632
| 36>     H       19.8881905   17.3304005   19.8455334
| 37>     H       19.2209102   15.9076569   17.9468909
| 38>     H       19.0004407   14.0913773   19.4159944
| 39>     H       17.6736423   12.7806831   21.0576138
| 40>     H       15.5392579   13.7147214   21.9527628
| 41>     H       14.1876292   15.4404722   21.9686138
| 42>     H       16.0746105   17.2648141   19.5945197
| 43> *
| 44>
| 45>                          ****END OF INPUT****

CARTESIAN COORDINATES (ANGSTROEM)
---------------------------------
  C     15.793358   13.610723   17.416610
  C     16.257099   14.218206   16.084312
  O     17.440460   15.020072   16.292724
  C     17.363560   16.362794   16.047462
  O     16.771770   16.775333   15.064815
  C     17.668730   17.215463   17.249595
  C     17.369206   18.540166   17.298924
  C     16.606799   19.354394   16.275312
  N     17.840453   19.322104   18.358971
  C     18.804238   18.920061   19.246086
  S     19.483035   19.961430   20.337340
  N     19.193053   17.606761   19.164384
  C     18.472389   16.576278   18.395144
  C     17.622678   15.760896   19.363567
  C     18.069224   14.499255   19.799983
  C     17.320980   13.756975   20.729424
  C     16.120027   14.283723   21.234213
  C     15.680043   15.546431   20.814545
  O     14.524161   16.060782   21.304440
  C     16.426350   16.282877   19.889329
  H     16.606013   13.049849   17.892669
  H     14.957010   12.921322   17.250276
  H     15.450137   14.393401   18.101114
  H     16.495096   13.407088   15.384188
  H     15.437252   14.804443   15.646732
  H     15.627099   18.902629   16.074278
  H     17.153573   19.387099   15.324220
  H     16.431959   20.388622   16.594055
  H     17.576564   20.292697   18.417363
  H     19.888191   17.330400   19.845533
  H     19.220910   15.907657   17.946891
  H     19.000441   14.091377   19.415994
  H     17.673642   12.780683   21.057614
  H     15.539258   13.714721   21.952763
  H     14.187629   15.440472   21.968614
  H     16.074610   17.264814   19.594520

 Total Charge           Charge          ....    0
 Multiplicity           Mult            ....    1
 Number of Electrons    NEL             ....  154
 Basis Dimension        Dim             ....  828

ORBITAL ENERGIES
----------------

  NO   OCC          E(Eh)            E(eV)
   0   2.0000     -91.890053     -2500.4555
   1   2.0000     -20.599690      -560.5461
   2   2.0000     -20.590179      -560.2873
   3   2.0000     -20.544889      -559.0549
   4   2.0000     -15.630833      -425.3366
   5   2.0000     -15.608386      -424.7258
   6   2.0000     -11.394010      -310.0468
   7   2.0000     -11.384427      -309.7860
   8   2.0000     -11.337318      -308.5041
   9   2.0000     -11.316815      -307.9462
  10   2.0000     -11.310594      -307.7769
  11   2.0000     -11.294192      -307.3306
  12   2.0000     -11.261975      -306.4539
  13   2.0000     -11.260180      -306.4051
  14   2.0000     -11.258020      -306.3463
  15   2.0000     -11.252967      -306.2088
  16   2.0000     -11.245756      -306.0126
  17   2.0000     -11.240176      -305.8607
  18   2.0000     -11.240115      -305.8591
  19   2.0000     -11.219800      -305.3063
  20   2.0000      -8.895067      -242.0471
  21   2.0000      -6.576630      -178.9592
  22   2.0000      -6.574640      -178.9051
  23   2.0000      -6.574044      -178.8888
  24   2.0000      -1.448570       -39.4176
  25   2.0000      -1.419349       -38.6224
  26   2.0000      -1.351470       -36.7754
  27   2.0000      -1.341759       -36.5111
  28   2.0000      -1.239798       -33.7366
  29   2.0000      -1.159576       -31.5537
  30   2.0000      -1.120687       -30.4954
  31   2.0000      -1.043982       -28.4082
  32   2.0000      -1.033806       -28.1313
  33   2.0000      -1.018061       -27.7029
  34   2.0000      -0.997466       -27.1424
  35   2.0000      -0.984988       -26.8029
  36   2.0000      -0.924146       -25.1473
  37   2.0000      -0.886567       -24.1247
  38   2.0000      -0.847888       -23.0722
  39   2.0000      -0.841020       -22.8853
  40   2.0000      -0.835762       -22.7422
  41   2.0000      -0.817331       -22.2407
  42   2.0000      -0.760533       -20.6952
  43   2.0000      -0.734211       -19.9789
  44   2.0000      -0.720593       -19.6083
  45   2.0000      -0.698716       -19.0130
  46   2.0000      -0.689875       -18.7725
  47   2.0000      -0.678687       -18.4680
  48   2.0000      -0.671315       -18.2674
  49   2.0000      -0.665734       -18.1155
  50   2.0000      -0.648550       -17.6479
  51   2.0000      -0.645777       -17.5725
  52   2.0000      -0.638108       -17.3638
  53   2.0000      -0.610573       -16.6145
  54   2.0000      -0.603248       -16.4152
  55   2.0000      -0.600010       -16.3271
  56   2.0000      -0.585701       -15.9377
  57   2.0000      -0.578512       -15.7421
  58   2.0000      -0.572511       -15.5788
  59   2.0000      -0.568064       -15.4578
  60   2.0000      -0.564802       -15.3690
  61   2.0000      -0.549696       -14.9580
  62   2.0000      -0.537538       -14.6271
  63   2.0000      -0.527858       -14.3638
  64   2.0000      -0.519851       -14.1459
  65   2.0000      -0.513657       -13.9773
  66   2.0000      -0.503712       -13.7067
  67   2.0000      -0.496402       -13.5078
  68   2.0000      -0.482852       -13.1391
  69   2.0000      -0.462437       -12.5835
  70   2.0000      -0.450988       -12.2720
  71   2.0000      -0.445959       -12.1352
  72   2.0000      -0.358003        -9.7418
  73   2.0000      -0.352004        -9.5785
  74   2.0000      -0.329568        -8.9680
  75   2.0000      -0.324161        -8.8209
  76   2.0000      -0.316626        -8.6158
  77   0.0000       0.070593         1.9209
  78   0.0000       0.103916         2.8277
  79   0.0000       0.121898         3.3170
  80   0.0000       0.129898         3.5347
  81   0.0000       0.133742         3.6393

MULLIKEN ATOMIC CHARGES
-----------------------
   0 C :   -0.298556
   1 C :    0.045018
   2 O :   -0.376573
   3 C :    0.479616
   4 O :   -0.417834
   5 C :   -0.238114
   6 C :    0.143765
   7 C :   -0.269633
   8 N :   -0.123509
   9 C :    0.213968
  10 S :   -0.437366
  11 N :   -0.200593
  12 C :    0.034776
  13 C :    0.089517
  14 C :   -0.209038
  15 C :   -0.122075
  16 C :   -0.271321
  17 C :    0.304712
  18 O :   -0.359476
  19 C :   -0.257591
  20 H :    0.099641
  21 H :    0.110756
  22 H :    0.104450
  23 H :    0.102627
  24 H :    0.099922
  25 H :    0.128192
  26 H :    0.135432
  27 H :    0.094329
  28 H :    0.198830
  29 H :    0.191731
  30 H :    0.149658
  31 H :    0.149377
  32 H :    0.163679
  33 H :    0.132446
  34 H :    0.241612
  35 H :    0.167626
Sum of atomic charges:   -0.0000000

LOEWDIN ATOMIC CHARGES
----------------------
   0 C :    0.104186
   1 C :   -0.011726
   2 O :    0.286779
   3 C :   -0.417098
   4 O :    0.109576
   5 C :   -0.096907
   6 C :   -0.057767
   7 C :    0.130333
   8 N :    0.407515
   9 C :   -0.455456
  10 S :   -0.032898
  11 N :    0.396250
  12 C :   -0.053665
  13 C :   -0.035092
  14 C :    0.015069
  15 C :    0.045065
  16 C :   -0.000694
  17 C :   -0.190259
  18 O :    0.396146
  19 C :    0.029605
  20 H :   -0.029193
  21 H :   -0.026380
  22 H :   -0.027943
  23 H :   -0.028427
  24 H :   -0.028270
  25 H :   -0.005890
  26 H :   -0.003052
  27 H :   -0.023330
  28 H :   -0.057659
  29 H :   -0.066202
  30 H :   -0.006554
  31 H :   -0.030914
  32 H :   -0.020569
  33 H :   -0.034916
  34 H :   -0.153007
  35 H :   -0.026658

  Mayer bond orders larger than 0.100000
B(  0-C ,  1-C ) :   0.9725 B(  0-C , 20-H ) :   0.9728 B(  0-C , 21-H ) :   0.9781
B(  0-C , 22-H ) :   0.9728 B(  1-C ,  2-O ) :   0.8857 B(  1-C , 23-H ) :   0.9887
B(  1-C , 24-H ) :   0.9724 B(  2-O ,  3-C ) :   1.1196 B(  3-C ,  4-O ) :   1.9926
B(  3-C ,  5-C ) :   1.0680 B(  5-C ,  6-C ) :   1.6492 B(  5-C , 12-C ) :   0.9759
B(  6-C ,  7-C ) :   0.9724 B(  6-C ,  8-N ) :   1.1522 B(  7-C , 25-H ) :   0.9637
B(  7-C , 26-H ) :   0.9567 B(  7-C , 27-H ) :   0.9890 B(  8-N ,  9-C ) :   1.1783
B(  8-N , 28-H ) :   0.9483 B(  9-C , 10-S ) :   1.6114 B(  9-C , 11-N ) :   1.3035
B( 11-N , 12-C ) :   0.9629 B( 11-N , 29-H ) :   0.9545 B( 12-C , 13-C ) :   0.9478
B( 12-C , 30-H ) :   1.0027 B( 13-C , 14-C ) :   1.3449 B( 13-C , 19-C ) :   1.3707
B( 14-C , 15-C ) :   1.3810 B( 14-C , 31-H ) :   0.9760 B( 15-C , 16-C ) :   1.3668
B( 15-C , 32-H ) :   0.9698 B( 16-C , 17-C ) :   1.3293 B( 16-C , 33-H ) :   0.9842
B( 17-C , 18-O ) :   1.1125 B( 17-C , 19-C ) :   1.3752 B( 18-O , 34-H ) :   0.9793
B( 19-C , 35-H ) :   0.9570

MP2 TOTAL ENERGY:    -1274.335849383 Eh
FINAL SINGLE POINT ENERGY     -1274.335849383315

DIPOLE MOMENT
-------------
                                X             Y             Z
Electronic contribution:      8.58120      10.72599       4.86088
Nuclear contribution   :     -9.62735     -12.33242      -4.81697
                        -----------------------------------------
Total Dipole Moment    :     -1.04615      -1.60643       0.04390
                        -----------------------------------------
Magnitude (a.u.)       :      1.91754
Magnitude (Debye)      :      4.87401

Rotational constants in cm-1:     0.011875     0.009385     0.006513
Rotational constants in MHz :   356.004118   281.362160   195.251786

                             ****ORCA TERMINATED NORMALLY****
TOTAL RUN TIME: 0 days 1 hours 50 minutes 35 seconds 152 msec
