                         Program Version 5.0.0 -  RELEASE  -
|  1> ! ri-mp2 cc-pvtz cc-pvtz/c TightSCF NoKeepInts
|  2>
|  3> %scf
|  4>   MaxCore 4096
|  5> end
|  6> *xyz  0  1
|  7>     C       15.1503263   15.3409331   17.2526742
|  8>     C       15.6990776   14.9853195   15.8565565
|  9>     O       16.9087636   15.6936928   15.4995490
| 10>     C       17.9775688   15.7889585   16.3468004
| 11>     O       18.6828733   14.8122685   16.5266185
| 12>     C       17.8949381   16.8882845   17.3688458
| 13>     C       17.2906864   18.0817467   17.1353787
| 14>     C       16.6026168   18.5358065   15.8634577
| 15>     N       17.3689241   19.0988254   18.0918755
| 16>     C       18.2029212   19.0816147   19.1788759
| 17>     S       18.3659170   20.3927220   20.1733615
| 18>     N       18.8968282   17.9179560   19.3973230
| 19>     C       18.6551022   16.6501104   18.6813940
| 20>     C       17.9347868   15.6511575   19.5846524
| 21>     C       18.3648110   14.3125100   19.6434460
| 22>     C       17.7049053   13.3813059   20.4624425
| 23>     C       16.6037226   13.7903681   21.2331253
| 24>     C       16.1705911   15.1217809   21.1787082
| 25>     O       15.1012658   15.5179232   21.9137974
| 26>     C       16.8290727   16.0465665   20.3621424
| 27>     H       15.8098335   14.9531941   18.0353753
| 28>     H       14.1689912   14.8735548   17.3987843
| 29>     H       15.0264911   16.4208986   17.3844672
| 30>     H       15.8975154   13.9054183   15.8265739
| 31>     H       14.9302056   15.1973179   15.1025817
| 32>     H       15.6089180   18.0836522   15.7667725
| 33>     H       17.1876228   18.2518470   14.9795445
| 34>     H       16.4766642   19.6246792   15.8215428
| 35>     H       16.8739320   19.9637297   17.9428180
| 36>     H       19.4886830   17.9218943   20.2182683
| 37>     H       19.6368349   16.2249278   18.4263016
| 38>     H       19.2077255   13.9885842   19.0369118
| 39>     H       18.0459412   12.3479168   20.4926787
| 40>     H       16.0899172   13.0737289   21.8652120
| 41>     H       14.8199590   14.7604510   22.4486949
| 42>     H       16.4720666   17.0703547   20.3364478
| 43> *
| 44>
| 45>                          ****END OF INPUT****

CARTESIAN COORDINATES (ANGSTROEM)
---------------------------------
  C     15.150326   15.340933   17.252674
  C     15.699078   14.985319   15.856556
  O     16.908764   15.693693   15.499549
  C     17.977569   15.788958   16.346800
  O     18.682873   14.812268   16.526619
  C     17.894938   16.888285   17.368846
  C     17.290686   18.081747   17.135379
  C     16.602617   18.535806   15.863458
  N     17.368924   19.098825   18.091876
  C     18.202921   19.081615   19.178876
  S     18.365917   20.392722   20.173361
  N     18.896828   17.917956   19.397323
  C     18.655102   16.650110   18.681394
  C     17.934787   15.651158   19.584652
  C     18.364811   14.312510   19.643446
  C     17.704905   13.381306   20.462442
  C     16.603723   13.790368   21.233125
  C     16.170591   15.121781   21.178708
  O     15.101266   15.517923   21.913797
  C     16.829073   16.046567   20.362142
  H     15.809833   14.953194   18.035375
  H     14.168991   14.873555   17.398784
  H     15.026491   16.420899   17.384467
  H     15.897515   13.905418   15.826574
  H     14.930206   15.197318   15.102582
  H     15.608918   18.083652   15.766772
  H     17.187623   18.251847   14.979544
  H     16.476664   19.624679   15.821543
  H     16.873932   19.963730   17.942818
  H     19.488683   17.921894   20.218268
  H     19.636835   16.224928   18.426302
  H     19.207725   13.988584   19.036912
  H     18.045941   12.347917   20.492679
  H     16.089917   13.073729   21.865212
  H     14.819959   14.760451   22.448695
  H     16.472067   17.070355   20.336448

 Total Charge           Charge          ....    0
 Multiplicity           Mult            ....    1
 Number of Electrons    NEL             ....  154
 Basis Dimension        Dim             ....  828

ORBITAL ENERGIES
----------------

  NO   OCC          E(Eh)            E(eV)
   0   2.0000     -91.891020     -2500.4818
   1   2.0000     -20.595557      -560.4336
   2   2.0000     -20.580772      -560.0313
   3   2.0000     -20.553446      -559.2877
   4   2.0000     -15.631411      -425.3523
   5   2.0000     -15.609329      -424.7514
   6   2.0000     -11.395399      -310.0846
   7   2.0000     -11.385931      -309.8269
   8   2.0000     -11.337517      -308.5095
   9   2.0000     -11.311916      -307.8129
  10   2.0000     -11.309496      -307.7470
  11   2.0000     -11.305718      -307.6442
  12   2.0000     -11.262783      -306.4759
  13   2.0000     -11.262467      -306.4673
  14   2.0000     -11.258121      -306.3490
  15   2.0000     -11.252316      -306.1911
  16   2.0000     -11.241905      -305.9078
  17   2.0000     -11.237290      -305.7822
  18   2.0000     -11.234084      -305.6950
  19   2.0000     -11.229399      -305.5675
  20   2.0000      -8.896067      -242.0743
  21   2.0000      -6.577640      -178.9867
  22   2.0000      -6.575635      -178.9321
  23   2.0000      -6.575043      -178.9160
  24   2.0000      -1.446676       -39.3661
  25   2.0000      -1.415387       -38.5146
  26   2.0000      -1.353234       -36.8234
  27   2.0000      -1.342318       -36.5263
  28   2.0000      -1.239741       -33.7351
  29   2.0000      -1.156081       -31.4586
  30   2.0000      -1.121942       -30.5296
  31   2.0000      -1.044451       -28.4210
  32   2.0000      -1.034262       -28.1437
  33   2.0000      -1.014090       -27.5948
  34   2.0000      -1.001762       -27.2593
  35   2.0000      -0.988259       -26.8919
  36   2.0000      -0.925227       -25.1767
  37   2.0000      -0.895317       -24.3628
  38   2.0000      -0.850842       -23.1526
  39   2.0000      -0.839894       -22.8547
  40   2.0000      -0.832172       -22.6445
  41   2.0000      -0.819705       -22.3053
  42   2.0000      -0.748394       -20.3648
  43   2.0000      -0.732899       -19.9432
  44   2.0000      -0.728076       -19.8119
  45   2.0000      -0.694016       -18.8851
  46   2.0000      -0.687617       -18.7110
  47   2.0000      -0.675446       -18.3798
  48   2.0000      -0.672758       -18.3067
  49   2.0000      -0.661867       -18.0103
  50   2.0000      -0.653171       -17.7737
  51   2.0000      -0.647609       -17.6223
  52   2.0000      -0.640425       -17.4269
  53   2.0000      -0.616015       -16.7626
  54   2.0000      -0.603383       -16.4189
  55   2.0000      -0.602416       -16.3926
  56   2.0000      -0.599704       -16.3188
  57   2.0000      -0.583791       -15.8857
  58   2.0000      -0.575251       -15.6534
  59   2.0000      -0.562930       -15.3181
  60   2.0000      -0.560079       -15.2405
  61   2.0000      -0.548883       -14.9359
  62   2.0000      -0.547118       -14.8878
  63   2.0000      -0.528531       -14.3821
  64   2.0000      -0.520778       -14.1711
  65   2.0000      -0.513169       -13.9640
  66   2.0000      -0.499871       -13.6022
  67   2.0000      -0.490399       -13.3444
  68   2.0000      -0.481566       -13.1041
  69   2.0000      -0.465729       -12.6731
  70   2.0000      -0.454596       -12.3702
  71   2.0000      -0.450338       -12.2543
  72   2.0000      -0.357023        -9.7151
  73   2.0000      -0.346883        -9.4392
  74   2.0000      -0.330109        -8.9827
  75   2.0000      -0.320534        -8.7222
  76   2.0000      -0.317899        -8.6505
  77   0.0000       0.068344         1.8597
  78   0.0000       0.107015         2.9120
  79   0.0000       0.118668         3.2291
  80   0.0000       0.132679         3.6104
  81   0.0000       0.133472         3.6320

MULLIKEN ATOMIC CHARGES
-----------------------
   0 C :   -0.344178
   1 C :    0.041938
   2 O :   -0.385824
   3 C :    0.470038
   4 O :   -0.393323
   5 C :   -0.204746
   6 C :    0.137567
   7 C :   -0.287140
   8 N :   -0.124886
   9 C :    0.187071
  10 S :   -0.434145
  11 N :   -0.201952
  12 C :    0.053630
  13 C :    0.025579
  14 C :   -0.178413
  15 C :   -0.139011
  16 C :   -0.276210
  17 C :    0.310341
  18 O :   -0.358645
  19 C :   -0.257965
  20 H :    0.128800
  21 H :    0.122312
  22 H :    0.100840
  23 H :    0.111858
  24 H :    0.112413
  25 H :    0.117353
  26 H :    0.135069
  27 H :    0.109166
  28 H :    0.197585
  29 H :    0.194628
  30 H :    0.159594
  31 H :    0.166016
  32 H :    0.161908
  33 H :    0.131181
  34 H :    0.240667
  35 H :    0.170882
Sum of atomic charges:    0.0000000

LOEWDIN ATOMIC CHARGES
----------------------
   0 C :    0.105180
   1 C :   -0.016522
   2 O :    0.276977
   3 C :   -0.417444
   4 O :    0.127545
   5 C :   -0.092567
   6 C :   -0.070763
   7 C :    0.126763
   8 N :    0.405929
   9 C :   -0.460303
  10 S :   -0.033216
  11 N :    0.397426
  12 C :   -0.044750
  13 C :   -0.042509
  14 C :    0.019561
  15 C :    0.041318
  16 C :   -0.002199
  17 C :   -0.194232
  18 O :    0.394670
  19 C :    0.029361
  20 H :   -0.023977
  21 H :   -0.021803
  22 H :   -0.033682
  23 H :   -0.025190
  24 H :   -0.023600
  25 H :   -0.014236
  26 H :   -0.005650
  27 H :   -0.018742
  28 H :   -0.058674
  29 H :   -0.063719
  30 H :   -0.002764
  31 H :   -0.023527
  32 H :   -0.019816
  33 H :   -0.035474
  34 H :   -0.154143
  35 H :   -0.025228

  Mayer bond orders larger than 0.100000
B(  0-C ,  1-C ) :   0.9608 B(  0-C , 20-H ) :   0.9641 B(  0-C , 21-H ) :   0.9779
B(  0-C , 22-H ) :   0.9722 B(  1-C ,  2-O ) :   0.8928 B(  1-C , 23-H ) :   0.9851
B(  1-C , 24-H ) :   0.9820 B(  2-O ,  3-C ) :   1.0900 B(  3-C ,  4-O ) :   2.0336
B(  3-C ,  5-C ) :   1.0184 B(  5-C ,  6-C ) :   1.6643 B(  5-C , 12-C ) :   0.9577
B(  6-C ,  7-C ) :   0.9542 B(  6-C ,  8-N ) :   1.1289 B(  7-C , 25-H ) :   0.9648
B(  7-C , 26-H ) :   0.9658 B(  7-C , 27-H ) :   0.9893 B(  8-N ,  9-C ) :   1.1786
B(  8-N , 28-H ) :   0.9489 B(  9-C , 10-S ) :   1.6173 B(  9-C , 11-N ) :   1.2984
B( 11-N , 12-C ) :   0.9832 B( 11-N , 29-H ) :   0.9520 B( 12-C , 13-C ) :   0.9480
B( 12-C , 30-H ) :   0.9981 B( 13-C , 14-C ) :   1.3898 B( 13-C , 19-C ) :   1.3545
B( 14-C , 15-C ) :   1.3960 B( 14-C , 31-H ) :   0.9596 B( 15-C , 16-C ) :   1.3625
B( 15-C , 32-H ) :   0.9709 B( 16-C , 17-C ) :   1.3300 B( 16-C , 33-H ) :   0.9849
B( 17-C , 18-O ) :   1.1116 B( 17-C , 19-C ) :   1.3759 B( 18-O , 34-H ) :   0.9801
B( 19-C , 35-H ) :   0.9581

MP2 TOTAL ENERGY:    -1274.323608713 Eh
FINAL SINGLE POINT ENERGY     -1274.323608713140

DIPOLE MOMENT
-------------
                                X             Y             Z
Electronic contribution:      9.71398       7.42620       6.32779
Nuclear contribution   :    -11.11444      -8.56150      -6.96453
                        -----------------------------------------
Total Dipole Moment    :     -1.40046      -1.13530      -0.63674
                        -----------------------------------------
Magnitude (a.u.)       :      1.91197
Magnitude (Debye)      :      4.85984

Rotational constants in cm-1:     0.011259     0.010005     0.006780
Rotational constants in MHz :   337.522039   299.929288   203.260075

                             ****ORCA TERMINATED NORMALLY****
TOTAL RUN TIME: 0 days 1 hours 45 minutes 37 seconds 206 msec
