                         Program Version 4.2.0 -  RELEASE  -
|  1> ! ri-mp2 cc-pvtz cc-pvtz/c TightSCF  NoKeepInts
|  2>
|  3> %scf
|  4>   MaxCore 4096
|  5> end
|  6> *xyz  0  1
|  7>     C       15.0936265   13.7755780   16.9776634
|  8>     C       15.6329101   15.2151148   16.9685969
|  9>     O       16.9114935   15.1922223   16.3077827
| 10>     C       17.5700038   16.3656749   16.0811140
| 11>     O       17.6057700   16.8131276   14.9500432
| 12>     C       17.7677291   17.2267967   17.2940710
| 13>     C       17.4278650   18.5382648   17.2978222
| 14>     C       16.6643251   19.2781406   16.2215037
| 15>     N       17.8166974   19.3583037   18.3600986
| 16>     C       18.7141532   18.9951374   19.3295760
| 17>     S       19.2483633   20.0646452   20.4718716
| 18>     N       19.1513625   17.6937751   19.3036926
| 19>     C       18.5906770   16.6286337   18.4489372
| 20>     C       17.8414937   15.6184226   19.3117490
| 21>     C       18.1141826   14.2428888   19.1894616
| 22>     C       17.4340187   13.3048680   19.9839913
| 23>     C       16.4730131   13.7442434   20.9100460
| 24>     C       16.2023508   15.1129429   21.0398518
| 25>     O       15.2717886   15.5403489   21.9293387
| 26>     C       16.8821923   16.0451281   20.2495838
| 27>     H       14.1047935   13.7375680   17.4502288
| 28>     H       15.7667416   13.1143447   17.5365350
| 29>     H       15.0021650   13.3910138   15.9541232
| 30>     H       14.9392196   15.8550027   16.4069311
| 31>     H       15.6922871   15.5986204   17.9899598
| 32>     H       15.8380126   18.6683061   15.8357340
| 33>     H       17.3238652   19.5040478   15.3733093
| 34>     H       16.2363664   20.2220237   16.5792174
| 35>     H       17.5249126   20.3227589   18.3784422
| 36>     H       19.7972417   17.4517545   20.0447045
| 37>     H       19.4421209   16.1030093   17.9935849
| 38>     H       18.8501338   13.8969033   18.4679302
| 39>     H       17.6507749   12.2430236   19.8782881
| 40>     H       15.9436960   13.0226383   21.5238932
| 41>     H       14.9616274   14.7665048   22.4237650
| 42>     H       16.6590256   17.1002226   20.3705580
| 43> *
| 44>
| 45>                          ****END OF INPUT****

CARTESIAN COORDINATES (ANGSTROEM)
---------------------------------
  C     15.093626   13.775578   16.977663
  C     15.632910   15.215115   16.968597
  O     16.911493   15.192222   16.307783
  C     17.570004   16.365675   16.081114
  O     17.605770   16.813128   14.950043
  C     17.767729   17.226797   17.294071
  C     17.427865   18.538265   17.297822
  C     16.664325   19.278141   16.221504
  N     17.816697   19.358304   18.360099
  C     18.714153   18.995137   19.329576
  S     19.248363   20.064645   20.471872
  N     19.151363   17.693775   19.303693
  C     18.590677   16.628634   18.448937
  C     17.841494   15.618423   19.311749
  C     18.114183   14.242889   19.189462
  C     17.434019   13.304868   19.983991
  C     16.473013   13.744243   20.910046
  C     16.202351   15.112943   21.039852
  O     15.271789   15.540349   21.929339
  C     16.882192   16.045128   20.249584
  H     14.104793   13.737568   17.450229
  H     15.766742   13.114345   17.536535
  H     15.002165   13.391014   15.954123
  H     14.939220   15.855003   16.406931
  H     15.692287   15.598620   17.989960
  H     15.838013   18.668306   15.835734
  H     17.323865   19.504048   15.373309
  H     16.236366   20.222024   16.579217
  H     17.524913   20.322759   18.378442
  H     19.797242   17.451754   20.044705
  H     19.442121   16.103009   17.993585
  H     18.850134   13.896903   18.467930
  H     17.650775   12.243024   19.878288
  H     15.943696   13.022638   21.523893
  H     14.961627   14.766505   22.423765
  H     16.659026   17.100223   20.370558

 Total Charge           Charge          ....    0
 Multiplicity           Mult            ....    1
 Number of Electrons    NEL             ....  154
 Basis Dimension        Dim             ....  828

ORBITAL ENERGIES
----------------

  NO   OCC          E(Eh)            E(eV)
   0   2.0000     -91.891358     -2500.4910
   1   2.0000     -20.602681      -560.6274
   2   2.0000     -20.584812      -560.1412
   3   2.0000     -20.555890      -559.3542
   4   2.0000     -15.629196      -425.2920
   5   2.0000     -15.611761      -424.8176
   6   2.0000     -11.393456      -310.0317
   7   2.0000     -11.386596      -309.8450
   8   2.0000     -11.333077      -308.3887
   9   2.0000     -11.320811      -308.0549
  10   2.0000     -11.317670      -307.9694
  11   2.0000     -11.296778      -307.4010
  12   2.0000     -11.266902      -306.5880
  13   2.0000     -11.261825      -306.4499
  14   2.0000     -11.260123      -306.4035
  15   2.0000     -11.255910      -306.2889
  16   2.0000     -11.250201      -306.1335
  17   2.0000     -11.245106      -305.9949
  18   2.0000     -11.244984      -305.9916
  19   2.0000     -11.226976      -305.5016
  20   2.0000      -8.896412      -242.0837
  21   2.0000      -6.577984      -178.9961
  22   2.0000      -6.575979      -178.9415
  23   2.0000      -6.575389      -178.9254
  24   2.0000      -1.449143       -39.4332
  25   2.0000      -1.422490       -38.7079
  26   2.0000      -1.356845       -36.9216
  27   2.0000      -1.341578       -36.5062
  28   2.0000      -1.241272       -33.7767
  29   2.0000      -1.163887       -31.6710
  30   2.0000      -1.123115       -30.5615
  31   2.0000      -1.048657       -28.5354
  32   2.0000      -1.034483       -28.1497
  33   2.0000      -1.022542       -27.8248
  34   2.0000      -1.001373       -27.2487
  35   2.0000      -0.988058       -26.8864
  36   2.0000      -0.927727       -25.2447
  37   2.0000      -0.876128       -23.8406
  38   2.0000      -0.851808       -23.1789
  39   2.0000      -0.844109       -22.9694
  40   2.0000      -0.841155       -22.8890
  41   2.0000      -0.836101       -22.7515
  42   2.0000      -0.760116       -20.6838
  43   2.0000      -0.737197       -20.0601
  44   2.0000      -0.728943       -19.8355
  45   2.0000      -0.701828       -19.0977
  46   2.0000      -0.691951       -18.8289
  47   2.0000      -0.683128       -18.5888
  48   2.0000      -0.675832       -18.3903
  49   2.0000      -0.659522       -17.9465
  50   2.0000      -0.650293       -17.6954
  51   2.0000      -0.645521       -17.5655
  52   2.0000      -0.639712       -17.4075
  53   2.0000      -0.616132       -16.7658
  54   2.0000      -0.610299       -16.6071
  55   2.0000      -0.604676       -16.4541
  56   2.0000      -0.601922       -16.3791
  57   2.0000      -0.582282       -15.8447
  58   2.0000      -0.575814       -15.6687
  59   2.0000      -0.566328       -15.4106
  60   2.0000      -0.556203       -15.1350
  61   2.0000      -0.547375       -14.8948
  62   2.0000      -0.539070       -14.6689
  63   2.0000      -0.530475       -14.4350
  64   2.0000      -0.520894       -14.1742
  65   2.0000      -0.517894       -14.0926
  66   2.0000      -0.506917       -13.7939
  67   2.0000      -0.501965       -13.6592
  68   2.0000      -0.482654       -13.1337
  69   2.0000      -0.468422       -12.7464
  70   2.0000      -0.457758       -12.4562
  71   2.0000      -0.449916       -12.2428
  72   2.0000      -0.358214        -9.7475
  73   2.0000      -0.353342        -9.6149
  74   2.0000      -0.330993        -9.0068
  75   2.0000      -0.328398        -8.9362
  76   2.0000      -0.319411        -8.6916
  77   0.0000       0.075630         2.0580
  78   0.0000       0.099377         2.7042
  79   0.0000       0.117562         3.1990
  80   0.0000       0.125607         3.4179
  81   0.0000       0.128341         3.4923

MULLIKEN ATOMIC CHARGES
-----------------------
   0 C :   -0.265494
   1 C :    0.015314
   2 O :   -0.340794
   3 C :    0.410723
   4 O :   -0.364326
   5 C :   -0.234487
   6 C :    0.153345
   7 C :   -0.278900
   8 N :   -0.124703
   9 C :    0.197833
  10 S :   -0.434496
  11 N :   -0.199728
  12 C :    0.039083
  13 C :    0.021879
  14 C :   -0.153068
  15 C :   -0.164865
  16 C :   -0.263443
  17 C :    0.303336
  18 O :   -0.354816
  19 C :   -0.248697
  20 H :    0.088982
  21 H :    0.098111
  22 H :    0.108119
  23 H :    0.103628
  24 H :    0.111967
  25 H :    0.120793
  26 H :    0.142388
  27 H :    0.095782
  28 H :    0.197966
  29 H :    0.193447
  30 H :    0.154089
  31 H :    0.148849
  32 H :    0.169830
  33 H :    0.135036
  34 H :    0.241413
  35 H :    0.175904
Sum of atomic charges:   -0.0000000

LOEWDIN ATOMIC CHARGES
----------------------
   0 C :    0.112267
   1 C :   -0.021229
   2 O :    0.293453
   3 C :   -0.422728
   4 O :    0.138872
   5 C :   -0.094093
   6 C :   -0.074924
   7 C :    0.129521
   8 N :    0.405096
   9 C :   -0.457952
  10 S :   -0.032982
  11 N :    0.396423
  12 C :   -0.052486
  13 C :   -0.042766
  14 C :    0.018024
  15 C :    0.044730
  16 C :    0.000684
  17 C :   -0.192513
  18 O :    0.397117
  19 C :    0.030682
  20 H :   -0.025595
  21 H :   -0.028866
  22 H :   -0.024874
  23 H :   -0.033981
  24 H :   -0.040386
  25 H :   -0.009392
  26 H :   -0.003270
  27 H :   -0.021737
  28 H :   -0.057663
  29 H :   -0.064527
  30 H :   -0.008051
  31 H :   -0.028318
  32 H :   -0.019503
  33 H :   -0.034008
  34 H :   -0.152535
  35 H :   -0.022489

  Mayer bond orders larger than 0.100000
B(  0-C ,  1-C ) :   0.9832 B(  0-C , 20-H ) :   0.9764 B(  0-C , 21-H ) :   0.9755
B(  0-C , 22-H ) :   0.9787 B(  1-C ,  2-O ) :   0.8843 B(  1-C , 23-H ) :   0.9809
B(  1-C , 24-H ) :   0.9568 B(  2-O ,  3-C ) :   1.1567 B(  3-C ,  4-O ) :   2.1096
B(  3-C ,  5-C ) :   0.9515 B(  5-C ,  6-C ) :   1.6996 B(  5-C , 12-C ) :   0.9599
B(  6-C ,  7-C ) :   0.9546 B(  6-C ,  8-N ) :   1.1325 B(  7-C , 25-H ) :   0.9720
B(  7-C , 26-H ) :   0.9577 B(  7-C , 27-H ) :   0.9854 B(  8-N ,  9-C ) :   1.1877
B(  8-N , 28-H ) :   0.9497 B(  9-C , 10-S ) :   1.6185 B(  9-C , 11-N ) :   1.2876
B( 11-N , 12-C ) :   0.9970 B( 11-N , 29-H ) :   0.9513 B( 12-C , 13-C ) :   0.9407
B( 12-C , 30-H ) :   1.0110 B( 13-C , 14-C ) :   1.3702 B( 13-C , 19-C ) :   1.3545
B( 14-C , 15-C ) :   1.3869 B( 14-C , 31-H ) :   0.9709 B( 15-C , 16-C ) :   1.3597
B( 15-C , 32-H ) :   0.9692 B( 16-C , 17-C ) :   1.3288 B( 16-C , 33-H ) :   0.9829
B( 17-C , 18-O ) :   1.1146 B( 17-C , 19-C ) :   1.3745 B( 18-O , 34-H ) :   0.9789
B( 19-C , 35-H ) :   0.9578

MP2 TOTAL ENERGY:    -1274.323113824 Eh
FINAL SINGLE POINT ENERGY     -1274.323113823777

DIPOLE MOMENT
-------------
                                X             Y             Z
Electronic contribution:     10.65109       9.50201       5.69841
Nuclear contribution   :    -11.95870     -11.01023      -5.46370
                        -----------------------------------------
Total Dipole Moment    :     -1.30761      -1.50822       0.23471
                        -----------------------------------------
Magnitude (a.u.)       :      2.00989
Magnitude (Debye)      :      5.10872

Rotational constants in cm-1:     0.012223     0.009366     0.006306
Rotational constants in MHz :   366.427570   280.773785   189.043053

                             ****ORCA TERMINATED NORMALLY****
TOTAL RUN TIME: 0 days 2 hours 23 minutes 15 seconds 711 msec
