                         Program Version 5.0.0 -  RELEASE  -
|  1> ! ri-mp2 cc-pvtz cc-pvtz/c TightSCF NoKeepInts
|  2>
|  3> %scf
|  4>   MaxCore 4096
|  5> end
|  6> *xyz  0  1
|  7>     C       14.1685008   15.4294841   16.1812277
|  8>     C       15.4169069   15.4511062   17.0787122
|  9>     O       16.5610051   15.2423061   16.2243728
| 10>     C       17.8249379   15.6823366   16.5265072
| 11>     O       18.7834288   14.9607462   16.3215364
| 12>     C       17.9294807   16.8667675   17.4325245
| 13>     C       17.3352953   18.0536427   17.1659747
| 14>     C       16.5140775   18.4080049   15.9446952
| 15>     N       17.5113997   19.1304798   18.0376267
| 16>     C       18.3395879   19.1217206   19.1301070
| 17>     S       18.5343491   20.4596139   20.0819018
| 18>     N       18.9942148   17.9444132   19.3993024
| 19>     C       18.8035898   16.6749838   18.6696011
| 20>     C       18.1996668   15.6023937   19.5701373
| 21>     C       18.7367122   14.3023311   19.5816219
| 22>     C       18.1655931   13.2989307   20.3819099
| 23>     C       17.0440835   13.5957655   21.1748584
| 24>     C       16.5010121   14.8873629   21.1598375
| 25>     O       15.4083469   15.1739387   21.9110216
| 26>     C       17.0713205   15.8844370   20.3622632
| 27>     H       13.2603678   15.5668360   16.7808113
| 28>     H       14.0899363   14.4690589   15.6561318
| 29>     H       14.2116008   16.2289357   15.4316863
| 30>     H       15.4439336   16.4069958   17.6113332
| 31>     H       15.3627618   14.6503102   17.8285857
| 32>     H       16.6384749   17.6766985   15.1364037
| 33>     H       16.8151894   19.3805666   15.5350528
| 34>     H       15.4461899   18.4608347   16.1884884
| 35>     H       17.0500573   20.0072218   17.8512005
| 36>     H       19.5805818   17.9613886   20.2243188
| 37>     H       19.7917850   16.3282912   18.3325109
| 38>     H       19.5908794   14.0640710   18.9512091
| 39>     H       18.5881498   12.2954824   20.3777956
| 40>     H       16.5979566   12.8219505   21.7909516
| 41>     H       15.2019704   14.3854968   22.4359730
| 42>     H       16.6336556   16.8770962   20.3658077
| 43> *
| 44>
| 45>                          ****END OF INPUT****

CARTESIAN COORDINATES (ANGSTROEM)
---------------------------------
  C     14.168501   15.429484   16.181228
  C     15.416907   15.451106   17.078712
  O     16.561005   15.242306   16.224373
  C     17.824938   15.682337   16.526507
  O     18.783429   14.960746   16.321536
  C     17.929481   16.866768   17.432524
  C     17.335295   18.053643   17.165975
  C     16.514077   18.408005   15.944695
  N     17.511400   19.130480   18.037627
  C     18.339588   19.121721   19.130107
  S     18.534349   20.459614   20.081902
  N     18.994215   17.944413   19.399302
  C     18.803590   16.674984   18.669601
  C     18.199667   15.602394   19.570137
  C     18.736712   14.302331   19.581622
  C     18.165593   13.298931   20.381910
  C     17.044083   13.595766   21.174858
  C     16.501012   14.887363   21.159837
  O     15.408347   15.173939   21.911022
  C     17.071320   15.884437   20.362263
  H     13.260368   15.566836   16.780811
  H     14.089936   14.469059   15.656132
  H     14.211601   16.228936   15.431686
  H     15.443934   16.406996   17.611333
  H     15.362762   14.650310   17.828586
  H     16.638475   17.676699   15.136404
  H     16.815189   19.380567   15.535053
  H     15.446190   18.460835   16.188488
  H     17.050057   20.007222   17.851201
  H     19.580582   17.961389   20.224319
  H     19.791785   16.328291   18.332511
  H     19.590879   14.064071   18.951209
  H     18.588150   12.295482   20.377796
  H     16.597957   12.821950   21.790952
  H     15.201970   14.385497   22.435973
  H     16.633656   16.877096   20.365808

 Total Charge           Charge          ....    0
 Multiplicity           Mult            ....    1
 Number of Electrons    NEL             ....  154
 Basis Dimension        Dim             ....  828

ORBITAL ENERGIES
----------------

  NO   OCC          E(Eh)            E(eV)
   0   2.0000     -91.890691     -2500.4728
   1   2.0000     -20.599818      -560.5495
   2   2.0000     -20.598216      -560.5059
   3   2.0000     -20.550730      -559.2138
   4   2.0000     -15.628760      -425.2802
   5   2.0000     -15.611637      -424.8142
   6   2.0000     -11.396977      -310.1275
   7   2.0000     -11.387315      -309.8646
   8   2.0000     -11.331882      -308.3562
   9   2.0000     -11.316345      -307.9334
  10   2.0000     -11.313456      -307.8548
  11   2.0000     -11.303879      -307.5942
  12   2.0000     -11.268505      -306.6316
  13   2.0000     -11.264088      -306.5114
  14   2.0000     -11.262577      -306.4703
  15   2.0000     -11.256258      -306.2984
  16   2.0000     -11.245891      -306.0162
  17   2.0000     -11.242050      -305.9117
  18   2.0000     -11.239009      -305.8290
  19   2.0000     -11.235706      -305.7391
  20   2.0000      -8.895794      -242.0669
  21   2.0000      -6.577377      -178.9795
  22   2.0000      -6.575357      -178.9246
  23   2.0000      -6.574778      -178.9088
  24   2.0000      -1.447590       -39.3909
  25   2.0000      -1.419618       -38.6298
  26   2.0000      -1.359214       -36.9861
  27   2.0000      -1.341299       -36.4986
  28   2.0000      -1.240480       -33.7552
  29   2.0000      -1.161179       -31.5973
  30   2.0000      -1.125788       -30.6343
  31   2.0000      -1.048803       -28.5394
  32   2.0000      -1.041575       -28.3427
  33   2.0000      -1.018402       -27.7121
  34   2.0000      -1.005066       -27.3492
  35   2.0000      -0.989807       -26.9340
  36   2.0000      -0.927766       -25.2458
  37   2.0000      -0.882950       -24.0263
  38   2.0000      -0.854965       -23.2648
  39   2.0000      -0.842735       -22.9320
  40   2.0000      -0.836941       -22.7743
  41   2.0000      -0.836130       -22.7523
  42   2.0000      -0.758173       -20.6309
  43   2.0000      -0.740044       -20.1376
  44   2.0000      -0.732004       -19.9188
  45   2.0000      -0.697493       -18.9797
  46   2.0000      -0.688110       -18.7244
  47   2.0000      -0.682484       -18.5713
  48   2.0000      -0.676697       -18.4139
  49   2.0000      -0.664029       -18.0691
  50   2.0000      -0.652815       -17.7640
  51   2.0000      -0.644329       -17.5331
  52   2.0000      -0.640975       -17.4418
  53   2.0000      -0.614236       -16.7142
  54   2.0000      -0.608182       -16.5495
  55   2.0000      -0.605981       -16.4896
  56   2.0000      -0.603344       -16.4178
  57   2.0000      -0.586629       -15.9630
  58   2.0000      -0.578329       -15.7371
  59   2.0000      -0.568590       -15.4721
  60   2.0000      -0.562335       -15.3019
  61   2.0000      -0.558408       -15.1950
  62   2.0000      -0.541658       -14.7393
  63   2.0000      -0.532961       -14.5026
  64   2.0000      -0.524516       -14.2728
  65   2.0000      -0.516324       -14.0499
  66   2.0000      -0.502580       -13.6759
  67   2.0000      -0.500196       -13.6110
  68   2.0000      -0.489756       -13.3269
  69   2.0000      -0.470036       -12.7903
  70   2.0000      -0.458092       -12.4653
  71   2.0000      -0.449325       -12.2267
  72   2.0000      -0.357366        -9.7244
  73   2.0000      -0.351852        -9.5744
  74   2.0000      -0.330242        -8.9864
  75   2.0000      -0.324105        -8.8193
  76   2.0000      -0.318799        -8.6750
  77   0.0000       0.080021         2.1775
  78   0.0000       0.104322         2.8387
  79   0.0000       0.114986         3.1289
  80   0.0000       0.128768         3.5039
  81   0.0000       0.132891         3.6161

MULLIKEN ATOMIC CHARGES
-----------------------
   0 C :   -0.265412
   1 C :    0.011443
   2 O :   -0.326103
   3 C :    0.414556
   4 O :   -0.381757
   5 C :   -0.209130
   6 C :    0.141966
   7 C :   -0.326266
   8 N :   -0.134250
   9 C :    0.203259
  10 S :   -0.439413
  11 N :   -0.208366
  12 C :    0.063911
  13 C :    0.034349
  14 C :   -0.187255
  15 C :   -0.129632
  16 C :   -0.278158
  17 C :    0.314984
  18 O :   -0.358641
  19 C :   -0.284378
  20 H :    0.093278
  21 H :    0.110669
  22 H :    0.091057
  23 H :    0.095637
  24 H :    0.128510
  25 H :    0.134343
  26 H :    0.136780
  27 H :    0.121327
  28 H :    0.197087
  29 H :    0.196980
  30 H :    0.162406
  31 H :    0.165594
  32 H :    0.163332
  33 H :    0.132392
  34 H :    0.241928
  35 H :    0.172975
Sum of atomic charges:   -0.0000000

LOEWDIN ATOMIC CHARGES
----------------------
   0 C :    0.108122
   1 C :   -0.018533
   2 O :    0.301972
   3 C :   -0.416071
   4 O :    0.126219
   5 C :   -0.086708
   6 C :   -0.097138
   7 C :    0.126688
   8 N :    0.402061
   9 C :   -0.456329
  10 S :   -0.036350
  11 N :    0.397171
  12 C :   -0.045303
  13 C :   -0.044077
  14 C :    0.022780
  15 C :    0.045133
  16 C :   -0.000478
  17 C :   -0.194629
  18 O :    0.393955
  19 C :    0.028111
  20 H :   -0.024212
  21 H :   -0.022961
  22 H :   -0.031058
  23 H :   -0.040624
  24 H :   -0.025416
  25 H :   -0.007448
  26 H :   -0.011173
  27 H :   -0.016550
  28 H :   -0.057537
  29 H :   -0.063548
  30 H :   -0.002897
  31 H :   -0.022097
  32 H :   -0.018658
  33 H :   -0.034637
  34 H :   -0.152910
  35 H :   -0.024869

  Mayer bond orders larger than 0.100000
B(  0-C ,  1-C ) :   0.9752 B(  0-C , 20-H ) :   0.9759 B(  0-C , 21-H ) :   0.9792
B(  0-C , 22-H ) :   0.9785 B(  1-C ,  2-O ) :   0.8992 B(  1-C , 23-H ) :   0.9645
B(  1-C , 24-H ) :   0.9760 B(  2-O ,  3-C ) :   1.1769 B(  3-C ,  4-O ) :   2.0989
B(  3-C ,  5-C ) :   0.9351 B(  5-C ,  6-C ) :   1.6800 B(  5-C , 12-C ) :   0.9597
B(  6-C ,  7-C ) :   0.9437 B(  6-C ,  8-N ) :   1.1214 B(  7-C , 25-H ) :   0.9767
B(  7-C , 26-H ) :   0.9760 B(  7-C , 27-H ) :   0.9639 B(  8-N ,  9-C ) :   1.1901
B(  8-N , 28-H ) :   0.9513 B(  9-C , 10-S ) :   1.6130 B(  9-C , 11-N ) :   1.2908
B( 11-N , 12-C ) :   1.0011 B( 11-N , 29-H ) :   0.9499 B( 12-C , 13-C ) :   0.9431
B( 12-C , 30-H ) :   0.9975 B( 13-C , 14-C ) :   1.3858 B( 13-C , 19-C ) :   1.3505
B( 14-C , 15-C ) :   1.3949 B( 14-C , 31-H ) :   0.9613 B( 15-C , 16-C ) :   1.3648
B( 15-C , 32-H ) :   0.9702 B( 16-C , 17-C ) :   1.3278 B( 16-C , 33-H ) :   0.9844
B( 17-C , 18-O ) :   1.1102 B( 17-C , 19-C ) :   1.3717 B( 18-O , 34-H ) :   0.9790
B( 19-C , 35-H ) :   0.9582

MP2 TOTAL ENERGY:    -1274.334171365 Eh
FINAL SINGLE POINT ENERGY     -1274.334171365459

DIPOLE MOMENT
-------------
                                X             Y             Z
Electronic contribution:     11.97390       6.14176       7.60154
Nuclear contribution   :    -13.49034      -7.13252      -7.84036
                        -----------------------------------------
Total Dipole Moment    :     -1.51644      -0.99077      -0.23882
                        -----------------------------------------
Magnitude (a.u.)       :      1.82709
Magnitude (Debye)      :      4.64409

Rotational constants in cm-1:     0.011218     0.009268     0.006814
Rotational constants in MHz :   336.319126   277.835197   204.272122

                             ****ORCA TERMINATED NORMALLY****
TOTAL RUN TIME: 0 days 1 hours 52 minutes 51 seconds 918 msec
