                         Program Version 4.2.0 -  RELEASE  -
|  1> ! ri-mp2 cc-pvtz cc-pvtz/c TightSCF  NoKeepInts
|  2>
|  3> %scf
|  4>   MaxCore 4096
|  5> end
|  6> *xyz  0  1
|  7>     C       16.0963128   13.1463458   15.7900931
|  8>     C       15.5032816   14.4809446   16.2715320
|  9>     O       16.6037549   15.3273622   16.6436158
| 10>     C       16.4508913   16.6853279   16.6187721
| 11>     O       15.5417163   17.2286566   16.0145058
| 12>     C       17.4156550   17.3925632   17.5303436
| 13>     C       17.4643374   18.7452565   17.6302100
| 14>     C       16.6077566   19.7502066   16.8900864
| 15>     N       18.4089409   19.3533359   18.4625246
| 16>     C       19.4006149   18.6921154   19.1367093
| 17>     S       20.5411590   19.4962289   20.0246542
| 18>     N       19.4024750   17.3242994   19.0356908
| 19>     C       18.3578411   16.5196689   18.3759815
| 20>     C       17.5965989   15.7068803   19.4197761
| 21>     C       17.6919000   14.3025782   19.4389035
| 22>     C       16.9879020   13.5509086   20.3946322
| 23>     C       16.1845270   14.2085643   21.3417410
| 24>     C       16.0909544   15.6070540   21.3285609
| 25>     O       15.3166769   16.2448732   22.2421729
| 26>     C       16.7919677   16.3523094   20.3755168
| 27>     H       16.6718898   12.6680968   16.5921824
| 28>     H       16.7609846   13.3057982   14.9318773
| 29>     H       15.2979778   12.4597140   15.4833314
| 30>     H       14.9257188   14.9222215   15.4476008
| 31>     H       14.8325580   14.3269216   17.1270855
| 32>     H       15.5496518   19.6191370   17.1507807
| 33>     H       16.6969160   19.6097837   15.8053547
| 34>     H       16.8773801   20.7895009   17.1113938
| 35>     H       18.4235418   20.3571285   18.5476753
| 36>     H       20.1232431   16.8624259   19.5751404
| 37>     H       18.8655514   15.8218417   17.6952990
| 38>     H       18.3076834   13.7916195   18.7036297
| 39>     H       17.0661892   12.4651724   20.3995635
| 40>     H       15.6393701   13.6326933   22.0823104
| 41>     H       14.9420075   15.5705519   22.8284105
| 42>     H       16.7110730   17.4339131   20.3863420
| 43> *
| 44>
| 45>                          ****END OF INPUT****

CARTESIAN COORDINATES (ANGSTROEM)
---------------------------------
  C     16.096313   13.146346   15.790093
  C     15.503282   14.480945   16.271532
  O     16.603755   15.327362   16.643616
  C     16.450891   16.685328   16.618772
  O     15.541716   17.228657   16.014506
  C     17.415655   17.392563   17.530344
  C     17.464337   18.745256   17.630210
  C     16.607757   19.750207   16.890086
  N     18.408941   19.353336   18.462525
  C     19.400615   18.692115   19.136709
  S     20.541159   19.496229   20.024654
  N     19.402475   17.324299   19.035691
  C     18.357841   16.519669   18.375982
  C     17.596599   15.706880   19.419776
  C     17.691900   14.302578   19.438903
  C     16.987902   13.550909   20.394632
  C     16.184527   14.208564   21.341741
  C     16.090954   15.607054   21.328561
  O     15.316677   16.244873   22.242173
  C     16.791968   16.352309   20.375517
  H     16.671890   12.668097   16.592182
  H     16.760985   13.305798   14.931877
  H     15.297978   12.459714   15.483331
  H     14.925719   14.922221   15.447601
  H     14.832558   14.326922   17.127085
  H     15.549652   19.619137   17.150781
  H     16.696916   19.609784   15.805355
  H     16.877380   20.789501   17.111394
  H     18.423542   20.357129   18.547675
  H     20.123243   16.862426   19.575140
  H     18.865551   15.821842   17.695299
  H     18.307683   13.791619   18.703630
  H     17.066189   12.465172   20.399563
  H     15.639370   13.632693   22.082310
  H     14.942007   15.570552   22.828411
  H     16.711073   17.433913   20.386342

 Total Charge           Charge          ....    0
 Multiplicity           Mult            ....    1
 Number of Electrons    NEL             ....  154
 Basis Dimension        Dim             ....  828

ORBITAL ENERGIES
----------------

  NO   OCC          E(Eh)            E(eV)
   0   2.0000     -91.888910     -2500.4243
   1   2.0000     -20.600575      -560.5701
   2   2.0000     -20.596359      -560.4554
   3   2.0000     -20.541821      -558.9714
   4   2.0000     -15.629050      -425.2881
   5   2.0000     -15.608288      -424.7231
   6   2.0000     -11.394496      -310.0600
   7   2.0000     -11.384017      -309.7749
   8   2.0000     -11.335811      -308.4631
   9   2.0000     -11.313583      -307.8582
  10   2.0000     -11.309098      -307.7362
  11   2.0000     -11.295102      -307.3553
  12   2.0000     -11.259536      -306.3875
  13   2.0000     -11.258723      -306.3654
  14   2.0000     -11.255122      -306.2674
  15   2.0000     -11.251910      -306.1800
  16   2.0000     -11.242912      -305.9352
  17   2.0000     -11.238356      -305.8112
  18   2.0000     -11.238100      -305.8043
  19   2.0000     -11.230685      -305.6025
  20   2.0000      -8.893969      -242.0172
  21   2.0000      -6.575543      -178.9296
  22   2.0000      -6.573539      -178.8751
  23   2.0000      -6.572952      -178.8591
  24   2.0000      -1.451640       -39.5011
  25   2.0000      -1.416017       -38.5318
  26   2.0000      -1.354786       -36.8656
  27   2.0000      -1.340009       -36.4635
  28   2.0000      -1.238486       -33.7009
  29   2.0000      -1.157489       -31.4969
  30   2.0000      -1.120334       -30.4858
  31   2.0000      -1.043317       -28.3901
  32   2.0000      -1.039845       -28.2956
  33   2.0000      -1.015018       -27.6200
  34   2.0000      -0.995719       -27.0949
  35   2.0000      -0.984356       -26.7857
  36   2.0000      -0.922471       -25.1017
  37   2.0000      -0.888229       -24.1699
  38   2.0000      -0.846706       -23.0400
  39   2.0000      -0.837399       -22.7868
  40   2.0000      -0.833883       -22.6911
  41   2.0000      -0.818197       -22.2643
  42   2.0000      -0.764942       -20.8151
  43   2.0000      -0.732392       -19.9294
  44   2.0000      -0.721824       -19.6418
  45   2.0000      -0.695456       -18.9243
  46   2.0000      -0.686510       -18.6809
  47   2.0000      -0.679226       -18.4827
  48   2.0000      -0.676548       -18.4098
  49   2.0000      -0.660753       -17.9800
  50   2.0000      -0.646307       -17.5869
  51   2.0000      -0.644646       -17.5417
  52   2.0000      -0.635471       -17.2921
  53   2.0000      -0.606742       -16.5103
  54   2.0000      -0.602487       -16.3945
  55   2.0000      -0.599289       -16.3075
  56   2.0000      -0.597330       -16.2542
  57   2.0000      -0.577718       -15.7205
  58   2.0000      -0.570673       -15.5288
  59   2.0000      -0.566993       -15.4287
  60   2.0000      -0.561792       -15.2871
  61   2.0000      -0.545900       -14.8547
  62   2.0000      -0.540084       -14.6964
  63   2.0000      -0.525083       -14.2882
  64   2.0000      -0.524442       -14.2708
  65   2.0000      -0.513420       -13.9709
  66   2.0000      -0.502546       -13.6750
  67   2.0000      -0.498159       -13.5556
  68   2.0000      -0.485540       -13.2122
  69   2.0000      -0.465753       -12.6738
  70   2.0000      -0.458370       -12.4729
  71   2.0000      -0.446556       -12.1514
  72   2.0000      -0.354257        -9.6398
  73   2.0000      -0.349285        -9.5045
  74   2.0000      -0.328239        -8.9318
  75   2.0000      -0.321182        -8.7398
  76   2.0000      -0.316027        -8.5995
  77   0.0000       0.075759         2.0615
  78   0.0000       0.106046         2.8857
  79   0.0000       0.124847         3.3973
  80   0.0000       0.131855         3.5879
  81   0.0000       0.136226         3.7069

MULLIKEN ATOMIC CHARGES
-----------------------
   0 C :   -0.265160
   1 C :    0.020519
   2 O :   -0.350891
   3 C :    0.463349
   4 O :   -0.430475
   5 C :   -0.224676
   6 C :    0.151428
   7 C :   -0.273273
   8 N :   -0.121590
   9 C :    0.210645
  10 S :   -0.439576
  11 N :   -0.203676
  12 C :    0.053171
  13 C :    0.064923
  14 C :   -0.187587
  15 C :   -0.131169
  16 C :   -0.278707
  17 C :    0.315882
  18 O :   -0.356365
  19 C :   -0.269538
  20 H :    0.090224
  21 H :    0.097283
  22 H :    0.093385
  23 H :    0.124322
  24 H :    0.099310
  25 H :    0.132742
  26 H :    0.130295
  27 H :    0.094983
  28 H :    0.197508
  29 H :    0.194532
  30 H :    0.150480
  31 H :    0.151719
  32 H :    0.160236
  33 H :    0.130071
  34 H :    0.240631
  35 H :    0.165050
Sum of atomic charges:   -0.0000000

LOEWDIN ATOMIC CHARGES
----------------------
   0 C :    0.106270
   1 C :   -0.014445
   2 O :    0.308794
   3 C :   -0.414041
   4 O :    0.097324
   5 C :   -0.095068
   6 C :   -0.058962
   7 C :    0.131570
   8 N :    0.406545
   9 C :   -0.456582
  10 S :   -0.035267
  11 N :    0.396454
  12 C :   -0.052453
  13 C :   -0.038574
  14 C :    0.014197
  15 C :    0.038333
  16 C :   -0.001944
  17 C :   -0.189535
  18 O :    0.395268
  19 C :    0.031588
  20 H :   -0.031165
  21 H :   -0.026079
  22 H :   -0.024681
  23 H :   -0.027247
  24 H :   -0.029568
  25 H :   -0.004378
  26 H :   -0.004059
  27 H :   -0.023415
  28 H :   -0.057560
  29 H :   -0.064571
  30 H :   -0.010802
  31 H :   -0.031210
  32 H :   -0.021577
  33 H :   -0.035623
  34 H :   -0.153950
  35 H :   -0.023588

  Mayer bond orders larger than 0.100000
B(  0-C ,  1-C ) :   0.9726 B(  0-C , 20-H ) :   0.9793 B(  0-C , 21-H ) :   0.9772
B(  0-C , 22-H ) :   0.9772 B(  1-C ,  2-O ) :   0.8870 B(  1-C , 23-H ) :   0.9785
B(  1-C , 24-H ) :   0.9736 B(  2-O ,  3-C ) :   1.1693 B(  3-C ,  4-O ) :   1.9821
B(  3-C ,  5-C ) :   1.0541 B(  5-C ,  6-C ) :   1.6574 B(  5-C , 12-C ) :   0.9726
B(  6-C ,  7-C ) :   0.9673 B(  6-C ,  8-N ) :   1.1632 B(  7-C , 25-H ) :   0.9598
B(  7-C , 26-H ) :   0.9609 B(  7-C , 27-H ) :   0.9904 B(  8-N ,  9-C ) :   1.1830
B(  8-N , 28-H ) :   0.9479 B(  9-C , 10-S ) :   1.6080 B(  9-C , 11-N ) :   1.3045
B( 11-N , 12-C ) :   0.9884 B( 11-N , 29-H ) :   0.9517 B( 12-C , 13-C ) :   0.9348
B( 12-C , 30-H ) :   1.0032 B( 13-C , 14-C ) :   1.3581 B( 13-C , 19-C ) :   1.3826
B( 14-C , 15-C ) :   1.3895 B( 14-C , 31-H ) :   0.9707 B( 15-C , 16-C ) :   1.3641
B( 15-C , 32-H ) :   0.9704 B( 16-C , 17-C ) :   1.3321 B( 16-C , 33-H ) :   0.9850
B( 17-C , 18-O ) :   1.1105 B( 17-C , 19-C ) :   1.3725 B( 18-O , 34-H ) :   0.9799
B( 19-C , 35-H ) :   0.9581

MP2 TOTAL ENERGY:    -1274.349371581 Eh
FINAL SINGLE POINT ENERGY     -1274.349371580630

DIPOLE MOMENT
-------------
                                X             Y             Z
Electronic contribution:      8.83112      11.06895       8.44686
Nuclear contribution   :    -10.02214     -12.65758      -8.81803
                        -----------------------------------------
Total Dipole Moment    :     -1.19102      -1.58863      -0.37117
                        -----------------------------------------
Magnitude (a.u.)       :      2.01991
Magnitude (Debye)      :      5.13420

Rotational constants in cm-1:     0.011658     0.008484     0.006166
Rotational constants in MHz :   349.486418   254.330617   184.863908

                             ****ORCA TERMINATED NORMALLY****
TOTAL RUN TIME: 0 days 1 hours 49 minutes 42 seconds 927 msec
