                         Program Version 4.2.0 -  RELEASE  -
|  1> ! ri-mp2 cc-pvtz cc-pvtz/c TightSCF  NoKeepInts
|  2>
|  3> %scf
|  4>   MaxCore 4096
|  5> end
|  6> *xyz  0  1
|  7>     C       15.2808403   15.1526598   17.3469928
|  8>     C       15.5878904   15.2958161   15.8405259
|  9>     O       16.9838181   15.5323593   15.5262636
| 10>     C       17.9870838   15.6737196   16.4469998
| 11>     O       18.8080216   14.7855315   16.5884279
| 12>     C       17.9168639   16.8494412   17.3817095
| 13>     C       17.3336895   18.0389429   17.0822424
| 14>     C       16.6725690   18.4594085   15.7860055
| 15>     N       17.3957091   19.0931125   17.9986973
| 16>     C       18.1700380   19.1031651   19.1284517
| 17>     S       18.2918274   20.4438774   20.0886428
| 18>     N       18.8381836   17.9415364   19.4211203
| 19>     C       18.6446279   16.6581099   18.7193539
| 20>     C       17.9185881   15.6554535   19.6139748
| 21>     C       18.3756267   14.3276737   19.7055533
| 22>     C       17.7074092   13.3922638   20.5128922
| 23>     C       16.5705594   13.7861805   21.2383601
| 24>     C       16.1112511   15.1070282   21.1515846
| 25>     O       15.0078653   15.4886938   21.8426175
| 26>     C       16.7787734   16.0361839   20.3474945
| 27>     H       15.9433157   14.4164464   17.8203710
| 28>     H       14.2506759   14.8032983   17.4867353
| 29>     H       15.3701026   16.1101620   17.8711972
| 30>     H       15.2855376   14.3649148   15.3430692
| 31>     H       14.9688959   16.0951844   15.4158695
| 32>     H       15.5986619   18.2438410   15.8029488
| 33>     H       17.1166291   17.9535603   14.9201321
| 34>     H       16.7904010   19.5346932   15.6016099
| 35>     H       16.9198102   19.9581145   17.7966456
| 36>     H       19.3863804   17.9667599   20.2715638
| 37>     H       19.6430990   16.2520348   18.4998682
| 38>     H       19.2460908   14.0147431   19.1328991
| 39>     H       18.0693153   12.3669951   20.5682633
| 40>     H       16.0498781   13.0659042   21.8606389
| 41>     H       14.7244214   14.7319482   22.3775795
| 42>     H       16.4025493   17.0522422   20.2966982
| 43> *
| 44>
| 45>                          ****END OF INPUT****

CARTESIAN COORDINATES (ANGSTROEM)
---------------------------------
  C     15.280840   15.152660   17.346993
  C     15.587890   15.295816   15.840526
  O     16.983818   15.532359   15.526264
  C     17.987084   15.673720   16.447000
  O     18.808022   14.785531   16.588428
  C     17.916864   16.849441   17.381709
  C     17.333689   18.038943   17.082242
  C     16.672569   18.459408   15.786005
  N     17.395709   19.093112   17.998697
  C     18.170038   19.103165   19.128452
  S     18.291827   20.443877   20.088643
  N     18.838184   17.941536   19.421120
  C     18.644628   16.658110   18.719354
  C     17.918588   15.655453   19.613975
  C     18.375627   14.327674   19.705553
  C     17.707409   13.392264   20.512892
  C     16.570559   13.786180   21.238360
  C     16.111251   15.107028   21.151585
  O     15.007865   15.488694   21.842617
  C     16.778773   16.036184   20.347494
  H     15.943316   14.416446   17.820371
  H     14.250676   14.803298   17.486735
  H     15.370103   16.110162   17.871197
  H     15.285538   14.364915   15.343069
  H     14.968896   16.095184   15.415869
  H     15.598662   18.243841   15.802949
  H     17.116629   17.953560   14.920132
  H     16.790401   19.534693   15.601610
  H     16.919810   19.958115   17.796646
  H     19.386380   17.966760   20.271564
  H     19.643099   16.252035   18.499868
  H     19.246091   14.014743   19.132899
  H     18.069315   12.366995   20.568263
  H     16.049878   13.065904   21.860639
  H     14.724421   14.731948   22.377579
  H     16.402549   17.052242   20.296698

 Total Charge           Charge          ....    0
 Multiplicity           Mult            ....    1
 Number of Electrons    NEL             ....  154
 Basis Dimension        Dim             ....  828

ORBITAL ENERGIES
----------------

  NO   OCC          E(Eh)            E(eV)
   0   2.0000     -91.891043     -2500.4824
   1   2.0000     -20.596432      -560.4574
   2   2.0000     -20.587253      -560.2076
   3   2.0000     -20.550844      -559.2169
   4   2.0000     -15.630991      -425.3409
   5   2.0000     -15.609767      -424.7634
   6   2.0000     -11.397096      -310.1307
   7   2.0000     -11.386262      -309.8359
   8   2.0000     -11.338324      -308.5315
   9   2.0000     -11.312569      -307.8307
  10   2.0000     -11.309933      -307.7589
  11   2.0000     -11.309551      -307.7485
  12   2.0000     -11.265205      -306.5418
  13   2.0000     -11.264822      -306.5314
  14   2.0000     -11.258547      -306.3606
  15   2.0000     -11.252677      -306.2009
  16   2.0000     -11.242474      -305.9233
  17   2.0000     -11.237999      -305.8015
  18   2.0000     -11.234409      -305.7038
  19   2.0000     -11.233098      -305.6681
  20   2.0000      -8.896110      -242.0755
  21   2.0000      -6.577687      -178.9880
  22   2.0000      -6.575675      -178.9332
  23   2.0000      -6.575088      -178.9173
  24   2.0000      -1.444315       -39.3018
  25   2.0000      -1.416252       -38.5382
  26   2.0000      -1.355121       -36.8747
  27   2.0000      -1.342771       -36.5387
  28   2.0000      -1.240407       -33.7532
  29   2.0000      -1.156950       -31.4822
  30   2.0000      -1.122732       -30.5511
  31   2.0000      -1.045177       -28.4407
  32   2.0000      -1.036954       -28.2170
  33   2.0000      -1.015039       -27.6206
  34   2.0000      -1.004211       -27.3260
  35   2.0000      -0.988722       -26.9045
  36   2.0000      -0.926534       -25.2123
  37   2.0000      -0.899290       -24.4709
  38   2.0000      -0.853180       -23.2162
  39   2.0000      -0.840413       -22.8688
  40   2.0000      -0.832951       -22.6658
  41   2.0000      -0.823528       -22.4093
  42   2.0000      -0.744741       -20.2654
  43   2.0000      -0.731036       -19.8925
  44   2.0000      -0.729261       -19.8442
  45   2.0000      -0.694093       -18.8872
  46   2.0000      -0.687381       -18.7046
  47   2.0000      -0.679376       -18.4868
  48   2.0000      -0.674497       -18.3540
  49   2.0000      -0.663243       -18.0478
  50   2.0000      -0.653153       -17.7732
  51   2.0000      -0.651117       -17.7178
  52   2.0000      -0.641126       -17.4459
  53   2.0000      -0.624513       -16.9939
  54   2.0000      -0.606869       -16.5137
  55   2.0000      -0.604434       -16.4475
  56   2.0000      -0.600572       -16.3424
  57   2.0000      -0.584012       -15.8918
  58   2.0000      -0.575421       -15.6580
  59   2.0000      -0.564549       -15.3622
  60   2.0000      -0.558273       -15.1914
  61   2.0000      -0.548895       -14.9362
  62   2.0000      -0.542482       -14.7617
  63   2.0000      -0.535469       -14.5709
  64   2.0000      -0.521277       -14.1847
  65   2.0000      -0.512806       -13.9542
  66   2.0000      -0.500135       -13.6094
  67   2.0000      -0.488761       -13.2999
  68   2.0000      -0.486249       -13.2315
  69   2.0000      -0.471598       -12.8328
  70   2.0000      -0.456378       -12.4187
  71   2.0000      -0.448176       -12.1955
  72   2.0000      -0.357426        -9.7261
  73   2.0000      -0.347564        -9.4577
  74   2.0000      -0.330266        -8.9870
  75   2.0000      -0.321187        -8.7399
  76   2.0000      -0.318428        -8.6649
  77   0.0000       0.071665         1.9501
  78   0.0000       0.107745         2.9319
  79   0.0000       0.116913         3.1814
  80   0.0000       0.131680         3.5832
  81   0.0000       0.135690         3.6923

MULLIKEN ATOMIC CHARGES
-----------------------
   0 C :   -0.347376
   1 C :    0.036562
   2 O :   -0.367332
   3 C :    0.473064
   4 O :   -0.388635
   5 C :   -0.236579
   6 C :    0.164985
   7 C :   -0.329807
   8 N :   -0.127721
   9 C :    0.189836
  10 S :   -0.436219
  11 N :   -0.204738
  12 C :    0.053937
  13 C :    0.037232
  14 C :   -0.188297
  15 C :   -0.134324
  16 C :   -0.279740
  17 C :    0.318505
  18 O :   -0.359465
  19 C :   -0.278697
  20 H :    0.132293
  21 H :    0.122511
  22 H :    0.109410
  23 H :    0.124741
  24 H :    0.093450
  25 H :    0.118798
  26 H :    0.147532
  27 H :    0.122789
  28 H :    0.197904
  29 H :    0.196025
  30 H :    0.161220
  31 H :    0.168333
  32 H :    0.162761
  33 H :    0.131191
  34 H :    0.240898
  35 H :    0.174950
Sum of atomic charges:   -0.0000000

LOEWDIN ATOMIC CHARGES
----------------------
   0 C :    0.105205
   1 C :   -0.014836
   2 O :    0.283679
   3 C :   -0.420988
   4 O :    0.125900
   5 C :   -0.089597
   6 C :   -0.075759
   7 C :    0.127795
   8 N :    0.404721
   9 C :   -0.460551
  10 S :   -0.034240
  11 N :    0.397894
  12 C :   -0.045083
  13 C :   -0.042015
  14 C :    0.020487
  15 C :    0.041218
  16 C :   -0.002162
  17 C :   -0.193888
  18 O :    0.394277
  19 C :    0.029599
  20 H :   -0.018105
  21 H :   -0.021198
  22 H :   -0.034628
  23 H :   -0.022195
  24 H :   -0.035457
  25 H :   -0.017483
  26 H :   -0.006294
  27 H :   -0.014693
  28 H :   -0.057858
  29 H :   -0.063188
  30 H :   -0.002819
  31 H :   -0.023033
  32 H :   -0.019633
  33 H :   -0.035404
  34 H :   -0.153890
  35 H :   -0.025777

  Mayer bond orders larger than 0.100000
B(  0-C ,  1-C ) :   0.9630 B(  0-C , 20-H ) :   0.9651 B(  0-C , 21-H ) :   0.9751
B(  0-C , 22-H ) :   0.9701 B(  1-C ,  2-O ) :   0.8955 B(  1-C , 23-H ) :   0.9825
B(  1-C , 24-H ) :   0.9774 B(  2-O ,  3-C ) :   1.1283 B(  3-C ,  4-O ) :   2.0621
B(  3-C ,  5-C ) :   0.9733 B(  5-C ,  6-C ) :   1.6644 B(  5-C , 12-C ) :   0.9631
B(  6-C ,  7-C ) :   0.9434 B(  6-C ,  8-N ) :   1.1301 B(  7-C , 25-H ) :   0.9659
B(  7-C , 26-H ) :   0.9674 B(  7-C , 27-H ) :   0.9851 B(  8-N ,  9-C ) :   1.1822
B(  8-N , 28-H ) :   0.9500 B(  9-C , 10-S ) :   1.6150 B(  9-C , 11-N ) :   1.2978
B( 11-N , 12-C ) :   0.9877 B( 11-N , 29-H ) :   0.9515 B( 12-C , 13-C ) :   0.9472
B( 12-C , 30-H ) :   0.9984 B( 13-C , 14-C ) :   1.3875 B( 13-C , 19-C ) :   1.3440
B( 14-C , 15-C ) :   1.3965 B( 14-C , 31-H ) :   0.9592 B( 15-C , 16-C ) :   1.3611
B( 15-C , 32-H ) :   0.9706 B( 16-C , 17-C ) :   1.3307 B( 16-C , 33-H ) :   0.9849
B( 17-C , 18-O ) :   1.1102 B( 17-C , 19-C ) :   1.3717 B( 18-O , 34-H ) :   0.9800
B( 19-C , 35-H ) :   0.9578

MP2 TOTAL ENERGY:    -1274.329338504 Eh
FINAL SINGLE POINT ENERGY     -1274.329338504391

DIPOLE MOMENT
-------------
                                X             Y             Z
Electronic contribution:      9.46804       7.13431       6.31020
Nuclear contribution   :    -11.01633      -8.17196      -6.89667
                        -----------------------------------------
Total Dipole Moment    :     -1.54828      -1.03765      -0.58646
                        -----------------------------------------
Magnitude (a.u.)       :      1.95393
Magnitude (Debye)      :      4.96649

Rotational constants in cm-1:     0.011405     0.009872     0.006806
Rotational constants in MHz :   341.924053   295.969111   204.035864

                             ****ORCA TERMINATED NORMALLY****
TOTAL RUN TIME: 0 days 2 hours 6 minutes 27 seconds 294 msec
