                         Program Version 5.0.0 -  RELEASE  -
|  1> ! ri-mp2 cc-pvtz cc-pvtz/c TightSCF NoKeepInts
|  2>
|  3> %scf
|  4>   MaxCore 4096
|  5> end
|  6> *xyz  0  1
|  7>     C       14.8945405   14.6945378   17.4264513
|  8>     C       15.6022625   15.4783950   16.3094184
|  9>     O       16.9582841   14.9974356   16.2338912
| 10>     C       18.1045937   15.7253211   16.4425634
| 11>     O       19.1715889   15.1472584   16.3514174
| 12>     C       17.9857418   16.8896506   17.3705116
| 13>     C       17.5105695   18.0882772   16.9592046
| 14>     C       17.0176773   18.4461491   15.5723256
| 15>     N       17.5400449   19.1844780   17.8236602
| 16>     C       18.1692758   19.1972468   19.0411745
| 17>     S       18.2395355   20.5649001   19.9678027
| 18>     N       18.7430813   18.0185408   19.4504826
| 19>     C       18.6171043   16.7215093   18.7544528
| 20>     C       17.8598628   15.6982695   19.5972438
| 21>     C       18.2218796   14.3397859   19.5363850
| 22>     C       17.5381393   13.3794033   20.3000272
| 23>     C       16.4820804   13.7789927   21.1360574
| 24>     C       16.1149414   15.1297838   21.1988182
| 25>     O       15.0871331   15.5168082   21.9952298
| 26>     C       16.7942191   16.0839429   20.4339916
| 27>     H       15.3659813   14.8844977   18.3953785
| 28>     H       14.9407123   13.6160110   17.2301119
| 29>     H       13.8398838   14.9866021   17.4966589
| 30>     H       15.0938795   15.2912802   15.3546660
| 31>     H       15.5306578   16.5453751   16.5310898
| 32>     H       17.1300138   17.6204211   14.8593441
| 33>     H       17.5885710   19.2912096   15.1659907
| 34>     H       15.9591928   18.7339363   15.5896546
| 35>     H       17.1461462   20.0651410   17.5315208
| 36>     H       19.1916117   18.0540175   20.3572437
| 37>     H       19.6352554   16.3324025   18.6041768
| 38>     H       19.0328314   14.0252451   18.8822920
| 39>     H       17.8270878   12.3315445   20.2384382
| 40>     H       15.9509467   13.0399106   21.7266765
| 41>     H       14.7786704   14.7323342   22.4734285
| 42>     H       16.4830024   17.1213852   20.4962196
| 43> *
| 44>
| 45>                          ****END OF INPUT****

CARTESIAN COORDINATES (ANGSTROEM)
---------------------------------
  C     14.894540   14.694538   17.426451
  C     15.602262   15.478395   16.309418
  O     16.958284   14.997436   16.233891
  C     18.104594   15.725321   16.442563
  O     19.171589   15.147258   16.351417
  C     17.985742   16.889651   17.370512
  C     17.510569   18.088277   16.959205
  C     17.017677   18.446149   15.572326
  N     17.540045   19.184478   17.823660
  C     18.169276   19.197247   19.041175
  S     18.239535   20.564900   19.967803
  N     18.743081   18.018541   19.450483
  C     18.617104   16.721509   18.754453
  C     17.859863   15.698269   19.597244
  C     18.221880   14.339786   19.536385
  C     17.538139   13.379403   20.300027
  C     16.482080   13.778993   21.136057
  C     16.114941   15.129784   21.198818
  O     15.087133   15.516808   21.995230
  C     16.794219   16.083943   20.433992
  H     15.365981   14.884498   18.395378
  H     14.940712   13.616011   17.230112
  H     13.839884   14.986602   17.496659
  H     15.093879   15.291280   15.354666
  H     15.530658   16.545375   16.531090
  H     17.130014   17.620421   14.859344
  H     17.588571   19.291210   15.165991
  H     15.959193   18.733936   15.589655
  H     17.146146   20.065141   17.531521
  H     19.191612   18.054018   20.357244
  H     19.635255   16.332403   18.604177
  H     19.032831   14.025245   18.882292
  H     17.827088   12.331544   20.238438
  H     15.950947   13.039911   21.726676
  H     14.778670   14.732334   22.473429
  H     16.483002   17.121385   20.496220

 Total Charge           Charge          ....    0
 Multiplicity           Mult            ....    1
 Number of Electrons    NEL             ....  154
 Basis Dimension        Dim             ....  828

ORBITAL ENERGIES
----------------

  NO   OCC          E(Eh)            E(eV)
   0   2.0000     -91.889816     -2500.4490
   1   2.0000     -20.602765      -560.6297
   2   2.0000     -20.598324      -560.5089
   3   2.0000     -20.551708      -559.2404
   4   2.0000     -15.626340      -425.2143
   5   2.0000     -15.611493      -424.8103
   6   2.0000     -11.399620      -310.1994
   7   2.0000     -11.386507      -309.8426
   8   2.0000     -11.328790      -308.2720
   9   2.0000     -11.315835      -307.9195
  10   2.0000     -11.315407      -307.9079
  11   2.0000     -11.304715      -307.6169
  12   2.0000     -11.272152      -306.7309
  13   2.0000     -11.267508      -306.6045
  14   2.0000     -11.263385      -306.4923
  15   2.0000     -11.255808      -306.2861
  16   2.0000     -11.244544      -305.9796
  17   2.0000     -11.240684      -305.8746
  18   2.0000     -11.237470      -305.7871
  19   2.0000     -11.225885      -305.4719
  20   2.0000      -8.894928      -242.0433
  21   2.0000      -6.576520      -178.9562
  22   2.0000      -6.574490      -178.9010
  23   2.0000      -6.573918      -178.8854
  24   2.0000      -1.450263       -39.4637
  25   2.0000      -1.418148       -38.5898
  26   2.0000      -1.360181       -37.0124
  27   2.0000      -1.340258       -36.4703
  28   2.0000      -1.239941       -33.7405
  29   2.0000      -1.160017       -31.5657
  30   2.0000      -1.125803       -30.6347
  31   2.0000      -1.048718       -28.5371
  32   2.0000      -1.038790       -28.2669
  33   2.0000      -1.018199       -27.7066
  34   2.0000      -1.005392       -27.3581
  35   2.0000      -0.989573       -26.9276
  36   2.0000      -0.927942       -25.2506
  37   2.0000      -0.886265       -24.1165
  38   2.0000      -0.854944       -23.2642
  39   2.0000      -0.841441       -22.8968
  40   2.0000      -0.835397       -22.7323
  41   2.0000      -0.834183       -22.6993
  42   2.0000      -0.756762       -20.5926
  43   2.0000      -0.739769       -20.1301
  44   2.0000      -0.730772       -19.8853
  45   2.0000      -0.696391       -18.9498
  46   2.0000      -0.689212       -18.7544
  47   2.0000      -0.683010       -18.5856
  48   2.0000      -0.676028       -18.3957
  49   2.0000      -0.663244       -18.0478
  50   2.0000      -0.653755       -17.7896
  51   2.0000      -0.640663       -17.4333
  52   2.0000      -0.636908       -17.3312
  53   2.0000      -0.618834       -16.8393
  54   2.0000      -0.611602       -16.6425
  55   2.0000      -0.606498       -16.5037
  56   2.0000      -0.602148       -16.3853
  57   2.0000      -0.588713       -16.0197
  58   2.0000      -0.577370       -15.7110
  59   2.0000      -0.568253       -15.4630
  60   2.0000      -0.563357       -15.3297
  61   2.0000      -0.557419       -15.1681
  62   2.0000      -0.539042       -14.6681
  63   2.0000      -0.534381       -14.5413
  64   2.0000      -0.518106       -14.0984
  65   2.0000      -0.512959       -13.9583
  66   2.0000      -0.504019       -13.7151
  67   2.0000      -0.501836       -13.6557
  68   2.0000      -0.485152       -13.2017
  69   2.0000      -0.469283       -12.7698
  70   2.0000      -0.453904       -12.3514
  71   2.0000      -0.449515       -12.2319
  72   2.0000      -0.358068        -9.7435
  73   2.0000      -0.350535        -9.5385
  74   2.0000      -0.329523        -8.9668
  75   2.0000      -0.323572        -8.8048
  76   2.0000      -0.318488        -8.6665
  77   0.0000       0.089098         2.4245
  78   0.0000       0.105172         2.8619
  79   0.0000       0.109461         2.9786
  80   0.0000       0.128685         3.5017
  81   0.0000       0.130443         3.5495

MULLIKEN ATOMIC CHARGES
-----------------------
   0 C :   -0.267307
   1 C :    0.015963
   2 O :   -0.310898
   3 C :    0.394595
   4 O :   -0.379384
   5 C :   -0.160923
   6 C :    0.118743
   7 C :   -0.321128
   8 N :   -0.136474
   9 C :    0.205467
  10 S :   -0.441647
  11 N :   -0.227001
  12 C :    0.066412
  13 C :    0.008483
  14 C :   -0.194800
  15 C :   -0.141129
  16 C :   -0.264888
  17 C :    0.302517
  18 O :   -0.359786
  19 C :   -0.246090
  20 H :    0.109581
  21 H :    0.103879
  22 H :    0.091722
  23 H :    0.113650
  24 H :    0.087002
  25 H :    0.120266
  26 H :    0.141202
  27 H :    0.120704
  28 H :    0.195271
  29 H :    0.202458
  30 H :    0.169408
  31 H :    0.171015
  32 H :    0.163773
  33 H :    0.132288
  34 H :    0.240853
  35 H :    0.176202
Sum of atomic charges:   -0.0000000

LOEWDIN ATOMIC CHARGES
----------------------
   0 C :    0.110500
   1 C :   -0.023310
   2 O :    0.315785
   3 C :   -0.418861
   4 O :    0.126393
   5 C :   -0.078273
   6 C :   -0.109307
   7 C :    0.122219
   8 N :    0.401034
   9 C :   -0.456693
  10 S :   -0.038528
  11 N :    0.398092
  12 C :   -0.042058
  13 C :   -0.042770
  14 C :    0.022148
  15 C :    0.045778
  16 C :   -0.001275
  17 C :   -0.193715
  18 O :    0.395967
  19 C :    0.024565
  20 H :   -0.025914
  21 H :   -0.024486
  22 H :   -0.027190
  23 H :   -0.028618
  24 H :   -0.039817
  25 H :   -0.009705
  26 H :   -0.008639
  27 H :   -0.017071
  28 H :   -0.058218
  29 H :   -0.063602
  30 H :   -0.001460
  31 H :   -0.021623
  32 H :   -0.018400
  33 H :   -0.034978
  34 H :   -0.153241
  35 H :   -0.024731

  Mayer bond orders larger than 0.100000
B(  0-C ,  1-C ) :   0.9776 B(  0-C , 20-H ) :   0.9702 B(  0-C , 21-H ) :   0.9801
B(  0-C , 22-H ) :   0.9763 B(  1-C ,  2-O ) :   0.9179 B(  1-C , 23-H ) :   0.9819
B(  1-C , 24-H ) :   0.9626 B(  2-O ,  3-C ) :   1.1506 B(  3-C ,  4-O ) :   2.0842
B(  3-C ,  5-C ) :   0.9190 B(  5-C ,  6-C ) :   1.7021 B(  5-C , 12-C ) :   0.9586
B(  6-C ,  7-C ) :   0.9456 B(  6-C ,  8-N ) :   1.1058 B(  7-C , 25-H ) :   0.9818
B(  7-C , 26-H ) :   0.9689 B(  7-C , 27-H ) :   0.9671 B(  8-N ,  9-C ) :   1.1987
B(  8-N , 28-H ) :   0.9528 B(  9-C , 10-S ) :   1.6079 B(  9-C , 11-N ) :   1.2871
B( 11-N , 12-C ) :   0.9836 B( 11-N , 29-H ) :   0.9472 B( 12-C , 13-C ) :   0.9496
B( 12-C , 30-H ) :   0.9954 B( 13-C , 14-C ) :   1.3897 B( 13-C , 19-C ) :   1.3493
B( 14-C , 15-C ) :   1.3997 B( 14-C , 31-H ) :   0.9600 B( 15-C , 16-C ) :   1.3568
B( 15-C , 32-H ) :   0.9701 B( 16-C , 17-C ) :   1.3346 B( 16-C , 33-H ) :   0.9849
B( 17-C , 18-O ) :   1.1093 B( 17-C , 19-C ) :   1.3662 B( 18-O , 34-H ) :   0.9796
B( 19-C , 35-H ) :   0.9576

MP2 TOTAL ENERGY:    -1274.327453296 Eh
FINAL SINGLE POINT ENERGY     -1274.327453295802

DIPOLE MOMENT
-------------
                                X             Y             Z
Electronic contribution:      9.88007       7.66728       6.37660
Nuclear contribution   :    -11.45320      -8.67938      -7.07337
                        -----------------------------------------
Total Dipole Moment    :     -1.57313      -1.01209      -0.69677
                        -----------------------------------------
Magnitude (a.u.)       :      1.99613
Magnitude (Debye)      :      5.07377

Rotational constants in cm-1:     0.012002     0.009379     0.006712
Rotational constants in MHz :   359.809804   281.161587   201.215405

                             ****ORCA TERMINATED NORMALLY****
TOTAL RUN TIME: 0 days 1 hours 42 minutes 9 seconds 699 msec
