                         Program Version 4.2.0 -  RELEASE  -
|  1> ! ri-mp2 cc-pvtz cc-pvtz/c TightSCF  NoKeepInts
|  2>
|  3> %scf
|  4>   MaxCore 4096
|  5> end
|  6> *xyz  0  1
|  7>     C       15.3258097   13.8856762   16.3216638
|  8>     C       15.4482850   15.0951890   15.3662782
|  9>     O       16.4328066   16.0828163   15.7640707
| 10>     C       17.4657267   15.8608045   16.6328204
| 11>     O       18.0429477   14.7901978   16.7213763
| 12>     C       17.7898388   17.0196187   17.5335003
| 13>     C       17.3597087   18.2977492   17.3605783
| 14>     C       16.4959038   18.8543002   16.2470563
| 15>     N       17.7742179   19.2955276   18.2494728
| 16>     C       18.7116969   19.1306046   19.2343613
| 17>     S       19.2327356   20.3964322   20.1627254
| 18>     N       19.1942682   17.8592119   19.4110965
| 19>     C       18.6722054   16.6577288   18.7338830
| 20>     C       17.9118422   15.7742540   19.7199293
| 21>     C       18.2527529   14.4173434   19.8703288
| 22>     C       17.5497988   13.5968848   20.7683656
| 23>     C       16.4953862   14.1368775   21.5241057
| 24>     C       16.1498855   15.4868178   21.3747866
| 25>     O       15.1274494   16.0095273   22.0977684
| 26>     C       16.8508463   16.3007142   20.4794064
| 27>     H       16.1797760   13.2049178   16.2182354
| 28>     H       14.4219145   13.3105250   16.0880044
| 29>     H       15.2576752   14.2111898   17.3676211
| 30>     H       15.7065638   14.7176851   14.3683073
| 31>     H       14.4713387   15.5885144   15.2842221
| 32>     H       15.4752972   18.4576881   16.3135902
| 33>     H       16.9031759   18.5814208   15.2654376
| 34>     H       16.4253485   19.9484908   16.2715909
| 35>     H       17.4321891   20.2363115   18.1363418
| 36>     H       19.8616438   17.7571391   20.1648104
| 37>     H       19.5349109   16.0896239   18.3565434
| 38>     H       19.0558150   13.9927140   19.2726323
| 39>     H       17.8199143   12.5473516   20.8701236
| 40>     H       15.9486798   13.5063290   22.2172431
| 41>     H       14.8004515   15.3106507   22.6838202
| 42>     H       16.5681936   17.3431724   20.3819019
| 43> *
| 44>
| 45>                          ****END OF INPUT****

CARTESIAN COORDINATES (ANGSTROEM)
---------------------------------
  C     15.325810   13.885676   16.321664
  C     15.448285   15.095189   15.366278
  O     16.432807   16.082816   15.764071
  C     17.465727   15.860805   16.632820
  O     18.042948   14.790198   16.721376
  C     17.789839   17.019619   17.533500
  C     17.359709   18.297749   17.360578
  C     16.495904   18.854300   16.247056
  N     17.774218   19.295528   18.249473
  C     18.711697   19.130605   19.234361
  S     19.232736   20.396432   20.162725
  N     19.194268   17.859212   19.411096
  C     18.672205   16.657729   18.733883
  C     17.911842   15.774254   19.719929
  C     18.252753   14.417343   19.870329
  C     17.549799   13.596885   20.768366
  C     16.495386   14.136878   21.524106
  C     16.149885   15.486818   21.374787
  O     15.127449   16.009527   22.097768
  C     16.850846   16.300714   20.479406
  H     16.179776   13.204918   16.218235
  H     14.421914   13.310525   16.088004
  H     15.257675   14.211190   17.367621
  H     15.706564   14.717685   14.368307
  H     14.471339   15.588514   15.284222
  H     15.475297   18.457688   16.313590
  H     16.903176   18.581421   15.265438
  H     16.425348   19.948491   16.271591
  H     17.432189   20.236311   18.136342
  H     19.861644   17.757139   20.164810
  H     19.534911   16.089624   18.356543
  H     19.055815   13.992714   19.272632
  H     17.819914   12.547352   20.870124
  H     15.948680   13.506329   22.217243
  H     14.800451   15.310651   22.683820
  H     16.568194   17.343172   20.381902

 Total Charge           Charge          ....    0
 Multiplicity           Mult            ....    1
 Number of Electrons    NEL             ....  154
 Basis Dimension        Dim             ....  828

ORBITAL ENERGIES
----------------

  NO   OCC          E(Eh)            E(eV)
   0   2.0000     -91.887906     -2500.3970
   1   2.0000     -20.596476      -560.4586
   2   2.0000     -20.592602      -560.3532
   3   2.0000     -20.545372      -559.0680
   4   2.0000     -15.628080      -425.2617
   5   2.0000     -15.606601      -424.6772
   6   2.0000     -11.397012      -310.1285
   7   2.0000     -11.382732      -309.7399
   8   2.0000     -11.335954      -308.4670
   9   2.0000     -11.308500      -307.7199
  10   2.0000     -11.306325      -307.6607
  11   2.0000     -11.305153      -307.6289
  12   2.0000     -11.259863      -306.3965
  13   2.0000     -11.258384      -306.3562
  14   2.0000     -11.254117      -306.2401
  15   2.0000     -11.248534      -306.0882
  16   2.0000     -11.238280      -305.8091
  17   2.0000     -11.234335      -305.7018
  18   2.0000     -11.231086      -305.6134
  19   2.0000     -11.226373      -305.4851
  20   2.0000      -8.892971      -241.9901
  21   2.0000      -6.574550      -178.9026
  22   2.0000      -6.572542      -178.8480
  23   2.0000      -6.571957      -178.8321
  24   2.0000      -1.446636       -39.3650
  25   2.0000      -1.412361       -38.4323
  26   2.0000      -1.355558       -36.8866
  27   2.0000      -1.339083       -36.4383
  28   2.0000      -1.236787       -33.6547
  29   2.0000      -1.152803       -31.3694
  30   2.0000      -1.118946       -30.4481
  31   2.0000      -1.041956       -28.3531
  32   2.0000      -1.033901       -28.1339
  33   2.0000      -1.010271       -27.4909
  34   2.0000      -0.997534       -27.1443
  35   2.0000      -0.982848       -26.7447
  36   2.0000      -0.921711       -25.0810
  37   2.0000      -0.897540       -24.4233
  38   2.0000      -0.847957       -23.0741
  39   2.0000      -0.836059       -22.7503
  40   2.0000      -0.828712       -22.5504
  41   2.0000      -0.817231       -22.2380
  42   2.0000      -0.743417       -20.2294
  43   2.0000      -0.729150       -19.8412
  44   2.0000      -0.725009       -19.7285
  45   2.0000      -0.690593       -18.7920
  46   2.0000      -0.684721       -18.6322
  47   2.0000      -0.676893       -18.4192
  48   2.0000      -0.672666       -18.3042
  49   2.0000      -0.662221       -18.0199
  50   2.0000      -0.649730       -17.6801
  51   2.0000      -0.644148       -17.5282
  52   2.0000      -0.633359       -17.2346
  53   2.0000      -0.617249       -16.7962
  54   2.0000      -0.601143       -16.3579
  55   2.0000      -0.600012       -16.3272
  56   2.0000      -0.596086       -16.2203
  57   2.0000      -0.577005       -15.7011
  58   2.0000      -0.573955       -15.6181
  59   2.0000      -0.564851       -15.3704
  60   2.0000      -0.555599       -15.1186
  61   2.0000      -0.543313       -14.7843
  62   2.0000      -0.537965       -14.6388
  63   2.0000      -0.524675       -14.2771
  64   2.0000      -0.516813       -14.0632
  65   2.0000      -0.510826       -13.9003
  66   2.0000      -0.501495       -13.6464
  67   2.0000      -0.495555       -13.4847
  68   2.0000      -0.478849       -13.0301
  69   2.0000      -0.463049       -12.6002
  70   2.0000      -0.455781       -12.4024
  71   2.0000      -0.448735       -12.2107
  72   2.0000      -0.353643        -9.6231
  73   2.0000      -0.344778        -9.3819
  74   2.0000      -0.327091        -8.9006
  75   2.0000      -0.315968        -8.5979
  76   2.0000      -0.314229        -8.5506
  77   0.0000       0.075351         2.0504
  78   0.0000       0.111689         3.0392
  79   0.0000       0.121632         3.3098
  80   0.0000       0.135027         3.6743
  81   0.0000       0.140181         3.8145

MULLIKEN ATOMIC CHARGES
-----------------------
   0 C :   -0.309833
   1 C :    0.054843
   2 O :   -0.360395
   3 C :    0.447203
   4 O :   -0.421541
   5 C :   -0.178683
   6 C :    0.143099
   7 C :   -0.281980
   8 N :   -0.121905
   9 C :    0.201634
  10 S :   -0.439744
  11 N :   -0.199266
  12 C :    0.043839
  13 C :    0.053706
  14 C :   -0.165696
  15 C :   -0.133402
  16 C :   -0.280368
  17 C :    0.312334
  18 O :   -0.358848
  19 C :   -0.276258
  20 H :    0.125547
  21 H :    0.098785
  22 H :    0.106008
  23 H :    0.096599
  24 H :    0.094277
  25 H :    0.123861
  26 H :    0.129062
  27 H :    0.102270
  28 H :    0.196722
  29 H :    0.194056
  30 H :    0.154589
  31 H :    0.155315
  32 H :    0.159585
  33 H :    0.128774
  34 H :    0.240168
  35 H :    0.165644
Sum of atomic charges:   -0.0000000

LOEWDIN ATOMIC CHARGES
----------------------
   0 C :    0.105108
   1 C :   -0.009126
   2 O :    0.292809
   3 C :   -0.416027
   4 O :    0.112667
   5 C :   -0.091980
   6 C :   -0.065662
   7 C :    0.124889
   8 N :    0.404762
   9 C :   -0.458984
  10 S :   -0.036398
  11 N :    0.397935
  12 C :   -0.046563
  13 C :   -0.039620
  14 C :    0.022084
  15 C :    0.040477
  16 C :   -0.002736
  17 C :   -0.193352
  18 O :    0.393073
  19 C :    0.027698
  20 H :   -0.023777
  21 H :   -0.026662
  22 H :   -0.025069
  23 H :   -0.028426
  24 H :   -0.027759
  25 H :   -0.010301
  26 H :   -0.007530
  27 H :   -0.021284
  28 H :   -0.059279
  29 H :   -0.063705
  30 H :   -0.005266
  31 H :   -0.024986
  32 H :   -0.021106
  33 H :   -0.036285
  34 H :   -0.154780
  35 H :   -0.024842

  Mayer bond orders larger than 0.100000
B(  0-C ,  1-C ) :   0.9656 B(  0-C , 20-H ) :   0.9720 B(  0-C , 21-H ) :   0.9743
B(  0-C , 22-H ) :   0.9724 B(  1-C ,  2-O ) :   0.9020 B(  1-C , 23-H ) :   0.9823
B(  1-C , 24-H ) :   0.9810 B(  2-O ,  3-C ) :   1.1410 B(  3-C ,  4-O ) :   1.9923
B(  3-C ,  5-C ) :   1.0381 B(  5-C ,  6-C ) :   1.6517 B(  5-C , 12-C ) :   0.9630
B(  6-C ,  7-C ) :   0.9545 B(  6-C ,  8-N ) :   1.1484 B(  7-C , 25-H ) :   0.9650
B(  7-C , 26-H ) :   0.9648 B(  7-C , 27-H ) :   0.9916 B(  8-N ,  9-C ) :   1.1794
B(  8-N , 28-H ) :   0.9487 B(  9-C , 10-S ) :   1.6100 B(  9-C , 11-N ) :   1.3044
B( 11-N , 12-C ) :   0.9912 B( 11-N , 29-H ) :   0.9518 B( 12-C , 13-C ) :   0.9450
B( 12-C , 30-H ) :   1.0002 B( 13-C , 14-C ) :   1.3765 B( 13-C , 19-C ) :   1.3680
B( 14-C , 15-C ) :   1.3946 B( 14-C , 31-H ) :   0.9641 B( 15-C , 16-C ) :   1.3620
B( 15-C , 32-H ) :   0.9713 B( 16-C , 17-C ) :   1.3314 B( 16-C , 33-H ) :   0.9857
B( 17-C , 18-O ) :   1.1086 B( 17-C , 19-C ) :   1.3774 B( 18-O , 34-H ) :   0.9805
B( 19-C , 35-H ) :   0.9582

MP2 TOTAL ENERGY:    -1274.338065832 Eh
FINAL SINGLE POINT ENERGY     -1274.338065831926

DIPOLE MOMENT
-------------
                                X             Y             Z
Electronic contribution:     10.10324      10.28373       8.85501
Nuclear contribution   :    -11.71140     -11.53756      -9.83366
                        -----------------------------------------
Total Dipole Moment    :     -1.60816      -1.25383      -0.97866
                        -----------------------------------------
Magnitude (a.u.)       :      2.26187
Magnitude (Debye)      :      5.74921

Rotational constants in cm-1:     0.011050     0.009198     0.006135
Rotational constants in MHz :   331.283821   275.748715   183.919201

                             ****ORCA TERMINATED NORMALLY****
TOTAL RUN TIME: 0 days 1 hours 38 minutes 3 seconds 130 msec
