                         Program Version 5.0.0 -  RELEASE  -
|  1> ! ri-mp2 cc-pvtz cc-pvtz/c TightSCF NoKeepInts
|  2>
|  3> %scf
|  4>   MaxCore 4096
|  5> end
|  6> *xyz  0  1
|  7>     C       15.6829819   13.7767618   17.4357425
|  8>     C       16.2246036   14.3081629   16.1009397
|  9>     O       17.4956498   14.9678559   16.2947648
| 10>     C       17.5661359   16.3039373   16.0180235
| 11>     O       17.1193038   16.7234232   14.9644844
| 12>     C       17.7229974   17.1658524   17.2411516
| 13>     C       17.3603090   18.4752375   17.2645265
| 14>     C       16.6173930   19.2484204   16.1959378
| 15>     N       17.7427072   19.2836230   18.3404844
| 16>     C       18.6963117   18.9371013   19.2619957
| 17>     S       19.2837002   20.0183116   20.3673061
| 18>     N       19.1531114   17.6441074   19.2037775
| 19>     C       18.5008332   16.5728536   18.4285195
| 20>     C       17.6514799   15.7407192   19.3825735
| 21>     C       18.0810536   14.4578331   19.7717567
| 22>     C       17.3366308   13.7026689   20.6939205
| 23>     C       16.1566864   14.2371676   21.2385732
| 24>     C       15.7339372   15.5203348   20.8659324
| 25>     O       14.5979322   16.0415965   21.3934999
| 26>     C       16.4768339   16.2699344   19.9485328
| 27>     H       16.4301620   13.1527041   17.9392766
| 28>     H       14.7892044   13.1645028   17.2662782
| 29>     H       15.3992987   14.6026172   18.0952272
| 30>     H       16.3665504   13.4643963   15.4133992
| 31>     H       15.4826601   14.9808588   15.6486117
| 32>     H       15.7049024   18.7171006   15.8973671
| 33>     H       17.2398319   19.3596989   15.2987629
| 34>     H       16.3195577   20.2514684   16.5230021
| 35>     H       17.4307597   20.2408821   18.3795596
| 36>     H       19.8390762   17.4074104   19.9088746
| 37>     H       19.2901508   15.9263246   18.0196286
| 38>     H       18.9959339   14.0431632   19.3569170
| 39>     H       17.6759004   12.7100604   20.9852549
| 40>     H       15.5786787   13.6578787   21.9511088
| 41>     H       14.2641824   15.4100091   22.0483896
| 42>     H       16.1395583   17.2670216   19.6898990
| 43> *
| 44>
| 45>                          ****END OF INPUT****

CARTESIAN COORDINATES (ANGSTROEM)
---------------------------------
  C     15.682982   13.776762   17.435742
  C     16.224604   14.308163   16.100940
  O     17.495650   14.967856   16.294765
  C     17.566136   16.303937   16.018024
  O     17.119304   16.723423   14.964484
  C     17.722997   17.165852   17.241152
  C     17.360309   18.475237   17.264526
  C     16.617393   19.248420   16.195938
  N     17.742707   19.283623   18.340484
  C     18.696312   18.937101   19.261996
  S     19.283700   20.018312   20.367306
  N     19.153111   17.644107   19.203778
  C     18.500833   16.572854   18.428520
  C     17.651480   15.740719   19.382573
  C     18.081054   14.457833   19.771757
  C     17.336631   13.702669   20.693921
  C     16.156686   14.237168   21.238573
  C     15.733937   15.520335   20.865932
  O     14.597932   16.041597   21.393500
  C     16.476834   16.269934   19.948533
  H     16.430162   13.152704   17.939277
  H     14.789204   13.164503   17.266278
  H     15.399299   14.602617   18.095227
  H     16.366550   13.464396   15.413399
  H     15.482660   14.980859   15.648612
  H     15.704902   18.717101   15.897367
  H     17.239832   19.359699   15.298763
  H     16.319558   20.251468   16.523002
  H     17.430760   20.240882   18.379560
  H     19.839076   17.407410   19.908875
  H     19.290151   15.926325   18.019629
  H     18.995934   14.043163   19.356917
  H     17.675900   12.710060   20.985255
  H     15.578679   13.657879   21.951109
  H     14.264182   15.410009   22.048390
  H     16.139558   17.267022   19.689899

 Total Charge           Charge          ....    0
 Multiplicity           Mult            ....    1
 Number of Electrons    NEL             ....  154
 Basis Dimension        Dim             ....  828

ORBITAL ENERGIES
----------------

  NO   OCC          E(Eh)            E(eV)
   0   2.0000     -91.890472     -2500.4669
   1   2.0000     -20.599560      -560.5425
   2   2.0000     -20.586396      -560.1843
   3   2.0000     -20.547907      -559.1370
   4   2.0000     -15.630981      -425.3406
   5   2.0000     -15.608645      -424.7328
   6   2.0000     -11.393891      -310.0435
   7   2.0000     -11.384743      -309.7946
   8   2.0000     -11.337098      -308.4981
   9   2.0000     -11.316669      -307.9422
  10   2.0000     -11.311432      -307.7997
  11   2.0000     -11.295055      -307.3541
  12   2.0000     -11.261930      -306.4527
  13   2.0000     -11.260542      -306.4149
  14   2.0000     -11.257828      -306.3411
  15   2.0000     -11.253502      -306.2234
  16   2.0000     -11.245795      -306.0136
  17   2.0000     -11.240123      -305.8593
  18   2.0000     -11.240068      -305.8578
  19   2.0000     -11.219197      -305.2899
  20   2.0000      -8.895473      -242.0581
  21   2.0000      -6.577035      -178.9702
  22   2.0000      -6.575047      -178.9161
  23   2.0000      -6.574448      -178.8998
  24   2.0000      -1.448971       -39.4285
  25   2.0000      -1.419231       -38.6192
  26   2.0000      -1.351279       -36.7702
  27   2.0000      -1.341990       -36.5174
  28   2.0000      -1.240008       -33.7423
  29   2.0000      -1.159417       -31.5493
  30   2.0000      -1.120767       -30.4976
  31   2.0000      -1.044128       -28.4122
  32   2.0000      -1.033115       -28.1125
  33   2.0000      -1.018009       -27.7014
  34   2.0000      -0.998174       -27.1617
  35   2.0000      -0.985262       -26.8103
  36   2.0000      -0.924459       -25.1558
  37   2.0000      -0.885642       -24.0995
  38   2.0000      -0.847928       -23.0733
  39   2.0000      -0.841470       -22.8976
  40   2.0000      -0.835965       -22.7478
  41   2.0000      -0.818835       -22.2816
  42   2.0000      -0.759907       -20.6781
  43   2.0000      -0.734140       -19.9770
  44   2.0000      -0.721047       -19.6207
  45   2.0000      -0.698753       -19.0140
  46   2.0000      -0.690257       -18.7828
  47   2.0000      -0.679429       -18.4882
  48   2.0000      -0.671233       -18.2652
  49   2.0000      -0.665136       -18.0993
  50   2.0000      -0.649228       -17.6664
  51   2.0000      -0.646220       -17.5845
  52   2.0000      -0.637765       -17.3545
  53   2.0000      -0.610174       -16.6037
  54   2.0000      -0.603177       -16.4133
  55   2.0000      -0.600273       -16.3343
  56   2.0000      -0.586276       -15.9534
  57   2.0000      -0.579227       -15.7616
  58   2.0000      -0.573784       -15.6134
  59   2.0000      -0.568787       -15.4775
  60   2.0000      -0.564284       -15.3550
  61   2.0000      -0.548544       -14.9266
  62   2.0000      -0.538163       -14.6442
  63   2.0000      -0.527534       -14.3549
  64   2.0000      -0.517605       -14.0848
  65   2.0000      -0.513717       -13.9789
  66   2.0000      -0.503616       -13.7041
  67   2.0000      -0.498725       -13.5710
  68   2.0000      -0.481768       -13.1096
  69   2.0000      -0.462411       -12.5828
  70   2.0000      -0.450984       -12.2719
  71   2.0000      -0.445945       -12.1348
  72   2.0000      -0.358593        -9.7578
  73   2.0000      -0.351365        -9.5611
  74   2.0000      -0.329777        -8.9737
  75   2.0000      -0.324266        -8.8237
  76   2.0000      -0.316826        -8.6213
  77   0.0000       0.068595         1.8666
  78   0.0000       0.103284         2.8105
  79   0.0000       0.120522         3.2796
  80   0.0000       0.129664         3.5283
  81   0.0000       0.133369         3.6291

MULLIKEN ATOMIC CHARGES
-----------------------
   0 C :   -0.302158
   1 C :    0.049864
   2 O :   -0.379591
   3 C :    0.472229
   4 O :   -0.408083
   5 C :   -0.226865
   6 C :    0.143779
   7 C :   -0.270878
   8 N :   -0.125554
   9 C :    0.209558
  10 S :   -0.435127
  11 N :   -0.195094
  12 C :    0.026228
  13 C :    0.087235
  14 C :   -0.197592
  15 C :   -0.129419
  16 C :   -0.268759
  17 C :    0.305557
  18 O :   -0.359416
  19 C :   -0.264023
  20 H :    0.102367
  21 H :    0.111757
  22 H :    0.104123
  23 H :    0.103210
  24 H :    0.096923
  25 H :    0.126179
  26 H :    0.136983
  27 H :    0.094061
  28 H :    0.198814
  29 H :    0.190923
  30 H :    0.148231
  31 H :    0.148292
  32 H :    0.164248
  33 H :    0.132615
  34 H :    0.241508
  35 H :    0.167876
Sum of atomic charges:    0.0000000

LOEWDIN ATOMIC CHARGES
----------------------
   0 C :    0.104870
   1 C :   -0.011806
   2 O :    0.281865
   3 C :   -0.418778
   4 O :    0.117388
   5 C :   -0.097431
   6 C :   -0.059433
   7 C :    0.129680
   8 N :    0.407068
   9 C :   -0.456272
  10 S :   -0.031769
  11 N :    0.396336
  12 C :   -0.053553
  13 C :   -0.035678
  14 C :    0.015407
  15 C :    0.044596
  16 C :   -0.000320
  17 C :   -0.190241
  18 O :    0.396212
  19 C :    0.030589
  20 H :   -0.028329
  21 H :   -0.026296
  22 H :   -0.029367
  23 H :   -0.027698
  24 H :   -0.028709
  25 H :   -0.006629
  26 H :   -0.003093
  27 H :   -0.023172
  28 H :   -0.057824
  29 H :   -0.066041
  30 H :   -0.005933
  31 H :   -0.030500
  32 H :   -0.020623
  33 H :   -0.034869
  34 H :   -0.153047
  35 H :   -0.026599

  Mayer bond orders larger than 0.100000
B(  0-C ,  1-C ) :   0.9714 B(  0-C , 20-H ) :   0.9718 B(  0-C , 21-H ) :   0.9780
B(  0-C , 22-H ) :   0.9728 B(  1-C ,  2-O ) :   0.8849 B(  1-C , 23-H ) :   0.9893
B(  1-C , 24-H ) :   0.9730 B(  2-O ,  3-C ) :   1.1064 B(  3-C ,  4-O ) :   2.0069
B(  3-C ,  5-C ) :   1.0600 B(  5-C ,  6-C ) :   1.6523 B(  5-C , 12-C ) :   0.9768
B(  6-C ,  7-C ) :   0.9725 B(  6-C ,  8-N ) :   1.1448 B(  7-C , 25-H ) :   0.9662
B(  7-C , 26-H ) :   0.9560 B(  7-C , 27-H ) :   0.9879 B(  8-N ,  9-C ) :   1.1770
B(  8-N , 28-H ) :   0.9487 B(  9-C , 10-S ) :   1.6162 B(  9-C , 11-N ) :   1.3006
B( 11-N , 12-C ) :   0.9703 B( 11-N , 29-H ) :   0.9549 B( 12-C , 13-C ) :   0.9455
B( 12-C , 30-H ) :   1.0040 B( 13-C , 14-C ) :   1.3491 B( 13-C , 19-C ) :   1.3684
B( 14-C , 15-C ) :   1.3807 B( 14-C , 31-H ) :   0.9757 B( 15-C , 16-C ) :   1.3668
B( 15-C , 32-H ) :   0.9700 B( 16-C , 17-C ) :   1.3279 B( 16-C , 33-H ) :   0.9840
B( 17-C , 18-O ) :   1.1122 B( 17-C , 19-C ) :   1.3773 B( 18-O , 34-H ) :   0.9794
B( 19-C , 35-H ) :   0.9573

MP2 TOTAL ENERGY:    -1274.328759340 Eh
FINAL SINGLE POINT ENERGY     -1274.328759340131

DIPOLE MOMENT
-------------
                                X             Y             Z
Electronic contribution:      8.94966      10.36092       4.97231
Nuclear contribution   :    -10.05434     -11.94976      -4.91710
                        -----------------------------------------
Total Dipole Moment    :     -1.10468      -1.58884       0.05520
                        -----------------------------------------
Magnitude (a.u.)       :      1.93592
Magnitude (Debye)      :      4.92072

Rotational constants in cm-1:     0.011715     0.009638     0.006517
Rotational constants in MHz :   351.216289   288.926440   195.360782

                             ****ORCA TERMINATED NORMALLY****
TOTAL RUN TIME: 0 days 2 hours 10 minutes 26 seconds 4 msec
