                         Program Version 5.0.0 -  RELEASE  -
|  1> ! ri-mp2 cc-pvtz cc-pvtz/c TightSCF NoKeepInts
|  2>
|  3> %scf
|  4>   MaxCore 4096
|  5> end
|  6> *xyz  0  1
|  7>     C       15.1120767   14.6314261   17.3250413
|  8>     C       15.4620049   15.6090332   16.1889043
|  9>     O       16.8085078   15.3394155   15.7422684
| 10>     C       17.9485341   15.6490554   16.4440565
| 11>     O       18.8733810   14.8579792   16.4712025
| 12>     C       17.9140471   16.8343776   17.3630721
| 13>     C       17.4527102   18.0536703   16.9860097
| 14>     C       16.9333323   18.4695042   15.6236285
| 15>     N       17.5606410   19.1409059   17.8565794
| 16>     C       18.2720108   19.1361354   19.0269797
| 17>     S       18.4411475   20.4993047   19.9473438
| 18>     N       18.8423716   17.9429254   19.3923058
| 19>     C       18.6217098   16.6518121   18.7113850
| 20>     C       17.8725488   15.6780839   19.6155096
| 21>     C       18.2618018   14.3269471   19.6700503
| 22>     C       17.5738081   13.4150084   20.4875291
| 23>     C       16.4857364   13.8563770   21.2592646
| 24>     C       16.0925186   15.2003279   21.2070041
| 25>     O       15.0349798   15.6270648   21.9418226
| 26>     C       16.7779527   16.1062456   20.3910919
| 27>     H       15.7536302   14.7844446   18.1959194
| 28>     H       15.2349135   13.5934663   16.9909207
| 29>     H       14.0715202   14.7670411   17.6436545
| 30>     H       14.7685780   15.4428776   15.3543050
| 31>     H       15.3249274   16.6357431   16.5390017
| 32>     H       17.1310000   17.7162707   14.8516983
| 33>     H       17.4259701   19.3896584   15.2837082
| 34>     H       15.8538726   18.6610198   15.6464415
| 35>     H       17.1693850   20.0320620   17.5942882
| 36>     H       19.3498931   17.9628457   20.2679311
| 37>     H       19.6121513   16.2186098   18.5069612
| 38>     H       19.0949135   13.9789297   19.0626016
| 39>     H       17.8830442   12.3714768   20.5159285
| 40>     H       15.9505594   13.1543565   21.8901494
| 41>     H       14.7297434   14.8771961   22.4745898
| 42>     H       16.4510770   17.1404022   20.3648514
| 43> *
| 44>
| 45>                          ****END OF INPUT****

CARTESIAN COORDINATES (ANGSTROEM)
---------------------------------
  C     15.112077   14.631426   17.325041
  C     15.462005   15.609033   16.188904
  O     16.808508   15.339415   15.742268
  C     17.948534   15.649055   16.444056
  O     18.873381   14.857979   16.471203
  C     17.914047   16.834378   17.363072
  C     17.452710   18.053670   16.986010
  C     16.933332   18.469504   15.623628
  N     17.560641   19.140906   17.856579
  C     18.272011   19.136135   19.026980
  S     18.441147   20.499305   19.947344
  N     18.842372   17.942925   19.392306
  C     18.621710   16.651812   18.711385
  C     17.872549   15.678084   19.615510
  C     18.261802   14.326947   19.670050
  C     17.573808   13.415008   20.487529
  C     16.485736   13.856377   21.259265
  C     16.092519   15.200328   21.207004
  O     15.034980   15.627065   21.941823
  C     16.777953   16.106246   20.391092
  H     15.753630   14.784445   18.195919
  H     15.234913   13.593466   16.990921
  H     14.071520   14.767041   17.643655
  H     14.768578   15.442878   15.354305
  H     15.324927   16.635743   16.539002
  H     17.131000   17.716271   14.851698
  H     17.425970   19.389658   15.283708
  H     15.853873   18.661020   15.646441
  H     17.169385   20.032062   17.594288
  H     19.349893   17.962846   20.267931
  H     19.612151   16.218610   18.506961
  H     19.094914   13.978930   19.062602
  H     17.883044   12.371477   20.515929
  H     15.950559   13.154357   21.890149
  H     14.729743   14.877196   22.474590
  H     16.451077   17.140402   20.364851

 Total Charge           Charge          ....    0
 Multiplicity           Mult            ....    1
 Number of Electrons    NEL             ....  154
 Basis Dimension        Dim             ....  828

ORBITAL ENERGIES
----------------

  NO   OCC          E(Eh)            E(eV)
   0   2.0000     -91.891170     -2500.4859
   1   2.0000     -20.598393      -560.5108
   2   2.0000     -20.597775      -560.4940
   3   2.0000     -20.550023      -559.1946
   4   2.0000     -15.629757      -425.3073
   5   2.0000     -15.611180      -424.8018
   6   2.0000     -11.399427      -310.1942
   7   2.0000     -11.387157      -309.8603
   8   2.0000     -11.336711      -308.4876
   9   2.0000     -11.315418      -307.9082
  10   2.0000     -11.312798      -307.8369
  11   2.0000     -11.306855      -307.6752
  12   2.0000     -11.268364      -306.6278
  13   2.0000     -11.267875      -306.6145
  14   2.0000     -11.261903      -306.4520
  15   2.0000     -11.255618      -306.2809
  16   2.0000     -11.244911      -305.9896
  17   2.0000     -11.240647      -305.8736
  18   2.0000     -11.237259      -305.7814
  19   2.0000     -11.225410      -305.4589
  20   2.0000      -8.896261      -242.0796
  21   2.0000      -6.577844      -178.9922
  22   2.0000      -6.575823      -178.9372
  23   2.0000      -6.575242      -178.9214
  24   2.0000      -1.446604       -39.3641
  25   2.0000      -1.418190       -38.5909
  26   2.0000      -1.358878       -36.9770
  27   2.0000      -1.342782       -36.5390
  28   2.0000      -1.241262       -33.7765
  29   2.0000      -1.159840       -31.5608
  30   2.0000      -1.125119       -30.6160
  31   2.0000      -1.047800       -28.5121
  32   2.0000      -1.036346       -28.2004
  33   2.0000      -1.017791       -27.6955
  34   2.0000      -1.005582       -27.3633
  35   2.0000      -0.989753       -26.9325
  36   2.0000      -0.927837       -25.2477
  37   2.0000      -0.891332       -24.2544
  38   2.0000      -0.855546       -23.2806
  39   2.0000      -0.841950       -22.9106
  40   2.0000      -0.835413       -22.7328
  41   2.0000      -0.831803       -22.6345
  42   2.0000      -0.748333       -20.3632
  43   2.0000      -0.740182       -20.1414
  44   2.0000      -0.730448       -19.8765
  45   2.0000      -0.696382       -18.9495
  46   2.0000      -0.687878       -18.7181
  47   2.0000      -0.681279       -18.5385
  48   2.0000      -0.676520       -18.4090
  49   2.0000      -0.660368       -17.9695
  50   2.0000      -0.656128       -17.8541
  51   2.0000      -0.647893       -17.6301
  52   2.0000      -0.639402       -17.3990
  53   2.0000      -0.620659       -16.8890
  54   2.0000      -0.609326       -16.5806
  55   2.0000      -0.606463       -16.5027
  56   2.0000      -0.601853       -16.3773
  57   2.0000      -0.586279       -15.9535
  58   2.0000      -0.576781       -15.6950
  59   2.0000      -0.566634       -15.4189
  60   2.0000      -0.562946       -15.3185
  61   2.0000      -0.549041       -14.9402
  62   2.0000      -0.546221       -14.8634
  63   2.0000      -0.533355       -14.5133
  64   2.0000      -0.520499       -14.1635
  65   2.0000      -0.513366       -13.9694
  66   2.0000      -0.502073       -13.6621
  67   2.0000      -0.499335       -13.5876
  68   2.0000      -0.483224       -13.1492
  69   2.0000      -0.469971       -12.7886
  70   2.0000      -0.457386       -12.4461
  71   2.0000      -0.448408       -12.2018
  72   2.0000      -0.359556        -9.7840
  73   2.0000      -0.350697        -9.5429
  74   2.0000      -0.330645        -8.9973
  75   2.0000      -0.323552        -8.8043
  76   2.0000      -0.319949        -8.7063
  77   0.0000       0.077920         2.1203
  78   0.0000       0.105557         2.8723
  79   0.0000       0.115050         3.1307
  80   0.0000       0.130025         3.5382
  81   0.0000       0.132768         3.6128

MULLIKEN ATOMIC CHARGES
-----------------------
   0 C :   -0.281873
   1 C :    0.024660
   2 O :   -0.335724
   3 C :    0.427896
   4 O :   -0.384204
   5 C :   -0.215810
   6 C :    0.141706
   7 C :   -0.324860
   8 N :   -0.132648
   9 C :    0.197419
  10 S :   -0.438243
  11 N :   -0.212565
  12 C :    0.067125
  13 C :   -0.004431
  14 C :   -0.182154
  15 C :   -0.141271
  16 C :   -0.266116
  17 C :    0.301902
  18 O :   -0.358225
  19 C :   -0.236907
  20 H :    0.106738
  21 H :    0.110085
  22 H :    0.095579
  23 H :    0.120136
  24 H :    0.085235
  25 H :    0.137190
  26 H :    0.134987
  27 H :    0.121722
  28 H :    0.196966
  29 H :    0.199002
  30 H :    0.165000
  31 H :    0.172317
  32 H :    0.162991
  33 H :    0.132478
  34 H :    0.241061
  35 H :    0.172834
Sum of atomic charges:    0.0000000

LOEWDIN ATOMIC CHARGES
----------------------
   0 C :    0.110780
   1 C :   -0.021865
   2 O :    0.297715
   3 C :   -0.414515
   4 O :    0.122900
   5 C :   -0.085032
   6 C :   -0.090276
   7 C :    0.124415
   8 N :    0.403203
   9 C :   -0.459462
  10 S :   -0.035571
  11 N :    0.397859
  12 C :   -0.044279
  13 C :   -0.046283
  14 C :    0.020205
  15 C :    0.044377
  16 C :   -0.000484
  17 C :   -0.192970
  18 O :    0.395494
  19 C :    0.026085
  20 H :   -0.029344
  21 H :   -0.022816
  22 H :   -0.025926
  23 H :   -0.021697
  24 H :   -0.040594
  25 H :   -0.007762
  26 H :   -0.010530
  27 H :   -0.018177
  28 H :   -0.056765
  29 H :   -0.063009
  30 H :   -0.002477
  31 H :   -0.022004
  32 H :   -0.018699
  33 H :   -0.034762
  34 H :   -0.153331
  35 H :   -0.024404

  Mayer bond orders larger than 0.100000
B(  0-C ,  1-C ) :   0.9769 B(  0-C , 20-H ) :   0.9668 B(  0-C , 21-H ) :   0.9784
B(  0-C , 22-H ) :   0.9766 B(  1-C ,  2-O ) :   0.8967 B(  1-C , 23-H ) :   0.9813
B(  1-C , 24-H ) :   0.9667 B(  2-O ,  3-C ) :   1.1630 B(  3-C ,  4-O ) :   2.0797
B(  3-C ,  5-C ) :   0.9401 B(  5-C ,  6-C ) :   1.6883 B(  5-C , 12-C ) :   0.9523
B(  6-C ,  7-C ) :   0.9397 B(  6-C ,  8-N ) :   1.1196 B(  7-C , 25-H ) :   0.9754
B(  7-C , 26-H ) :   0.9743 B(  7-C , 27-H ) :   0.9654 B(  8-N ,  9-C ) :   1.1890
B(  8-N , 28-H ) :   0.9514 B(  9-C , 10-S ) :   1.6133 B(  9-C , 11-N ) :   1.2932
B( 11-N , 12-C ) :   0.9927 B( 11-N , 29-H ) :   0.9495 B( 12-C , 13-C ) :   0.9482
B( 12-C , 30-H ) :   0.9963 B( 13-C , 14-C ) :   1.3952 B( 13-C , 19-C ) :   1.3557
B( 14-C , 15-C ) :   1.3935 B( 14-C , 31-H ) :   0.9581 B( 15-C , 16-C ) :   1.3618
B( 15-C , 32-H ) :   0.9709 B( 16-C , 17-C ) :   1.3315 B( 16-C , 33-H ) :   0.9843
B( 17-C , 18-O ) :   1.1117 B( 17-C , 19-C ) :   1.3688 B( 18-O , 34-H ) :   0.9795
B( 19-C , 35-H ) :   0.9579

MP2 TOTAL ENERGY:    -1274.336368572 Eh
FINAL SINGLE POINT ENERGY     -1274.336368572237

DIPOLE MOMENT
-------------
                                X             Y             Z
Electronic contribution:      9.56209       7.65332       6.11580
Nuclear contribution   :    -11.11601      -8.54641      -6.59217
                        -----------------------------------------
Total Dipole Moment    :     -1.55392      -0.89310      -0.47637
                        -----------------------------------------
Magnitude (a.u.)       :      1.85451
Magnitude (Debye)      :      4.71379

Rotational constants in cm-1:     0.011658     0.009556     0.006688
Rotational constants in MHz :   349.498531   286.474613   200.489532

                             ****ORCA TERMINATED NORMALLY****
TOTAL RUN TIME: 0 days 1 hours 42 minutes 17 seconds 232 msec
