                         Program Version 4.2.0 -  RELEASE  -
|  1> ! ri-mp2 cc-pvtz cc-pvtz/c TightSCF  NoKeepInts
|  2>
|  3> %scf
|  4>   MaxCore 4096
|  5> end
|  6> *xyz  0  1
|  7>     C       15.2571215   15.0138300   17.3909551
|  8>     C       15.5287914   15.4158495   15.9270448
|  9>     O       16.9368246   15.3968941   15.5880402
| 10>     C       17.9690215   15.6104657   16.4650745
| 11>     O       18.8557569   14.7823464   16.5666995
| 12>     C       17.9071505   16.8121822   17.3651488
| 13>     C       17.3837587   18.0143976   17.0113889
| 14>     C       16.8211527   18.4410635   15.6710029
| 15>     N       17.4552808   19.0919119   17.8988334
| 16>     C       18.1894582   19.1072142   19.0546993
| 17>     S       18.3219379   20.4685407   19.9838461
| 18>     N       18.8120389   17.9346154   19.3985628
| 19>     C       18.6110091   16.6399243   18.7196014
| 20>     C       17.8744406   15.6551459   19.6266451
| 21>     C       18.2746224   14.3067602   19.6764455
| 22>     C       17.6003637   13.3865781   20.4960241
| 23>     C       16.5153836   13.8165565   21.2779719
| 24>     C       16.1141630   15.1582365   21.2357188
| 25>     O       15.0614721   15.5754686   21.9829161
| 26>     C       16.7874564   16.0723518   20.4190807
| 27>     H       15.8682144   14.1518769   17.6894873
| 28>     H       14.2035314   14.7365228   17.5167485
| 29>     H       15.4545789   15.8474400   18.0717866
| 30>     H       15.0106371   14.7100094   15.2647842
| 31>     H       15.0931227   16.4026099   15.7414455
| 32>     H       17.1039936   17.7596041   14.8606394
| 33>     H       17.2083859   19.4262281   15.3806902
| 34>     H       15.7281277   18.5150847   15.7019007
| 35>     H       17.0197252   19.9675574   17.6553139
| 36>     H       19.3352110   17.9665942   20.2644966
| 37>     H       19.6091556   16.2223211   18.5205723
| 38>     H       19.1075487   13.9664457   19.0647592
| 39>     H       17.9185761   12.3456458   20.5186871
| 40>     H       15.9903940   13.1083769   21.9104717
| 41>     H       14.7646766   14.8208121   22.5135837
| 42>     H       16.4539170   17.1045378   20.4029333
| 43> *
| 44>
| 45>                          ****END OF INPUT****

CARTESIAN COORDINATES (ANGSTROEM)
---------------------------------
  C     15.257122   15.013830   17.390955
  C     15.528791   15.415850   15.927045
  O     16.936825   15.396894   15.588040
  C     17.969021   15.610466   16.465075
  O     18.855757   14.782346   16.566699
  C     17.907150   16.812182   17.365149
  C     17.383759   18.014398   17.011389
  C     16.821153   18.441063   15.671003
  N     17.455281   19.091912   17.898833
  C     18.189458   19.107214   19.054699
  S     18.321938   20.468541   19.983846
  N     18.812039   17.934615   19.398563
  C     18.611009   16.639924   18.719601
  C     17.874441   15.655146   19.626645
  C     18.274622   14.306760   19.676445
  C     17.600364   13.386578   20.496024
  C     16.515384   13.816557   21.277972
  C     16.114163   15.158236   21.235719
  O     15.061472   15.575469   21.982916
  C     16.787456   16.072352   20.419081
  H     15.868214   14.151877   17.689487
  H     14.203531   14.736523   17.516748
  H     15.454579   15.847440   18.071787
  H     15.010637   14.710009   15.264784
  H     15.093123   16.402610   15.741445
  H     17.103994   17.759604   14.860639
  H     17.208386   19.426228   15.380690
  H     15.728128   18.515085   15.701901
  H     17.019725   19.967557   17.655314
  H     19.335211   17.966594   20.264497
  H     19.609156   16.222321   18.520572
  H     19.107549   13.966446   19.064759
  H     17.918576   12.345646   20.518687
  H     15.990394   13.108377   21.910472
  H     14.764677   14.820812   22.513584
  H     16.453917   17.104538   20.402933

 Total Charge           Charge          ....    0
 Multiplicity           Mult            ....    1
 Number of Electrons    NEL             ....  154
 Basis Dimension        Dim             ....  828

ORBITAL ENERGIES
----------------

  NO   OCC          E(Eh)            E(eV)
   0   2.0000     -91.890971     -2500.4804
   1   2.0000     -20.596950      -560.4715
   2   2.0000     -20.592947      -560.3626
   3   2.0000     -20.550831      -559.2165
   4   2.0000     -15.629981      -425.3134
   5   2.0000     -15.610238      -424.7762
   6   2.0000     -11.398829      -310.1779
   7   2.0000     -11.386518      -309.8429
   8   2.0000     -11.338038      -308.5237
   9   2.0000     -11.313395      -307.8531
  10   2.0000     -11.311061      -307.7896
  11   2.0000     -11.309090      -307.7360
  12   2.0000     -11.267729      -306.6105
  13   2.0000     -11.266401      -306.5744
  14   2.0000     -11.260028      -306.4009
  15   2.0000     -11.253438      -306.2216
  16   2.0000     -11.243026      -305.9383
  17   2.0000     -11.238675      -305.8199
  18   2.0000     -11.234782      -305.7140
  19   2.0000     -11.230400      -305.5947
  20   2.0000      -8.896055      -242.0740
  21   2.0000      -6.577637      -178.9866
  22   2.0000      -6.575619      -178.9317
  23   2.0000      -6.575036      -178.9158
  24   2.0000      -1.445563       -39.3358
  25   2.0000      -1.416767       -38.5522
  26   2.0000      -1.357395       -36.9366
  27   2.0000      -1.342788       -36.5391
  28   2.0000      -1.240826       -33.7646
  29   2.0000      -1.157624       -31.5005
  30   2.0000      -1.123431       -30.5701
  31   2.0000      -1.045844       -28.4589
  32   2.0000      -1.037034       -28.2191
  33   2.0000      -1.016133       -27.6504
  34   2.0000      -1.005144       -27.3514
  35   2.0000      -0.988991       -26.9118
  36   2.0000      -0.927120       -25.2282
  37   2.0000      -0.898420       -24.4473
  38   2.0000      -0.854405       -23.2495
  39   2.0000      -0.840835       -22.8803
  40   2.0000      -0.833558       -22.6823
  41   2.0000      -0.826604       -22.4930
  42   2.0000      -0.744775       -20.2664
  43   2.0000      -0.734100       -19.9759
  44   2.0000      -0.729807       -19.8591
  45   2.0000      -0.694679       -18.9032
  46   2.0000      -0.686469       -18.6798
  47   2.0000      -0.681556       -18.5461
  48   2.0000      -0.674961       -18.3666
  49   2.0000      -0.661957       -18.0128
  50   2.0000      -0.656332       -17.8597
  51   2.0000      -0.650657       -17.7053
  52   2.0000      -0.639959       -17.4142
  53   2.0000      -0.625444       -17.0192
  54   2.0000      -0.608855       -16.5678
  55   2.0000      -0.604837       -16.4585
  56   2.0000      -0.600937       -16.3523
  57   2.0000      -0.585795       -15.9403
  58   2.0000      -0.575111       -15.6496
  59   2.0000      -0.565041       -15.3755
  60   2.0000      -0.561149       -15.2697
  61   2.0000      -0.548925       -14.9370
  62   2.0000      -0.540875       -14.7179
  63   2.0000      -0.536215       -14.5911
  64   2.0000      -0.521008       -14.1773
  65   2.0000      -0.512741       -13.9524
  66   2.0000      -0.500543       -13.6205
  67   2.0000      -0.492933       -13.4134
  68   2.0000      -0.484812       -13.1924
  69   2.0000      -0.471363       -12.8264
  70   2.0000      -0.457594       -12.4518
  71   2.0000      -0.449273       -12.2253
  72   2.0000      -0.358756        -9.7622
  73   2.0000      -0.347898        -9.4668
  74   2.0000      -0.330358        -8.9895
  75   2.0000      -0.322021        -8.7626
  76   2.0000      -0.319033        -8.6813
  77   0.0000       0.074610         2.0302
  78   0.0000       0.106997         2.9115
  79   0.0000       0.116194         3.1618
  80   0.0000       0.131332         3.5737
  81   0.0000       0.133621         3.6360

MULLIKEN ATOMIC CHARGES
-----------------------
   0 C :   -0.335494
   1 C :    0.034631
   2 O :   -0.349845
   3 C :    0.460709
   4 O :   -0.387027
   5 C :   -0.255781
   6 C :    0.187622
   7 C :   -0.343319
   8 N :   -0.132546
   9 C :    0.192043
  10 S :   -0.437678
  11 N :   -0.213116
  12 C :    0.067846
  13 C :    0.033468
  14 C :   -0.209633
  15 C :   -0.134942
  16 C :   -0.276449
  17 C :    0.320023
  18 O :   -0.357776
  19 C :   -0.275791
  20 H :    0.127150
  21 H :    0.116201
  22 H :    0.110516
  23 H :    0.125804
  24 H :    0.085047
  25 H :    0.145056
  26 H :    0.131914
  27 H :    0.122579
  28 H :    0.197880
  29 H :    0.198688
  30 H :    0.164089
  31 H :    0.174068
  32 H :    0.164109
  33 H :    0.131421
  34 H :    0.240822
  35 H :    0.177711
Sum of atomic charges:   -0.0000000

LOEWDIN ATOMIC CHARGES
----------------------
   0 C :    0.106345
   1 C :   -0.017076
   2 O :    0.289471
   3 C :   -0.418162
   4 O :    0.125472
   5 C :   -0.085085
   6 C :   -0.081600
   7 C :    0.124544
   8 N :    0.404040
   9 C :   -0.460627
  10 S :   -0.035357
  11 N :    0.397835
  12 C :   -0.044120
  13 C :   -0.041789
  14 C :    0.020472
  15 C :    0.041935
  16 C :   -0.001742
  17 C :   -0.193278
  18 O :    0.394830
  19 C :    0.027934
  20 H :   -0.018867
  21 H :   -0.023079
  22 H :   -0.034358
  23 H :   -0.020603
  24 H :   -0.038950
  25 H :   -0.008063
  26 H :   -0.011561
  27 H :   -0.019338
  28 H :   -0.056867
  29 H :   -0.063033
  30 H :   -0.002553
  31 H :   -0.022885
  32 H :   -0.019375
  33 H :   -0.035268
  34 H :   -0.153719
  35 H :   -0.025520

  Mayer bond orders larger than 0.100000
B(  0-C ,  1-C ) :   0.9588 B(  0-C , 20-H ) :   0.9666 B(  0-C , 21-H ) :   0.9766
B(  0-C , 22-H ) :   0.9716 B(  1-C ,  2-O ) :   0.9009 B(  1-C , 23-H ) :   0.9822
B(  1-C , 24-H ) :   0.9744 B(  2-O ,  3-C ) :   1.1491 B(  3-C ,  4-O ) :   2.0678
B(  3-C ,  5-C ) :   0.9564 B(  5-C ,  6-C ) :   1.6630 B(  5-C , 12-C ) :   0.9570
B(  6-C ,  7-C ) :   0.9426 B(  6-C ,  8-N ) :   1.1253 B(  7-C , 25-H ) :   0.9721
B(  7-C , 26-H ) :   0.9762 B(  7-C , 27-H ) :   0.9659 B(  8-N ,  9-C ) :   1.1875
B(  8-N , 28-H ) :   0.9515 B(  9-C , 10-S ) :   1.6129 B(  9-C , 11-N ) :   1.2951
B( 11-N , 12-C ) :   0.9869 B( 11-N , 29-H ) :   0.9502 B( 12-C , 13-C ) :   0.9503
B( 12-C , 30-H ) :   0.9973 B( 13-C , 14-C ) :   1.3860 B( 13-C , 19-C ) :   1.3405
B( 14-C , 15-C ) :   1.3977 B( 14-C , 31-H ) :   0.9581 B( 15-C , 16-C ) :   1.3601
B( 15-C , 32-H ) :   0.9701 B( 16-C , 17-C ) :   1.3310 B( 16-C , 33-H ) :   0.9848
B( 17-C , 18-O ) :   1.1111 B( 17-C , 19-C ) :   1.3665 B( 18-O , 34-H ) :   0.9799
B( 19-C , 35-H ) :   0.9582

MP2 TOTAL ENERGY:    -1274.332192882 Eh
FINAL SINGLE POINT ENERGY     -1274.332192881720

DIPOLE MOMENT
-------------
                                X             Y             Z
Electronic contribution:      9.32394       7.01897       6.22497
Nuclear contribution   :    -10.90536      -8.00571      -6.78963
                        -----------------------------------------
Total Dipole Moment    :     -1.58142      -0.98674      -0.56467
                        -----------------------------------------
Magnitude (a.u.)       :      1.94767
Magnitude (Debye)      :      4.95058

Rotational constants in cm-1:     0.011461     0.009794     0.006719
Rotational constants in MHz :   343.602711   293.616600   201.437111

                             ****ORCA TERMINATED NORMALLY****
TOTAL RUN TIME: 0 days 2 hours 36 minutes 21 seconds 696 msec
