                         Program Version 4.2.0 -  RELEASE  -
|  1> ! ri-mp2 cc-pvtz cc-pvtz/c TightSCF  NoKeepInts
|  2>
|  3> %scf
|  4>   MaxCore 4096
|  5> end
|  6> *xyz  0  1
|  7>     C       15.4355656   13.8263568   15.1324731
|  8>     C       15.0743899   14.9321525   16.1473723
|  9>     O       16.0859384   15.9601021   16.1645074
| 10>     C       17.3087823   15.7460550   16.7391961
| 11>     O       17.7636009   14.6284103   16.9161251
| 12>     C       17.7702964   16.9108719   17.5661247
| 13>     C       17.4478521   18.2061209   17.3149195
| 14>     C       16.6103725   18.7496772   16.1754973
| 15>     N       17.9778193   19.2223135   18.1165710
| 16>     C       18.9407037   19.0422231   19.0743710
| 17>     S       19.6062440   20.3169135   19.8916099
| 18>     N       19.3250235   17.7481740   19.3193122
| 19>     C       18.6731781   16.5526170   18.7519522
| 20>     C       17.8891138   15.8095167   19.8306817
| 21>     C       18.1321262   14.4454147   20.0761091
| 22>     C       17.4102436   13.7551905   21.0642284
| 23>     C       16.4354794   14.4340476   21.8149545
| 24>     C       16.1873109   15.7916349   21.5711370
| 25>     O       15.2419154   16.4483107   22.2897261
| 26>     C       16.9069876   16.4757378   20.5864952
| 27>     H       15.6964812   14.2623549   14.1603723
| 28>     H       14.5824880   13.1530962   14.9859804
| 29>     H       16.2796976   13.2178873   15.4776724
| 30>     H       14.1176181   15.3816647   15.8525011
| 31>     H       14.9507929   14.4992353   17.1495242
| 32>     H       16.8855466   18.2742268   15.2257605
| 33>     H       16.7350652   19.8308207   16.0393564
| 34>     H       15.5449735   18.5566792   16.3526069
| 35>     H       17.7085706   20.1790212   17.9515123
| 36>     H       20.0139992   17.6399321   20.0524515
| 37>     H       19.4654051   15.8862574   18.3811264
| 38>     H       18.8730808   13.9137541   19.4839901
| 39>     H       17.6041339   12.6985738   21.2396962
| 40>     H       15.8745264   13.9044147   22.5776693
| 41>     H       14.8905121   15.8253027   22.9433029
| 42>     H       16.7011650   17.5269383   20.4171131
| 43> *
| 44>
| 45>                          ****END OF INPUT****

CARTESIAN COORDINATES (ANGSTROEM)
---------------------------------
  C     15.435566   13.826357   15.132473
  C     15.074390   14.932153   16.147372
  O     16.085938   15.960102   16.164507
  C     17.308782   15.746055   16.739196
  O     17.763601   14.628410   16.916125
  C     17.770296   16.910872   17.566125
  C     17.447852   18.206121   17.314919
  C     16.610373   18.749677   16.175497
  N     17.977819   19.222313   18.116571
  C     18.940704   19.042223   19.074371
  S     19.606244   20.316913   19.891610
  N     19.325023   17.748174   19.319312
  C     18.673178   16.552617   18.751952
  C     17.889114   15.809517   19.830682
  C     18.132126   14.445415   20.076109
  C     17.410244   13.755190   21.064228
  C     16.435479   14.434048   21.814954
  C     16.187311   15.791635   21.571137
  O     15.241915   16.448311   22.289726
  C     16.906988   16.475738   20.586495
  H     15.696481   14.262355   14.160372
  H     14.582488   13.153096   14.985980
  H     16.279698   13.217887   15.477672
  H     14.117618   15.381665   15.852501
  H     14.950793   14.499235   17.149524
  H     16.885547   18.274227   15.225760
  H     16.735065   19.830821   16.039356
  H     15.544973   18.556679   16.352607
  H     17.708571   20.179021   17.951512
  H     20.013999   17.639932   20.052451
  H     19.465405   15.886257   18.381126
  H     18.873081   13.913754   19.483990
  H     17.604134   12.698574   21.239696
  H     15.874526   13.904415   22.577669
  H     14.890512   15.825303   22.943303
  H     16.701165   17.526938   20.417113

 Total Charge           Charge          ....    0
 Multiplicity           Mult            ....    1
 Number of Electrons    NEL             ....  154
 Basis Dimension        Dim             ....  828

ORBITAL ENERGIES
----------------

  NO   OCC          E(Eh)            E(eV)
   0   2.0000     -91.887619     -2500.3892
   1   2.0000     -20.596908      -560.4704
   2   2.0000     -20.592620      -560.3537
   3   2.0000     -20.550367      -559.2039
   4   2.0000     -15.627299      -425.2404
   5   2.0000     -15.606697      -424.6798
   6   2.0000     -11.397386      -310.1386
   7   2.0000     -11.382730      -309.7398
   8   2.0000     -11.333416      -308.3979
   9   2.0000     -11.308596      -307.7225
  10   2.0000     -11.306424      -307.6634
  11   2.0000     -11.302490      -307.5564
  12   2.0000     -11.259659      -306.3909
  13   2.0000     -11.258542      -306.3605
  14   2.0000     -11.254460      -306.2494
  15   2.0000     -11.248855      -306.0969
  16   2.0000     -11.238444      -305.8136
  17   2.0000     -11.234364      -305.7026
  18   2.0000     -11.231616      -305.6278
  19   2.0000     -11.221508      -305.3528
  20   2.0000      -8.892692      -241.9825
  21   2.0000      -6.574272      -178.8950
  22   2.0000      -6.572262      -178.8404
  23   2.0000      -6.571679      -178.8245
  24   2.0000      -1.451876       -39.5075
  25   2.0000      -1.412362       -38.4323
  26   2.0000      -1.358298       -36.9612
  27   2.0000      -1.338519       -36.4230
  28   2.0000      -1.236507       -33.6471
  29   2.0000      -1.152941       -31.3731
  30   2.0000      -1.119444       -30.4616
  31   2.0000      -1.042162       -28.3587
  32   2.0000      -1.032805       -28.1040
  33   2.0000      -1.010377       -27.4938
  34   2.0000      -0.996851       -27.1257
  35   2.0000      -0.982245       -26.7282
  36   2.0000      -0.921449       -25.0739
  37   2.0000      -0.890940       -24.2437
  38   2.0000      -0.847392       -23.0587
  39   2.0000      -0.836188       -22.7538
  40   2.0000      -0.828951       -22.5569
  41   2.0000      -0.819832       -22.3088
  42   2.0000      -0.749848       -20.4044
  43   2.0000      -0.732193       -19.9240
  44   2.0000      -0.725613       -19.7449
  45   2.0000      -0.691546       -18.8179
  46   2.0000      -0.685014       -18.6402
  47   2.0000      -0.680502       -18.5174
  48   2.0000      -0.671115       -18.2620
  49   2.0000      -0.662767       -18.0348
  50   2.0000      -0.645621       -17.5682
  51   2.0000      -0.641271       -17.4499
  52   2.0000      -0.632872       -17.2213
  53   2.0000      -0.605112       -16.4659
  54   2.0000      -0.600523       -16.3411
  55   2.0000      -0.598432       -16.2842
  56   2.0000      -0.595500       -16.2044
  57   2.0000      -0.586545       -15.9607
  58   2.0000      -0.573613       -15.6088
  59   2.0000      -0.568546       -15.4709
  60   2.0000      -0.560244       -15.2450
  61   2.0000      -0.545876       -14.8541
  62   2.0000      -0.535568       -14.5736
  63   2.0000      -0.518683       -14.1141
  64   2.0000      -0.517772       -14.0893
  65   2.0000      -0.510867       -13.9014
  66   2.0000      -0.502166       -13.6646
  67   2.0000      -0.495815       -13.4918
  68   2.0000      -0.479957       -13.0603
  69   2.0000      -0.461856       -12.5677
  70   2.0000      -0.456914       -12.4333
  71   2.0000      -0.450960       -12.2712
  72   2.0000      -0.353175        -9.6104
  73   2.0000      -0.344779        -9.3819
  74   2.0000      -0.326854        -8.8942
  75   2.0000      -0.315937        -8.5971
  76   2.0000      -0.314273        -8.5518
  77   0.0000       0.075599         2.0572
  78   0.0000       0.110837         3.0160
  79   0.0000       0.121367         3.3026
  80   0.0000       0.135249         3.6803
  81   0.0000       0.140110         3.8126

MULLIKEN ATOMIC CHARGES
-----------------------
   0 C :   -0.296421
   1 C :    0.046990
   2 O :   -0.357273
   3 C :    0.432601
   4 O :   -0.421282
   5 C :   -0.146835
   6 C :    0.136739
   7 C :   -0.284425
   8 N :   -0.122795
   9 C :    0.202264
  10 S :   -0.440704
  11 N :   -0.198351
  12 C :    0.039991
  13 C :    0.053148
  14 C :   -0.163997
  15 C :   -0.134105
  16 C :   -0.279928
  17 C :    0.311316
  18 O :   -0.358644
  19 C :   -0.271175
  20 H :    0.090783
  21 H :    0.092897
  22 H :    0.126424
  23 H :    0.100799
  24 H :    0.096347
  25 H :    0.123500
  26 H :    0.101968
  27 H :    0.127315
  28 H :    0.196797
  29 H :    0.193577
  30 H :    0.154409
  31 H :    0.154238
  32 H :    0.159585
  33 H :    0.128651
  34 H :    0.240104
  35 H :    0.165490
Sum of atomic charges:   -0.0000000

LOEWDIN ATOMIC CHARGES
----------------------
   0 C :    0.104449
   1 C :   -0.013374
   2 O :    0.295544
   3 C :   -0.411050
   4 O :    0.117833
   5 C :   -0.090806
   6 C :   -0.070205
   7 C :    0.125175
   8 N :    0.404220
   9 C :   -0.458364
  10 S :   -0.037105
  11 N :    0.397446
  12 C :   -0.045808
  13 C :   -0.039156
  14 C :    0.021038
  15 C :    0.040456
  16 C :   -0.002526
  17 C :   -0.192796
  18 O :    0.393200
  19 C :    0.028840
  20 H :   -0.029610
  21 H :   -0.029390
  22 H :   -0.026412
  23 H :   -0.025008
  24 H :   -0.027184
  25 H :   -0.008940
  26 H :   -0.020457
  27 H :   -0.009638
  28 H :   -0.059083
  29 H :   -0.063932
  30 H :   -0.005131
  31 H :   -0.025368
  32 H :   -0.021154
  33 H :   -0.036282
  34 H :   -0.154804
  35 H :   -0.024619

  Mayer bond orders larger than 0.100000
B(  0-C ,  1-C ) :   0.9701 B(  0-C , 20-H ) :   0.9755 B(  0-C , 21-H ) :   0.9769
B(  0-C , 22-H ) :   0.9713 B(  1-C ,  2-O ) :   0.9064 B(  1-C , 23-H ) :   0.9842
B(  1-C , 24-H ) :   0.9767 B(  2-O ,  3-C ) :   1.1143 B(  3-C ,  4-O ) :   1.9743
B(  3-C ,  5-C ) :   1.0459 B(  5-C ,  6-C ) :   1.6568 B(  5-C , 12-C ) :   0.9640
B(  6-C ,  7-C ) :   0.9545 B(  6-C ,  8-N ) :   1.1402 B(  7-C , 25-H ) :   0.9685
B(  7-C , 26-H ) :   0.9902 B(  7-C , 27-H ) :   0.9627 B(  8-N ,  9-C ) :   1.1823
B(  8-N , 28-H ) :   0.9495 B(  9-C , 10-S ) :   1.6096 B(  9-C , 11-N ) :   1.3018
B( 11-N , 12-C ) :   0.9931 B( 11-N , 29-H ) :   0.9518 B( 12-C , 13-C ) :   0.9458
B( 12-C , 30-H ) :   0.9989 B( 13-C , 14-C ) :   1.3760 B( 13-C , 19-C ) :   1.3700
B( 14-C , 15-C ) :   1.3946 B( 14-C , 31-H ) :   0.9648 B( 15-C , 16-C ) :   1.3630
B( 15-C , 32-H ) :   0.9713 B( 16-C , 17-C ) :   1.3310 B( 16-C , 33-H ) :   0.9858
B( 17-C , 18-O ) :   1.1085 B( 17-C , 19-C ) :   1.3781 B( 18-O , 34-H ) :   0.9805
B( 19-C , 35-H ) :   0.9582

MP2 TOTAL ENERGY:    -1274.335781557 Eh
FINAL SINGLE POINT ENERGY     -1274.335781557274

DIPOLE MOMENT
-------------
                                X             Y             Z
Electronic contribution:     10.32645      10.35717      10.33539
Nuclear contribution   :    -11.95047     -11.54529     -11.13290
                        -----------------------------------------
Total Dipole Moment    :     -1.62402      -1.18812      -0.79751
                        -----------------------------------------
Magnitude (a.u.)       :      2.16451
Magnitude (Debye)      :      5.50175

Rotational constants in cm-1:     0.010893     0.008976     0.005978
Rotational constants in MHz :   326.554026   269.108437   179.201541

                             ****ORCA TERMINATED NORMALLY****
TOTAL RUN TIME: 0 days 1 hours 37 minutes 12 seconds 961 msec
