                         Program Version 5.0.0 -  RELEASE  -
|  1> ! ri-mp2 cc-pvtz cc-pvtz/c TightSCF NoKeepInts
|  2>
|  3> %scf
|  4>   MaxCore 4096
|  5> end
|  6> *xyz  0  1
|  7>     C       14.4647762   15.8169058   16.3735326
|  8>     C       15.5230786   15.1922141   17.3000109
|  9>     O       16.7292974   14.9358950   16.5499882
| 10>     C       17.8172088   15.7691620   16.4562930
| 11>     O       18.8525159   15.3469741   15.9773978
| 12>     C       17.8569837   16.9066082   17.4180770
| 13>     C       17.3825204   18.1292204   17.0931018
| 14>     C       16.7683551   18.5435898   15.7745443
| 15>     N       17.5244999   19.1914336   17.9879648
| 16>     C       18.2038651   19.1238867   19.1766390
| 17>     S       18.3476756   20.4371599   20.1708884
| 18>     N       18.7585613   17.9106008   19.5040602
| 19>     C       18.6250023   16.6658846   18.7200958
| 20>     C       18.0198229   15.5347095   19.5476976
| 21>     C       18.4587646   14.2126486   19.3487135
| 22>     C       17.9004007   13.1531471   20.0825170
| 23>     C       16.8932111   13.4156972   21.0261798
| 24>     C       16.4510766   14.7298546   21.2273824
| 25>     O       15.4696852   14.9855575   22.1281977
| 26>     C       17.0070280   15.7832242   20.4941851
| 27>     H       14.7067413   16.8513526   16.1220191
| 28>     H       13.4844870   15.8155995   16.8657782
| 29>     H       14.3772859   15.2411839   15.4433253
| 30>     H       15.6904582   15.8304395   18.1743068
| 31>     H       15.1361924   14.2320439   17.6656473
| 32>     H       16.6663446   17.7042093   15.0759333
| 33>     H       17.3985432   19.2921898   15.2773828
| 34>     H       15.7742853   18.9841590   15.9189575
| 35>     H       17.1462957   20.0964556   17.7554616
| 36>     H       19.2432353   17.8890978   20.3926365
| 37>     H       19.6405529   16.3525321   18.4352603
| 38>     H       19.2275971   14.0035621   18.6072712
| 39>     H       18.2463226   12.1345566   19.9137561
| 40>     H       16.4581414   12.5993793   21.5935101
| 41>     H       15.2558498   14.1504300   22.5715337
| 42>     H       16.6403378   16.7904359   20.6637533
| 43> *
| 44>
| 45>                          ****END OF INPUT****

CARTESIAN COORDINATES (ANGSTROEM)
---------------------------------
  C     14.464776   15.816906   16.373533
  C     15.523079   15.192214   17.300011
  O     16.729297   14.935895   16.549988
  C     17.817209   15.769162   16.456293
  O     18.852516   15.346974   15.977398
  C     17.856984   16.906608   17.418077
  C     17.382520   18.129220   17.093102
  C     16.768355   18.543590   15.774544
  N     17.524500   19.191434   17.987965
  C     18.203865   19.123887   19.176639
  S     18.347676   20.437160   20.170888
  N     18.758561   17.910601   19.504060
  C     18.625002   16.665885   18.720096
  C     18.019823   15.534709   19.547698
  C     18.458765   14.212649   19.348713
  C     17.900401   13.153147   20.082517
  C     16.893211   13.415697   21.026180
  C     16.451077   14.729855   21.227382
  O     15.469685   14.985558   22.128198
  C     17.007028   15.783224   20.494185
  H     14.706741   16.851353   16.122019
  H     13.484487   15.815599   16.865778
  H     14.377286   15.241184   15.443325
  H     15.690458   15.830440   18.174307
  H     15.136192   14.232044   17.665647
  H     16.666345   17.704209   15.075933
  H     17.398543   19.292190   15.277383
  H     15.774285   18.984159   15.918957
  H     17.146296   20.096456   17.755462
  H     19.243235   17.889098   20.392636
  H     19.640553   16.352532   18.435260
  H     19.227597   14.003562   18.607271
  H     18.246323   12.134557   19.913756
  H     16.458141   12.599379   21.593510
  H     15.255850   14.150430   22.571534
  H     16.640338   16.790436   20.663753

 Total Charge           Charge          ....    0
 Multiplicity           Mult            ....    1
 Number of Electrons    NEL             ....  154
 Basis Dimension        Dim             ....  828

ORBITAL ENERGIES
----------------

  NO   OCC          E(Eh)            E(eV)
   0   2.0000     -91.889327     -2500.4357
   1   2.0000     -20.601603      -560.5981
   2   2.0000     -20.601180      -560.5866
   3   2.0000     -20.552699      -559.2674
   4   2.0000     -15.624294      -425.1586
   5   2.0000     -15.612443      -424.8362
   6   2.0000     -11.398959      -310.1815
   7   2.0000     -11.386467      -309.8415
   8   2.0000     -11.325058      -308.1705
   9   2.0000     -11.318890      -308.0027
  10   2.0000     -11.318872      -308.0022
  11   2.0000     -11.302329      -307.5520
  12   2.0000     -11.267775      -306.6117
  13   2.0000     -11.266769      -306.5844
  14   2.0000     -11.265545      -306.5511
  15   2.0000     -11.259238      -306.3794
  16   2.0000     -11.248082      -306.0759
  17   2.0000     -11.244044      -305.9660
  18   2.0000     -11.241624      -305.9001
  19   2.0000     -11.234752      -305.7131
  20   2.0000      -8.894459      -242.0305
  21   2.0000      -6.576054      -178.9435
  22   2.0000      -6.574020      -178.8882
  23   2.0000      -6.573452      -178.8727
  24   2.0000      -1.448477       -39.4151
  25   2.0000      -1.421420       -38.6788
  26   2.0000      -1.360261       -37.0146
  27   2.0000      -1.339080       -36.4382
  28   2.0000      -1.239955       -33.7409
  29   2.0000      -1.163128       -31.6503
  30   2.0000      -1.126003       -30.6401
  31   2.0000      -1.050215       -28.5778
  32   2.0000      -1.040036       -28.3008
  33   2.0000      -1.021154       -27.7870
  34   2.0000      -1.005692       -27.3663
  35   2.0000      -0.989804       -26.9339
  36   2.0000      -0.928706       -25.2714
  37   2.0000      -0.893149       -24.3038
  38   2.0000      -0.853224       -23.2174
  39   2.0000      -0.842110       -22.9150
  40   2.0000      -0.838536       -22.8177
  41   2.0000      -0.836613       -22.7654
  42   2.0000      -0.755457       -20.5570
  43   2.0000      -0.734880       -19.9971
  44   2.0000      -0.731498       -19.9051
  45   2.0000      -0.699081       -19.0230
  46   2.0000      -0.690915       -18.8008
  47   2.0000      -0.680029       -18.5045
  48   2.0000      -0.677837       -18.4449
  49   2.0000      -0.667581       -18.1658
  50   2.0000      -0.654535       -17.8108
  51   2.0000      -0.640413       -17.4265
  52   2.0000      -0.635584       -17.2951
  53   2.0000      -0.622072       -16.9275
  54   2.0000      -0.611326       -16.6350
  55   2.0000      -0.608467       -16.5572
  56   2.0000      -0.604878       -16.4596
  57   2.0000      -0.588716       -16.0198
  58   2.0000      -0.578974       -15.7547
  59   2.0000      -0.570138       -15.5142
  60   2.0000      -0.567764       -15.4496
  61   2.0000      -0.558482       -15.1971
  62   2.0000      -0.542777       -14.7697
  63   2.0000      -0.536783       -14.6066
  64   2.0000      -0.523634       -14.2488
  65   2.0000      -0.516128       -14.0446
  66   2.0000      -0.503721       -13.7069
  67   2.0000      -0.501808       -13.6549
  68   2.0000      -0.488331       -13.2881
  69   2.0000      -0.471589       -12.8326
  70   2.0000      -0.452238       -12.3060
  71   2.0000      -0.450034       -12.2461
  72   2.0000      -0.357129        -9.7180
  73   2.0000      -0.352219        -9.5844
  74   2.0000      -0.329231        -8.9588
  75   2.0000      -0.326449        -8.8831
  76   2.0000      -0.318699        -8.6722
  77   0.0000       0.093643         2.5481
  78   0.0000       0.103889         2.8270
  79   0.0000       0.114685         3.1207
  80   0.0000       0.127191         3.4611
  81   0.0000       0.128073         3.4851

MULLIKEN ATOMIC CHARGES
-----------------------
   0 C :   -0.290245
   1 C :    0.030244
   2 O :   -0.315868
   3 C :    0.385975
   4 O :   -0.375763
   5 C :   -0.178365
   6 C :    0.142307
   7 C :   -0.343781
   8 N :   -0.139794
   9 C :    0.213193
  10 S :   -0.444117
  11 N :   -0.230220
  12 C :    0.091862
  13 C :   -0.004270
  14 C :   -0.190362
  15 C :   -0.134743
  16 C :   -0.274539
  17 C :    0.317752
  18 O :   -0.355399
  19 C :   -0.271074
  20 H :    0.087531
  21 H :    0.102069
  22 H :    0.112007
  23 H :    0.098944
  24 H :    0.123308
  25 H :    0.120788
  26 H :    0.150948
  27 H :    0.118163
  28 H :    0.195244
  29 H :    0.203881
  30 H :    0.165077
  31 H :    0.165522
  32 H :    0.164763
  33 H :    0.133544
  34 H :    0.241835
  35 H :    0.183583
Sum of atomic charges:   -0.0000000

LOEWDIN ATOMIC CHARGES
----------------------
   0 C :    0.104829
   1 C :   -0.018163
   2 O :    0.310421
   3 C :   -0.419415
   4 O :    0.126800
   5 C :   -0.077755
   6 C :   -0.109944
   7 C :    0.122263
   8 N :    0.400682
   9 C :   -0.454913
  10 S :   -0.039927
  11 N :    0.397464
  12 C :   -0.042832
  13 C :   -0.043342
  14 C :    0.023805
  15 C :    0.046412
  16 C :   -0.000137
  17 C :   -0.193670
  18 O :    0.395639
  19 C :    0.025792
  20 H :   -0.035953
  21 H :   -0.023435
  22 H :   -0.023216
  23 H :   -0.039030
  24 H :   -0.019769
  25 H :   -0.010521
  26 H :   -0.008380
  27 H :   -0.018074
  28 H :   -0.058237
  29 H :   -0.063963
  30 H :   -0.002529
  31 H :   -0.021441
  32 H :   -0.017792
  33 H :   -0.034276
  34 H :   -0.152575
  35 H :   -0.024820

  Mayer bond orders larger than 0.100000
B(  0-C ,  1-C ) :   0.9744 B(  0-C , 20-H ) :   0.9785 B(  0-C , 21-H ) :   0.9778
B(  0-C , 22-H ) :   0.9764 B(  1-C ,  2-O ) :   0.8931 B(  1-C , 23-H ) :   0.9569
B(  1-C , 24-H ) :   0.9801 B(  2-O ,  3-C ) :   1.1734 B(  3-C ,  4-O ) :   2.1004
B(  3-C ,  5-C ) :   0.9032 B(  5-C ,  6-C ) :   1.7079 B(  5-C , 12-C ) :   0.9532
B(  6-C ,  7-C ) :   0.9485 B(  6-C ,  8-N ) :   1.1076 B(  7-C , 25-H ) :   0.9822
B(  7-C , 26-H ) :   0.9644 B(  7-C , 27-H ) :   0.9697 B(  8-N ,  9-C ) :   1.2053
B(  8-N , 28-H ) :   0.9532 B(  9-C , 10-S ) :   1.6053 B(  9-C , 11-N ) :   1.2833
B( 11-N , 12-C ) :   0.9909 B( 11-N , 29-H ) :   0.9454 B( 12-C , 13-C ) :   0.9499
B( 12-C , 30-H ) :   0.9974 B( 13-C , 14-C ) :   1.3892 B( 13-C , 19-C ) :   1.3352
B( 14-C , 15-C ) :   1.4005 B( 14-C , 31-H ) :   0.9638 B( 15-C , 16-C ) :   1.3596
B( 15-C , 32-H ) :   0.9694 B( 16-C , 17-C ) :   1.3308 B( 16-C , 33-H ) :   0.9841
B( 17-C , 18-O ) :   1.1105 B( 17-C , 19-C ) :   1.3663 B( 18-O , 34-H ) :   0.9789
B( 19-C , 35-H ) :   0.9565

MP2 TOTAL ENERGY:    -1274.328034717 Eh
FINAL SINGLE POINT ENERGY     -1274.328034717085

DIPOLE MOMENT
-------------
                                X             Y             Z
Electronic contribution:     10.60103       5.28623       7.74553
Nuclear contribution   :    -12.14065      -6.50951      -8.01055
                        -----------------------------------------
Total Dipole Moment    :     -1.53962      -1.22328      -0.26502
                        -----------------------------------------
Magnitude (a.u.)       :      1.98421
Magnitude (Debye)      :      5.04346

Rotational constants in cm-1:     0.011859     0.009198     0.006700
Rotational constants in MHz :   355.514417   275.759152   200.868355

                             ****ORCA TERMINATED NORMALLY****
TOTAL RUN TIME: 0 days 2 hours 42 minutes 48 seconds 315 msec
