                         Program Version 5.0.0 -  RELEASE  -
|  1> ! ri-mp2 cc-pvtz cc-pvtz/c TightSCF NoKeepInts
|  2>
|  3> %scf
|  4>   MaxCore 4096
|  5> end
|  6> *xyz  0  1
|  7>     C       14.2129199   14.9639072   15.1833358
|  8>     C       15.5616600   14.5878508   15.8192924
|  9>     O       16.2805703   15.8079449   16.0584422
| 10>     C       17.4701196   15.7399371   16.7220537
| 11>     O       18.0989487   14.6976081   16.8091458
| 12>     C       17.7557510   16.9254673   17.5988979
| 13>     C       17.1949385   18.1546908   17.4522076
| 14>     C       16.2016078   18.6082330   16.4018221
| 15>     N       17.5854176   19.2006198   18.2951119
| 16>     C       18.6218317   19.1417739   19.1890055
| 17>     S       19.1033829   20.4666221   20.0541626
| 18>     N       19.2401135   17.9252366   19.3280381
| 19>     C       18.7702807   16.6669202   18.7186991
| 20>     C       18.1867808   15.7433526   19.7850526
| 21>     C       18.6756666   14.4326554   19.9373731
| 22>     C       18.1404550   13.5771292   20.9149041
| 23>     C       17.1063790   14.0350526   21.7489253
| 24>     C       16.6138453   15.3384231   21.5982596
| 25>     O       15.6110728   15.7815615   22.3979200
| 26>     C       17.1482287   16.1874307   20.6240499
| 27>     H       13.6347156   15.6097202   15.8557397
| 28>     H       13.6207651   14.0636831   14.9784371
| 29>     H       14.3669821   15.4965395   14.2366598
| 30>     H       15.3921442   14.0532844   16.7640457
| 31>     H       16.1301939   13.9338826   15.1440888
| 32>     H       16.5338211   18.3150581   15.3980958
| 33>     H       16.0656406   19.6964171   16.3892830
| 34>     H       15.2183961   18.1541546   16.5777465
| 35>     H       17.1438940   20.1019542   18.2078196
| 36>     H       19.9807027   17.9000265   20.0171123
| 37>     H       19.6426789   16.1684539   18.2718682
| 38>     H       19.4635573   14.0702588   19.2815271
| 39>     H       18.5237008   12.5635734   21.0180584
| 40>     H       16.6889707   13.3770902   22.5037512
| 41>     H       15.4062073   15.0721347   23.0252180
| 42>     H       16.7546590   17.1933517   20.5278495
| 43> *
| 44>
| 45>                          ****END OF INPUT****

CARTESIAN COORDINATES (ANGSTROEM)
---------------------------------
  C     14.212920   14.963907   15.183336
  C     15.561660   14.587851   15.819292
  O     16.280570   15.807945   16.058442
  C     17.470120   15.739937   16.722054
  O     18.098949   14.697608   16.809146
  C     17.755751   16.925467   17.598898
  C     17.194938   18.154691   17.452208
  C     16.201608   18.608233   16.401822
  N     17.585418   19.200620   18.295112
  C     18.621832   19.141774   19.189006
  S     19.103383   20.466622   20.054163
  N     19.240113   17.925237   19.328038
  C     18.770281   16.666920   18.718699
  C     18.186781   15.743353   19.785053
  C     18.675667   14.432655   19.937373
  C     18.140455   13.577129   20.914904
  C     17.106379   14.035053   21.748925
  C     16.613845   15.338423   21.598260
  O     15.611073   15.781562   22.397920
  C     17.148229   16.187431   20.624050
  H     13.634716   15.609720   15.855740
  H     13.620765   14.063683   14.978437
  H     14.366982   15.496539   14.236660
  H     15.392144   14.053284   16.764046
  H     16.130194   13.933883   15.144089
  H     16.533821   18.315058   15.398096
  H     16.065641   19.696417   16.389283
  H     15.218396   18.154155   16.577746
  H     17.143894   20.101954   18.207820
  H     19.980703   17.900026   20.017112
  H     19.642679   16.168454   18.271868
  H     19.463557   14.070259   19.281527
  H     18.523701   12.563573   21.018058
  H     16.688971   13.377090   22.503751
  H     15.406207   15.072135   23.025218
  H     16.754659   17.193352   20.527849

 Total Charge           Charge          ....    0
 Multiplicity           Mult            ....    1
 Number of Electrons    NEL             ....  154
 Basis Dimension        Dim             ....  828

ORBITAL ENERGIES
----------------

  NO   OCC          E(Eh)            E(eV)
   0   2.0000     -91.888085     -2500.4019
   1   2.0000     -20.601272      -560.5891
   2   2.0000     -20.591918      -560.3346
   3   2.0000     -20.547123      -559.1157
   4   2.0000     -15.628394      -425.2702
   5   2.0000     -15.606780      -424.6821
   6   2.0000     -11.394799      -310.0682
   7   2.0000     -11.383043      -309.7484
   8   2.0000     -11.335935      -308.4665
   9   2.0000     -11.307718      -307.6986
  10   2.0000     -11.305829      -307.6473
  11   2.0000     -11.299263      -307.4686
  12   2.0000     -11.260455      -306.4126
  13   2.0000     -11.259135      -306.3766
  14   2.0000     -11.253612      -306.2263
  15   2.0000     -11.247810      -306.0685
  16   2.0000     -11.237486      -305.7876
  17   2.0000     -11.235225      -305.7260
  18   2.0000     -11.233608      -305.6820
  19   2.0000     -11.230564      -305.5992
  20   2.0000      -8.893150      -241.9949
  21   2.0000      -6.574728      -178.9074
  22   2.0000      -6.572721      -178.8528
  23   2.0000      -6.572135      -178.8369
  24   2.0000      -1.455523       -39.6068
  25   2.0000      -1.411655       -38.4131
  26   2.0000      -1.357264       -36.9330
  27   2.0000      -1.339315       -36.4446
  28   2.0000      -1.236975       -33.6598
  29   2.0000      -1.152291       -31.3554
  30   2.0000      -1.119700       -30.4686
  31   2.0000      -1.044723       -28.4284
  32   2.0000      -1.037073       -28.2202
  33   2.0000      -1.009660       -27.4743
  34   2.0000      -0.997773       -27.1508
  35   2.0000      -0.983441       -26.7608
  36   2.0000      -0.921160       -25.0660
  37   2.0000      -0.887835       -24.1592
  38   2.0000      -0.846982       -23.0475
  39   2.0000      -0.835099       -22.7242
  40   2.0000      -0.828007       -22.5312
  41   2.0000      -0.818676       -22.2773
  42   2.0000      -0.761490       -20.7212
  43   2.0000      -0.735879       -20.0243
  44   2.0000      -0.725012       -19.7286
  45   2.0000      -0.690691       -18.7946
  46   2.0000      -0.683094       -18.5879
  47   2.0000      -0.682559       -18.5734
  48   2.0000      -0.676252       -18.4018
  49   2.0000      -0.658314       -17.9136
  50   2.0000      -0.650468       -17.7001
  51   2.0000      -0.643471       -17.5097
  52   2.0000      -0.634913       -17.2769
  53   2.0000      -0.601368       -16.3641
  54   2.0000      -0.600759       -16.3475
  55   2.0000      -0.599294       -16.3076
  56   2.0000      -0.595272       -16.1982
  57   2.0000      -0.578305       -15.7365
  58   2.0000      -0.573375       -15.6023
  59   2.0000      -0.564171       -15.3519
  60   2.0000      -0.561840       -15.2884
  61   2.0000      -0.552165       -15.0252
  62   2.0000      -0.541705       -14.7405
  63   2.0000      -0.519547       -14.1376
  64   2.0000      -0.516975       -14.0676
  65   2.0000      -0.510830       -13.9004
  66   2.0000      -0.506218       -13.7749
  67   2.0000      -0.495746       -13.4899
  68   2.0000      -0.481057       -13.0902
  69   2.0000      -0.462140       -12.5755
  70   2.0000      -0.461968       -12.5708
  71   2.0000      -0.454708       -12.3732
  72   2.0000      -0.354126        -9.6363
  73   2.0000      -0.344152        -9.3649
  74   2.0000      -0.327223        -8.9042
  75   2.0000      -0.315655        -8.5894
  76   2.0000      -0.313976        -8.5437
  77   0.0000       0.075456         2.0533
  78   0.0000       0.112306         3.0560
  79   0.0000       0.120258         3.2724
  80   0.0000       0.135637         3.6909
  81   0.0000       0.138608         3.7717

MULLIKEN ATOMIC CHARGES
-----------------------
   0 C :   -0.276265
   1 C :    0.050886
   2 O :   -0.340373
   3 C :    0.430498
   4 O :   -0.420459
   5 C :   -0.170593
   6 C :    0.143501
   7 C :   -0.288102
   8 N :   -0.123154
   9 C :    0.201770
  10 S :   -0.439367
  11 N :   -0.197573
  12 C :    0.038245
  13 C :    0.055912
  14 C :   -0.160264
  15 C :   -0.134029
  16 C :   -0.279441
  17 C :    0.311183
  18 O :   -0.359155
  19 C :   -0.273078
  20 H :    0.093492
  21 H :    0.101000
  22 H :    0.096839
  23 H :    0.090259
  24 H :    0.100302
  25 H :    0.126741
  26 H :    0.104270
  27 H :    0.127024
  28 H :    0.196867
  29 H :    0.193681
  30 H :    0.153674
  31 H :    0.153427
  32 H :    0.159234
  33 H :    0.128185
  34 H :    0.240097
  35 H :    0.164764
Sum of atomic charges:   -0.0000000

LOEWDIN ATOMIC CHARGES
----------------------
   0 C :    0.107363
   1 C :   -0.018134
   2 O :    0.304367
   3 C :   -0.414743
   4 O :    0.107656
   5 C :   -0.091663
   6 C :   -0.067149
   7 C :    0.125181
   8 N :    0.404695
   9 C :   -0.458684
  10 S :   -0.036062
  11 N :    0.397727
  12 C :   -0.046233
  13 C :   -0.038940
  14 C :    0.022200
  15 C :    0.040902
  16 C :   -0.002475
  17 C :   -0.192850
  18 O :    0.392930
  19 C :    0.028212
  20 H :   -0.028790
  21 H :   -0.022787
  22 H :   -0.027083
  23 H :   -0.027482
  24 H :   -0.028148
  25 H :   -0.008469
  26 H :   -0.020742
  27 H :   -0.010334
  28 H :   -0.059111
  29 H :   -0.063732
  30 H :   -0.004845
  31 H :   -0.025229
  32 H :   -0.021165
  33 H :   -0.036400
  34 H :   -0.154894
  35 H :   -0.025092

  Mayer bond orders larger than 0.100000
B(  0-C ,  1-C ) :   0.9700 B(  0-C , 20-H ) :   0.9781 B(  0-C , 21-H ) :   0.9786
B(  0-C , 22-H ) :   0.9771 B(  1-C ,  2-O ) :   0.9063 B(  1-C , 23-H ) :   0.9740
B(  1-C , 24-H ) :   0.9796 B(  2-O ,  3-C ) :   1.1517 B(  3-C ,  4-O ) :   1.9967
B(  3-C ,  5-C ) :   1.0460 B(  5-C ,  6-C ) :   1.6505 B(  5-C , 12-C ) :   0.9666
B(  6-C ,  7-C ) :   0.9537 B(  6-C ,  8-N ) :   1.1431 B(  7-C , 25-H ) :   0.9666
B(  7-C , 26-H ) :   0.9917 B(  7-C , 27-H ) :   0.9628 B(  8-N ,  9-C ) :   1.1797
B(  8-N , 28-H ) :   0.9489 B(  9-C , 10-S ) :   1.6107 B(  9-C , 11-N ) :   1.3037
B( 11-N , 12-C ) :   0.9915 B( 11-N , 29-H ) :   0.9520 B( 12-C , 13-C ) :   0.9473
B( 12-C , 30-H ) :   0.9996 B( 13-C , 14-C ) :   1.3761 B( 13-C , 19-C ) :   1.3693
B( 14-C , 15-C ) :   1.3947 B( 14-C , 31-H ) :   0.9648 B( 15-C , 16-C ) :   1.3626
B( 15-C , 32-H ) :   0.9714 B( 16-C , 17-C ) :   1.3314 B( 16-C , 33-H ) :   0.9860
B( 17-C , 18-O ) :   1.1080 B( 17-C , 19-C ) :   1.3789 B( 18-O , 34-H ) :   0.9806
B( 19-C , 35-H ) :   0.9585

MP2 TOTAL ENERGY:    -1274.345150682 Eh
FINAL SINGLE POINT ENERGY     -1274.345150681645

DIPOLE MOMENT
-------------
                                X             Y             Z
Electronic contribution:     12.08788       8.70845      10.54372
Nuclear contribution   :    -13.58324     -10.04307     -11.44386
                        -----------------------------------------
Total Dipole Moment    :     -1.49536      -1.33462      -0.90014
                        -----------------------------------------
Magnitude (a.u.)       :      2.19717
Magnitude (Debye)      :      5.58477

Rotational constants in cm-1:     0.010331     0.009000     0.005970
Rotational constants in MHz :   309.708336   269.826338   178.974999

                             ****ORCA TERMINATED NORMALLY****
TOTAL RUN TIME: 0 days 1 hours 53 minutes 45 seconds 370 msec
