                         Program Version 4.2.0 -  RELEASE  -
|  1> ! ri-mp2 cc-pvtz cc-pvtz/c TightSCF  NoKeepInts
|  2>
|  3> %scf
|  4>   MaxCore 4096
|  5> end
|  6> *xyz  0  1
|  7>     C       15.2004925   14.1214883   17.0125361
|  8>     C       16.4885716   13.9841526   16.1725305
|  9>     O       17.4237507   15.0260667   16.5152744
| 10>     C       17.0896228   16.3392802   16.3321563
| 11>     O       16.2943972   16.6896325   15.4765794
| 12>     C       17.6800867   17.2454357   17.3770738
| 13>     C       17.4827852   18.5883558   17.3703998
| 14>     C       16.6700860   19.3908276   16.3769218
| 15>     N       18.0949147   19.3916780   18.3372097
| 16>     C       19.0030081   18.9497980   19.2619635
| 17>     S       19.7635736   19.9838633   20.3051208
| 18>     N       19.2549521   17.6017057   19.2761714
| 19>     C       18.5291702   16.5941946   18.4813769
| 20>     C       17.6922621   15.7179735   19.4088247
| 21>     C       18.0434953   14.3723169   19.6262456
| 22>     C       17.2769559   13.5623596   20.4810634
| 23>     C       16.1513200   14.1026369   21.1261113
| 24>     C       15.8017059   15.4436224   20.9158577
| 25>     O       14.7155329   15.9681058   21.5370148
| 26>     C       16.5664650   16.2471947   20.0647174
| 27>     H       15.4338422   14.1289314   18.0837886
| 28>     H       14.5286308   13.2770831   16.8179474
| 29>     H       14.6573041   15.0427732   16.7687959
| 30>     H       16.9472467   13.0068661   16.3695984
| 31>     H       16.2409173   14.0345697   15.1034987
| 32>     H       17.0414382   19.2322831   15.3564497
| 33>     H       16.6948221   20.4690540   16.5733946
| 34>     H       15.6192467   19.0744910   16.3950407
| 35>     H       17.9241646   20.3846024   18.3392903
| 36>     H       19.9019412   17.3013652   19.9937993
| 37>     H       19.2817574   15.9605446   17.9913556
| 38>     H       18.9109316   13.9511164   19.1251755
| 39>     H       17.5559434   12.5223962   20.6415726
| 40>     H       15.5563472   13.4813462   21.7874427
| 41>     H       14.3455673   15.2793026   22.1093432
| 42>     H       16.2837507   17.2845863   19.9223573
| 43> *
| 44>
| 45>                          ****END OF INPUT****

CARTESIAN COORDINATES (ANGSTROEM)
---------------------------------
  C     15.200492   14.121488   17.012536
  C     16.488572   13.984153   16.172531
  O     17.423751   15.026067   16.515274
  C     17.089623   16.339280   16.332156
  O     16.294397   16.689632   15.476579
  C     17.680087   17.245436   17.377074
  C     17.482785   18.588356   17.370400
  C     16.670086   19.390828   16.376922
  N     18.094915   19.391678   18.337210
  C     19.003008   18.949798   19.261964
  S     19.763574   19.983863   20.305121
  N     19.254952   17.601706   19.276171
  C     18.529170   16.594195   18.481377
  C     17.692262   15.717973   19.408825
  C     18.043495   14.372317   19.626246
  C     17.276956   13.562360   20.481063
  C     16.151320   14.102637   21.126111
  C     15.801706   15.443622   20.915858
  O     14.715533   15.968106   21.537015
  C     16.566465   16.247195   20.064717
  H     15.433842   14.128931   18.083789
  H     14.528631   13.277083   16.817947
  H     14.657304   15.042773   16.768796
  H     16.947247   13.006866   16.369598
  H     16.240917   14.034570   15.103499
  H     17.041438   19.232283   15.356450
  H     16.694822   20.469054   16.573395
  H     15.619247   19.074491   16.395041
  H     17.924165   20.384602   18.339290
  H     19.901941   17.301365   19.993799
  H     19.281757   15.960545   17.991356
  H     18.910932   13.951116   19.125176
  H     17.555943   12.522396   20.641573
  H     15.556347   13.481346   21.787443
  H     14.345567   15.279303   22.109343
  H     16.283751   17.284586   19.922357

 Total Charge           Charge          ....    0
 Multiplicity           Mult            ....    1
 Number of Electrons    NEL             ....  154
 Basis Dimension        Dim             ....  828

ORBITAL ENERGIES
----------------

  NO   OCC          E(Eh)            E(eV)
   0   2.0000     -91.889388     -2500.4374
   1   2.0000     -20.598278      -560.5076
   2   2.0000     -20.595912      -560.4433
   3   2.0000     -20.541905      -558.9736
   4   2.0000     -15.629711      -425.3061
   5   2.0000     -15.608730      -424.7351
   6   2.0000     -11.394586      -310.0624
   7   2.0000     -11.384465      -309.7871
   8   2.0000     -11.336590      -308.4843
   9   2.0000     -11.315776      -307.9179
  10   2.0000     -11.309646      -307.7511
  11   2.0000     -11.296911      -307.4046
  12   2.0000     -11.261208      -306.4330
  13   2.0000     -11.259218      -306.3789
  14   2.0000     -11.257199      -306.3240
  15   2.0000     -11.252481      -306.1956
  16   2.0000     -11.245000      -305.9920
  17   2.0000     -11.240020      -305.8565
  18   2.0000     -11.239742      -305.8489
  19   2.0000     -11.220492      -305.3251
  20   2.0000      -8.894442      -242.0301
  21   2.0000      -6.576014      -178.9424
  22   2.0000      -6.574012      -178.8879
  23   2.0000      -6.573423      -178.8719
  24   2.0000      -1.448905       -39.4267
  25   2.0000      -1.417977       -38.5851
  26   2.0000      -1.352897       -36.8142
  27   2.0000      -1.340661       -36.4812
  28   2.0000      -1.239146       -33.7189
  29   2.0000      -1.159289       -31.5459
  30   2.0000      -1.121025       -30.5046
  31   2.0000      -1.043791       -28.4030
  32   2.0000      -1.033025       -28.1100
  33   2.0000      -1.016918       -27.6717
  34   2.0000      -0.996109       -27.1055
  35   2.0000      -0.984859       -26.7994
  36   2.0000      -0.923458       -25.1286
  37   2.0000      -0.895067       -24.3560
  38   2.0000      -0.847618       -23.0648
  39   2.0000      -0.839398       -22.8412
  40   2.0000      -0.835612       -22.7382
  41   2.0000      -0.815422       -22.1888
  42   2.0000      -0.751709       -20.4550
  43   2.0000      -0.733649       -19.9636
  44   2.0000      -0.723295       -19.6818
  45   2.0000      -0.697405       -18.9774
  46   2.0000      -0.689541       -18.7634
  47   2.0000      -0.677019       -18.4226
  48   2.0000      -0.670452       -18.2439
  49   2.0000      -0.662699       -18.0330
  50   2.0000      -0.649216       -17.6661
  51   2.0000      -0.641736       -17.4625
  52   2.0000      -0.633682       -17.2434
  53   2.0000      -0.613413       -16.6918
  54   2.0000      -0.608702       -16.5636
  55   2.0000      -0.601414       -16.3653
  56   2.0000      -0.599716       -16.3191
  57   2.0000      -0.578965       -15.7544
  58   2.0000      -0.571089       -15.5401
  59   2.0000      -0.566886       -15.4258
  60   2.0000      -0.555574       -15.1179
  61   2.0000      -0.543630       -14.7929
  62   2.0000      -0.533008       -14.5039
  63   2.0000      -0.529129       -14.3983
  64   2.0000      -0.526386       -14.3237
  65   2.0000      -0.513860       -13.9828
  66   2.0000      -0.502514       -13.6741
  67   2.0000      -0.500707       -13.6249
  68   2.0000      -0.479032       -13.0351
  69   2.0000      -0.465264       -12.6605
  70   2.0000      -0.453660       -12.3447
  71   2.0000      -0.445150       -12.1132
  72   2.0000      -0.355069        -9.6619
  73   2.0000      -0.351278        -9.5588
  74   2.0000      -0.328890        -8.9496
  75   2.0000      -0.323557        -8.8044
  76   2.0000      -0.316722        -8.6184
  77   0.0000       0.074377         2.0239
  78   0.0000       0.105184         2.8622
  79   0.0000       0.124131         3.3778
  80   0.0000       0.131324         3.5735
  81   0.0000       0.137175         3.7327

MULLIKEN ATOMIC CHARGES
-----------------------
   0 C :   -0.318663
   1 C :    0.025413
   2 O :   -0.370137
   3 C :    0.466790
   4 O :   -0.431782
   5 C :   -0.229647
   6 C :    0.154634
   7 C :   -0.271379
   8 N :   -0.122546
   9 C :    0.211882
  10 S :   -0.439200
  11 N :   -0.204944
  12 C :    0.060414
  13 C :    0.045737
  14 C :   -0.183462
  15 C :   -0.133072
  16 C :   -0.277252
  17 C :    0.306450
  18 O :   -0.358228
  19 C :   -0.246832
  20 H :    0.110233
  21 H :    0.103261
  22 H :    0.115342
  23 H :    0.113777
  24 H :    0.118852
  25 H :    0.131916
  26 H :    0.095367
  27 H :    0.131665
  28 H :    0.197752
  29 H :    0.194519
  30 H :    0.151185
  31 H :    0.152633
  32 H :    0.160680
  33 H :    0.131194
  34 H :    0.241012
  35 H :    0.166437
Sum of atomic charges:   -0.0000000

LOEWDIN ATOMIC CHARGES
----------------------
   0 C :    0.105608
   1 C :   -0.016571
   2 O :    0.299991
   3 C :   -0.415458
   4 O :    0.099129
   5 C :   -0.095060
   6 C :   -0.058430
   7 C :    0.131698
   8 N :    0.406774
   9 C :   -0.456266
  10 S :   -0.034819
  11 N :    0.396601
  12 C :   -0.051896
  13 C :   -0.039075
  14 C :    0.013729
  15 C :    0.039086
  16 C :   -0.002536
  17 C :   -0.190472
  18 O :    0.396279
  19 C :    0.031711
  20 H :   -0.026528
  21 H :   -0.026847
  22 H :   -0.026647
  23 H :   -0.024878
  24 H :   -0.028157
  25 H :   -0.003582
  26 H :   -0.023334
  27 H :   -0.004849
  28 H :   -0.057473
  29 H :   -0.064674
  30 H :   -0.009881
  31 H :   -0.029612
  32 H :   -0.020955
  33 H :   -0.035288
  34 H :   -0.153495
  35 H :   -0.023823

  Mayer bond orders larger than 0.100000
B(  0-C ,  1-C ) :   0.9571 B(  0-C , 20-H ) :   0.9694 B(  0-C , 21-H ) :   0.9783
B(  0-C , 22-H ) :   0.9747 B(  1-C ,  2-O ) :   0.8884 B(  1-C , 23-H ) :   0.9837
B(  1-C , 24-H ) :   0.9838 B(  2-O ,  3-C ) :   1.1481 B(  3-C ,  4-O ) :   1.9768
B(  3-C ,  5-C ) :   1.0625 B(  5-C ,  6-C ) :   1.6538 B(  5-C , 12-C ) :   0.9717
B(  6-C ,  7-C ) :   0.9663 B(  6-C ,  8-N ) :   1.1634 B(  7-C , 25-H ) :   0.9600
B(  7-C , 26-H ) :   0.9903 B(  7-C , 27-H ) :   0.9606 B(  8-N ,  9-C ) :   1.1823
B(  8-N , 28-H ) :   0.9477 B(  9-C , 10-S ) :   1.6079 B(  9-C , 11-N ) :   1.3057
B( 11-N , 12-C ) :   0.9833 B( 11-N , 29-H ) :   0.9521 B( 12-C , 13-C ) :   0.9357
B( 12-C , 30-H ) :   1.0021 B( 13-C , 14-C ) :   1.3565 B( 13-C , 19-C ) :   1.3855
B( 14-C , 15-C ) :   1.3894 B( 14-C , 31-H ) :   0.9713 B( 15-C , 16-C ) :   1.3598
B( 15-C , 32-H ) :   0.9716 B( 16-C , 17-C ) :   1.3318 B( 16-C , 33-H ) :   0.9852
B( 17-C , 18-O ) :   1.1119 B( 17-C , 19-C ) :   1.3720 B( 18-O , 34-H ) :   0.9795
B( 19-C , 35-H ) :   0.9569

MP2 TOTAL ENERGY:    -1274.348844192 Eh
FINAL SINGLE POINT ENERGY     -1274.348844192351

DIPOLE MOMENT
-------------
                                X             Y             Z
Electronic contribution:      9.57671      10.06860       6.34541
Nuclear contribution   :    -10.49282     -11.79715      -6.59300
                        -----------------------------------------
Total Dipole Moment    :     -0.91611      -1.72855      -0.24759
                        -----------------------------------------
Magnitude (a.u.)       :      1.97191
Magnitude (Debye)      :      5.01220

Rotational constants in cm-1:     0.012466     0.008890     0.006434
Rotational constants in MHz :   373.734296   266.502891   192.879352

                             ****ORCA TERMINATED NORMALLY****
TOTAL RUN TIME: 0 days 1 hours 44 minutes 21 seconds 363 msec
