                         Program Version 5.0.0 -  RELEASE  -
|  1> ! ri-mp2 cc-pvtz cc-pvtz/c TightSCF NoKeepInts
|  2>
|  3> %scf
|  4>   MaxCore 4096
|  5> end
|  6> *xyz  0  1
|  7>     C       14.8951514   15.7288558   17.0358261
|  8>     C       15.9223501   14.5777284   17.0101953
|  9>     O       17.0562098   14.8715548   16.1636961
| 10>     C       17.8613722   15.9850614   16.1547035
| 11>     O       18.4817595   16.2687707   15.1472989
| 12>     C       17.8100950   16.9365879   17.3065451
| 13>     C       17.3772170   18.2032958   17.1092840
| 14>     C       16.7450247   18.7441397   15.8457290
| 15>     N       17.5497813   19.1687477   18.1030253
| 16>     C       18.3254885   18.9975695   19.2190104
| 17>     S       18.5914154   20.2247061   20.2950428
| 18>     N       18.8797107   17.7537474   19.3965882
| 19>     C       18.5700086   16.5582690   18.5869928
| 20>     C       17.8642419   15.5283084   19.4565564
| 21>     C       18.3811382   14.2240107   19.5728051
| 22>     C       17.7340224   13.2689970   20.3749645
| 23>     C       16.5644253   13.6213883   21.0700868
| 24>     C       16.0527943   14.9218600   20.9647027
| 25>     O       14.9214896   15.2641262   21.6299882
| 26>     C       16.6980545   15.8706765   20.1656059
| 27>     H       15.2172145   16.5543697   17.6780531
| 28>     H       13.9407648   15.3654998   17.4362475
| 29>     H       14.7100024   16.1095946   16.0239962
| 30>     H       16.2286139   14.3162373   18.0243163
| 31>     H       15.4265818   13.6874000   16.6022931
| 32>     H       16.1551296   17.9774818   15.3295747
| 33>     H       17.5232481   19.0757977   15.1459037
| 34>     H       16.0786004   19.5920613   16.0434897
| 35>     H       17.1809086   20.0968676   17.9680704
| 36>     H       19.4342303   17.6565673   20.2378420
| 37>     H       19.5292504   16.1244741   18.2695819
| 38>     H       19.2839844   13.9459610   19.0344013
| 39>     H       18.1395655   12.2615641   20.4565414
| 40>     H       16.0616667   12.8860923   21.6901865
| 41>     H       14.6662426   14.5096772   22.1826065
| 42>     H       16.2892457   16.8739529   20.1022483
| 43> *
| 44>
| 45>                          ****END OF INPUT****

CARTESIAN COORDINATES (ANGSTROEM)
---------------------------------
  C     14.895151   15.728856   17.035826
  C     15.922350   14.577728   17.010195
  O     17.056210   14.871555   16.163696
  C     17.861372   15.985061   16.154704
  O     18.481759   16.268771   15.147299
  C     17.810095   16.936588   17.306545
  C     17.377217   18.203296   17.109284
  C     16.745025   18.744140   15.845729
  N     17.549781   19.168748   18.103025
  C     18.325488   18.997569   19.219010
  S     18.591415   20.224706   20.295043
  N     18.879711   17.753747   19.396588
  C     18.570009   16.558269   18.586993
  C     17.864242   15.528308   19.456556
  C     18.381138   14.224011   19.572805
  C     17.734022   13.268997   20.374965
  C     16.564425   13.621388   21.070087
  C     16.052794   14.921860   20.964703
  O     14.921490   15.264126   21.629988
  C     16.698055   15.870676   20.165606
  H     15.217215   16.554370   17.678053
  H     13.940765   15.365500   17.436248
  H     14.710002   16.109595   16.023996
  H     16.228614   14.316237   18.024316
  H     15.426582   13.687400   16.602293
  H     16.155130   17.977482   15.329575
  H     17.523248   19.075798   15.145904
  H     16.078600   19.592061   16.043490
  H     17.180909   20.096868   17.968070
  H     19.434230   17.656567   20.237842
  H     19.529250   16.124474   18.269582
  H     19.283984   13.945961   19.034401
  H     18.139565   12.261564   20.456541
  H     16.061667   12.886092   21.690186
  H     14.666243   14.509677   22.182606
  H     16.289246   16.873953   20.102248

 Total Charge           Charge          ....    0
 Multiplicity           Mult            ....    1
 Number of Electrons    NEL             ....  154
 Basis Dimension        Dim             ....  828

ORBITAL ENERGIES
----------------

  NO   OCC          E(Eh)            E(eV)
   0   2.0000     -91.889718     -2500.4464
   1   2.0000     -20.606631      -560.7349
   2   2.0000     -20.594933      -560.4166
   3   2.0000     -20.548576      -559.1552
   4   2.0000     -15.626006      -425.2052
   5   2.0000     -15.611755      -424.8175
   6   2.0000     -11.396679      -310.1194
   7   2.0000     -11.385577      -309.8173
   8   2.0000     -11.326064      -308.1979
   9   2.0000     -11.325349      -308.1784
  10   2.0000     -11.319982      -308.0324
  11   2.0000     -11.300174      -307.4934
  12   2.0000     -11.270382      -306.6827
  13   2.0000     -11.266663      -306.5815
  14   2.0000     -11.259209      -306.3787
  15   2.0000     -11.256841      -306.3142
  16   2.0000     -11.255134      -306.2678
  17   2.0000     -11.249852      -306.1240
  18   2.0000     -11.248989      -306.1006
  19   2.0000     -11.232077      -305.6404
  20   2.0000      -8.894806      -242.0400
  21   2.0000      -6.576389      -178.9527
  22   2.0000      -6.574372      -178.8978
  23   2.0000      -6.573793      -178.8820
  24   2.0000      -1.442226       -39.2450
  25   2.0000      -1.426378       -38.8137
  26   2.0000      -1.355302       -36.8796
  27   2.0000      -1.339810       -36.4581
  28   2.0000      -1.240605       -33.7586
  29   2.0000      -1.168284       -31.7906
  30   2.0000      -1.124571       -30.6011
  31   2.0000      -1.052202       -28.6319
  32   2.0000      -1.035574       -28.1794
  33   2.0000      -1.026496       -27.9324
  34   2.0000      -1.003657       -27.3109
  35   2.0000      -0.989205       -26.9176
  36   2.0000      -0.929314       -25.2879
  37   2.0000      -0.897477       -24.4216
  38   2.0000      -0.851907       -23.1816
  39   2.0000      -0.846317       -23.0294
  40   2.0000      -0.844727       -22.9862
  41   2.0000      -0.830667       -22.6036
  42   2.0000      -0.751714       -20.4552
  43   2.0000      -0.740026       -20.1371
  44   2.0000      -0.721878       -19.6433
  45   2.0000      -0.705937       -19.2095
  46   2.0000      -0.693965       -18.8837
  47   2.0000      -0.679774       -18.4976
  48   2.0000      -0.675438       -18.3796
  49   2.0000      -0.663470       -18.0539
  50   2.0000      -0.654091       -17.7987
  51   2.0000      -0.647589       -17.6218
  52   2.0000      -0.638010       -17.3611
  53   2.0000      -0.620991       -16.8980
  54   2.0000      -0.615709       -16.7543
  55   2.0000      -0.609379       -16.5820
  56   2.0000      -0.604834       -16.4584
  57   2.0000      -0.585617       -15.9354
  58   2.0000      -0.578704       -15.7473
  59   2.0000      -0.568111       -15.4591
  60   2.0000      -0.565197       -15.3798
  61   2.0000      -0.550560       -14.9815
  62   2.0000      -0.538858       -14.6631
  63   2.0000      -0.536467       -14.5980
  64   2.0000      -0.531102       -14.4520
  65   2.0000      -0.518264       -14.1027
  66   2.0000      -0.506784       -13.7903
  67   2.0000      -0.502877       -13.6840
  68   2.0000      -0.487882       -13.2760
  69   2.0000      -0.465425       -12.6649
  70   2.0000      -0.451446       -12.2845
  71   2.0000      -0.446167       -12.1408
  72   2.0000      -0.359174        -9.7736
  73   2.0000      -0.354352        -9.6424
  74   2.0000      -0.335168        -9.1204
  75   2.0000      -0.328762        -8.9461
  76   2.0000      -0.317245        -8.6327
  77   0.0000       0.082736         2.2514
  78   0.0000       0.098183         2.6717
  79   0.0000       0.118515         3.2250
  80   0.0000       0.126087         3.4310
  81   0.0000       0.131281         3.5723

MULLIKEN ATOMIC CHARGES
-----------------------
   0 C :   -0.339798
   1 C :    0.035911
   2 O :   -0.317403
   3 C :    0.388926
   4 O :   -0.370930
   5 C :   -0.216189
   6 C :    0.149034
   7 C :   -0.290109
   8 N :   -0.128418
   9 C :    0.201660
  10 S :   -0.439909
  11 N :   -0.197818
  12 C :    0.042782
  13 C :    0.022398
  14 C :   -0.183264
  15 C :   -0.131638
  16 C :   -0.272167
  17 C :    0.313716
  18 O :   -0.354896
  19 C :   -0.272740
  20 H :    0.108136
  21 H :    0.120368
  22 H :    0.112768
  23 H :    0.099229
  24 H :    0.125959
  25 H :    0.116973
  26 H :    0.148731
  27 H :    0.098710
  28 H :    0.197548
  29 H :    0.193105
  30 H :    0.161533
  31 H :    0.153834
  32 H :    0.164502
  33 H :    0.135763
  34 H :    0.242385
  35 H :    0.181308
Sum of atomic charges:    0.0000000

LOEWDIN ATOMIC CHARGES
----------------------
   0 C :    0.102919
   1 C :   -0.015299
   2 O :    0.298364
   3 C :   -0.417583
   4 O :    0.127930
   5 C :   -0.085343
   6 C :   -0.089002
   7 C :    0.129941
   8 N :    0.403914
   9 C :   -0.456790
  10 S :   -0.036652
  11 N :    0.397007
  12 C :   -0.052855
  13 C :   -0.046732
  14 C :    0.013137
  15 C :    0.044484
  16 C :    0.001677
  17 C :   -0.191524
  18 O :    0.398280
  19 C :    0.034705
  20 H :   -0.037269
  21 H :   -0.021981
  22 H :   -0.029092
  23 H :   -0.037485
  24 H :   -0.020177
  25 H :   -0.010821
  26 H :   -0.002842
  27 H :   -0.020004
  28 H :   -0.058007
  29 H :   -0.064612
  30 H :   -0.006331
  31 H :   -0.027503
  32 H :   -0.018054
  33 H :   -0.032833
  34 H :   -0.151729
  35 H :   -0.021842

  Mayer bond orders larger than 0.100000
B(  0-C ,  1-C ) :   0.9554 B(  0-C , 20-H ) :   0.9711 B(  0-C , 21-H ) :   0.9769
B(  0-C , 22-H ) :   0.9765 B(  1-C ,  2-O ) :   0.9071 B(  1-C , 23-H ) :   0.9655
B(  1-C , 24-H ) :   0.9843 B(  2-O ,  3-C ) :   1.2066 B(  3-C ,  4-O ) :   2.1157
B(  3-C ,  5-C ) :   0.9087 B(  5-C ,  6-C ) :   1.7283 B(  5-C , 12-C ) :   0.9581
B(  6-C ,  7-C ) :   0.9519 B(  6-C ,  8-N ) :   1.1169 B(  7-C , 25-H ) :   0.9757
B(  7-C , 26-H ) :   0.9597 B(  7-C , 27-H ) :   0.9817 B(  8-N ,  9-C ) :   1.1969
B(  8-N , 28-H ) :   0.9505 B(  9-C , 10-S ) :   1.6142 B(  9-C , 11-N ) :   1.2814
B( 11-N , 12-C ) :   0.9980 B( 11-N , 29-H ) :   0.9514 B( 12-C , 13-C ) :   0.9351
B( 12-C , 30-H ) :   1.0066 B( 13-C , 14-C ) :   1.3677 B( 13-C , 19-C ) :   1.3552
B( 14-C , 15-C ) :   1.3927 B( 14-C , 31-H ) :   0.9704 B( 15-C , 16-C ) :   1.3691
B( 15-C , 32-H ) :   0.9699 B( 16-C , 17-C ) :   1.3244 B( 16-C , 33-H ) :   0.9830
B( 17-C , 18-O ) :   1.1161 B( 17-C , 19-C ) :   1.3687 B( 18-O , 34-H ) :   0.9784
B( 19-C , 35-H ) :   0.9536

MP2 TOTAL ENERGY:    -1274.326779697 Eh
FINAL SINGLE POINT ENERGY     -1274.326779696647

DIPOLE MOMENT
-------------
                                X             Y             Z
Electronic contribution:      9.71828       6.15032       5.64055
Nuclear contribution   :    -11.13855      -7.88795      -5.18613
                        -----------------------------------------
Total Dipole Moment    :     -1.42027      -1.73762       0.45442
                        -----------------------------------------
Magnitude (a.u.)       :      2.28976
Magnitude (Debye)      :      5.82011

Rotational constants in cm-1:     0.011965     0.009580     0.006733
Rotational constants in MHz :   358.697345   287.191230   201.847554

                             ****ORCA TERMINATED NORMALLY****
TOTAL RUN TIME: 0 days 2 hours 43 minutes 32 seconds 511 msec
