                         Program Version 4.2.0 -  RELEASE  -
|  1> ! ri-mp2 cc-pvtz cc-pvtz/c TightSCF  NoKeepInts
|  2>
|  3> %scf
|  4>   MaxCore 4096
|  5> end
|  6> *xyz  0  1
|  7>     C       14.6583420   14.2375427   16.1229250
|  8>     C       15.5954111   15.1753761   16.9008258
|  9>     O       16.6677167   15.5440086   16.0161555
| 10>     C       17.9073765   15.6577354   16.5686636
| 11>     O       18.5728724   14.6597408   16.7807757
| 12>     C       18.0429792   16.8851966   17.4169476
| 13>     C       17.5379553   18.0931502   17.0655592
| 14>     C       16.8086909   18.4410977   15.7848808
| 15>     N       17.7400502   19.1989998   17.8963101
| 16>     C       18.5399565   19.2028475   19.0093918
| 17>     S       18.8124307   20.5821724   19.8798469
| 18>     N       19.1009879   18.0017533   19.3669653
| 19>     C       18.7943619   16.7027399   18.7372863
| 20>     C       17.9885118   15.8190424   19.6854260
| 21>     C       18.4063434   14.5046339   19.9626917
| 22>     C       17.6530165   13.6775595   20.8124308
| 23>     C       16.4691952   14.1673216   21.3896846
| 24>     C       16.0467814   15.4742742   21.1125908
| 25>     O       14.8971324   15.9464112   21.6565155
| 26>     C       16.7981666   16.2949455   20.2657223
| 27>     H       15.2011345   13.3447733   15.7870906
| 28>     H       14.2463586   14.7442664   15.2415309
| 29>     H       13.8240024   13.9136867   16.7567946
| 30>     H       15.0562047   16.0653587   17.2501165
| 31>     H       15.9825339   14.6358461   17.7774235
| 32>     H       17.2439352   17.9133692   14.9267328
| 33>     H       16.8578588   19.5128731   15.5562867
| 34>     H       15.7507328   18.1590214   15.8486762
| 35>     H       17.3405425   20.0905077   17.6487500
| 36>     H       19.6648874   18.0282702   20.2070198
| 37>     H       19.7478874   16.2004152   18.5178648
| 38>     H       19.3101223   14.1156159   19.4992083
| 39>     H       17.9847471   12.6602796   21.0134197
| 40>     H       15.8830289   13.5302298   22.0437740
| 41>     H       14.5615699   15.2671267   22.2611397
| 42>     H       16.4531751   17.3038107   20.0665767
| 43> *
| 44>
| 45>                          ****END OF INPUT****

CARTESIAN COORDINATES (ANGSTROEM)
---------------------------------
  C     14.658342   14.237543   16.122925
  C     15.595411   15.175376   16.900826
  O     16.667717   15.544009   16.016155
  C     17.907377   15.657735   16.568664
  O     18.572872   14.659741   16.780776
  C     18.042979   16.885197   17.416948
  C     17.537955   18.093150   17.065559
  C     16.808691   18.441098   15.784881
  N     17.740050   19.199000   17.896310
  C     18.539956   19.202847   19.009392
  S     18.812431   20.582172   19.879847
  N     19.100988   18.001753   19.366965
  C     18.794362   16.702740   18.737286
  C     17.988512   15.819042   19.685426
  C     18.406343   14.504634   19.962692
  C     17.653016   13.677559   20.812431
  C     16.469195   14.167322   21.389685
  C     16.046781   15.474274   21.112591
  O     14.897132   15.946411   21.656515
  C     16.798167   16.294946   20.265722
  H     15.201135   13.344773   15.787091
  H     14.246359   14.744266   15.241531
  H     13.824002   13.913687   16.756795
  H     15.056205   16.065359   17.250117
  H     15.982534   14.635846   17.777424
  H     17.243935   17.913369   14.926733
  H     16.857859   19.512873   15.556287
  H     15.750733   18.159021   15.848676
  H     17.340542   20.090508   17.648750
  H     19.664887   18.028270   20.207020
  H     19.747887   16.200415   18.517865
  H     19.310122   14.115616   19.499208
  H     17.984747   12.660280   21.013420
  H     15.883029   13.530230   22.043774
  H     14.561570   15.267127   22.261140
  H     16.453175   17.303811   20.066577

 Total Charge           Charge          ....    0
 Multiplicity           Mult            ....    1
 Number of Electrons    NEL             ....  154
 Basis Dimension        Dim             ....  828

ORBITAL ENERGIES
----------------

  NO   OCC          E(Eh)            E(eV)
   0   2.0000     -91.890374     -2500.4642
   1   2.0000     -20.597873      -560.4966
   2   2.0000     -20.581367      -560.0475
   3   2.0000     -20.557496      -559.3979
   4   2.0000     -15.630113      -425.3170
   5   2.0000     -15.609869      -424.7661
   6   2.0000     -11.393877      -310.0431
   7   2.0000     -11.386021      -309.8294
   8   2.0000     -11.334914      -308.4387
   9   2.0000     -11.314156      -307.8738
  10   2.0000     -11.310191      -307.7659
  11   2.0000     -11.300517      -307.5027
  12   2.0000     -11.263175      -306.4866
  13   2.0000     -11.260348      -306.4097
  14   2.0000     -11.259574      -306.3886
  15   2.0000     -11.254272      -306.2443
  16   2.0000     -11.244029      -305.9656
  17   2.0000     -11.239667      -305.8469
  18   2.0000     -11.236880      -305.7710
  19   2.0000     -11.228573      -305.5450
  20   2.0000      -8.895447      -242.0574
  21   2.0000      -6.577023      -178.9699
  22   2.0000      -6.575014      -178.9152
  23   2.0000      -6.574427      -178.8993
  24   2.0000      -1.452268       -39.5182
  25   2.0000      -1.417681       -38.5771
  26   2.0000      -1.357870       -36.9495
  27   2.0000      -1.341181       -36.4954
  28   2.0000      -1.239413       -33.7262
  29   2.0000      -1.158462       -31.5234
  30   2.0000      -1.123009       -30.5586
  31   2.0000      -1.046361       -28.4729
  32   2.0000      -1.034172       -28.1413
  33   2.0000      -1.015861       -27.6430
  34   2.0000      -1.001500       -27.2522
  35   2.0000      -0.986892       -26.8547
  36   2.0000      -0.925277       -25.1781
  37   2.0000      -0.877343       -23.8737
  38   2.0000      -0.851890       -23.1811
  39   2.0000      -0.841619       -22.9016
  40   2.0000      -0.834432       -22.7060
  41   2.0000      -0.832313       -22.6484
  42   2.0000      -0.756230       -20.5781
  43   2.0000      -0.735791       -20.0219
  44   2.0000      -0.730255       -19.8713
  45   2.0000      -0.695836       -18.9346
  46   2.0000      -0.688057       -18.7230
  47   2.0000      -0.681055       -18.5324
  48   2.0000      -0.675228       -18.3739
  49   2.0000      -0.661191       -17.9919
  50   2.0000      -0.649356       -17.6699
  51   2.0000      -0.644577       -17.5398
  52   2.0000      -0.638350       -17.3704
  53   2.0000      -0.611263       -16.6333
  54   2.0000      -0.606096       -16.4927
  55   2.0000      -0.604046       -16.4369
  56   2.0000      -0.601542       -16.3688
  57   2.0000      -0.581608       -15.8263
  58   2.0000      -0.577537       -15.7156
  59   2.0000      -0.565010       -15.3747
  60   2.0000      -0.560620       -15.2552
  61   2.0000      -0.553452       -15.0602
  62   2.0000      -0.538342       -14.6490
  63   2.0000      -0.523846       -14.2546
  64   2.0000      -0.514461       -13.9992
  65   2.0000      -0.512275       -13.9397
  66   2.0000      -0.503387       -13.6979
  67   2.0000      -0.498799       -13.5730
  68   2.0000      -0.483889       -13.1673
  69   2.0000      -0.466971       -12.7069
  70   2.0000      -0.457073       -12.4376
  71   2.0000      -0.454322       -12.3627
  72   2.0000      -0.356566        -9.7027
  73   2.0000      -0.349791        -9.5183
  74   2.0000      -0.329669        -8.9708
  75   2.0000      -0.321676        -8.7532
  76   2.0000      -0.317636        -8.6433
  77   0.0000       0.069658         1.8955
  78   0.0000       0.103193         2.8080
  79   0.0000       0.117110         3.1867
  80   0.0000       0.130528         3.5518
  81   0.0000       0.134164         3.6508

MULLIKEN ATOMIC CHARGES
-----------------------
   0 C :   -0.255267
   1 C :    0.030267
   2 O :   -0.370661
   3 C :    0.453837
   4 O :   -0.385043
   5 C :   -0.208490
   6 C :    0.135803
   7 C :   -0.283347
   8 N :   -0.125783
   9 C :    0.199702
  10 S :   -0.437410
  11 N :   -0.201131
  12 C :    0.051411
  13 C :    0.023612
  14 C :   -0.158004
  15 C :   -0.135750
  16 C :   -0.278847
  17 C :    0.309457
  18 O :   -0.358767
  19 C :   -0.269001
  20 H :    0.106874
  21 H :    0.093199
  22 H :    0.087781
  23 H :    0.090982
  24 H :    0.110752
  25 H :    0.128419
  26 H :    0.109542
  27 H :    0.121558
  28 H :    0.197194
  29 H :    0.194265
  30 H :    0.156940
  31 H :    0.160249
  32 H :    0.161985
  33 H :    0.131965
  34 H :    0.241450
  35 H :    0.170255
Sum of atomic charges:    0.0000000

LOEWDIN ATOMIC CHARGES
----------------------
   0 C :    0.110842
   1 C :   -0.019604
   2 O :    0.287767
   3 C :   -0.423191
   4 O :    0.135280
   5 C :   -0.094168
   6 C :   -0.077045
   7 C :    0.127388
   8 N :    0.404203
   9 C :   -0.457658
  10 S :   -0.034675
  11 N :    0.397011
  12 C :   -0.045602
  13 C :   -0.042816
  14 C :    0.021109
  15 C :    0.042232
  16 C :   -0.001850
  17 C :   -0.195225
  18 O :    0.393744
  19 C :    0.028713
  20 H :   -0.021325
  21 H :   -0.028660
  22 H :   -0.026150
  23 H :   -0.037622
  24 H :   -0.023337
  25 H :   -0.006656
  26 H :   -0.018027
  27 H :   -0.011744
  28 H :   -0.058422
  29 H :   -0.063941
  30 H :   -0.003961
  31 H :   -0.023697
  32 H :   -0.019595
  33 H :   -0.035081
  34 H :   -0.153428
  35 H :   -0.024810

  Mayer bond orders larger than 0.100000
B(  0-C ,  1-C ) :   0.9823 B(  0-C , 20-H ) :   0.9778 B(  0-C , 21-H ) :   0.9803
B(  0-C , 22-H ) :   0.9761 B(  1-C ,  2-O ) :   0.8825 B(  1-C , 23-H ) :   0.9727
B(  1-C , 24-H ) :   0.9694 B(  2-O ,  3-C ) :   1.1048 B(  3-C ,  4-O ) :   2.0582
B(  3-C ,  5-C ) :   0.9985 B(  5-C ,  6-C ) :   1.6644 B(  5-C , 12-C ) :   0.9666
B(  6-C ,  7-C ) :   0.9511 B(  6-C ,  8-N ) :   1.1376 B(  7-C , 25-H ) :   0.9705
B(  7-C , 26-H ) :   0.9861 B(  7-C , 27-H ) :   0.9643 B(  8-N ,  9-C ) :   1.1835
B(  8-N , 28-H ) :   0.9498 B(  9-C , 10-S ) :   1.6138 B(  9-C , 11-N ) :   1.2982
B( 11-N , 12-C ) :   0.9936 B( 11-N , 29-H ) :   0.9519 B( 12-C , 13-C ) :   0.9436
B( 12-C , 30-H ) :   0.9985 B( 13-C , 14-C ) :   1.3823 B( 13-C , 19-C ) :   1.3635
B( 14-C , 15-C ) :   1.3944 B( 14-C , 31-H ) :   0.9621 B( 15-C , 16-C ) :   1.3642
B( 15-C , 32-H ) :   0.9708 B( 16-C , 17-C ) :   1.3290 B( 16-C , 33-H ) :   0.9846
B( 17-C , 18-O ) :   1.1116 B( 17-C , 19-C ) :   1.3745 B( 18-O , 34-H ) :   0.9795
B( 19-C , 35-H ) :   0.9583

MP2 TOTAL ENERGY:    -1274.323304663 Eh
FINAL SINGLE POINT ENERGY     -1274.323304663485

DIPOLE MOMENT
-------------
                                X             Y             Z
Electronic contribution:     11.14357       9.48444       7.36124
Nuclear contribution   :    -12.48952     -10.57415      -7.75279
                        -----------------------------------------
Total Dipole Moment    :     -1.34595      -1.08971      -0.39156
                        -----------------------------------------
Magnitude (a.u.)       :      1.77549
Magnitude (Debye)      :      4.51295

Rotational constants in cm-1:     0.011726     0.009176     0.006640
Rotational constants in MHz :   351.533450   275.085720   199.060498

                             ****ORCA TERMINATED NORMALLY****
TOTAL RUN TIME: 0 days 1 hours 51 minutes 21 seconds 870 msec
