                         Program Version 4.2.0 -  RELEASE  -
|  1> ! ri-mp2 cc-pvtz cc-pvtz/c TightSCF  NoKeepInts
|  2>
|  3> %scf
|  4>   MaxCore 4096
|  5> end
|  6> *xyz  0  1
|  7>     C       14.7732388   14.0482256   15.7377761
|  8>     C       15.4577656   14.9390554   16.7874511
|  9>     O       16.4575570   15.7179160   16.1068623
| 10>     C       17.7193828   15.7106479   16.6209243
| 11>     O       18.2971029   14.6579169   16.8332140
| 12>     C       17.9810400   16.9242368   17.4588873
| 13>     C       17.5400079   18.1662451   17.1395352
| 14>     C       16.7668703   18.5744028   15.9030577
| 15>     N       17.8577139   19.2499056   17.9636650
| 16>     C       18.7060866   19.1919655   19.0384509
| 17>     S       19.1115527   20.5434751   19.9011022
| 18>     N       19.2013406   17.9536726   19.3637030
| 19>     C       18.7832650   16.6833820   18.7401924
| 20>     C       17.9751549   15.8419238   19.7243651
| 21>     C       18.3603501   14.5209720   20.0179855
| 22>     C       17.6075157   13.7361351   20.9073961
| 23>     C       16.4576181   14.2755000   21.5086093
| 24>     C       16.0679721   15.5892852   21.2155376
| 25>     O       14.9521450   16.1097685   21.7855190
| 26>     C       16.8188253   16.3677286   20.3292561
| 27>     H       15.5036391   13.3740674   15.2725369
| 28>     H       14.3136814   14.6584625   14.9505321
| 29>     H       13.9901900   13.4371490   16.2026851
| 30>     H       14.7223118   15.6021015   17.2610116
| 31>     H       15.9020588   14.3059621   17.5691137
| 32>     H       17.1450178   18.0553405   15.0133212
| 33>     H       16.8392865   19.6499243   15.7002913
| 34>     H       15.7043234   18.3230811   16.0101126
| 35>     H       17.5053203   20.1672770   17.7408860
| 36>     H       19.8009382   17.9356508   20.1787351
| 37>     H       19.6918183   16.1260794   18.4694513
| 38>     H       19.2378944   14.0945851   19.5377701
| 39>     H       17.9134967   12.7135349   21.1213895
| 40>     H       15.8721973   13.6717147   22.1941027
| 41>     H       14.6114857   15.4516999   22.4101648
| 42>     H       16.5008349   17.3830092   20.1184057
| 43> *
| 44>
| 45>                          ****END OF INPUT****

CARTESIAN COORDINATES (ANGSTROEM)
---------------------------------
  C     14.773239   14.048226   15.737776
  C     15.457766   14.939055   16.787451
  O     16.457557   15.717916   16.106862
  C     17.719383   15.710648   16.620924
  O     18.297103   14.657917   16.833214
  C     17.981040   16.924237   17.458887
  C     17.540008   18.166245   17.139535
  C     16.766870   18.574403   15.903058
  N     17.857714   19.249906   17.963665
  C     18.706087   19.191965   19.038451
  S     19.111553   20.543475   19.901102
  N     19.201341   17.953673   19.363703
  C     18.783265   16.683382   18.740192
  C     17.975155   15.841924   19.724365
  C     18.360350   14.520972   20.017986
  C     17.607516   13.736135   20.907396
  C     16.457618   14.275500   21.508609
  C     16.067972   15.589285   21.215538
  O     14.952145   16.109769   21.785519
  C     16.818825   16.367729   20.329256
  H     15.503639   13.374067   15.272537
  H     14.313681   14.658462   14.950532
  H     13.990190   13.437149   16.202685
  H     14.722312   15.602101   17.261012
  H     15.902059   14.305962   17.569114
  H     17.145018   18.055340   15.013321
  H     16.839287   19.649924   15.700291
  H     15.704323   18.323081   16.010113
  H     17.505320   20.167277   17.740886
  H     19.800938   17.935651   20.178735
  H     19.691818   16.126079   18.469451
  H     19.237894   14.094585   19.537770
  H     17.913497   12.713535   21.121389
  H     15.872197   13.671715   22.194103
  H     14.611486   15.451700   22.410165
  H     16.500835   17.383009   20.118406

 Total Charge           Charge          ....    0
 Multiplicity           Mult            ....    1
 Number of Electrons    NEL             ....  154
 Basis Dimension        Dim             ....  828

ORBITAL ENERGIES
----------------

  NO   OCC          E(Eh)            E(eV)
   0   2.0000     -91.888977     -2500.4262
   1   2.0000     -20.596391      -560.4563
   2   2.0000     -20.583926      -560.1171
   3   2.0000     -20.556028      -559.3580
   4   2.0000     -15.628527      -425.2738
   5   2.0000     -15.608580      -424.7311
   6   2.0000     -11.394752      -310.0670
   7   2.0000     -11.384539      -309.7890
   8   2.0000     -11.333132      -308.3902
   9   2.0000     -11.312611      -307.8318
  10   2.0000     -11.308974      -307.7328
  11   2.0000     -11.298602      -307.4506
  12   2.0000     -11.260608      -306.4167
  13   2.0000     -11.259516      -306.3870
  14   2.0000     -11.258102      -306.3485
  15   2.0000     -11.252794      -306.2041
  16   2.0000     -11.242431      -305.9221
  17   2.0000     -11.238233      -305.8079
  18   2.0000     -11.235554      -305.7350
  19   2.0000     -11.225958      -305.4739
  20   2.0000      -8.894056      -242.0196
  21   2.0000      -6.575634      -178.9321
  22   2.0000      -6.573624      -178.8774
  23   2.0000      -6.573040      -178.8615
  24   2.0000      -1.453061       -39.5398
  25   2.0000      -1.416160       -38.5357
  26   2.0000      -1.356966       -36.9249
  27   2.0000      -1.339664       -36.4541
  28   2.0000      -1.238022       -33.6883
  29   2.0000      -1.156777       -31.4775
  30   2.0000      -1.121641       -30.5214
  31   2.0000      -1.045000       -28.4359
  32   2.0000      -1.033486       -28.1226
  33   2.0000      -1.014190       -27.5975
  34   2.0000      -0.999404       -27.1952
  35   2.0000      -0.984696       -26.7949
  36   2.0000      -0.923640       -25.1335
  37   2.0000      -0.880758       -23.9666
  38   2.0000      -0.849004       -23.1026
  39   2.0000      -0.839174       -22.8351
  40   2.0000      -0.832806       -22.6618
  41   2.0000      -0.827182       -22.5088
  42   2.0000      -0.755958       -20.5707
  43   2.0000      -0.735254       -20.0073
  44   2.0000      -0.728712       -19.8293
  45   2.0000      -0.694449       -18.8969
  46   2.0000      -0.686712       -18.6864
  47   2.0000      -0.680881       -18.5277
  48   2.0000      -0.673896       -18.3376
  49   2.0000      -0.660313       -17.9680
  50   2.0000      -0.647834       -17.6285
  51   2.0000      -0.641601       -17.4589
  52   2.0000      -0.632294       -17.2056
  53   2.0000      -0.613100       -16.6833
  54   2.0000      -0.604703       -16.4548
  55   2.0000      -0.603095       -16.4111
  56   2.0000      -0.599753       -16.3201
  57   2.0000      -0.580604       -15.7990
  58   2.0000      -0.576707       -15.6930
  59   2.0000      -0.564032       -15.3481
  60   2.0000      -0.562611       -15.3094
  61   2.0000      -0.549780       -14.9603
  62   2.0000      -0.534622       -14.5478
  63   2.0000      -0.521946       -14.2029
  64   2.0000      -0.513591       -13.9755
  65   2.0000      -0.511906       -13.9297
  66   2.0000      -0.503489       -13.7006
  67   2.0000      -0.498158       -13.5556
  68   2.0000      -0.482704       -13.1350
  69   2.0000      -0.465122       -12.6566
  70   2.0000      -0.458312       -12.4713
  71   2.0000      -0.451873       -12.2961
  72   2.0000      -0.354270        -9.6402
  73   2.0000      -0.348439        -9.4815
  74   2.0000      -0.328319        -8.9340
  75   2.0000      -0.319842        -8.7033
  76   2.0000      -0.315884        -8.5957
  77   0.0000       0.070829         1.9273
  78   0.0000       0.104420         2.8414
  79   0.0000       0.118503         3.2246
  80   0.0000       0.131995         3.5918
  81   0.0000       0.135342         3.6828

MULLIKEN ATOMIC CHARGES
-----------------------
   0 C :   -0.257602
   1 C :    0.044640
   2 O :   -0.377232
   3 C :    0.446075
   4 O :   -0.397649
   5 C :   -0.191297
   6 C :    0.136799
   7 C :   -0.279627
   8 N :   -0.124915
   9 C :    0.203563
  10 S :   -0.439639
  11 N :   -0.201765
  12 C :    0.056716
  13 C :    0.041026
  14 C :   -0.161940
  15 C :   -0.134426
  16 C :   -0.280670
  17 C :    0.312017
  18 O :   -0.358565
  19 C :   -0.278892
  20 H :    0.104807
  21 H :    0.090973
  22 H :    0.086041
  23 H :    0.092738
  24 H :    0.109872
  25 H :    0.123894
  26 H :    0.104677
  27 H :    0.124766
  28 H :    0.197177
  29 H :    0.194290
  30 H :    0.154931
  31 H :    0.156972
  32 H :    0.161355
  33 H :    0.130928
  34 H :    0.241004
  35 H :    0.168956
Sum of atomic charges:   -0.0000000

LOEWDIN ATOMIC CHARGES
----------------------
   0 C :    0.107020
   1 C :   -0.014088
   2 O :    0.291348
   3 C :   -0.419144
   4 O :    0.128144
   5 C :   -0.093814
   6 C :   -0.075067
   7 C :    0.126417
   8 N :    0.404021
   9 C :   -0.457274
  10 S :   -0.036257
  11 N :    0.396985
  12 C :   -0.045416
  13 C :   -0.041066
  14 C :    0.020992
  15 C :    0.041146
  16 C :   -0.002175
  17 C :   -0.193996
  18 O :    0.393491
  19 C :    0.028700
  20 H :   -0.022565
  21 H :   -0.029212
  22 H :   -0.027591
  23 H :   -0.033151
  24 H :   -0.024168
  25 H :   -0.007837
  26 H :   -0.019314
  27 H :   -0.009972
  28 H :   -0.058681
  29 H :   -0.064091
  30 H :   -0.004714
  31 H :   -0.024578
  32 H :   -0.020228
  33 H :   -0.035526
  34 H :   -0.153914
  35 H :   -0.024424

  Mayer bond orders larger than 0.100000
B(  0-C ,  1-C ) :   0.9817 B(  0-C , 20-H ) :   0.9774 B(  0-C , 21-H ) :   0.9798
B(  0-C , 22-H ) :   0.9761 B(  1-C ,  2-O ) :   0.8781 B(  1-C , 23-H ) :   0.9771
B(  1-C , 24-H ) :   0.9683 B(  2-O ,  3-C ) :   1.0892 B(  3-C ,  4-O ) :   2.0272
B(  3-C ,  5-C ) :   1.0284 B(  5-C ,  6-C ) :   1.6671 B(  5-C , 12-C ) :   0.9649
B(  6-C ,  7-C ) :   0.9515 B(  6-C ,  8-N ) :   1.1384 B(  7-C , 25-H ) :   0.9708
B(  7-C , 26-H ) :   0.9877 B(  7-C , 27-H ) :   0.9636 B(  8-N ,  9-C ) :   1.1846
B(  8-N , 28-H ) :   0.9499 B(  9-C , 10-S ) :   1.6109 B(  9-C , 11-N ) :   1.2995
B( 11-N , 12-C ) :   0.9933 B( 11-N , 29-H ) :   0.9516 B( 12-C , 13-C ) :   0.9437
B( 12-C , 30-H ) :   0.9982 B( 13-C , 14-C ) :   1.3777 B( 13-C , 19-C ) :   1.3674
B( 14-C , 15-C ) :   1.3937 B( 14-C , 31-H ) :   0.9638 B( 15-C , 16-C ) :   1.3637
B( 15-C , 32-H ) :   0.9709 B( 16-C , 17-C ) :   1.3303 B( 16-C , 33-H ) :   0.9849
B( 17-C , 18-O ) :   1.1099 B( 17-C , 19-C ) :   1.3744 B( 18-O , 34-H ) :   0.9798
B( 19-C , 35-H ) :   0.9577

MP2 TOTAL ENERGY:    -1274.323779430 Eh
FINAL SINGLE POINT ENERGY     -1274.323779430415

DIPOLE MOMENT
-------------
                                X             Y             Z
Electronic contribution:     11.13532      10.20064       8.31477
Nuclear contribution   :    -12.52654     -11.40317      -8.81388
                        -----------------------------------------
Total Dipole Moment    :     -1.39122      -1.20253      -0.49911
                        -----------------------------------------
Magnitude (a.u.)       :      1.90543
Magnitude (Debye)      :      4.84323

Rotational constants in cm-1:     0.011573     0.009025     0.006375
Rotational constants in MHz :   346.949812   270.570467   191.124284

                             ****ORCA TERMINATED NORMALLY****
TOTAL RUN TIME: 0 days 1 hours 47 minutes 56 seconds 408 msec
