                         Program Version 4.2.0 -  RELEASE  -
|  1> ! ri-mp2 cc-pvtz cc-pvtz/c TightSCF  NoKeepInts
|  2>
|  3> %scf
|  4>   MaxCore 4096
|  5> end
|  6> *xyz  0  1
|  7>     C       14.4608503   14.9089360   14.8973340
|  8>     C       15.5159453   14.4838799   15.9322618
|  9>     O       16.4290823   15.5812698   16.0915826
| 10>     C       17.5176050   15.4121934   16.8961072
| 11>     O       17.9249353   14.3037170   17.2039364
| 12>     C       17.9387393   16.6531698   17.6299939
| 13>     C       17.6408703   17.9224069   17.2461865
| 14>     C       16.8599931   18.3699803   16.0273134
| 15>     N       18.1409694   19.0042820   17.9785537
| 16>     C       19.0555518   18.9077687   18.9938807
| 17>     S       19.6960108   20.2482734   19.7208433
| 18>     N       19.4130136   17.6395968   19.3753739
| 19>     C       18.7719361   16.4022932   18.8921298
| 20>     C       17.9221643   15.7761731   19.9950506
| 21>     C       18.1336134   14.4411022   20.3862213
| 22>     C       17.3527296   13.8585804   21.3985622
| 23>     C       16.3503327   14.6169542   22.0267884
| 24>     C       16.1337521   15.9458069   21.6378067
| 25>     O       15.1624030   16.6788804   22.2381938
| 26>     C       16.9122490   16.5226627   20.6295160
| 27>     H       13.9144009   15.7950383   15.2432794
| 28>     H       13.7370591   14.1013847   14.7329635
| 29>     H       14.9350454   15.1458164   13.9367558
| 30>     H       15.0363005   14.2427882   16.8905040
| 31>     H       16.0461507   13.5917193   15.5713713
| 32>     H       17.2240275   17.8654320   15.1235991
| 33>     H       16.9394256   19.4487012   15.8460785
| 34>     H       15.7951505   18.1312465   16.1411588
| 35>     H       17.8907710   19.9434605   17.7133885
| 36>     H       20.0649340   17.5949794   20.1479918
| 37>     H       19.5717190   15.6944494   18.6303927
| 38>     H       18.8967582   13.8469439   19.8894055
| 39>     H       17.5227282   12.8229458   21.6873068
| 40>     H       15.7438334   14.1704508   22.8076208
| 41>     H       14.7659067   16.1249212   22.9271615
| 42>     H       16.7300426   17.5537955   20.3473857
| 43> *
| 44>
| 45>                          ****END OF INPUT****

CARTESIAN COORDINATES (ANGSTROEM)
---------------------------------
  C     14.460850   14.908936   14.897334
  C     15.515945   14.483880   15.932262
  O     16.429082   15.581270   16.091583
  C     17.517605   15.412193   16.896107
  O     17.924935   14.303717   17.203936
  C     17.938739   16.653170   17.629994
  C     17.640870   17.922407   17.246187
  C     16.859993   18.369980   16.027313
  N     18.140969   19.004282   17.978554
  C     19.055552   18.907769   18.993881
  S     19.696011   20.248273   19.720843
  N     19.413014   17.639597   19.375374
  C     18.771936   16.402293   18.892130
  C     17.922164   15.776173   19.995051
  C     18.133613   14.441102   20.386221
  C     17.352730   13.858580   21.398562
  C     16.350333   14.616954   22.026788
  C     16.133752   15.945807   21.637807
  O     15.162403   16.678880   22.238194
  C     16.912249   16.522663   20.629516
  H     13.914401   15.795038   15.243279
  H     13.737059   14.101385   14.732963
  H     14.935045   15.145816   13.936756
  H     15.036300   14.242788   16.890504
  H     16.046151   13.591719   15.571371
  H     17.224027   17.865432   15.123599
  H     16.939426   19.448701   15.846079
  H     15.795151   18.131246   16.141159
  H     17.890771   19.943461   17.713389
  H     20.064934   17.594979   20.147992
  H     19.571719   15.694449   18.630393
  H     18.896758   13.846944   19.889405
  H     17.522728   12.822946   21.687307
  H     15.743833   14.170451   22.807621
  H     14.765907   16.124921   22.927162
  H     16.730043   17.553795   20.347386

 Total Charge           Charge          ....    0
 Multiplicity           Mult            ....    1
 Number of Electrons    NEL             ....  154
 Basis Dimension        Dim             ....  828

ORBITAL ENERGIES
----------------

  NO   OCC          E(Eh)            E(eV)
   0   2.0000     -91.888054     -2500.4011
   1   2.0000     -20.601200      -560.5872
   2   2.0000     -20.591844      -560.3326
   3   2.0000     -20.547130      -559.1158
   4   2.0000     -15.628358      -425.2692
   5   2.0000     -15.606743      -424.6811
   6   2.0000     -11.394954      -310.0725
   7   2.0000     -11.383014      -309.7476
   8   2.0000     -11.335886      -308.4651
   9   2.0000     -11.307644      -307.6966
  10   2.0000     -11.305794      -307.6463
  11   2.0000     -11.298968      -307.4606
  12   2.0000     -11.260409      -306.4113
  13   2.0000     -11.259124      -306.3763
  14   2.0000     -11.253545      -306.2245
  15   2.0000     -11.247736      -306.0664
  16   2.0000     -11.237412      -305.7855
  17   2.0000     -11.234920      -305.7177
  18   2.0000     -11.233533      -305.6800
  19   2.0000     -11.230495      -305.5973
  20   2.0000      -8.893120      -241.9941
  21   2.0000      -6.574697      -178.9066
  22   2.0000      -6.572690      -178.8520
  23   2.0000      -6.572105      -178.8361
  24   2.0000      -1.455284       -39.6003
  25   2.0000      -1.411581       -38.4111
  26   2.0000      -1.357307       -36.9342
  27   2.0000      -1.339279       -36.4436
  28   2.0000      -1.236936       -33.6587
  29   2.0000      -1.152220       -31.3535
  30   2.0000      -1.119658       -30.4674
  31   2.0000      -1.044654       -28.4265
  32   2.0000      -1.036991       -28.2179
  33   2.0000      -1.009588       -27.4723
  34   2.0000      -0.997694       -27.1486
  35   2.0000      -0.983358       -26.7585
  36   2.0000      -0.921111       -25.0647
  37   2.0000      -0.887624       -24.1535
  38   2.0000      -0.846970       -23.0472
  39   2.0000      -0.835058       -22.7231
  40   2.0000      -0.827938       -22.5293
  41   2.0000      -0.818748       -22.2793
  42   2.0000      -0.761410       -20.7190
  43   2.0000      -0.735893       -20.0247
  44   2.0000      -0.724970       -19.7274
  45   2.0000      -0.690511       -18.7898
  46   2.0000      -0.683556       -18.6005
  47   2.0000      -0.681753       -18.5514
  48   2.0000      -0.676135       -18.3986
  49   2.0000      -0.657191       -17.8831
  50   2.0000      -0.650848       -17.7105
  51   2.0000      -0.643288       -17.5048
  52   2.0000      -0.634670       -17.2703
  53   2.0000      -0.602877       -16.4051
  54   2.0000      -0.600812       -16.3489
  55   2.0000      -0.599802       -16.3214
  56   2.0000      -0.595205       -16.1964
  57   2.0000      -0.578283       -15.7359
  58   2.0000      -0.573329       -15.6011
  59   2.0000      -0.563609       -15.3366
  60   2.0000      -0.561864       -15.2891
  61   2.0000      -0.549709       -14.9583
  62   2.0000      -0.542239       -14.7551
  63   2.0000      -0.521953       -14.2031
  64   2.0000      -0.517120       -14.0715
  65   2.0000      -0.509735       -13.8706
  66   2.0000      -0.505196       -13.7471
  67   2.0000      -0.495618       -13.4864
  68   2.0000      -0.481192       -13.0939
  69   2.0000      -0.462678       -12.5901
  70   2.0000      -0.461918       -12.5694
  71   2.0000      -0.453709       -12.3461
  72   2.0000      -0.354103        -9.6356
  73   2.0000      -0.344081        -9.3629
  74   2.0000      -0.327192        -8.9033
  75   2.0000      -0.315608        -8.5881
  76   2.0000      -0.313927        -8.5424
  77   0.0000       0.075393         2.0515
  78   0.0000       0.112353         3.0573
  79   0.0000       0.120318         3.2740
  80   0.0000       0.135645         3.6911
  81   0.0000       0.138538         3.7698

MULLIKEN ATOMIC CHARGES
-----------------------
   0 C :   -0.273532
   1 C :    0.046095
   2 O :   -0.341719
   3 C :    0.436314
   4 O :   -0.420949
   5 C :   -0.173897
   6 C :    0.143134
   7 C :   -0.288194
   8 N :   -0.123144
   9 C :    0.201824
  10 S :   -0.439402
  11 N :   -0.197511
  12 C :    0.038050
  13 C :    0.055715
  14 C :   -0.160175
  15 C :   -0.133963
  16 C :   -0.279396
  17 C :    0.311132
  18 O :   -0.359149
  19 C :   -0.272932
  20 H :    0.092243
  21 H :    0.099361
  22 H :    0.097363
  23 H :    0.090773
  24 H :    0.104470
  25 H :    0.126503
  26 H :    0.104081
  27 H :    0.127108
  28 H :    0.196863
  29 H :    0.193667
  30 H :    0.153708
  31 H :    0.153377
  32 H :    0.159169
  33 H :    0.128148
  34 H :    0.240083
  35 H :    0.164780
Sum of atomic charges:   -0.0000000

LOEWDIN ATOMIC CHARGES
----------------------
   0 C :    0.107238
   1 C :   -0.017444
   2 O :    0.304113
   3 C :   -0.414255
   4 O :    0.107691
   5 C :   -0.091605
   6 C :   -0.067157
   7 C :    0.125160
   8 N :    0.404694
   9 C :   -0.458683
  10 S :   -0.036088
  11 N :    0.397722
  12 C :   -0.046231
  13 C :   -0.038927
  14 C :    0.022199
  15 C :    0.040944
  16 C :   -0.002460
  17 C :   -0.192839
  18 O :    0.392935
  19 C :    0.028245
  20 H :   -0.029437
  21 H :   -0.023064
  22 H :   -0.026524
  23 H :   -0.028507
  24 H :   -0.027580
  25 H :   -0.008501
  26 H :   -0.020738
  27 H :   -0.010367
  28 H :   -0.059107
  29 H :   -0.063736
  30 H :   -0.004864
  31 H :   -0.025253
  32 H :   -0.021179
  33 H :   -0.036406
  34 H :   -0.154902
  35 H :   -0.025088

  Mayer bond orders larger than 0.100000
B(  0-C ,  1-C ) :   0.9709 B(  0-C , 20-H ) :   0.9786 B(  0-C , 21-H ) :   0.9783
B(  0-C , 22-H ) :   0.9771 B(  1-C ,  2-O ) :   0.9037 B(  1-C , 23-H ) :   0.9744
B(  1-C , 24-H ) :   0.9786 B(  2-O ,  3-C ) :   1.1505 B(  3-C ,  4-O ) :   1.9958
B(  3-C ,  5-C ) :   1.0459 B(  5-C ,  6-C ) :   1.6504 B(  5-C , 12-C ) :   0.9665
B(  6-C ,  7-C ) :   0.9538 B(  6-C ,  8-N ) :   1.1432 B(  7-C , 25-H ) :   0.9666
B(  7-C , 26-H ) :   0.9918 B(  7-C , 27-H ) :   0.9628 B(  8-N ,  9-C ) :   1.1796
B(  8-N , 28-H ) :   0.9490 B(  9-C , 10-S ) :   1.6107 B(  9-C , 11-N ) :   1.3037
B( 11-N , 12-C ) :   0.9915 B( 11-N , 29-H ) :   0.9520 B( 12-C , 13-C ) :   0.9473
B( 12-C , 30-H ) :   0.9996 B( 13-C , 14-C ) :   1.3763 B( 13-C , 19-C ) :   1.3693
B( 14-C , 15-C ) :   1.3948 B( 14-C , 31-H ) :   0.9648 B( 15-C , 16-C ) :   1.3626
B( 15-C , 32-H ) :   0.9714 B( 16-C , 17-C ) :   1.3314 B( 16-C , 33-H ) :   0.9860
B( 17-C , 18-O ) :   1.1080 B( 17-C , 19-C ) :   1.3790 B( 18-O , 34-H ) :   0.9806
B( 19-C , 35-H ) :   0.9584

MP2 TOTAL ENERGY:    -1274.344817947 Eh
FINAL SINGLE POINT ENERGY     -1274.344817946899

DIPOLE MOMENT
-------------
                                X             Y             Z
Electronic contribution:     12.20058       8.17380      11.06085
Nuclear contribution   :    -13.82020      -9.35944     -11.95909
                        -----------------------------------------
Total Dipole Moment    :     -1.61961      -1.18564      -0.89825
                        -----------------------------------------
Magnitude (a.u.)       :      2.19903
Magnitude (Debye)      :      5.58949

Rotational constants in cm-1:     0.010341     0.008958     0.005926
Rotational constants in MHz :   310.016676   268.559274   177.665817

                             ****ORCA TERMINATED NORMALLY****
TOTAL RUN TIME: 0 days 1 hours 41 minutes 23 seconds 709 msec
