                         Program Version 4.2.0 -  RELEASE  -
|  1> ! ri-mp2 cc-pvtz cc-pvtz/c TightSCF  NoKeepInts
|  2>
|  3> %scf
|  4>   MaxCore 4096
|  5> end
|  6> *xyz  0  1
|  7>     C       15.4268603   13.8982782   15.1365675
|  8>     C       15.6024503   14.2572003   16.6239553
|  9>     O       16.7095928   15.1670800   16.7474044
| 10>     C       16.4851542   16.5146876   16.6889727
| 11>     O       15.5052943   16.9871584   16.1378897
| 12>     C       17.4248426   17.2954437   17.5662939
| 13>     C       17.3885674   18.6499293   17.6462091
| 14>     C       16.4522987   19.5865925   16.9129836
| 15>     N       18.3119985   19.3302108   18.4457177
| 16>     C       19.3619404   18.7448565   19.1014975
| 17>     S       20.4702759   19.6342483   19.9479349
| 18>     N       19.4510177   17.3788189   19.0174546
| 19>     C       18.4437209   16.4983651   18.3979208
| 20>     C       17.7660682   15.6551775   19.4747165
| 21>     C       17.9800658   14.2650235   19.5314428
| 22>     C       17.3537268   13.4847277   20.5178404
| 23>     C       16.5088584   14.0994846   21.4576337
| 24>     C       16.2975329   15.4842191   21.4072623
| 25>     O       15.4834335   16.0808313   22.3140346
| 26>     C       16.9216009   16.2579569   20.4239329
| 27>     H       15.1641301   14.7873332   14.5494288
| 28>     H       14.6254173   13.1602273   15.0119373
| 29>     H       16.3522163   13.4741861   14.7278270
| 30>     H       14.6805797   14.6931731   17.0333140
| 31>     H       15.8242868   13.3412524   17.1865209
| 32>     H       15.4126920   19.4037419   17.2138647
| 33>     H       16.5122275   19.4235420   15.8294125
| 34>     H       16.6707004   20.6445776   17.0994667
| 35>     H       18.2628532   20.3339400   18.5177522
| 36>     H       20.2146453   16.9729723   19.5428103
| 37>     H       18.9767995   15.8239257   17.7130579
| 38>     H       18.6292871   13.7867756   18.8028517
| 39>     H       17.5246509   12.4101601   20.5527334
| 40>     H       16.0236733   13.5015032   22.2220663
| 41>     H       15.1772534   15.3955176   22.9267374
| 42>     H       16.7502868   17.3288818   20.4065538
| 43> *
| 44>
| 45>                          ****END OF INPUT****

CARTESIAN COORDINATES (ANGSTROEM)
---------------------------------
  C     15.426860   13.898278   15.136567
  C     15.602450   14.257200   16.623955
  O     16.709593   15.167080   16.747404
  C     16.485154   16.514688   16.688973
  O     15.505294   16.987158   16.137890
  C     17.424843   17.295444   17.566294
  C     17.388567   18.649929   17.646209
  C     16.452299   19.586592   16.912984
  N     18.311999   19.330211   18.445718
  C     19.361940   18.744857   19.101498
  S     20.470276   19.634248   19.947935
  N     19.451018   17.378819   19.017455
  C     18.443721   16.498365   18.397921
  C     17.766068   15.655178   19.474716
  C     17.980066   14.265023   19.531443
  C     17.353727   13.484728   20.517840
  C     16.508858   14.099485   21.457634
  C     16.297533   15.484219   21.407262
  O     15.483433   16.080831   22.314035
  C     16.921601   16.257957   20.423933
  H     15.164130   14.787333   14.549429
  H     14.625417   13.160227   15.011937
  H     16.352216   13.474186   14.727827
  H     14.680580   14.693173   17.033314
  H     15.824287   13.341252   17.186521
  H     15.412692   19.403742   17.213865
  H     16.512228   19.423542   15.829413
  H     16.670700   20.644578   17.099467
  H     18.262853   20.333940   18.517752
  H     20.214645   16.972972   19.542810
  H     18.976799   15.823926   17.713058
  H     18.629287   13.786776   18.802852
  H     17.524651   12.410160   20.552733
  H     16.023673   13.501503   22.222066
  H     15.177253   15.395518   22.926737
  H     16.750287   17.328882   20.406554

 Total Charge           Charge          ....    0
 Multiplicity           Mult            ....    1
 Number of Electrons    NEL             ....  154
 Basis Dimension        Dim             ....  828

ORBITAL ENERGIES
----------------

  NO   OCC          E(Eh)            E(eV)
   0   2.0000     -91.889053     -2500.4283
   1   2.0000     -20.597882      -560.4969
   2   2.0000     -20.596759      -560.4663
   3   2.0000     -20.543606      -559.0199
   4   2.0000     -15.629309      -425.2951
   5   2.0000     -15.608384      -424.7257
   6   2.0000     -11.395565      -310.0891
   7   2.0000     -11.384161      -309.7788
   8   2.0000     -11.336055      -308.4697
   9   2.0000     -11.313985      -307.8692
  10   2.0000     -11.309275      -307.7410
  11   2.0000     -11.296731      -307.3997
  12   2.0000     -11.259897      -306.3974
  13   2.0000     -11.259050      -306.3743
  14   2.0000     -11.255505      -306.2778
  15   2.0000     -11.252434      -306.1943
  16   2.0000     -11.243164      -305.9420
  17   2.0000     -11.238554      -305.8166
  18   2.0000     -11.238315      -305.8101
  19   2.0000     -11.221516      -305.3530
  20   2.0000      -8.894112      -242.0211
  21   2.0000      -6.575686      -178.9335
  22   2.0000      -6.573682      -178.8790
  23   2.0000      -6.573094      -178.8630
  24   2.0000      -1.451235       -39.4901
  25   2.0000      -1.416404       -38.5423
  26   2.0000      -1.355032       -36.8723
  27   2.0000      -1.340243       -36.4699
  28   2.0000      -1.238688       -33.7064
  29   2.0000      -1.157746       -31.5039
  30   2.0000      -1.120488       -30.4900
  31   2.0000      -1.042856       -28.3776
  32   2.0000      -1.035510       -28.1777
  33   2.0000      -1.015272       -27.6270
  34   2.0000      -0.995294       -27.0833
  35   2.0000      -0.983976       -26.7753
  36   2.0000      -0.922723       -25.1086
  37   2.0000      -0.890126       -24.2216
  38   2.0000      -0.847331       -23.0570
  39   2.0000      -0.838064       -22.8049
  40   2.0000      -0.834216       -22.7002
  41   2.0000      -0.819885       -22.3102
  42   2.0000      -0.758286       -20.6340
  43   2.0000      -0.732266       -19.9260
  44   2.0000      -0.723133       -19.6774
  45   2.0000      -0.695843       -18.9348
  46   2.0000      -0.688595       -18.7376
  47   2.0000      -0.680362       -18.5136
  48   2.0000      -0.671050       -18.2602
  49   2.0000      -0.653391       -17.7797
  50   2.0000      -0.646766       -17.5994
  51   2.0000      -0.645488       -17.5646
  52   2.0000      -0.630197       -17.1485
  53   2.0000      -0.610790       -16.6204
  54   2.0000      -0.606954       -16.5161
  55   2.0000      -0.599549       -16.3146
  56   2.0000      -0.598948       -16.2982
  57   2.0000      -0.579900       -15.7799
  58   2.0000      -0.572585       -15.5808
  59   2.0000      -0.570445       -15.5226
  60   2.0000      -0.563804       -15.3419
  61   2.0000      -0.539179       -14.6718
  62   2.0000      -0.535401       -14.5690
  63   2.0000      -0.525150       -14.2900
  64   2.0000      -0.521730       -14.1970
  65   2.0000      -0.513662       -13.9775
  66   2.0000      -0.501092       -13.6354
  67   2.0000      -0.497516       -13.5381
  68   2.0000      -0.486740       -13.2449
  69   2.0000      -0.464181       -12.6310
  70   2.0000      -0.454795       -12.3756
  71   2.0000      -0.447022       -12.1641
  72   2.0000      -0.354369        -9.6429
  73   2.0000      -0.349556        -9.5119
  74   2.0000      -0.328413        -8.9366
  75   2.0000      -0.321605        -8.7513
  76   2.0000      -0.316214        -8.6046
  77   0.0000       0.074960         2.0398
  78   0.0000       0.106024         2.8851
  79   0.0000       0.125216         3.4073
  80   0.0000       0.132368         3.6019
  81   0.0000       0.137779         3.7492

MULLIKEN ATOMIC CHARGES
-----------------------
   0 C :   -0.279960
   1 C :    0.042596
   2 O :   -0.360375
   3 C :    0.452893
   4 O :   -0.431166
   5 C :   -0.210122
   6 C :    0.152765
   7 C :   -0.273533
   8 N :   -0.121343
   9 C :    0.211466
  10 S :   -0.439626
  11 N :   -0.204656
  12 C :    0.057547
  13 C :    0.065020
  14 C :   -0.189860
  15 C :   -0.129597
  16 C :   -0.279794
  17 C :    0.316005
  18 O :   -0.356454
  19 C :   -0.269075
  20 H :    0.114387
  21 H :    0.091488
  22 H :    0.090522
  23 H :    0.096066
  24 H :    0.106505
  25 H :    0.132672
  26 H :    0.129795
  27 H :    0.095491
  28 H :    0.197425
  29 H :    0.194659
  30 H :    0.150355
  31 H :    0.150558
  32 H :    0.161442
  33 H :    0.130165
  34 H :    0.240761
  35 H :    0.164974
Sum of atomic charges:   -0.0000000

LOEWDIN ATOMIC CHARGES
----------------------
   0 C :    0.104620
   1 C :   -0.015779
   2 O :    0.305805
   3 C :   -0.414122
   4 O :    0.100040
   5 C :   -0.094820
   6 C :   -0.058942
   7 C :    0.131475
   8 N :    0.406596
   9 C :   -0.456419
  10 S :   -0.035190
  11 N :    0.396387
  12 C :   -0.052296
  13 C :   -0.038190
  14 C :    0.014532
  15 C :    0.038470
  16 C :   -0.002117
  17 C :   -0.189467
  18 O :    0.395285
  19 C :    0.031186
  20 H :   -0.024467
  21 H :   -0.028617
  22 H :   -0.029870
  23 H :   -0.027766
  24 H :   -0.026994
  25 H :   -0.004559
  26 H :   -0.004162
  27 H :   -0.023276
  28 H :   -0.057540
  29 H :   -0.064607
  30 H :   -0.010452
  31 H :   -0.030079
  32 H :   -0.021431
  33 H :   -0.035619
  34 H :   -0.153860
  35 H :   -0.023755

  Mayer bond orders larger than 0.100000
B(  0-C ,  1-C ) :   0.9748 B(  0-C , 20-H ) :   0.9754 B(  0-C , 21-H ) :   0.9774
B(  0-C , 22-H ) :   0.9770 B(  1-C ,  2-O ) :   0.8867 B(  1-C , 23-H ) :   0.9733
B(  1-C , 24-H ) :   0.9802 B(  2-O ,  3-C ) :   1.1469 B(  3-C ,  4-O ) :   1.9616
B(  3-C ,  5-C ) :   1.0658 B(  5-C ,  6-C ) :   1.6541 B(  5-C , 12-C ) :   0.9728
B(  6-C ,  7-C ) :   0.9672 B(  6-C ,  8-N ) :   1.1624 B(  7-C , 25-H ) :   0.9596
B(  7-C , 26-H ) :   0.9609 B(  7-C , 27-H ) :   0.9908 B(  8-N ,  9-C ) :   1.1827
B(  8-N , 28-H ) :   0.9478 B(  9-C , 10-S ) :   1.6076 B(  9-C , 11-N ) :   1.3053
B( 11-N , 12-C ) :   0.9850 B( 11-N , 29-H ) :   0.9516 B( 12-C , 13-C ) :   0.9358
B( 12-C , 30-H ) :   1.0025 B( 13-C , 14-C ) :   1.3538 B( 13-C , 19-C ) :   1.3826
B( 14-C , 15-C ) :   1.3893 B( 14-C , 31-H ) :   0.9720 B( 15-C , 16-C ) :   1.3639
B( 15-C , 32-H ) :   0.9704 B( 16-C , 17-C ) :   1.3313 B( 16-C , 33-H ) :   0.9849
B( 17-C , 18-O ) :   1.1103 B( 17-C , 19-C ) :   1.3722 B( 18-O , 34-H ) :   0.9798
B( 19-C , 35-H ) :   0.9583

MP2 TOTAL ENERGY:    -1274.346125238 Eh
FINAL SINGLE POINT ENERGY     -1274.346125238348

DIPOLE MOMENT
-------------
                                X             Y             Z
Electronic contribution:     10.20852       9.82606       9.35134
Nuclear contribution   :    -11.32596     -11.42799      -9.58986
                        -----------------------------------------
Total Dipole Moment    :     -1.11744      -1.60193      -0.23852
                        -----------------------------------------
Magnitude (a.u.)       :      1.96768
Magnitude (Debye)      :      5.00144

Rotational constants in cm-1:     0.011413     0.008699     0.006072
Rotational constants in MHz :   342.140123   260.786652   182.030360

                             ****ORCA TERMINATED NORMALLY****
TOTAL RUN TIME: 0 days 1 hours 39 minutes 26 seconds 737 msec
