                         Program Version 4.2.0 -  RELEASE  -
|  1> ! ri-mp2 cc-pvtz cc-pvtz/c TightSCF  NoKeepInts
|  2>
|  3> %scf
|  4>   MaxCore 4096
|  5> end
|  6> *xyz  0  1
|  7>     C       15.0273094   14.0375421   15.7976189
|  8>     C       16.0498214   14.2309790   16.9360988
|  9>     O       17.1078194   15.1293968   16.5392841
| 10>     C       16.8687507   16.4695064   16.4066764
| 11>     O       15.9732176   16.9000316   15.7024980
| 12>     C       17.5939044   17.2937465   17.4375589
| 13>     C       17.4448464   18.6407474   17.5266282
| 14>     C       16.5610098   19.5265413   16.6743597
| 15>     N       18.1868918   19.3685085   18.4618555
| 16>     C       19.1861763   18.8514051   19.2419483
| 17>     S       20.0991313   19.8026388   20.2406401
| 18>     N       19.3981344   17.5000098   19.1465892
| 19>     C       18.5433839   16.5590648   18.4006628
| 20>     C       17.7973802   15.6651872   19.3867982
| 21>     C       18.1840542   14.3228477   19.5604903
| 22>     C       17.4950765   13.4909055   20.4589192
| 23>     C       16.4141902   14.0064617   21.1942382
| 24>     C       16.0330396   15.3453795   21.0316830
| 25>     O       14.9912453   15.8467603   21.7413370
| 26>     C       16.7189941   16.1702817   20.1350202
| 27>     H       14.3943695   14.9242674   15.6726400
| 28>     H       14.3684288   13.1891384   16.0176576
| 29>     H       15.5374756   13.8376346   14.8471826
| 30>     H       15.5436799   14.6038978   17.8366624
| 31>     H       16.4912861   13.2562863   17.1800161
| 32>     H       15.5058599   19.2510133   16.7984970
| 33>     H       16.8062271   19.4087517   15.6111184
| 34>     H       16.6564183   20.5910788   16.9182182
| 35>     H       18.0482331   20.3633566   18.5405870
| 36>     H       20.1204978   17.1432388   19.7587509
| 37>     H       19.2051730   15.9261232   17.7925807
| 38>     H       19.0182836   13.9210896   18.9912067
| 39>     H       17.8009379   12.4536064   20.5855861
| 40>     H       15.8801761   13.3684618   21.8910011
| 41>     H       14.6832233   15.1506651   22.3411526
| 42>     H       16.4123532   17.2054487   20.0302378
| 43> *
| 44>
| 45>                          ****END OF INPUT****

CARTESIAN COORDINATES (ANGSTROEM)
---------------------------------
  C     15.027309   14.037542   15.797619
  C     16.049821   14.230979   16.936099
  O     17.107819   15.129397   16.539284
  C     16.868751   16.469506   16.406676
  O     15.973218   16.900032   15.702498
  C     17.593904   17.293747   17.437559
  C     17.444846   18.640747   17.526628
  C     16.561010   19.526541   16.674360
  N     18.186892   19.368508   18.461855
  C     19.186176   18.851405   19.241948
  S     20.099131   19.802639   20.240640
  N     19.398134   17.500010   19.146589
  C     18.543384   16.559065   18.400663
  C     17.797380   15.665187   19.386798
  C     18.184054   14.322848   19.560490
  C     17.495076   13.490905   20.458919
  C     16.414190   14.006462   21.194238
  C     16.033040   15.345379   21.031683
  O     14.991245   15.846760   21.741337
  C     16.718994   16.170282   20.135020
  H     14.394369   14.924267   15.672640
  H     14.368429   13.189138   16.017658
  H     15.537476   13.837635   14.847183
  H     15.543680   14.603898   17.836662
  H     16.491286   13.256286   17.180016
  H     15.505860   19.251013   16.798497
  H     16.806227   19.408752   15.611118
  H     16.656418   20.591079   16.918218
  H     18.048233   20.363357   18.540587
  H     20.120498   17.143239   19.758751
  H     19.205173   15.926123   17.792581
  H     19.018284   13.921090   18.991207
  H     17.800938   12.453606   20.585586
  H     15.880176   13.368462   21.891001
  H     14.683223   15.150665   22.341153
  H     16.412353   17.205449   20.030238

 Total Charge           Charge          ....    0
 Multiplicity           Mult            ....    1
 Number of Electrons    NEL             ....  154
 Basis Dimension        Dim             ....  828

ORBITAL ENERGIES
----------------

  NO   OCC          E(Eh)            E(eV)
   0   2.0000     -91.889888     -2500.4510
   1   2.0000     -20.600640      -560.5719
   2   2.0000     -20.586077      -560.1756
   3   2.0000     -20.546307      -559.0934
   4   2.0000     -15.630268      -425.3212
   5   2.0000     -15.609203      -424.7480
   6   2.0000     -11.394898      -310.0709
   7   2.0000     -11.384835      -309.7971
   8   2.0000     -11.336876      -308.4921
   9   2.0000     -11.318340      -307.9877
  10   2.0000     -11.310534      -307.7753
  11   2.0000     -11.297121      -307.4103
  12   2.0000     -11.263249      -306.4886
  13   2.0000     -11.259668      -306.3911
  14   2.0000     -11.258938      -306.3713
  15   2.0000     -11.253116      -306.2129
  16   2.0000     -11.247289      -306.0543
  17   2.0000     -11.242101      -305.9131
  18   2.0000     -11.241868      -305.9068
  19   2.0000     -11.215962      -305.2019
  20   2.0000      -8.894944      -242.0437
  21   2.0000      -6.576516      -178.9561
  22   2.0000      -6.574514      -178.9016
  23   2.0000      -6.573924      -178.8856
  24   2.0000      -1.445901       -39.3450
  25   2.0000      -1.420326       -38.6490
  26   2.0000      -1.353915       -36.8419
  27   2.0000      -1.341346       -36.4999
  28   2.0000      -1.239895       -33.7393
  29   2.0000      -1.161210       -31.5981
  30   2.0000      -1.120987       -30.5036
  31   2.0000      -1.045218       -28.4418
  32   2.0000      -1.030870       -28.0514
  33   2.0000      -1.019351       -27.7379
  34   2.0000      -0.996362       -27.1124
  35   2.0000      -0.984796       -26.7977
  36   2.0000      -0.924516       -25.1574
  37   2.0000      -0.886659       -24.1272
  38   2.0000      -0.848920       -23.1003
  39   2.0000      -0.841478       -22.8978
  40   2.0000      -0.837722       -22.7956
  41   2.0000      -0.824256       -22.4292
  42   2.0000      -0.752115       -20.4661
  43   2.0000      -0.734271       -19.9805
  44   2.0000      -0.719933       -19.5904
  45   2.0000      -0.699378       -19.0310
  46   2.0000      -0.690223       -18.7819
  47   2.0000      -0.679749       -18.4969
  48   2.0000      -0.669420       -18.2158
  49   2.0000      -0.658693       -17.9239
  50   2.0000      -0.649500       -17.6738
  51   2.0000      -0.647181       -17.6107
  52   2.0000      -0.636699       -17.3255
  53   2.0000      -0.611116       -16.6293
  54   2.0000      -0.604761       -16.4564
  55   2.0000      -0.600938       -16.3523
  56   2.0000      -0.593090       -16.1388
  57   2.0000      -0.581921       -15.8349
  58   2.0000      -0.575964       -15.6728
  59   2.0000      -0.571341       -15.5470
  60   2.0000      -0.564237       -15.3537
  61   2.0000      -0.539688       -14.6857
  62   2.0000      -0.534698       -14.5499
  63   2.0000      -0.527899       -14.3649
  64   2.0000      -0.517792       -14.0898
  65   2.0000      -0.514117       -13.9898
  66   2.0000      -0.503307       -13.6957
  67   2.0000      -0.497339       -13.5333
  68   2.0000      -0.484289       -13.1782
  69   2.0000      -0.463542       -12.6136
  70   2.0000      -0.455687       -12.3999
  71   2.0000      -0.440484       -11.9862
  72   2.0000      -0.355658        -9.6779
  73   2.0000      -0.353267        -9.6129
  74   2.0000      -0.329785        -8.9739
  75   2.0000      -0.325578        -8.8594
  76   2.0000      -0.317285        -8.6338
  77   0.0000       0.071379         1.9423
  78   0.0000       0.101548         2.7633
  79   0.0000       0.123302         3.3552
  80   0.0000       0.129943         3.5359
  81   0.0000       0.134583         3.6622

MULLIKEN ATOMIC CHARGES
-----------------------
   0 C :   -0.272932
   1 C :    0.031660
   2 O :   -0.385719
   3 C :    0.489082
   4 O :   -0.416715
   5 C :   -0.256593
   6 C :    0.161090
   7 C :   -0.270171
   8 N :   -0.123281
   9 C :    0.214171
  10 S :   -0.439362
  11 N :   -0.206241
  12 C :    0.066671
  13 C :    0.029135
  14 C :   -0.167925
  15 C :   -0.130989
  16 C :   -0.277918
  17 C :    0.312741
  18 O :   -0.356204
  19 C :   -0.258200
  20 H :    0.112993
  21 H :    0.089213
  22 H :    0.096969
  23 H :    0.097935
  24 H :    0.104915
  25 H :    0.130827
  26 H :    0.131900
  27 H :    0.095478
  28 H :    0.197665
  29 H :    0.194578
  30 H :    0.150344
  31 H :    0.148472
  32 H :    0.163549
  33 H :    0.133024
  34 H :    0.241578
  35 H :    0.168259
Sum of atomic charges:   -0.0000000

LOEWDIN ATOMIC CHARGES
----------------------
   0 C :    0.104733
   1 C :   -0.018699
   2 O :    0.287473
   3 C :   -0.414260
   4 O :    0.117694
   5 C :   -0.097649
   6 C :   -0.058217
   7 C :    0.131173
   8 N :    0.406907
   9 C :   -0.456217
  10 S :   -0.034683
  11 N :    0.396217
  12 C :   -0.052632
  13 C :   -0.037653
  14 C :    0.015760
  15 C :    0.041044
  16 C :   -0.002156
  17 C :   -0.190745
  18 O :    0.396365
  19 C :    0.029905
  20 H :   -0.028285
  21 H :   -0.030856
  22 H :   -0.025593
  23 H :   -0.030131
  24 H :   -0.024395
  25 H :   -0.005098
  26 H :   -0.003636
  27 H :   -0.023256
  28 H :   -0.057410
  29 H :   -0.064942
  30 H :   -0.009195
  31 H :   -0.029465
  32 H :   -0.020328
  33 H :   -0.034768
  34 H :   -0.152939
  35 H :   -0.024064

  Mayer bond orders larger than 0.100000
B(  0-C ,  1-C ) :   0.9849 B(  0-C , 20-H ) :   0.9719 B(  0-C , 21-H ) :   0.9773
B(  0-C , 22-H ) :   0.9774 B(  1-C ,  2-O ) :   0.8823 B(  1-C , 23-H ) :   0.9669
B(  1-C , 24-H ) :   0.9807 B(  2-O ,  3-C ) :   1.0918 B(  3-C ,  4-O ) :   1.9943
B(  3-C ,  5-C ) :   1.0779 B(  5-C ,  6-C ) :   1.6485 B(  5-C , 12-C ) :   0.9707
B(  6-C ,  7-C ) :   0.9668 B(  6-C ,  8-N ) :   1.1610 B(  7-C , 25-H ) :   0.9600
B(  7-C , 26-H ) :   0.9600 B(  7-C , 27-H ) :   0.9906 B(  8-N ,  9-C ) :   1.1819
B(  8-N , 28-H ) :   0.9476 B(  9-C , 10-S ) :   1.6068 B(  9-C , 11-N ) :   1.3069
B( 11-N , 12-C ) :   0.9747 B( 11-N , 29-H ) :   0.9521 B( 12-C , 13-C ) :   0.9419
B( 12-C , 30-H ) :   1.0010 B( 13-C , 14-C ) :   1.3478 B( 13-C , 19-C ) :   1.3804
B( 14-C , 15-C ) :   1.3893 B( 14-C , 31-H ) :   0.9764 B( 15-C , 16-C ) :   1.3646
B( 15-C , 32-H ) :   0.9699 B( 16-C , 17-C ) :   1.3293 B( 16-C , 33-H ) :   0.9840
B( 17-C , 18-O ) :   1.1134 B( 17-C , 19-C ) :   1.3703 B( 18-O , 34-H ) :   0.9791
B( 19-C , 35-H ) :   0.9578

MP2 TOTAL ENERGY:    -1274.334885107 Eh
FINAL SINGLE POINT ENERGY     -1274.334885106737

DIPOLE MOMENT
-------------
                                X             Y             Z
Electronic contribution:     10.50475       9.80361       7.50076
Nuclear contribution   :    -11.48134     -11.38472      -7.46158
                        -----------------------------------------
Total Dipole Moment    :     -0.97659      -1.58111       0.03917
                        -----------------------------------------
Magnitude (a.u.)       :      1.85880
Magnitude (Debye)      :      4.72471

Rotational constants in cm-1:     0.012187     0.008798     0.006286
Rotational constants in MHz :   365.355483   263.761620   188.462306

                             ****ORCA TERMINATED NORMALLY****
TOTAL RUN TIME: 0 days 1 hours 49 minutes 0 seconds 346 msec
