                         Program Version 4.2.0 -  RELEASE  -
|  1> ! ri-mp2 cc-pvtz cc-pvtz/c TightSCF  NoKeepInts
|  2>
|  3> %scf
|  4>   MaxCore 4096
|  5> end
|  6> *xyz  0  1
|  7>     C       15.8343882   14.3447720   14.3253621
|  8>     C       15.0712755   14.8180320   15.5780729
|  9>     O       15.8281848   15.8622213   16.2184485
| 10>     C       16.8857147   15.5482033   17.0246164
| 11>     O       17.2411243   14.3967656   17.2190695
| 12>     C       17.5329673   16.7183563   17.7123868
| 13>     C       17.3010207   18.0280635   17.4285897
| 14>     C       16.3669764   18.6133561   16.3888094
| 15>     N       18.0228611   19.0214597   18.0994491
| 16>     C       19.0827868   18.7920986   18.9361469
| 17>     S       19.9699749   20.0307103   19.5799051
| 18>     N       19.3691756   17.4796228   19.2115215
| 19>     C       18.5303418   16.3343372   18.8123484
| 20>     C       17.8132591   15.7490779   20.0264790
| 21>     C       17.9361172   14.3816652   20.3351827
| 22>     C       17.2777633   13.8365097   21.4502196
| 23>     C       16.4886273   14.6652894   22.2656542
| 24>     C       16.3604284   16.0269628   21.9599645
| 25>     O       15.5943710   16.8287648   22.7420797
| 26>     C       17.0165571   16.5665812   20.8491860
| 27>     H       16.0348239   15.1866812   13.6514072
| 28>     H       15.2450523   13.5995499   13.7775785
| 29>     H       16.7915326   13.8831634   14.5988459
| 30>     H       14.0961074   15.2161153   15.2697455
| 31>     H       14.8944178   13.9791493   16.2654883
| 32>     H       16.5838609   18.2015676   15.3952976
| 33>     H       16.4485627   19.7041815   16.3101900
| 34>     H       15.3226865   18.3807728   16.6320977
| 35>     H       17.8277074   19.9915738   17.9106918
| 36>     H       20.1347847   17.3366843   19.8575042
| 37>     H       19.1986357   15.5625581   18.4037317
| 38>     H       18.5318665   13.7348165   19.6956987
| 39>     H       17.3760029   12.7757858   21.6737594
| 40>     H       15.9768108   14.2479946   23.1263335
| 41>     H       15.2539274   16.2848322   23.4679819
| 42>     H       16.9063049   17.6237238   20.6341560
| 43> *
| 44>
| 45>                          ****END OF INPUT****

CARTESIAN COORDINATES (ANGSTROEM)
---------------------------------
  C     15.834388   14.344772   14.325362
  C     15.071276   14.818032   15.578073
  O     15.828185   15.862221   16.218449
  C     16.885715   15.548203   17.024616
  O     17.241124   14.396766   17.219069
  C     17.532967   16.718356   17.712387
  C     17.301021   18.028063   17.428590
  C     16.366976   18.613356   16.388809
  N     18.022861   19.021460   18.099449
  C     19.082787   18.792099   18.936147
  S     19.969975   20.030710   19.579905
  N     19.369176   17.479623   19.211521
  C     18.530342   16.334337   18.812348
  C     17.813259   15.749078   20.026479
  C     17.936117   14.381665   20.335183
  C     17.277763   13.836510   21.450220
  C     16.488627   14.665289   22.265654
  C     16.360428   16.026963   21.959965
  O     15.594371   16.828765   22.742080
  C     17.016557   16.566581   20.849186
  H     16.034824   15.186681   13.651407
  H     15.245052   13.599550   13.777578
  H     16.791533   13.883163   14.598846
  H     14.096107   15.216115   15.269745
  H     14.894418   13.979149   16.265488
  H     16.583861   18.201568   15.395298
  H     16.448563   19.704182   16.310190
  H     15.322686   18.380773   16.632098
  H     17.827707   19.991574   17.910692
  H     20.134785   17.336684   19.857504
  H     19.198636   15.562558   18.403732
  H     18.531866   13.734817   19.695699
  H     17.376003   12.775786   21.673759
  H     15.976811   14.247995   23.126334
  H     15.253927   16.284832   23.467982
  H     16.906305   17.623724   20.634156

 Total Charge           Charge          ....    0
 Multiplicity           Mult            ....    1
 Number of Electrons    NEL             ....  154
 Basis Dimension        Dim             ....  828

ORBITAL ENERGIES
----------------

  NO   OCC          E(Eh)            E(eV)
   0   2.0000     -91.888094     -2500.4021
   1   2.0000     -20.604871      -560.6870
   2   2.0000     -20.590556      -560.2975
   3   2.0000     -20.545069      -559.0598
   4   2.0000     -15.628645      -425.2771
   5   2.0000     -15.606530      -424.6753
   6   2.0000     -11.396998      -310.1281
   7   2.0000     -11.382818      -309.7422
   8   2.0000     -11.337301      -308.5037
   9   2.0000     -11.306342      -307.6612
  10   2.0000     -11.304982      -307.6242
  11   2.0000     -11.301047      -307.5171
  12   2.0000     -11.261008      -306.4276
  13   2.0000     -11.258880      -306.3697
  14   2.0000     -11.252406      -306.1935
  15   2.0000     -11.246470      -306.0320
  16   2.0000     -11.236136      -305.7508
  17   2.0000     -11.232342      -305.6476
  18   2.0000     -11.229242      -305.5632
  19   2.0000     -11.227673      -305.5205
  20   2.0000      -8.893152      -241.9950
  21   2.0000      -6.574728      -178.9074
  22   2.0000      -6.572723      -178.8529
  23   2.0000      -6.572136      -178.8369
  24   2.0000      -1.454265       -39.5726
  25   2.0000      -1.410288       -38.3759
  26   2.0000      -1.357413       -36.9371
  27   2.0000      -1.339512       -36.4500
  28   2.0000      -1.236935       -33.6587
  29   2.0000      -1.151180       -31.3252
  30   2.0000      -1.119144       -30.4535
  31   2.0000      -1.041995       -28.3541
  32   2.0000      -1.034884       -28.1606
  33   2.0000      -1.008466       -27.4417
  34   2.0000      -0.997034       -27.1307
  35   2.0000      -0.982631       -26.7387
  36   2.0000      -0.920908       -25.0592
  37   2.0000      -0.894155       -24.3312
  38   2.0000      -0.847644       -23.0656
  39   2.0000      -0.834682       -22.7129
  40   2.0000      -0.826762       -22.4973
  41   2.0000      -0.816458       -22.2170
  42   2.0000      -0.755112       -20.5477
  43   2.0000      -0.735060       -20.0020
  44   2.0000      -0.724162       -19.7055
  45   2.0000      -0.689978       -18.7753
  46   2.0000      -0.684855       -18.6358
  47   2.0000      -0.679665       -18.4946
  48   2.0000      -0.671418       -18.2702
  49   2.0000      -0.658328       -17.9140
  50   2.0000      -0.647220       -17.6117
  51   2.0000      -0.641920       -17.4675
  52   2.0000      -0.630151       -17.1473
  53   2.0000      -0.613258       -16.6876
  54   2.0000      -0.599721       -16.3192
  55   2.0000      -0.598471       -16.2852
  56   2.0000      -0.593801       -16.1581
  57   2.0000      -0.584718       -15.9110
  58   2.0000      -0.572121       -15.5682
  59   2.0000      -0.564822       -15.3696
  60   2.0000      -0.560438       -15.2503
  61   2.0000      -0.545585       -14.8461
  62   2.0000      -0.534478       -14.5439
  63   2.0000      -0.530101       -14.4248
  64   2.0000      -0.516220       -14.0471
  65   2.0000      -0.510001       -13.8778
  66   2.0000      -0.499268       -13.5858
  67   2.0000      -0.494800       -13.4642
  68   2.0000      -0.480154       -13.0656
  69   2.0000      -0.464187       -12.6312
  70   2.0000      -0.456421       -12.4198
  71   2.0000      -0.454541       -12.3687
  72   2.0000      -0.354389        -9.6434
  73   2.0000      -0.343090        -9.3359
  74   2.0000      -0.327150        -8.9022
  75   2.0000      -0.315404        -8.5826
  76   2.0000      -0.312704        -8.5091
  77   0.0000       0.075981         2.0675
  78   0.0000       0.114769         3.1230
  79   0.0000       0.121203         3.2981
  80   0.0000       0.136782         3.7220
  81   0.0000       0.140923         3.8347

MULLIKEN ATOMIC CHARGES
-----------------------
   0 C :   -0.294050
   1 C :    0.031267
   2 O :   -0.344196
   3 C :    0.455687
   4 O :   -0.440108
   5 C :   -0.179328
   6 C :    0.147448
   7 C :   -0.284220
   8 N :   -0.119802
   9 C :    0.200704
  10 S :   -0.438858
  11 N :   -0.195930
  12 C :    0.031837
  13 C :    0.059056
  14 C :   -0.159924
  15 C :   -0.133886
  16 C :   -0.278555
  17 C :    0.311715
  18 O :   -0.359251
  19 C :   -0.272182
  20 H :    0.090772
  21 H :    0.096791
  22 H :    0.116826
  23 H :    0.107634
  24 H :    0.107935
  25 H :    0.125850
  26 H :    0.101503
  27 H :    0.129263
  28 H :    0.196608
  29 H :    0.193382
  30 H :    0.153103
  31 H :    0.152673
  32 H :    0.158552
  33 H :    0.127614
  34 H :    0.239923
  35 H :    0.164143
Sum of atomic charges:   -0.0000000

LOEWDIN ATOMIC CHARGES
----------------------
   0 C :    0.104537
   1 C :   -0.016464
   2 O :    0.306592
   3 C :   -0.413464
   4 O :    0.100903
   5 C :   -0.090495
   6 C :   -0.063808
   7 C :    0.124864
   8 N :    0.405039
   9 C :   -0.459260
  10 S :   -0.035654
  11 N :    0.398065
  12 C :   -0.046743
  13 C :   -0.038702
  14 C :    0.022302
  15 C :    0.040904
  16 C :   -0.002178
  17 C :   -0.192400
  18 O :    0.392965
  19 C :    0.028513
  20 H :   -0.030932
  21 H :   -0.026370
  22 H :   -0.024436
  23 H :   -0.026010
  24 H :   -0.026364
  25 H :   -0.009253
  26 H :   -0.021332
  27 H :   -0.009037
  28 H :   -0.059237
  29 H :   -0.063546
  30 H :   -0.005343
  31 H :   -0.025489
  32 H :   -0.021370
  33 H :   -0.036489
  34 H :   -0.155008
  35 H :   -0.025301

  Mayer bond orders larger than 0.100000
B(  0-C ,  1-C ) :   0.9634 B(  0-C , 20-H ) :   0.9777 B(  0-C , 21-H ) :   0.9764
B(  0-C , 22-H ) :   0.9744 B(  1-C ,  2-O ) :   0.8971 B(  1-C , 23-H ) :   0.9848
B(  1-C , 24-H ) :   0.9763 B(  2-O ,  3-C ) :   1.1638 B(  3-C ,  4-O ) :   1.9463
B(  3-C ,  5-C ) :   1.0804 B(  5-C ,  6-C ) :   1.6406 B(  5-C , 12-C ) :   0.9681
B(  6-C ,  7-C ) :   0.9559 B(  6-C ,  8-N ) :   1.1548 B(  7-C , 25-H ) :   0.9648
B(  7-C , 26-H ) :   0.9914 B(  7-C , 27-H ) :   0.9638 B(  8-N ,  9-C ) :   1.1762
B(  8-N , 28-H ) :   0.9486 B(  9-C , 10-S ) :   1.6111 B(  9-C , 11-N ) :   1.3052
B( 11-N , 12-C ) :   0.9936 B( 11-N , 29-H ) :   0.9519 B( 12-C , 13-C ) :   0.9470
B( 12-C , 30-H ) :   1.0008 B( 13-C , 14-C ) :   1.3742 B( 13-C , 19-C ) :   1.3697
B( 14-C , 15-C ) :   1.3946 B( 14-C , 31-H ) :   0.9654 B( 15-C , 16-C ) :   1.3625
B( 15-C , 32-H ) :   0.9716 B( 16-C , 17-C ) :   1.3316 B( 16-C , 33-H ) :   0.9861
B( 17-C , 18-O ) :   1.1078 B( 17-C , 19-C ) :   1.3796 B( 18-O , 34-H ) :   0.9807
B( 19-C , 35-H ) :   0.9583

MP2 TOTAL ENERGY:    -1274.349650105 Eh
FINAL SINGLE POINT ENERGY     -1274.349650105020

DIPOLE MOMENT
-------------
                                X             Y             Z
Electronic contribution:      9.50716       8.72549      12.45817
Nuclear contribution   :    -11.21191      -9.76352     -13.38120
                        -----------------------------------------
Total Dipole Moment    :     -1.70475      -1.03803      -0.92302
                        -----------------------------------------
Magnitude (a.u.)       :      2.19901
Magnitude (Debye)      :      5.58944

Rotational constants in cm-1:     0.010596     0.008679     0.005698
Rotational constants in MHz :   317.660243   260.180393   170.810968

                             ****ORCA TERMINATED NORMALLY****
TOTAL RUN TIME: 0 days 1 hours 38 minutes 47 seconds 365 msec
