                         Program Version 4.2.0 -  RELEASE  -
|  1> ! ri-mp2 cc-pvtz cc-pvtz/c TightSCF  NoKeepInts
|  2>
|  3> %scf
|  4>   MaxCore 4096
|  5> end
|  6> *xyz  0  1
|  7>     C       15.8985202   13.8054721   14.8322843
|  8>     C       15.2656035   14.7256665   15.8911665
|  9>     O       16.3369103   15.4162345   16.5615147
| 10>     C       16.0249125   16.2999400   17.5546287
| 11>     O       14.8858563   16.7061187   17.7153324
| 12>     C       17.2137842   17.1465691   17.8421612
| 13>     C       17.3427819   18.3751567   17.2971865
| 14>     C       16.4018378   18.9955193   16.2889932
| 15>     N       18.4546118   19.1616026   17.6140939
| 16>     C       19.3574862   18.8577775   18.6017088
| 17>     S       20.5815268   19.8892961   19.0186685
| 18>     N       19.2004783   17.6426201   19.2228591
| 19>     C       18.2892503   16.5770733   18.7684862
| 20>     C       17.7409873   15.7700317   19.9411850
| 21>     C       18.3099187   14.5187115   20.2404179
| 22>     C       17.8095903   13.7361367   21.2936837
| 23>     C       16.7391473   14.2148160   22.0670658
| 24>     C       16.1931820   15.4776232   21.7982231
| 25>     O       15.1819639   15.9549690   22.5676305
| 26>     C       16.6874409   16.2516615   20.7410494
| 27>     H       16.3822017   14.4119382   14.0539786
| 28>     H       15.1396864   13.1750767   14.3505359
| 29>     H       16.6540289   13.1494840   15.2802516
| 30>     H       14.5724330   15.4333367   15.4167410
| 31>     H       14.7029954   14.1206590   16.6160737
| 32>     H       16.1110406   18.2615088   15.5251366
| 33>     H       16.8517084   19.8483778   15.7685253
| 34>     H       15.4837280   19.3381455   16.7815970
| 35>     H       18.5826278   20.0537298   17.1635849
| 36>     H       19.8361515   17.4696719   19.9903359
| 37>     H       18.8921081   15.8947092   18.1546571
| 38>     H       19.1398164   14.1447750   19.6467036
| 39>     H       18.2531452   12.7652020   21.5091763
| 40>     H       16.3440084   13.6102402   22.8767290
| 41>     H       15.0419243   15.3288351   23.2944637
| 42>     H       16.2436053   17.2233139   20.5471703
| 43> *
| 44>
| 45>                          ****END OF INPUT****

CARTESIAN COORDINATES (ANGSTROEM)
---------------------------------
  C     15.898520   13.805472   14.832284
  C     15.265603   14.725667   15.891167
  O     16.336910   15.416234   16.561515
  C     16.024912   16.299940   17.554629
  O     14.885856   16.706119   17.715332
  C     17.213784   17.146569   17.842161
  C     17.342782   18.375157   17.297186
  C     16.401838   18.995519   16.288993
  N     18.454612   19.161603   17.614094
  C     19.357486   18.857778   18.601709
  S     20.581527   19.889296   19.018669
  N     19.200478   17.642620   19.222859
  C     18.289250   16.577073   18.768486
  C     17.740987   15.770032   19.941185
  C     18.309919   14.518712   20.240418
  C     17.809590   13.736137   21.293684
  C     16.739147   14.214816   22.067066
  C     16.193182   15.477623   21.798223
  O     15.181964   15.954969   22.567630
  C     16.687441   16.251662   20.741049
  H     16.382202   14.411938   14.053979
  H     15.139686   13.175077   14.350536
  H     16.654029   13.149484   15.280252
  H     14.572433   15.433337   15.416741
  H     14.702995   14.120659   16.616074
  H     16.111041   18.261509   15.525137
  H     16.851708   19.848378   15.768525
  H     15.483728   19.338145   16.781597
  H     18.582628   20.053730   17.163585
  H     19.836151   17.469672   19.990336
  H     18.892108   15.894709   18.154657
  H     19.139816   14.144775   19.646704
  H     18.253145   12.765202   21.509176
  H     16.344008   13.610240   22.876729
  H     15.041924   15.328835   23.294464
  H     16.243605   17.223314   20.547170

 Total Charge           Charge          ....    0
 Multiplicity           Mult            ....    1
 Number of Electrons    NEL             ....  154
 Basis Dimension        Dim             ....  828

ORBITAL ENERGIES
----------------

  NO   OCC          E(Eh)            E(eV)
   0   2.0000     -91.883809     -2500.2856
   1   2.0000     -20.606770      -560.7387
   2   2.0000     -20.597043      -560.4740
   3   2.0000     -20.554369      -559.3128
   4   2.0000     -15.619565      -425.0300
   5   2.0000     -15.603602      -424.5956
   6   2.0000     -11.394758      -310.0671
   7   2.0000     -11.379546      -309.6532
   8   2.0000     -11.318761      -307.9991
   9   2.0000     -11.316196      -307.9294
  10   2.0000     -11.308652      -307.7241
  11   2.0000     -11.298343      -307.4435
  12   2.0000     -11.264947      -306.5348
  13   2.0000     -11.257968      -306.3449
  14   2.0000     -11.253184      -306.2147
  15   2.0000     -11.252762      -306.2032
  16   2.0000     -11.247513      -306.0604
  17   2.0000     -11.243900      -305.9621
  18   2.0000     -11.242537      -305.9250
  19   2.0000     -11.233646      -305.6830
  20   2.0000      -8.888933      -241.8802
  21   2.0000      -6.570526      -178.7931
  22   2.0000      -6.568508      -178.7382
  23   2.0000      -6.567937      -178.7226
  24   2.0000      -1.458239       -39.6807
  25   2.0000      -1.416286       -38.5391
  26   2.0000      -1.359362       -36.9901
  27   2.0000      -1.331898       -36.2428
  28   2.0000      -1.232201       -33.5299
  29   2.0000      -1.160712       -31.5846
  30   2.0000      -1.120241       -30.4833
  31   2.0000      -1.045896       -28.4603
  32   2.0000      -1.041757       -28.3477
  33   2.0000      -1.017924       -27.6991
  34   2.0000      -0.996404       -27.1135
  35   2.0000      -0.981492       -26.7078
  36   2.0000      -0.921134       -25.0653
  37   2.0000      -0.888661       -24.1817
  38   2.0000      -0.843952       -22.9651
  39   2.0000      -0.836906       -22.7734
  40   2.0000      -0.834887       -22.7184
  41   2.0000      -0.818455       -22.2713
  42   2.0000      -0.761824       -20.7303
  43   2.0000      -0.733263       -19.9531
  44   2.0000      -0.725665       -19.7464
  45   2.0000      -0.696970       -18.9655
  46   2.0000      -0.687923       -18.7193
  47   2.0000      -0.681416       -18.5423
  48   2.0000      -0.677972       -18.4486
  49   2.0000      -0.666311       -18.1312
  50   2.0000      -0.651994       -17.7416
  51   2.0000      -0.646462       -17.5911
  52   2.0000      -0.631240       -17.1769
  53   2.0000      -0.608915       -16.5694
  54   2.0000      -0.600470       -16.3396
  55   2.0000      -0.598140       -16.2762
  56   2.0000      -0.586807       -15.9678
  57   2.0000      -0.576792       -15.6953
  58   2.0000      -0.573130       -15.5957
  59   2.0000      -0.569660       -15.5012
  60   2.0000      -0.565155       -15.3786
  61   2.0000      -0.555888       -15.1265
  62   2.0000      -0.538982       -14.6664
  63   2.0000      -0.526761       -14.3339
  64   2.0000      -0.515764       -14.0347
  65   2.0000      -0.511195       -13.9103
  66   2.0000      -0.505139       -13.7455
  67   2.0000      -0.497837       -13.5468
  68   2.0000      -0.489902       -13.3309
  69   2.0000      -0.461392       -12.5551
  70   2.0000      -0.460329       -12.5262
  71   2.0000      -0.453824       -12.3492
  72   2.0000      -0.353290        -9.6135
  73   2.0000      -0.346705        -9.4343
  74   2.0000      -0.326346        -8.8803
  75   2.0000      -0.322235        -8.7685
  76   2.0000      -0.311795        -8.4844
  77   0.0000       0.096200         2.6177
  78   0.0000       0.101170         2.7530
  79   0.0000       0.117688         3.2025
  80   0.0000       0.129273         3.5177
  81   0.0000       0.134246         3.6530

MULLIKEN ATOMIC CHARGES
-----------------------
   0 C :   -0.260200
   1 C :    0.037546
   2 O :   -0.332394
   3 C :    0.378155
   4 O :   -0.403032
   5 C :   -0.117468
   6 C :    0.140407
   7 C :   -0.294351
   8 N :   -0.138212
   9 C :    0.223249
  10 S :   -0.451174
  11 N :   -0.217137
  12 C :    0.100782
  13 C :   -0.053180
  14 C :   -0.188137
  15 C :   -0.130929
  16 C :   -0.266872
  17 C :    0.307214
  18 O :   -0.352505
  19 C :   -0.196569
  20 H :    0.093161
  21 H :    0.091879
  22 H :    0.097955
  23 H :    0.092502
  24 H :    0.093185
  25 H :    0.115610
  26 H :    0.098469
  27 H :    0.141020
  28 H :    0.193785
  29 H :    0.200852
  30 H :    0.138804
  31 H :    0.153782
  32 H :    0.160779
  33 H :    0.132718
  34 H :    0.240161
  35 H :    0.170146
Sum of atomic charges:   -0.0000000

LOEWDIN ATOMIC CHARGES
----------------------
   0 C :    0.107499
   1 C :   -0.017697
   2 O :    0.303748
   3 C :   -0.411608
   4 O :    0.120924
   5 C :   -0.083567
   6 C :   -0.088819
   7 C :    0.129061
   8 N :    0.401671
   9 C :   -0.449191
  10 S :   -0.045162
  11 N :    0.391376
  12 C :   -0.053326
  13 C :   -0.045175
  14 C :    0.011761
  15 C :    0.041447
  16 C :    0.005289
  17 C :   -0.186595
  18 O :    0.396571
  19 C :    0.044278
  20 H :   -0.027090
  21 H :   -0.023910
  22 H :   -0.026663
  23 H :   -0.031050
  24 H :   -0.029468
  25 H :   -0.008592
  26 H :   -0.021168
  27 H :   -0.006210
  28 H :   -0.060586
  29 H :   -0.068173
  30 H :   -0.016739
  31 H :   -0.028255
  32 H :   -0.019991
  33 H :   -0.033573
  34 H :   -0.152955
  35 H :   -0.018063

  Mayer bond orders larger than 0.100000
B(  0-C ,  1-C ) :   0.9713 B(  0-C , 20-H ) :   0.9789 B(  0-C , 21-H ) :   0.9779
B(  0-C , 22-H ) :   0.9760 B(  1-C ,  2-O ) :   0.9119 B(  1-C , 23-H ) :   0.9746
B(  1-C , 24-H ) :   0.9814 B(  2-O ,  3-C ) :   1.1952 B(  3-C ,  4-O ) :   2.0090
B(  3-C ,  5-C ) :   0.9416 B(  5-C ,  6-C ) :   1.7381 B(  5-C , 12-C ) :   0.9520
B(  6-C ,  7-C ) :   0.9420 B(  6-C ,  8-N ) :   1.1267 B(  7-C , 25-H ) :   0.9742
B(  7-C , 26-H ) :   0.9874 B(  7-C , 27-H ) :   0.9653 B(  8-N ,  9-C ) :   1.2021
B(  8-N , 28-H ) :   0.9514 B(  9-C , 10-S ) :   1.5945 B(  9-C , 11-N ) :   1.3005
B( 11-N , 12-C ) :   0.9733 B( 11-N , 29-H ) :   0.9450 B( 12-C , 13-C ) :   0.9771
B( 12-C , 30-H ) :   0.9942 B( 13-C , 14-C ) :   1.3627 B( 13-C , 19-C ) :   1.3681
B( 14-C , 15-C ) :   1.3952 B( 14-C , 31-H ) :   0.9727 B( 15-C , 16-C ) :   1.3666
B( 15-C , 32-H ) :   0.9706 B( 16-C , 17-C ) :   1.3293 B( 16-C , 33-H ) :   0.9843
B( 17-C , 18-O ) :   1.1049 B( 17-C , 19-C ) :   1.3630 B( 18-O , 34-H ) :   0.9795
B( 19-C , 35-H ) :   0.9573

MP2 TOTAL ENERGY:    -1274.327493693 Eh
FINAL SINGLE POINT ENERGY     -1274.327493693214

DIPOLE MOMENT
-------------
                                X             Y             Z
Electronic contribution:      8.00679      10.06244      11.81044
Nuclear contribution   :     -9.03705     -12.05771     -12.40770
                        -----------------------------------------
Total Dipole Moment    :     -1.03026      -1.99527      -0.59725
                        -----------------------------------------
Magnitude (a.u.)       :      2.32363
Magnitude (Debye)      :      5.90619

Rotational constants in cm-1:     0.009989     0.008634     0.005691
Rotational constants in MHz :   299.463116   258.848288   170.612554

                             ****ORCA TERMINATED NORMALLY****
TOTAL RUN TIME: 0 days 1 hours 42 minutes 41 seconds 152 msec
