                         Program Version 5.0.0 -  RELEASE  -
|  1> ! ri-mp2 cc-pvtz cc-pvtz/c TightSCF NoKeepInts
|  2>
|  3> %scf
|  4>   MaxCore 4096
|  5> end
|  6> *xyz  0  1
|  7>     C       15.0032824   15.8003021   17.4052294
|  8>     C       15.6081251   15.1274073   16.1549195
|  9>     O       17.0212027   14.8281812   16.2542690
| 10>     C       18.1035523   15.6495383   16.4719710
| 11>     O       19.2084994   15.1481460   16.3770786
| 12>     C       17.9313198   16.8020396   17.4001561
| 13>     C       17.4251961   17.9785492   16.9657926
| 14>     C       16.9051397   18.2831803   15.5763706
| 15>     N       17.4085440   19.0867227   17.8151792
| 16>     C       18.0191819   19.1345253   19.0413351
| 17>     S       18.0222865   20.5120587   19.9560507
| 18>     N       18.6319426   17.9827202   19.4710665
| 19>     C       18.5748439   16.6760017   18.7835902
| 20>     C       17.8838401   15.6131237   19.6352504
| 21>     C       18.2963443   14.2708044   19.5433898
| 22>     C       17.6713487   13.2727720   20.3089674
| 23>     C       16.6228474   13.6176084   21.1780379
| 24>     C       16.2064769   14.9520026   21.2732834
| 25>     O       15.1866740   15.2864600   22.1032001
| 26>     C       16.8296002   15.9441361   20.5092840
| 27>     H       15.3606120   15.3054799   18.3147247
| 28>     H       13.9121115   15.6908460   17.3871577
| 29>     H       15.2064010   16.8699845   17.4715687
| 30>     H       15.0785207   14.1801704   15.9887658
| 31>     H       15.4208289   15.7572491   15.2761562
| 32>     H       17.2108664   17.5279283   14.8422995
| 33>     H       17.2939748   19.2437680   15.2146317
| 34>     H       15.8100077   18.3399821   15.5673275
| 35>     H       16.9823907   19.9475775   17.5099637
| 36>     H       19.0661352   18.0446373   20.3833032
| 37>     H       19.6125243   16.3438798   18.6304911
| 38>     H       19.1011125   13.9979935   18.8634839
| 39>     H       17.9991027   12.2381776   20.2227588
| 40>     H       16.1361892   12.8492701   21.7695967
| 41>     H       14.9171189   14.4817040   22.5710007
| 42>     H       16.4788558   16.9670721   20.5963488
| 43> *
| 44>
| 45>                          ****END OF INPUT****

CARTESIAN COORDINATES (ANGSTROEM)
---------------------------------
  C     15.003282   15.800302   17.405229
  C     15.608125   15.127407   16.154919
  O     17.021203   14.828181   16.254269
  C     18.103552   15.649538   16.471971
  O     19.208499   15.148146   16.377079
  C     17.931320   16.802040   17.400156
  C     17.425196   17.978549   16.965793
  C     16.905140   18.283180   15.576371
  N     17.408544   19.086723   17.815179
  C     18.019182   19.134525   19.041335
  S     18.022286   20.512059   19.956051
  N     18.631943   17.982720   19.471066
  C     18.574844   16.676002   18.783590
  C     17.883840   15.613124   19.635250
  C     18.296344   14.270804   19.543390
  C     17.671349   13.272772   20.308967
  C     16.622847   13.617608   21.178038
  C     16.206477   14.952003   21.273283
  O     15.186674   15.286460   22.103200
  C     16.829600   15.944136   20.509284
  H     15.360612   15.305480   18.314725
  H     13.912111   15.690846   17.387158
  H     15.206401   16.869985   17.471569
  H     15.078521   14.180170   15.988766
  H     15.420829   15.757249   15.276156
  H     17.210866   17.527928   14.842299
  H     17.293975   19.243768   15.214632
  H     15.810008   18.339982   15.567327
  H     16.982391   19.947578   17.509964
  H     19.066135   18.044637   20.383303
  H     19.612524   16.343880   18.630491
  H     19.101112   13.997993   18.863484
  H     17.999103   12.238178   20.222759
  H     16.136189   12.849270   21.769597
  H     14.917119   14.481704   22.571001
  H     16.478856   16.967072   20.596349

 Total Charge           Charge          ....    0
 Multiplicity           Mult            ....    1
 Number of Electrons    NEL             ....  154
 Basis Dimension        Dim             ....  828

ORBITAL ENERGIES
----------------

  NO   OCC          E(Eh)            E(eV)
   0   2.0000     -91.889292     -2500.4348
   1   2.0000     -20.598910      -560.5248
   2   2.0000     -20.597363      -560.4827
   3   2.0000     -20.551296      -559.2292
   4   2.0000     -15.625980      -425.2045
   5   2.0000     -15.610880      -424.7936
   6   2.0000     -11.399328      -310.1915
   7   2.0000     -11.386045      -309.8300
   8   2.0000     -11.326053      -308.1976
   9   2.0000     -11.314954      -307.8956
  10   2.0000     -11.314087      -307.8720
  11   2.0000     -11.311464      -307.8006
  12   2.0000     -11.271644      -306.7170
  13   2.0000     -11.264581      -306.5248
  14   2.0000     -11.262126      -306.4580
  15   2.0000     -11.254601      -306.2533
  16   2.0000     -11.243463      -305.9502
  17   2.0000     -11.239195      -305.8340
  18   2.0000     -11.236188      -305.7522
  19   2.0000     -11.231336      -305.6202
  20   2.0000      -8.894405      -242.0291
  21   2.0000      -6.575997      -178.9420
  22   2.0000      -6.573967      -178.8867
  23   2.0000      -6.573396      -178.8712
  24   2.0000      -1.446814       -39.3698
  25   2.0000      -1.417194       -38.5638
  26   2.0000      -1.356599       -36.9149
  27   2.0000      -1.339332       -36.4451
  28   2.0000      -1.239069       -33.7168
  29   2.0000      -1.158751       -31.5312
  30   2.0000      -1.124903       -30.6102
  31   2.0000      -1.047778       -28.5115
  32   2.0000      -1.040081       -28.3020
  33   2.0000      -1.017112       -27.6770
  34   2.0000      -1.004765       -27.3410
  35   2.0000      -0.989770       -26.9330
  36   2.0000      -0.927443       -25.2370
  37   2.0000      -0.899244       -24.4697
  38   2.0000      -0.853331       -23.2203
  39   2.0000      -0.839976       -22.8569
  40   2.0000      -0.833953       -22.6930
  41   2.0000      -0.829140       -22.5620
  42   2.0000      -0.747951       -20.3528
  43   2.0000      -0.737235       -20.0612
  44   2.0000      -0.730396       -19.8751
  45   2.0000      -0.694492       -18.8981
  46   2.0000      -0.686832       -18.6896
  47   2.0000      -0.678261       -18.4564
  48   2.0000      -0.674617       -18.3573
  49   2.0000      -0.664256       -18.0753
  50   2.0000      -0.651906       -17.7393
  51   2.0000      -0.651534       -17.7292
  52   2.0000      -0.640709       -17.4346
  53   2.0000      -0.613536       -16.6952
  54   2.0000      -0.608077       -16.5466
  55   2.0000      -0.603646       -16.4261
  56   2.0000      -0.601496       -16.3676
  57   2.0000      -0.592856       -16.1324
  58   2.0000      -0.582617       -15.8538
  59   2.0000      -0.574358       -15.6291
  60   2.0000      -0.565268       -15.3817
  61   2.0000      -0.558454       -15.1963
  62   2.0000      -0.542249       -14.7553
  63   2.0000      -0.528535       -14.3822
  64   2.0000      -0.515595       -14.0301
  65   2.0000      -0.513044       -13.9606
  66   2.0000      -0.502534       -13.6747
  67   2.0000      -0.500862       -13.6291
  68   2.0000      -0.485043       -13.1987
  69   2.0000      -0.463719       -12.6184
  70   2.0000      -0.454909       -12.3787
  71   2.0000      -0.451519       -12.2865
  72   2.0000      -0.355271        -9.6674
  73   2.0000      -0.348227        -9.4757
  74   2.0000      -0.328999        -8.9525
  75   2.0000      -0.322439        -8.7740
  76   2.0000      -0.317456        -8.6384
  77   0.0000       0.088640         2.4120
  78   0.0000       0.104468         2.8427
  79   0.0000       0.112167         3.0522
  80   0.0000       0.128787         3.5045
  81   0.0000       0.131254         3.5716

MULLIKEN ATOMIC CHARGES
-----------------------
   0 C :   -0.336158
   1 C :    0.028988
   2 O :   -0.325400
   3 C :    0.393036
   4 O :   -0.374102
   5 C :   -0.155899
   6 C :    0.123529
   7 C :   -0.328508
   8 N :   -0.140151
   9 C :    0.208486
  10 S :   -0.442861
  11 N :   -0.232043
  12 C :    0.083693
  13 C :    0.022422
  14 C :   -0.208540
  15 C :   -0.136684
  16 C :   -0.275213
  17 C :    0.319007
  18 O :   -0.358578
  19 C :   -0.274162
  20 H :    0.133503
  21 H :    0.116066
  22 H :    0.104510
  23 H :    0.130287
  24 H :    0.087053
  25 H :    0.122611
  26 H :    0.137053
  27 H :    0.123962
  28 H :    0.195977
  29 H :    0.203521
  30 H :    0.169440
  31 H :    0.171154
  32 H :    0.163548
  33 H :    0.131934
  34 H :    0.240930
  35 H :    0.177591
Sum of atomic charges:    0.0000000

LOEWDIN ATOMIC CHARGES
----------------------
   0 C :    0.105062
   1 C :   -0.018665
   2 O :    0.302268
   3 C :   -0.419365
   4 O :    0.129701
   5 C :   -0.076916
   6 C :   -0.106920
   7 C :    0.124953
   8 N :    0.401331
   9 C :   -0.455766
  10 S :   -0.039149
  11 N :    0.398512
  12 C :   -0.041210
  13 C :   -0.041692
  14 C :    0.022042
  15 C :    0.044599
  16 C :   -0.002099
  17 C :   -0.194239
  18 O :    0.395379
  19 C :    0.026816
  20 H :   -0.021702
  21 H :   -0.023746
  22 H :   -0.038437
  23 H :   -0.016326
  24 H :   -0.038371
  25 H :   -0.010250
  26 H :   -0.009580
  27 H :   -0.017561
  28 H :   -0.058864
  29 H :   -0.063881
  30 H :   -0.001610
  31 H :   -0.021615
  32 H :   -0.018580
  33 H :   -0.035169
  34 H :   -0.153624
  35 H :   -0.025323

  Mayer bond orders larger than 0.100000
B(  0-C ,  1-C ) :   0.9520 B(  0-C , 20-H ) :   0.9661 B(  0-C , 21-H ) :   0.9792
B(  0-C , 22-H ) :   0.9758 B(  1-C ,  2-O ) :   0.9175 B(  1-C , 23-H ) :   0.9811
B(  1-C , 24-H ) :   0.9786 B(  2-O ,  3-C ) :   1.1321 B(  3-C ,  4-O ) :   2.0827
B(  3-C ,  5-C ) :   0.9180 B(  5-C ,  6-C ) :   1.7149 B(  5-C , 12-C ) :   0.9574
B(  6-C ,  7-C ) :   0.9412 B(  6-C ,  8-N ) :   1.0921 B(  7-C , 25-H ) :   0.9804
B(  7-C , 26-H ) :   0.9740 B(  7-C , 27-H ) :   0.9643 B(  8-N ,  9-C ) :   1.2003
B(  8-N , 28-H ) :   0.9528 B(  9-C , 10-S ) :   1.6055 B(  9-C , 11-N ) :   1.2869
B( 11-N , 12-C ) :   0.9821 B( 11-N , 29-H ) :   0.9465 B( 12-C , 13-C ) :   0.9503
B( 12-C , 30-H ) :   0.9940 B( 13-C , 14-C ) :   1.3880 B( 13-C , 19-C ) :   1.3428
B( 14-C , 15-C ) :   1.4030 B( 14-C , 31-H ) :   0.9606 B( 15-C , 16-C ) :   1.3577
B( 15-C , 32-H ) :   0.9700 B( 16-C , 17-C ) :   1.3316 B( 16-C , 33-H ) :   0.9849
B( 17-C , 18-O ) :   1.1085 B( 17-C , 19-C ) :   1.3658 B( 18-O , 34-H ) :   0.9796
B( 19-C , 35-H ) :   0.9581

MP2 TOTAL ENERGY:    -1274.318489895 Eh
FINAL SINGLE POINT ENERGY     -1274.318489894691

DIPOLE MOMENT
-------------
                                X             Y             Z
Electronic contribution:      9.49076       5.70381       6.78246
Nuclear contribution   :    -11.09840      -6.85829      -7.57770
                        -----------------------------------------
Total Dipole Moment    :     -1.60764      -1.15448      -0.79524
                        -----------------------------------------
Magnitude (a.u.)       :      2.13302
Magnitude (Debye)      :      5.42170

Rotational constants in cm-1:     0.011836     0.009551     0.006793
Rotational constants in MHz :   354.845037   286.334140   203.658987

                             ****ORCA TERMINATED NORMALLY****
TOTAL RUN TIME: 0 days 2 hours 18 minutes 2 seconds 526 msec
