                         Program Version 4.2.0 -  RELEASE  -
|  1> ! ri-mp2 cc-pvtz cc-pvtz/c TightSCF  NoKeepInts
|  2>
|  3> %scf
|  4>   MaxCore 4096
|  5> end
|  6> *xyz  0  1
|  7>     C       15.4914758   13.8938518   16.7027123
|  8>     C       15.2860566   15.2564034   16.0048763
|  9>     O       16.5055971   16.0045057   15.7709451
| 10>     C       17.6310187   15.8670671   16.5339828
| 11>     O       18.2378378   14.8138076   16.6310941
| 12>     C       17.8925312   17.0287636   17.4465283
| 13>     C       17.4601979   18.2978640   17.2305093
| 14>     C       16.6859643   18.8261176   16.0404632
| 15>     N       17.7889326   19.3075657   18.1406277
| 16>     C       18.6346959   19.1573739   19.2078213
| 17>     S       19.0476235   20.4319436   20.1775086
| 18>     N       19.1197563   17.8938343   19.4318910
| 19>     C       18.6963306   16.6830548   18.7037411
| 20>     C       17.8926500   15.7608717   19.6166038
| 21>     C       18.2793701   14.4198658   19.7950912
| 22>     C       17.5305867   13.5617741   20.6177064
| 23>     C       16.3836010   14.0476513   21.2680388
| 24>     C       15.9929368   15.3816802   21.0901138
| 25>     O       14.8806011   15.8515560   21.7089626
| 26>     C       16.7398886   16.2332487   20.2702233
| 27>     H       16.1665037   13.2535390   16.1207091
| 28>     H       14.5336730   13.3693740   16.8016991
| 29>     H       15.9075125   14.0195861   17.7107734
| 30>     H       14.7734171   15.1007051   15.0469013
| 31>     H       14.6211336   15.8602349   16.6359763
| 32>     H       15.6358516   18.5136625   16.0900571
| 33>     H       17.1074011   18.4472713   15.1007172
| 34>     H       16.7049411   19.9210480   15.9785048
| 35>     H       17.4452141   20.2431074   17.9931423
| 36>     H       19.7174762   17.8043831   20.2435451
| 37>     H       19.6041715   16.1502708   18.3852320
| 38>     H       19.1541881   14.0360460   19.2755879
| 39>     H       17.8371156   12.5246288   20.7417541
| 40>     H       15.8011417   13.3874425   21.9020080
| 41>     H       14.5385009   15.1392327   22.2699250
| 42>     H       16.4211056   17.2626672   20.1480265
| 43> *
| 44>
| 45>                          ****END OF INPUT****

CARTESIAN COORDINATES (ANGSTROEM)
---------------------------------
  C     15.491476   13.893852   16.702712
  C     15.286057   15.256403   16.004876
  O     16.505597   16.004506   15.770945
  C     17.631019   15.867067   16.533983
  O     18.237838   14.813808   16.631094
  C     17.892531   17.028764   17.446528
  C     17.460198   18.297864   17.230509
  C     16.685964   18.826118   16.040463
  N     17.788933   19.307566   18.140628
  C     18.634696   19.157374   19.207821
  S     19.047624   20.431944   20.177509
  N     19.119756   17.893834   19.431891
  C     18.696331   16.683055   18.703741
  C     17.892650   15.760872   19.616604
  C     18.279370   14.419866   19.795091
  C     17.530587   13.561774   20.617706
  C     16.383601   14.047651   21.268039
  C     15.992937   15.381680   21.090114
  O     14.880601   15.851556   21.708963
  C     16.739889   16.233249   20.270223
  H     16.166504   13.253539   16.120709
  H     14.533673   13.369374   16.801699
  H     15.907512   14.019586   17.710773
  H     14.773417   15.100705   15.046901
  H     14.621134   15.860235   16.635976
  H     15.635852   18.513662   16.090057
  H     17.107401   18.447271   15.100717
  H     16.704941   19.921048   15.978505
  H     17.445214   20.243107   17.993142
  H     19.717476   17.804383   20.243545
  H     19.604171   16.150271   18.385232
  H     19.154188   14.036046   19.275588
  H     17.837116   12.524629   20.741754
  H     15.801142   13.387443   21.902008
  H     14.538501   15.139233   22.269925
  H     16.421106   17.262667   20.148027

 Total Charge           Charge          ....    0
 Multiplicity           Mult            ....    1
 Number of Electrons    NEL             ....  154
 Basis Dimension        Dim             ....  828

ORBITAL ENERGIES
----------------

  NO   OCC          E(Eh)            E(eV)
   0   2.0000     -91.888923     -2500.4247
   1   2.0000     -20.595742      -560.4386
   2   2.0000     -20.586835      -560.1963
   3   2.0000     -20.550725      -559.2137
   4   2.0000     -15.628908      -425.2842
   5   2.0000     -15.608037      -424.7163
   6   2.0000     -11.395905      -310.0984
   7   2.0000     -11.384140      -309.7782
   8   2.0000     -11.335728      -308.4608
   9   2.0000     -11.312011      -307.8155
  10   2.0000     -11.307150      -307.6832
  11   2.0000     -11.306475      -307.6648
  12   2.0000     -11.259778      -306.3941
  13   2.0000     -11.259478      -306.3860
  14   2.0000     -11.257275      -306.3260
  15   2.0000     -11.251928      -306.1805
  16   2.0000     -11.241688      -305.9019
  17   2.0000     -11.237705      -305.7935
  18   2.0000     -11.234491      -305.7060
  19   2.0000     -11.223674      -305.4117
  20   2.0000      -8.893993      -242.0178
  21   2.0000      -6.575570      -178.9304
  22   2.0000      -6.573562      -178.8757
  23   2.0000      -6.572977      -178.8598
  24   2.0000      -1.445233       -39.3268
  25   2.0000      -1.415518       -38.5182
  26   2.0000      -1.355684       -36.8900
  27   2.0000      -1.339960       -36.4622
  28   2.0000      -1.238006       -33.6879
  29   2.0000      -1.156094       -31.4589
  30   2.0000      -1.120664       -30.4948
  31   2.0000      -1.043759       -28.4021
  32   2.0000      -1.032360       -28.0920
  33   2.0000      -1.013534       -27.5797
  34   2.0000      -0.999398       -27.1950
  35   2.0000      -0.984542       -26.7907
  36   2.0000      -0.923548       -25.1310
  37   2.0000      -0.893569       -24.3153
  38   2.0000      -0.849531       -23.1169
  39   2.0000      -0.838480       -22.8162
  40   2.0000      -0.832041       -22.6410
  41   2.0000      -0.821961       -22.3667
  42   2.0000      -0.743680       -20.2366
  43   2.0000      -0.728103       -19.8127
  44   2.0000      -0.725689       -19.7470
  45   2.0000      -0.693493       -18.8709
  46   2.0000      -0.685068       -18.6417
  47   2.0000      -0.678366       -18.4593
  48   2.0000      -0.674758       -18.3611
  49   2.0000      -0.665988       -18.1224
  50   2.0000      -0.648733       -17.6529
  51   2.0000      -0.645736       -17.5714
  52   2.0000      -0.636085       -17.3088
  53   2.0000      -0.616150       -16.7663
  54   2.0000      -0.604333       -16.4447
  55   2.0000      -0.602236       -16.3877
  56   2.0000      -0.599308       -16.3080
  57   2.0000      -0.576945       -15.6995
  58   2.0000      -0.574562       -15.6346
  59   2.0000      -0.566405       -15.4127
  60   2.0000      -0.554096       -15.0777
  61   2.0000      -0.547266       -14.8919
  62   2.0000      -0.536663       -14.6033
  63   2.0000      -0.526887       -14.3373
  64   2.0000      -0.519249       -14.1295
  65   2.0000      -0.511393       -13.9157
  66   2.0000      -0.499694       -13.5974
  67   2.0000      -0.493849       -13.4383
  68   2.0000      -0.481429       -13.1004
  69   2.0000      -0.464706       -12.6453
  70   2.0000      -0.454794       -12.3756
  71   2.0000      -0.448701       -12.2098
  72   2.0000      -0.354569        -9.6483
  73   2.0000      -0.347970        -9.4687
  74   2.0000      -0.328210        -8.9311
  75   2.0000      -0.319068        -8.6823
  76   2.0000      -0.316051        -8.6002
  77   0.0000       0.072774         1.9803
  78   0.0000       0.106233         2.8908
  79   0.0000       0.120563         3.2807
  80   0.0000       0.132618         3.6087
  81   0.0000       0.138851         3.7783

MULLIKEN ATOMIC CHARGES
-----------------------
   0 C :   -0.296559
   1 C :    0.048797
   2 O :   -0.380065
   3 C :    0.445680
   4 O :   -0.398405
   5 C :   -0.191972
   6 C :    0.145796
   7 C :   -0.283644
   8 N :   -0.124002
   9 C :    0.203326
  10 S :   -0.439429
  11 N :   -0.202364
  12 C :    0.058029
  13 C :    0.032206
  14 C :   -0.164163
  15 C :   -0.134747
  16 C :   -0.277152
  17 C :    0.307416
  18 O :   -0.358864
  19 C :   -0.266414
  20 H :    0.115885
  21 H :    0.099001
  22 H :    0.116452
  23 H :    0.104198
  24 H :    0.081433
  25 H :    0.121761
  26 H :    0.130542
  27 H :    0.104558
  28 H :    0.197128
  29 H :    0.194669
  30 H :    0.154437
  31 H :    0.156429
  32 H :    0.160756
  33 H :    0.130572
  34 H :    0.240829
  35 H :    0.167878
Sum of atomic charges:   -0.0000000

LOEWDIN ATOMIC CHARGES
----------------------
   0 C :    0.106521
   1 C :   -0.013221
   2 O :    0.284445
   3 C :   -0.416200
   4 O :    0.126310
   5 C :   -0.094486
   6 C :   -0.069600
   7 C :    0.125699
   8 N :    0.404564
   9 C :   -0.458072
  10 S :   -0.035996
  11 N :    0.397465
  12 C :   -0.046278
  13 C :   -0.041585
  14 C :    0.021603
  15 C :    0.041090
  16 C :   -0.002219
  17 C :   -0.193704
  18 O :    0.393507
  19 C :    0.027335
  20 H :   -0.022903
  21 H :   -0.026562
  22 H :   -0.023996
  23 H :   -0.024136
  24 H :   -0.034969
  25 H :   -0.011014
  26 H :   -0.006556
  27 H :   -0.020181
  28 H :   -0.058814
  29 H :   -0.063844
  30 H :   -0.005058
  31 H :   -0.024536
  32 H :   -0.020400
  33 H :   -0.035654
  34 H :   -0.154111
  35 H :   -0.024445

  Mayer bond orders larger than 0.100000
B(  0-C ,  1-C ) :   0.9801 B(  0-C , 20-H ) :   0.9720 B(  0-C , 21-H ) :   0.9735
B(  0-C , 22-H ) :   0.9669 B(  1-C ,  2-O ) :   0.9023 B(  1-C , 23-H ) :   0.9792
B(  1-C , 24-H ) :   0.9746 B(  2-O ,  3-C ) :   1.0924 B(  3-C ,  4-O ) :   2.0360
B(  3-C ,  5-C ) :   1.0220 B(  5-C ,  6-C ) :   1.6602 B(  5-C , 12-C ) :   0.9634
B(  6-C ,  7-C ) :   0.9522 B(  6-C ,  8-N ) :   1.1448 B(  7-C , 25-H ) :   0.9661
B(  7-C , 26-H ) :   0.9667 B(  7-C , 27-H ) :   0.9894 B(  8-N ,  9-C ) :   1.1823
B(  8-N , 28-H ) :   0.9490 B(  9-C , 10-S ) :   1.6103 B(  9-C , 11-N ) :   1.3025
B( 11-N , 12-C ) :   0.9912 B( 11-N , 29-H ) :   0.9516 B( 12-C , 13-C ) :   0.9424
B( 12-C , 30-H ) :   0.9991 B( 13-C , 14-C ) :   1.3805 B( 13-C , 19-C ) :   1.3691
B( 14-C , 15-C ) :   1.3938 B( 14-C , 31-H ) :   0.9642 B( 15-C , 16-C ) :   1.3618
B( 15-C , 32-H ) :   0.9714 B( 16-C , 17-C ) :   1.3318 B( 16-C , 33-H ) :   0.9851
B( 17-C , 18-O ) :   1.1100 B( 17-C , 19-C ) :   1.3742 B( 18-O , 34-H ) :   0.9799
B( 19-C , 35-H ) :   0.9576

MP2 TOTAL ENERGY:    -1274.330875644 Eh
FINAL SINGLE POINT ENERGY     -1274.330875644226

DIPOLE MOMENT
-------------
                                X             Y             Z
Electronic contribution:      9.81505      10.01335       7.28175
Nuclear contribution   :    -11.35318     -11.19411      -7.96983
                        -----------------------------------------
Total Dipole Moment    :     -1.53813      -1.18075      -0.68807
                        -----------------------------------------
Magnitude (a.u.)       :      2.05754
Magnitude (Debye)      :      5.22986

Rotational constants in cm-1:     0.011882     0.009178     0.006470
Rotational constants in MHz :   356.222623   275.137862   193.964788

                             ****ORCA TERMINATED NORMALLY****
TOTAL RUN TIME: 0 days 2 hours 20 minutes 18 seconds 660 msec
