                         Program Version 4.2.0 -  RELEASE  -
|  1> ! ri-mp2 cc-pvtz cc-pvtz/c TightSCF  NoKeepInts
|  2>
|  3> %scf
|  4>   MaxCore 4096
|  5> end
|  6> *xyz  0  1
|  7>     C       15.4138148   13.6415818   16.9041612
|  8>     C       16.5062745   14.0967593   15.9193385
|  9>     O       17.2726379   15.1322854   16.5593544
| 10>     C       16.8889597   16.4397835   16.4384675
| 11>     O       16.0491321   16.8040059   15.6326285
| 12>     C       17.5681733   17.3381702   17.4349565
| 13>     C       17.3889390   18.6835591   17.4428339
| 14>     C       16.5254746   19.4988774   16.5041122
| 15>     N       18.0666327   19.4761792   18.3738983
| 16>     C       19.0010370   19.0167335   19.2629626
| 17>     S       19.8189862   20.0358641   20.2770692
| 18>     N       19.2280270   17.6642844   19.2685543
| 19>     C       18.4717413   16.6705610   18.4851677
| 20>     C       17.6841024   15.7655430   19.4283815
| 21>     C       18.0804356   14.4298799   19.6288851
| 22>     C       17.3568103   13.5913204   20.4934313
| 23>     C       16.2279726   14.0923043   21.1639174
| 24>     C       15.8336705   15.4233713   20.9705129
| 25>     O       14.7453389   15.9104596   21.6179900
| 26>     C       16.5570073   16.2561634   20.1113191
| 27>     H       15.8580020   13.3028639   17.8482586
| 28>     H       14.8333921   12.8137103   16.4797062
| 29>     H       14.7233791   14.4657215   17.1239997
| 30>     H       17.1622781   13.2440189   15.7029672
| 31>     H       16.0672310   14.4360365   14.9710661
| 32>     H       15.4730233   19.2001998   16.5927791
| 33>     H       16.8253535   19.3335458   15.4614905
| 34>     H       16.5812327   20.5766708   16.6965914
| 35>     H       17.9133234   20.4718739   18.3842481
| 36>     H       19.8932763   17.3512978   19.9637187
| 37>     H       19.2048347   16.0540310   17.9462618
| 38>     H       18.9488910   14.0382464   19.1062227
| 39>     H       17.6702129   12.5592243   20.6403347
| 40>     H       15.6652929   13.4485988   21.8319588
| 41>     H       14.4021517   15.2029475   22.1840567
| 42>     H       16.2399576   17.2853261   19.9823974
| 43> *
| 44>
| 45>                          ****END OF INPUT****

CARTESIAN COORDINATES (ANGSTROEM)
---------------------------------
  C     15.413815   13.641582   16.904161
  C     16.506274   14.096759   15.919339
  O     17.272638   15.132285   16.559354
  C     16.888960   16.439784   16.438468
  O     16.049132   16.804006   15.632628
  C     17.568173   17.338170   17.434956
  C     17.388939   18.683559   17.442834
  C     16.525475   19.498877   16.504112
  N     18.066633   19.476179   18.373898
  C     19.001037   19.016734   19.262963
  S     19.818986   20.035864   20.277069
  N     19.228027   17.664284   19.268554
  C     18.471741   16.670561   18.485168
  C     17.684102   15.765543   19.428382
  C     18.080436   14.429880   19.628885
  C     17.356810   13.591320   20.493431
  C     16.227973   14.092304   21.163917
  C     15.833671   15.423371   20.970513
  O     14.745339   15.910460   21.617990
  C     16.557007   16.256163   20.111319
  H     15.858002   13.302864   17.848259
  H     14.833392   12.813710   16.479706
  H     14.723379   14.465721   17.124000
  H     17.162278   13.244019   15.702967
  H     16.067231   14.436036   14.971066
  H     15.473023   19.200200   16.592779
  H     16.825353   19.333546   15.461491
  H     16.581233   20.576671   16.696591
  H     17.913323   20.471874   18.384248
  H     19.893276   17.351298   19.963719
  H     19.204835   16.054031   17.946262
  H     18.948891   14.038246   19.106223
  H     17.670213   12.559224   20.640335
  H     15.665293   13.448599   21.831959
  H     14.402152   15.202948   22.184057
  H     16.239958   17.285326   19.982397

 Total Charge           Charge          ....    0
 Multiplicity           Mult            ....    1
 Number of Electrons    NEL             ....  154
 Basis Dimension        Dim             ....  828

ORBITAL ENERGIES
----------------

  NO   OCC          E(Eh)            E(eV)
   0   2.0000     -91.888765     -2500.4204
   1   2.0000     -20.600840      -560.5774
   2   2.0000     -20.597180      -560.4778
   3   2.0000     -20.541372      -558.9591
   4   2.0000     -15.628979      -425.2861
   5   2.0000     -15.608288      -424.7231
   6   2.0000     -11.395116      -310.0769
   7   2.0000     -11.383968      -309.7735
   8   2.0000     -11.336074      -308.4703
   9   2.0000     -11.314480      -307.8826
  10   2.0000     -11.309018      -307.7340
  11   2.0000     -11.294733      -307.3453
  12   2.0000     -11.260161      -306.4046
  13   2.0000     -11.258982      -306.3725
  14   2.0000     -11.255676      -306.2825
  15   2.0000     -11.252054      -306.1840
  16   2.0000     -11.243637      -305.9549
  17   2.0000     -11.238855      -305.8248
  18   2.0000     -11.238413      -305.8128
  19   2.0000     -11.222121      -305.3694
  20   2.0000      -8.893828      -242.0134
  21   2.0000      -6.575404      -178.9258
  22   2.0000      -6.573398      -178.8712
  23   2.0000      -6.572812      -178.8553
  24   2.0000      -1.450899       -39.4810
  25   2.0000      -1.416836       -38.5541
  26   2.0000      -1.354416       -36.8555
  27   2.0000      -1.339998       -36.4632
  28   2.0000      -1.238570       -33.7032
  29   2.0000      -1.158136       -31.5145
  30   2.0000      -1.120583       -30.4926
  31   2.0000      -1.043075       -28.3835
  32   2.0000      -1.035617       -28.1806
  33   2.0000      -1.015662       -27.6376
  34   2.0000      -0.995410       -27.0865
  35   2.0000      -0.984181       -26.7809
  36   2.0000      -0.922704       -25.1081
  37   2.0000      -0.892442       -24.2846
  38   2.0000      -0.847014       -23.0484
  39   2.0000      -0.837997       -22.8031
  40   2.0000      -0.834368       -22.7043
  41   2.0000      -0.814996       -22.1772
  42   2.0000      -0.758576       -20.6419
  43   2.0000      -0.732783       -19.9400
  44   2.0000      -0.723141       -19.6777
  45   2.0000      -0.696332       -18.9482
  46   2.0000      -0.688629       -18.7385
  47   2.0000      -0.679173       -18.4812
  48   2.0000      -0.670559       -18.2469
  49   2.0000      -0.661820       -18.0090
  50   2.0000      -0.648053       -17.6344
  51   2.0000      -0.641658       -17.4604
  52   2.0000      -0.632152       -17.2017
  53   2.0000      -0.607654       -16.5351
  54   2.0000      -0.606426       -16.5017
  55   2.0000      -0.599909       -16.3244
  56   2.0000      -0.599017       -16.3001
  57   2.0000      -0.578064       -15.7299
  58   2.0000      -0.570671       -15.5287
  59   2.0000      -0.567308       -15.4372
  60   2.0000      -0.560485       -15.2516
  61   2.0000      -0.544103       -14.8058
  62   2.0000      -0.533538       -14.5183
  63   2.0000      -0.530989       -14.4489
  64   2.0000      -0.525535       -14.3005
  65   2.0000      -0.513224       -13.9655
  66   2.0000      -0.501433       -13.6447
  67   2.0000      -0.498915       -13.5762
  68   2.0000      -0.481489       -13.1020
  69   2.0000      -0.463925       -12.6240
  70   2.0000      -0.453622       -12.3437
  71   2.0000      -0.447636       -12.1808
  72   2.0000      -0.354241        -9.6394
  73   2.0000      -0.350125        -9.5274
  74   2.0000      -0.328248        -8.9321
  75   2.0000      -0.321824        -8.7573
  76   2.0000      -0.316256        -8.6058
  77   0.0000       0.076776         2.0892
  78   0.0000       0.105605         2.8736
  79   0.0000       0.124753         3.3947
  80   0.0000       0.132619         3.6088
  81   0.0000       0.138360         3.7650

MULLIKEN ATOMIC CHARGES
-----------------------
   0 C :   -0.292853
   1 C :    0.016030
   2 O :   -0.353505
   3 C :    0.465197
   4 O :   -0.435371
   5 C :   -0.233829
   6 C :    0.154875
   7 C :   -0.272432
   8 N :   -0.121340
   9 C :    0.213808
  10 S :   -0.440923
  11 N :   -0.207086
  12 C :    0.064413
  13 C :    0.070492
  14 C :   -0.191433
  15 C :   -0.140197
  16 C :   -0.274260
  17 C :    0.315359
  18 O :   -0.356489
  19 C :   -0.264884
  20 H :    0.102811
  21 H :    0.100258
  22 H :    0.104738
  23 H :    0.107147
  24 H :    0.120952
  25 H :    0.131952
  26 H :    0.130919
  27 H :    0.095152
  28 H :    0.197050
  29 H :    0.195385
  30 H :    0.149322
  31 H :    0.148451
  32 H :    0.162712
  33 H :    0.130848
  34 H :    0.240840
  35 H :    0.165891
Sum of atomic charges:   -0.0000000

LOEWDIN ATOMIC CHARGES
----------------------
   0 C :    0.104835
   1 C :   -0.016961
   2 O :    0.309026
   3 C :   -0.414360
   4 O :    0.094821
   5 C :   -0.094468
   6 C :   -0.059262
   7 C :    0.131546
   8 N :    0.406672
   9 C :   -0.455699
  10 S :   -0.035942
  11 N :    0.396382
  12 C :   -0.052021
  13 C :   -0.037912
  14 C :    0.013183
  15 C :    0.039617
  16 C :   -0.001886
  17 C :   -0.188985
  18 O :    0.395635
  19 C :    0.031975
  20 H :   -0.026944
  21 H :   -0.027848
  22 H :   -0.025664
  23 H :   -0.027165
  24 H :   -0.028184
  25 H :   -0.004607
  26 H :   -0.003932
  27 H :   -0.023411
  28 H :   -0.057558
  29 H :   -0.064674
  30 H :   -0.011168
  31 H :   -0.030395
  32 H :   -0.021438
  33 H :   -0.035494
  34 H :   -0.153753
  35 H :   -0.023961

  Mayer bond orders larger than 0.100000
B(  0-C ,  1-C ) :   0.9637 B(  0-C , 20-H ) :   0.9713 B(  0-C , 21-H ) :   0.9775
B(  0-C , 22-H ) :   0.9773 B(  1-C ,  2-O ) :   0.8912 B(  1-C , 23-H ) :   0.9850
B(  1-C , 24-H ) :   0.9774 B(  2-O ,  3-C ) :   1.1698 B(  3-C ,  4-O ) :   1.9681
B(  3-C ,  5-C ) :   1.0579 B(  5-C ,  6-C ) :   1.6540 B(  5-C , 12-C ) :   0.9727
B(  6-C ,  7-C ) :   0.9665 B(  6-C ,  8-N ) :   1.1661 B(  7-C , 25-H ) :   0.9602
B(  7-C , 26-H ) :   0.9605 B(  7-C , 27-H ) :   0.9904 B(  8-N ,  9-C ) :   1.1836
B(  8-N , 28-H ) :   0.9478 B(  9-C , 10-S ) :   1.6048 B(  9-C , 11-N ) :   1.3071
B( 11-N , 12-C ) :   0.9826 B( 11-N , 29-H ) :   0.9514 B( 12-C , 13-C ) :   0.9370
B( 12-C , 30-H ) :   1.0020 B( 13-C , 14-C ) :   1.3515 B( 13-C , 19-C ) :   1.3818
B( 14-C , 15-C ) :   1.3901 B( 14-C , 31-H ) :   0.9731 B( 15-C , 16-C ) :   1.3582
B( 15-C , 32-H ) :   0.9713 B( 16-C , 17-C ) :   1.3320 B( 16-C , 33-H ) :   0.9850
B( 17-C , 18-O ) :   1.1107 B( 17-C , 19-C ) :   1.3699 B( 18-O , 34-H ) :   0.9797
B( 19-C , 35-H ) :   0.9580

MP2 TOTAL ENERGY:    -1274.352015238 Eh
FINAL SINGLE POINT ENERGY     -1274.352015238468

DIPOLE MOMENT
-------------
                                X             Y             Z
Electronic contribution:      8.83738      11.10385       6.89375
Nuclear contribution   :     -9.66725     -12.87075      -7.31569
                        -----------------------------------------
Total Dipole Moment    :     -0.82987      -1.76690      -0.42193
                        -----------------------------------------
Magnitude (a.u.)       :      1.99716
Magnitude (Debye)      :      5.07637

Rotational constants in cm-1:     0.012406     0.008637     0.006294
Rotational constants in MHz :   371.913288   258.938963   188.686725

                             ****ORCA TERMINATED NORMALLY****
TOTAL RUN TIME: 0 days 1 hours 45 minutes 30 seconds 377 msec
