                         Program Version 4.2.0 -  RELEASE  -
|  1> ! ri-mp2 cc-pvtz cc-pvtz/c TightSCF  NoKeepInts
|  2>
|  3> %scf
|  4>   MaxCore 4096
|  5> end
|  6> *xyz  0  1
|  7>     C       15.9316623   13.4648319   15.2265431
|  8>     C       15.3126040   14.6338096   16.0063371
|  9>     O       16.3821414   15.3957499   16.5925124
| 10>     C       16.0322313   16.4893393   17.3341400
| 11>     O       14.9004276   16.9478536   17.3560039
| 12>     C       17.2355533   17.2718368   17.7318774
| 13>     C       17.3923841   18.5563805   17.3407751
| 14>     C       16.5164752   19.2930637   16.3519697
| 15>     N       18.4789701   19.3000766   17.8058407
| 16>     C       19.3644287   18.8627821   18.7556592
| 17>     S       20.5305125   19.8540224   19.3812034
| 18>     N       19.2178273   17.5650685   19.1828598
| 19>     C       18.2676009   16.5818093   18.6268602
| 20>     C       17.6628570   15.7380000   19.7466666
| 21>     C       18.2294045   14.4845119   20.0403687
| 22>     C       17.7468602   13.7101666   21.1076835
| 23>     C       16.6868325   14.1937130   21.8918884
| 24>     C       16.1129613   15.4387567   21.5999632
| 25>     O       15.1026503   15.9083707   22.3724299
| 26>     C       16.5926238   16.2072957   20.5326063
| 27>     H       16.7603115   13.8186600   14.5982480
| 28>     H       15.1824624   13.0075811   14.5678259
| 29>     H       16.3125021   12.6944763   15.9072559
| 30>     H       14.7164595   15.2664608   15.3332238
| 31>     H       14.6490780   14.2448716   16.7924729
| 32>     H       16.2049231   18.6238968   15.5384820
| 33>     H       17.0341135   20.1397759   15.8862884
| 34>     H       15.6061236   19.6634452   16.8387221
| 35>     H       18.5867999   20.2579175   17.5161679
| 36>     H       19.8317942   17.2925277   19.9380346
| 37>     H       18.8427793   15.9078775   17.9765446
| 38>     H       19.0601794   14.1136040   19.4452550
| 39>     H       18.1994609   12.7448756   21.3289125
| 40>     H       16.3181500   13.6038029   22.7248792
| 41>     H       15.0078078   15.3034685   23.1242836
| 42>     H       16.1370465   17.1713200   20.3332149
| 43> *
| 44>
| 45>                          ****END OF INPUT****

CARTESIAN COORDINATES (ANGSTROEM)
---------------------------------
  C     15.931662   13.464832   15.226543
  C     15.312604   14.633810   16.006337
  O     16.382141   15.395750   16.592512
  C     16.032231   16.489339   17.334140
  O     14.900428   16.947854   17.356004
  C     17.235553   17.271837   17.731877
  C     17.392384   18.556380   17.340775
  C     16.516475   19.293064   16.351970
  N     18.478970   19.300077   17.805841
  C     19.364429   18.862782   18.755659
  S     20.530513   19.854022   19.381203
  N     19.217827   17.565068   19.182860
  C     18.267601   16.581809   18.626860
  C     17.662857   15.738000   19.746667
  C     18.229405   14.484512   20.040369
  C     17.746860   13.710167   21.107684
  C     16.686833   14.193713   21.891888
  C     16.112961   15.438757   21.599963
  O     15.102650   15.908371   22.372430
  C     16.592624   16.207296   20.532606
  H     16.760312   13.818660   14.598248
  H     15.182462   13.007581   14.567826
  H     16.312502   12.694476   15.907256
  H     14.716459   15.266461   15.333224
  H     14.649078   14.244872   16.792473
  H     16.204923   18.623897   15.538482
  H     17.034113   20.139776   15.886288
  H     15.606124   19.663445   16.838722
  H     18.586800   20.257918   17.516168
  H     19.831794   17.292528   19.938035
  H     18.842779   15.907877   17.976545
  H     19.060179   14.113604   19.445255
  H     18.199461   12.744876   21.328913
  H     16.318150   13.603803   22.724879
  H     15.007808   15.303468   23.124284
  H     16.137047   17.171320   20.333215

 Total Charge           Charge          ....    0
 Multiplicity           Mult            ....    1
 Number of Electrons    NEL             ....  154
 Basis Dimension        Dim             ....  828

ORBITAL ENERGIES
----------------

  NO   OCC          E(Eh)            E(eV)
   0   2.0000     -91.885010     -2500.3182
   1   2.0000     -20.607395      -560.7557
   2   2.0000     -20.597464      -560.4855
   3   2.0000     -20.551218      -559.2271
   4   2.0000     -15.621594      -425.0852
   5   2.0000     -15.605256      -424.6406
   6   2.0000     -11.394096      -310.0491
   7   2.0000     -11.381006      -309.6929
   8   2.0000     -11.323292      -308.1224
   9   2.0000     -11.316264      -307.9312
  10   2.0000     -11.309616      -307.7503
  11   2.0000     -11.296122      -307.3831
  12   2.0000     -11.264795      -306.5307
  13   2.0000     -11.258021      -306.3463
  14   2.0000     -11.253099      -306.2124
  15   2.0000     -11.252677      -306.2009
  16   2.0000     -11.246773      -306.0403
  17   2.0000     -11.242906      -305.9350
  18   2.0000     -11.242275      -305.9179
  19   2.0000     -11.231850      -305.6342
  20   2.0000      -8.890157      -241.9135
  21   2.0000      -6.571750      -178.8264
  22   2.0000      -6.569730      -178.7714
  23   2.0000      -6.569156      -178.7558
  24   2.0000      -1.455840       -39.6154
  25   2.0000      -1.417643       -38.5760
  26   2.0000      -1.358955       -36.9791
  27   2.0000      -1.334207       -36.3056
  28   2.0000      -1.234082       -33.5811
  29   2.0000      -1.160386       -31.5757
  30   2.0000      -1.120667       -30.4949
  31   2.0000      -1.044954       -28.4347
  32   2.0000      -1.041655       -28.3449
  33   2.0000      -1.017884       -27.6980
  34   2.0000      -0.996533       -27.1170
  35   2.0000      -0.982703       -26.7407
  36   2.0000      -0.921757       -25.0823
  37   2.0000      -0.887741       -24.1567
  38   2.0000      -0.845016       -22.9941
  39   2.0000      -0.836539       -22.7634
  40   2.0000      -0.835941       -22.7471
  41   2.0000      -0.817927       -22.2569
  42   2.0000      -0.763518       -20.7764
  43   2.0000      -0.733146       -19.9499
  44   2.0000      -0.724282       -19.7087
  45   2.0000      -0.697119       -18.9696
  46   2.0000      -0.686037       -18.6680
  47   2.0000      -0.681028       -18.5317
  48   2.0000      -0.678446       -18.4615
  49   2.0000      -0.667128       -18.1535
  50   2.0000      -0.651264       -17.7218
  51   2.0000      -0.646075       -17.5806
  52   2.0000      -0.632367       -17.2076
  53   2.0000      -0.609914       -16.5966
  54   2.0000      -0.601454       -16.3664
  55   2.0000      -0.599398       -16.3104
  56   2.0000      -0.586970       -15.9723
  57   2.0000      -0.577320       -15.7097
  58   2.0000      -0.573580       -15.6079
  59   2.0000      -0.569805       -15.5052
  60   2.0000      -0.564726       -15.3670
  61   2.0000      -0.552663       -15.0387
  62   2.0000      -0.539719       -14.6865
  63   2.0000      -0.526762       -14.3339
  64   2.0000      -0.514963       -14.0129
  65   2.0000      -0.510487       -13.8911
  66   2.0000      -0.507030       -13.7970
  67   2.0000      -0.498082       -13.5535
  68   2.0000      -0.489788       -13.3278
  69   2.0000      -0.461222       -12.5505
  70   2.0000      -0.461078       -12.5466
  71   2.0000      -0.453547       -12.3416
  72   2.0000      -0.353241        -9.6122
  73   2.0000      -0.348786        -9.4910
  74   2.0000      -0.326763        -8.8917
  75   2.0000      -0.322935        -8.7875
  76   2.0000      -0.313633        -8.5344
  77   0.0000       0.090549         2.4640
  78   0.0000       0.102595         2.7918
  79   0.0000       0.121693         3.3114
  80   0.0000       0.129676         3.5287
  81   0.0000       0.134407         3.6574

MULLIKEN ATOMIC CHARGES
-----------------------
   0 C :   -0.263047
   1 C :    0.048963
   2 O :   -0.330122
   3 C :    0.391548
   4 O :   -0.412774
   5 C :   -0.157032
   6 C :    0.147754
   7 C :   -0.284095
   8 N :   -0.133665
   9 C :    0.224795
  10 S :   -0.449436
  11 N :   -0.221830
  12 C :    0.106169
  13 C :   -0.022793
  14 C :   -0.190931
  15 C :   -0.129398
  16 C :   -0.269783
  17 C :    0.311955
  18 O :   -0.352569
  19 C :   -0.225725
  20 H :    0.095140
  21 H :    0.091265
  22 H :    0.097029
  23 H :    0.089495
  24 H :    0.089157
  25 H :    0.116949
  26 H :    0.098421
  27 H :    0.138856
  28 H :    0.194392
  29 H :    0.201590
  30 H :    0.141774
  31 H :    0.151931
  32 H :    0.160948
  33 H :    0.131597
  34 H :    0.241005
  35 H :    0.172466
Sum of atomic charges:   -0.0000000

LOEWDIN ATOMIC CHARGES
----------------------
   0 C :    0.106979
   1 C :   -0.020449
   2 O :    0.303011
   3 C :   -0.412426
   4 O :    0.111648
   5 C :   -0.087564
   6 C :   -0.082134
   7 C :    0.129424
   8 N :    0.403763
   9 C :   -0.450204
  10 S :   -0.042111
  11 N :    0.393071
  12 C :   -0.050393
  13 C :   -0.041737
  14 C :    0.011006
  15 C :    0.041972
  16 C :    0.003591
  17 C :   -0.188326
  18 O :    0.397318
  19 C :    0.040220
  20 H :   -0.025634
  21 H :   -0.023729
  22 H :   -0.027685
  23 H :   -0.030106
  24 H :   -0.027513
  25 H :   -0.007096
  26 H :   -0.021032
  27 H :   -0.006586
  28 H :   -0.060015
  29 H :   -0.068280
  30 H :   -0.015256
  31 H :   -0.028267
  32 H :   -0.019945
  33 H :   -0.033721
  34 H :   -0.152231
  35 H :   -0.019563

  Mayer bond orders larger than 0.100000
B(  0-C ,  1-C ) :   0.9665 B(  0-C , 20-H ) :   0.9753 B(  0-C , 21-H ) :   0.9796
B(  0-C , 22-H ) :   0.9809 B(  1-C ,  2-O ) :   0.9117 B(  1-C , 23-H ) :   0.9787
B(  1-C , 24-H ) :   0.9783 B(  2-O ,  3-C ) :   1.1990 B(  3-C ,  4-O ) :   2.0026
B(  3-C ,  5-C ) :   0.9567 B(  5-C ,  6-C ) :   1.7066 B(  5-C , 12-C ) :   0.9604
B(  6-C ,  7-C ) :   0.9486 B(  6-C ,  8-N ) :   1.1428 B(  7-C , 25-H ) :   0.9736
B(  7-C , 26-H ) :   0.9865 B(  7-C , 27-H ) :   0.9630 B(  8-N ,  9-C ) :   1.1976
B(  8-N , 28-H ) :   0.9513 B(  9-C , 10-S ) :   1.5945 B(  9-C , 11-N ) :   1.3032
B( 11-N , 12-C ) :   0.9717 B( 11-N , 29-H ) :   0.9457 B( 12-C , 13-C ) :   0.9701
B( 12-C , 30-H ) :   0.9931 B( 13-C , 14-C ) :   1.3643 B( 13-C , 19-C ) :   1.3680
B( 14-C , 15-C ) :   1.3934 B( 14-C , 31-H ) :   0.9728 B( 15-C , 16-C ) :   1.3654
B( 15-C , 32-H ) :   0.9704 B( 16-C , 17-C ) :   1.3288 B( 16-C , 33-H ) :   0.9851
B( 17-C , 18-O ) :   1.1055 B( 17-C , 19-C ) :   1.3623 B( 18-O , 34-H ) :   0.9789
B( 19-C , 35-H ) :   0.9572

MP2 TOTAL ENERGY:    -1274.339636655 Eh
FINAL SINGLE POINT ENERGY     -1274.339636655102

DIPOLE MOMENT
-------------
                                X             Y             Z
Electronic contribution:      7.75966      10.74115      10.79513
Nuclear contribution   :     -8.65423     -12.62268     -11.39232
                        -----------------------------------------
Total Dipole Moment    :     -0.89457      -1.88153      -0.59718
                        -----------------------------------------
Magnitude (a.u.)       :      2.16727
Magnitude (Debye)      :      5.50876

Rotational constants in cm-1:     0.010486     0.008454     0.005832
Rotational constants in MHz :   314.365897   253.441804   174.837919

                             ****ORCA TERMINATED NORMALLY****
TOTAL RUN TIME: 0 days 1 hours 40 minutes 22 seconds 519 msec
