                         Program Version 4.2.0 -  RELEASE  -
|  1> ! ri-mp2 cc-pvtz cc-pvtz/c TightSCF  NoKeepInts
|  2>
|  3> %scf
|  4>   MaxCore 4096
|  5> end
|  6> *xyz  0  1
|  7>     C       14.4776163   15.1116215   16.8274779
|  8>     C       15.7104416   14.6969735   16.0059874
|  9>     O       16.5487529   15.8596655   15.8795246
| 10>     C       17.7743706   15.8597648   16.4788153
| 11>     O       18.4433036   14.8436057   16.5713621
| 12>     C       17.9417241   17.0033590   17.4331031
| 13>     C       17.3894914   18.2303043   17.2560135
| 14>     C       16.5588899   18.7076655   16.0829560
| 15>     N       17.6297470   19.2418545   18.1909923
| 16>     C       18.5002459   19.1434712   19.2446005
| 17>     S       18.8060730   20.4252676   20.2441246
| 18>     N       19.1056868   17.9256528   19.4280469
| 19>     C       18.7845877   16.6986659   18.6746582
| 20>     C       18.0700965   15.6917093   19.5717086
| 21>     C       18.5922333   14.3973690   19.7495836
| 22>     C       17.9270269   13.4620372   20.5599191
| 23>     C       16.7273191   13.8223341   21.1968608
| 24>     C       16.2016580   15.1091113   21.0184536
| 25>     O       15.0377611   15.4569538   21.6229810
| 26>     C       16.8667489   16.0383487   20.2127714
| 27>     H       14.7755492   15.4361392   17.8328313
| 28>     H       13.7849889   14.2678109   16.9328204
| 29>     H       13.9438261   15.9360965   16.3390844
| 30>     H       16.2256402   13.8636203   16.5036133
| 31>     H       15.3938128   14.3594690   15.0107563
| 32>     H       16.9827777   18.3570577   15.1336557
| 33>     H       16.5041728   19.8015024   16.0242289
| 34>     H       15.5334961   18.3240538   16.1543762
| 35>     H       17.1950652   20.1432026   18.0737055
| 36>     H       19.7186534   17.8716673   20.2313491
| 37>     H       19.7318925   16.2536260   18.3374093
| 38>     H       19.5089428   14.1097952   19.2405859
| 39>     H       18.3384389   12.4619794   20.6846021
| 40>     H       16.2087150   13.1017670   21.8204169
| 41>     H       14.7630710   14.7088765   22.1743096
| 42>     H       16.4441829   17.0296007   20.0903149
| 43> *
| 44>
| 45>                          ****END OF INPUT****

CARTESIAN COORDINATES (ANGSTROEM)
---------------------------------
  C     14.477616   15.111622   16.827478
  C     15.710442   14.696973   16.005987
  O     16.548753   15.859665   15.879525
  C     17.774371   15.859765   16.478815
  O     18.443304   14.843606   16.571362
  C     17.941724   17.003359   17.433103
  C     17.389491   18.230304   17.256013
  C     16.558890   18.707666   16.082956
  N     17.629747   19.241854   18.190992
  C     18.500246   19.143471   19.244601
  S     18.806073   20.425268   20.244125
  N     19.105687   17.925653   19.428047
  C     18.784588   16.698666   18.674658
  C     18.070096   15.691709   19.571709
  C     18.592233   14.397369   19.749584
  C     17.927027   13.462037   20.559919
  C     16.727319   13.822334   21.196861
  C     16.201658   15.109111   21.018454
  O     15.037761   15.456954   21.622981
  C     16.866749   16.038349   20.212771
  H     14.775549   15.436139   17.832831
  H     13.784989   14.267811   16.932820
  H     13.943826   15.936096   16.339084
  H     16.225640   13.863620   16.503613
  H     15.393813   14.359469   15.010756
  H     16.982778   18.357058   15.133656
  H     16.504173   19.801502   16.024229
  H     15.533496   18.324054   16.154376
  H     17.195065   20.143203   18.073705
  H     19.718653   17.871667   20.231349
  H     19.731893   16.253626   18.337409
  H     19.508943   14.109795   19.240586
  H     18.338439   12.461979   20.684602
  H     16.208715   13.101767   21.820417
  H     14.763071   14.708877   22.174310
  H     16.444183   17.029601   20.090315

 Total Charge           Charge          ....    0
 Multiplicity           Mult            ....    1
 Number of Electrons    NEL             ....  154
 Basis Dimension        Dim             ....  828

ORBITAL ENERGIES
----------------

  NO   OCC          E(Eh)            E(eV)
   0   2.0000     -91.888286     -2500.4074
   1   2.0000     -20.595517      -560.4325
   2   2.0000     -20.593248      -560.3708
   3   2.0000     -20.551006      -559.2213
   4   2.0000     -15.627835      -425.2550
   5   2.0000     -15.607796      -424.7097
   6   2.0000     -11.395327      -310.0826
   7   2.0000     -11.383696      -309.7661
   8   2.0000     -11.333163      -308.3910
   9   2.0000     -11.311399      -307.7988
  10   2.0000     -11.307908      -307.7038
  11   2.0000     -11.297944      -307.4327
  12   2.0000     -11.259660      -306.3909
  13   2.0000     -11.259308      -306.3813
  14   2.0000     -11.256895      -306.3157
  15   2.0000     -11.251581      -306.1711
  16   2.0000     -11.241125      -305.8866
  17   2.0000     -11.236991      -305.7741
  18   2.0000     -11.234365      -305.7026
  19   2.0000     -11.229141      -305.5605
  20   2.0000      -8.893360      -242.0006
  21   2.0000      -6.574940      -178.9132
  22   2.0000      -6.572930      -178.8585
  23   2.0000      -6.572347      -178.8426
  24   2.0000      -1.453066       -39.5399
  25   2.0000      -1.415255       -38.5110
  26   2.0000      -1.357168       -36.9304
  27   2.0000      -1.339095       -36.4386
  28   2.0000      -1.237392       -33.6712
  29   2.0000      -1.155642       -31.4466
  30   2.0000      -1.120896       -30.5011
  31   2.0000      -1.044382       -28.4191
  32   2.0000      -1.035410       -28.1749
  33   2.0000      -1.013031       -27.5660
  34   2.0000      -0.998930       -27.1823
  35   2.0000      -0.984496       -26.7895
  36   2.0000      -0.922869       -25.1125
  37   2.0000      -0.888563       -24.1790
  38   2.0000      -0.847338       -23.0573
  39   2.0000      -0.837309       -22.7843
  40   2.0000      -0.831603       -22.6291
  41   2.0000      -0.817883       -22.2557
  42   2.0000      -0.758597       -20.6425
  43   2.0000      -0.736441       -20.0396
  44   2.0000      -0.727475       -19.7956
  45   2.0000      -0.693793       -18.8791
  46   2.0000      -0.685369       -18.6498
  47   2.0000      -0.677633       -18.4393
  48   2.0000      -0.676965       -18.4211
  49   2.0000      -0.661310       -17.9952
  50   2.0000      -0.651310       -17.7230
  51   2.0000      -0.645071       -17.5533
  52   2.0000      -0.635836       -17.3020
  53   2.0000      -0.604603       -16.4521
  54   2.0000      -0.602355       -16.3909
  55   2.0000      -0.598958       -16.2985
  56   2.0000      -0.590110       -16.0577
  57   2.0000      -0.582102       -15.8398
  58   2.0000      -0.575943       -15.6722
  59   2.0000      -0.566883       -15.4257
  60   2.0000      -0.560937       -15.2639
  61   2.0000      -0.554748       -15.0955
  62   2.0000      -0.541297       -14.7294
  63   2.0000      -0.520679       -14.1684
  64   2.0000      -0.519665       -14.1408
  65   2.0000      -0.511442       -13.9170
  66   2.0000      -0.500084       -13.6080
  67   2.0000      -0.497429       -13.5357
  68   2.0000      -0.482827       -13.1384
  69   2.0000      -0.463679       -12.6174
  70   2.0000      -0.458099       -12.4655
  71   2.0000      -0.453527       -12.3411
  72   2.0000      -0.353585        -9.6215
  73   2.0000      -0.347296        -9.4504
  74   2.0000      -0.327610        -8.9147
  75   2.0000      -0.318597        -8.6695
  76   2.0000      -0.315212        -8.5773
  77   0.0000       0.074137         2.0174
  78   0.0000       0.106753         2.9049
  79   0.0000       0.119634         3.2554
  80   0.0000       0.132611         3.6085
  81   0.0000       0.141005         3.8369

MULLIKEN ATOMIC CHARGES
-----------------------
   0 C :   -0.283997
   1 C :    0.035406
   2 O :   -0.361981
   3 C :    0.448763
   4 O :   -0.411869
   5 C :   -0.185504
   6 C :    0.139242
   7 C :   -0.284074
   8 N :   -0.124827
   9 C :    0.205029
  10 S :   -0.440588
  11 N :   -0.200491
  12 C :    0.052202
  13 C :    0.057266
  14 C :   -0.161165
  15 C :   -0.132460
  16 C :   -0.279269
  17 C :    0.324484
  18 O :   -0.362454
  19 C :   -0.304498
  20 H :    0.109679
  21 H :    0.101077
  22 H :    0.089350
  23 H :    0.110776
  24 H :    0.101241
  25 H :    0.124459
  26 H :    0.104473
  27 H :    0.126200
  28 H :    0.196971
  29 H :    0.194264
  30 H :    0.154259
  31 H :    0.154530
  32 H :    0.160605
  33 H :    0.130172
  34 H :    0.240871
  35 H :    0.171859
Sum of atomic charges:   -0.0000000

LOEWDIN ATOMIC CHARGES
----------------------
   0 C :    0.103565
   1 C :   -0.012902
   2 O :    0.300392
   3 C :   -0.415262
   4 O :    0.116587
   5 C :   -0.092939
   6 C :   -0.073325
   7 C :    0.125782
   8 N :    0.404147
   9 C :   -0.457334
  10 S :   -0.036872
  11 N :    0.397241
  12 C :   -0.045626
  13 C :   -0.040126
  14 C :    0.021996
  15 C :    0.041704
  16 C :   -0.002150
  17 C :   -0.193930
  18 O :    0.393309
  19 C :    0.028552
  20 H :   -0.025575
  21 H :   -0.024911
  22 H :   -0.031304
  23 H :   -0.025332
  24 H :   -0.028952
  25 H :   -0.008102
  26 H :   -0.019936
  27 H :   -0.010699
  28 H :   -0.058894
  29 H :   -0.064044
  30 H :   -0.004844
  31 H :   -0.024893
  32 H :   -0.020561
  33 H :   -0.035827
  34 H :   -0.154051
  35 H :   -0.024883

  Mayer bond orders larger than 0.100000
B(  0-C ,  1-C ) :   0.9685 B(  0-C , 20-H ) :   0.9723 B(  0-C , 21-H ) :   0.9784
B(  0-C , 22-H ) :   0.9794 B(  1-C ,  2-O ) :   0.8893 B(  1-C , 23-H ) :   0.9707
B(  1-C , 24-H ) :   0.9851 B(  2-O ,  3-C ) :   1.1231 B(  3-C ,  4-O ) :   2.0106
B(  3-C ,  5-C ) :   1.0279 B(  5-C ,  6-C ) :   1.6660 B(  5-C , 12-C ) :   0.9649
B(  6-C ,  7-C ) :   0.9541 B(  6-C ,  8-N ) :   1.1415 B(  7-C , 25-H ) :   0.9698
B(  7-C , 26-H ) :   0.9883 B(  7-C , 27-H ) :   0.9633 B(  8-N ,  9-C ) :   1.1842
B(  8-N , 28-H ) :   0.9496 B(  9-C , 10-S ) :   1.6095 B(  9-C , 11-N ) :   1.3010
B( 11-N , 12-C ) :   0.9932 B( 11-N , 29-H ) :   0.9517 B( 12-C , 13-C ) :   0.9453
B( 12-C , 30-H ) :   0.9984 B( 13-C , 14-C ) :   1.3762 B( 13-C , 19-C ) :   1.3595
B( 14-C , 15-C ) :   1.3934 B( 14-C , 31-H ) :   0.9646 B( 15-C , 16-C ) :   1.3638
B( 15-C , 32-H ) :   0.9710 B( 16-C , 17-C ) :   1.3322 B( 16-C , 33-H ) :   0.9849
B( 17-C , 18-O ) :   1.1036 B( 17-C , 19-C ) :   1.3702 B( 18-O , 34-H ) :   0.9803
B( 19-C , 35-H ) :   0.9577

MP2 TOTAL ENERGY:    -1274.334878985 Eh
FINAL SINGLE POINT ENERGY     -1274.334878985393

DIPOLE MOMENT
-------------
                                X             Y             Z
Electronic contribution:     11.19791       8.25059       7.04719
Nuclear contribution   :    -12.53545      -9.59305      -7.82808
                        -----------------------------------------
Total Dipole Moment    :     -1.33754      -1.34245      -0.78088
                        -----------------------------------------
Magnitude (a.u.)       :      2.04963
Magnitude (Debye)      :      5.20975

Rotational constants in cm-1:     0.011567     0.009224     0.006692
Rotational constants in MHz :   346.765174   276.534631   200.614447

                             ****ORCA TERMINATED NORMALLY****
TOTAL RUN TIME: 0 days 1 hours 40 minutes 26 seconds 761 msec
