                         Program Version 5.0.0 -  RELEASE  -
|  1> ! ri-mp2 cc-pvtz cc-pvtz/c TightSCF NoKeepInts
|  2>
|  3> %scf
|  4>   MaxCore 4096
|  5> end
|  6> *xyz  0  1
|  7>     C       15.4141034   13.6416439   16.9037473
|  8>     C       16.5064328   14.0971815   15.9189466
|  9>     O       17.2726818   15.1326945   16.5591208
| 10>     C       16.8888003   16.4401592   16.4385191
| 11>     O       16.0488670   16.8044167   15.6328061
| 12>     C       17.5679427   17.3384488   17.4351443
| 13>     C       17.3885067   18.6838091   17.4433020
| 14>     C       16.5248597   19.4991853   16.5047987
| 15>     N       18.0661411   19.4763450   18.3744814
| 16>     C       19.0006721   19.0168621   19.2633934
| 17>     S       19.8185336   20.0359130   20.2776508
| 18>     N       19.2278658   17.6644460   19.2687000
| 19>     C       18.4716782   16.6707655   18.4851643
| 20>     C       17.6842350   15.7654422   19.4282485
| 21>     C       18.0807773   14.4297970   19.6284569
| 22>     C       17.3573323   13.5909574   20.4928824
| 23>     C       16.2284658   14.0916408   21.1635442
| 24>     C       15.8339558   15.4226890   20.9704340
| 25>     O       14.7455959   15.9094875   21.6180814
| 26>     C       16.5571134   16.2557600   20.1113597
| 27>     H       15.8584011   13.3028026   17.8477485
| 28>     H       14.8337769   12.8137713   16.4791630
| 29>     H       14.7235592   14.4656368   17.1237950
| 30>     H       17.1625503   13.2445825   15.7023635
| 31>     H       16.0672787   14.4365824   14.9707697
| 32>     H       15.4724591   19.2003311   16.5934726
| 33>     H       16.8246972   19.3341078   15.4621248
| 34>     H       16.5804673   20.5769485   16.6974905
| 35>     H       17.9126828   20.4720144   18.3850401
| 36>     H       19.8932073   17.3514205   19.9637587
| 37>     H       19.2048290   16.0544523   17.9460886
| 38>     H       18.9492554   14.0383959   19.1056580
| 39>     H       17.6708959   12.5588777   20.6395571
| 40>     H       15.6659247   13.4477184   21.8314933
| 41>     H       14.4025500   15.2018112   22.1840285
| 42>     H       16.2399043   17.2849021   19.9826662
| 43> *
| 44>
| 45>                          ****END OF INPUT****

CARTESIAN COORDINATES (ANGSTROEM)
---------------------------------
  C     15.414103   13.641644   16.903747
  C     16.506433   14.097181   15.918947
  O     17.272682   15.132694   16.559121
  C     16.888800   16.440159   16.438519
  O     16.048867   16.804417   15.632806
  C     17.567943   17.338449   17.435144
  C     17.388507   18.683809   17.443302
  C     16.524860   19.499185   16.504799
  N     18.066141   19.476345   18.374481
  C     19.000672   19.016862   19.263393
  S     19.818534   20.035913   20.277651
  N     19.227866   17.664446   19.268700
  C     18.471678   16.670766   18.485164
  C     17.684235   15.765442   19.428248
  C     18.080777   14.429797   19.628457
  C     17.357332   13.590957   20.492882
  C     16.228466   14.091641   21.163544
  C     15.833956   15.422689   20.970434
  O     14.745596   15.909487   21.618081
  C     16.557113   16.255760   20.111360
  H     15.858401   13.302803   17.847749
  H     14.833777   12.813771   16.479163
  H     14.723559   14.465637   17.123795
  H     17.162550   13.244582   15.702364
  H     16.067279   14.436582   14.970770
  H     15.472459   19.200331   16.593473
  H     16.824697   19.334108   15.462125
  H     16.580467   20.576948   16.697491
  H     17.912683   20.472014   18.385040
  H     19.893207   17.351420   19.963759
  H     19.204829   16.054452   17.946089
  H     18.949255   14.038396   19.105658
  H     17.670896   12.558878   20.639557
  H     15.665925   13.447718   21.831493
  H     14.402550   15.201811   22.184029
  H     16.239904   17.284902   19.982666

 Total Charge           Charge          ....    0
 Multiplicity           Mult            ....    1
 Number of Electrons    NEL             ....  154
 Basis Dimension        Dim             ....  828

ORBITAL ENERGIES
----------------

  NO   OCC          E(Eh)            E(eV)
   0   2.0000     -91.888765     -2500.4204
   1   2.0000     -20.600840      -560.5774
   2   2.0000     -20.597180      -560.4778
   3   2.0000     -20.541372      -558.9591
   4   2.0000     -15.628979      -425.2861
   5   2.0000     -15.608288      -424.7231
   6   2.0000     -11.395116      -310.0769
   7   2.0000     -11.383968      -309.7735
   8   2.0000     -11.336074      -308.4703
   9   2.0000     -11.314480      -307.8826
  10   2.0000     -11.309018      -307.7340
  11   2.0000     -11.294733      -307.3453
  12   2.0000     -11.260161      -306.4046
  13   2.0000     -11.258982      -306.3725
  14   2.0000     -11.255676      -306.2825
  15   2.0000     -11.252054      -306.1840
  16   2.0000     -11.243637      -305.9549
  17   2.0000     -11.238855      -305.8248
  18   2.0000     -11.238413      -305.8128
  19   2.0000     -11.222121      -305.3694
  20   2.0000      -8.893828      -242.0134
  21   2.0000      -6.575404      -178.9258
  22   2.0000      -6.573398      -178.8712
  23   2.0000      -6.572812      -178.8553
  24   2.0000      -1.450899       -39.4810
  25   2.0000      -1.416836       -38.5541
  26   2.0000      -1.354416       -36.8555
  27   2.0000      -1.339998       -36.4632
  28   2.0000      -1.238570       -33.7032
  29   2.0000      -1.158136       -31.5145
  30   2.0000      -1.120583       -30.4926
  31   2.0000      -1.043075       -28.3835
  32   2.0000      -1.035617       -28.1806
  33   2.0000      -1.015662       -27.6376
  34   2.0000      -0.995409       -27.0865
  35   2.0000      -0.984181       -26.7809
  36   2.0000      -0.922704       -25.1081
  37   2.0000      -0.892442       -24.2846
  38   2.0000      -0.847013       -23.0484
  39   2.0000      -0.837997       -22.8031
  40   2.0000      -0.834368       -22.7043
  41   2.0000      -0.814996       -22.1772
  42   2.0000      -0.758576       -20.6419
  43   2.0000      -0.732783       -19.9400
  44   2.0000      -0.723141       -19.6777
  45   2.0000      -0.696332       -18.9482
  46   2.0000      -0.688629       -18.7385
  47   2.0000      -0.679173       -18.4812
  48   2.0000      -0.670559       -18.2468
  49   2.0000      -0.661820       -18.0090
  50   2.0000      -0.648053       -17.6344
  51   2.0000      -0.641658       -17.4604
  52   2.0000      -0.632152       -17.2017
  53   2.0000      -0.607654       -16.5351
  54   2.0000      -0.606426       -16.5017
  55   2.0000      -0.599909       -16.3244
  56   2.0000      -0.599017       -16.3001
  57   2.0000      -0.578064       -15.7299
  58   2.0000      -0.570671       -15.5287
  59   2.0000      -0.567308       -15.4372
  60   2.0000      -0.560485       -15.2516
  61   2.0000      -0.544103       -14.8058
  62   2.0000      -0.533538       -14.5183
  63   2.0000      -0.530989       -14.4489
  64   2.0000      -0.525535       -14.3005
  65   2.0000      -0.513224       -13.9655
  66   2.0000      -0.501433       -13.6447
  67   2.0000      -0.498915       -13.5762
  68   2.0000      -0.481489       -13.1020
  69   2.0000      -0.463925       -12.6240
  70   2.0000      -0.453622       -12.3437
  71   2.0000      -0.447636       -12.1808
  72   2.0000      -0.354241        -9.6394
  73   2.0000      -0.350125        -9.5274
  74   2.0000      -0.328248        -8.9321
  75   2.0000      -0.321824        -8.7573
  76   2.0000      -0.316256        -8.6058
  77   0.0000       0.076776         2.0892
  78   0.0000       0.105605         2.8737
  79   0.0000       0.124753         3.3947
  80   0.0000       0.132619         3.6088
  81   0.0000       0.138360         3.7650

MULLIKEN ATOMIC CHARGES
-----------------------
   0 C :   -0.292853
   1 C :    0.016030
   2 O :   -0.353504
   3 C :    0.465197
   4 O :   -0.435371
   5 C :   -0.233828
   6 C :    0.154874
   7 C :   -0.272432
   8 N :   -0.121340
   9 C :    0.213807
  10 S :   -0.440922
  11 N :   -0.207086
  12 C :    0.064412
  13 C :    0.070492
  14 C :   -0.191432
  15 C :   -0.140198
  16 C :   -0.274260
  17 C :    0.315358
  18 O :   -0.356489
  19 C :   -0.264883
  20 H :    0.102810
  21 H :    0.100258
  22 H :    0.104738
  23 H :    0.107147
  24 H :    0.120952
  25 H :    0.131952
  26 H :    0.130919
  27 H :    0.095152
  28 H :    0.197050
  29 H :    0.195385
  30 H :    0.149322
  31 H :    0.148451
  32 H :    0.162712
  33 H :    0.130848
  34 H :    0.240840
  35 H :    0.165891
Sum of atomic charges:   -0.0000000

LOEWDIN ATOMIC CHARGES
----------------------
   0 C :    0.104835
   1 C :   -0.016961
   2 O :    0.309026
   3 C :   -0.414360
   4 O :    0.094821
   5 C :   -0.094468
   6 C :   -0.059262
   7 C :    0.131546
   8 N :    0.406672
   9 C :   -0.455699
  10 S :   -0.035942
  11 N :    0.396382
  12 C :   -0.052021
  13 C :   -0.037912
  14 C :    0.013183
  15 C :    0.039617
  16 C :   -0.001886
  17 C :   -0.188985
  18 O :    0.395635
  19 C :    0.031975
  20 H :   -0.026944
  21 H :   -0.027848
  22 H :   -0.025664
  23 H :   -0.027165
  24 H :   -0.028184
  25 H :   -0.004607
  26 H :   -0.003932
  27 H :   -0.023411
  28 H :   -0.057559
  29 H :   -0.064674
  30 H :   -0.011168
  31 H :   -0.030395
  32 H :   -0.021438
  33 H :   -0.035494
  34 H :   -0.153753
  35 H :   -0.023961

  Mayer bond orders larger than 0.100000
B(  0-C ,  1-C ) :   0.9637 B(  0-C , 20-H ) :   0.9713 B(  0-C , 21-H ) :   0.9775
B(  0-C , 22-H ) :   0.9773 B(  1-C ,  2-O ) :   0.8912 B(  1-C , 23-H ) :   0.9850
B(  1-C , 24-H ) :   0.9774 B(  2-O ,  3-C ) :   1.1698 B(  3-C ,  4-O ) :   1.9681
B(  3-C ,  5-C ) :   1.0579 B(  5-C ,  6-C ) :   1.6540 B(  5-C , 12-C ) :   0.9727
B(  6-C ,  7-C ) :   0.9665 B(  6-C ,  8-N ) :   1.1661 B(  7-C , 25-H ) :   0.9602
B(  7-C , 26-H ) :   0.9605 B(  7-C , 27-H ) :   0.9904 B(  8-N ,  9-C ) :   1.1836
B(  8-N , 28-H ) :   0.9478 B(  9-C , 10-S ) :   1.6048 B(  9-C , 11-N ) :   1.3071
B( 11-N , 12-C ) :   0.9826 B( 11-N , 29-H ) :   0.9514 B( 12-C , 13-C ) :   0.9370
B( 12-C , 30-H ) :   1.0020 B( 13-C , 14-C ) :   1.3515 B( 13-C , 19-C ) :   1.3818
B( 14-C , 15-C ) :   1.3901 B( 14-C , 31-H ) :   0.9731 B( 15-C , 16-C ) :   1.3582
B( 15-C , 32-H ) :   0.9713 B( 16-C , 17-C ) :   1.3320 B( 16-C , 33-H ) :   0.9850
B( 17-C , 18-O ) :   1.1107 B( 17-C , 19-C ) :   1.3699 B( 18-O , 34-H ) :   0.9797
B( 19-C , 35-H ) :   0.9580

MP2 TOTAL ENERGY:    -1274.352015302 Eh
FINAL SINGLE POINT ENERGY     -1274.352015301667

DIPOLE MOMENT
-------------
                                X             Y             Z
Electronic contribution:      8.83617      11.10380       6.89541
Nuclear contribution   :     -9.66580     -12.87074      -7.31764
                        -----------------------------------------
Total Dipole Moment    :     -0.82963      -1.76694      -0.42223
                        -----------------------------------------
Magnitude (a.u.)       :      1.99716
Magnitude (Debye)      :      5.07637

Rotational constants in cm-1:     0.012406     0.008637     0.006294
Rotational constants in MHz :   371.913093   258.939077   188.686706

                             ****ORCA TERMINATED NORMALLY****
TOTAL RUN TIME: 0 days 1 hours 33 minutes 37 seconds 870 msec
