                         Program Version 4.2.0 -  RELEASE  -
|  1> ! ri-mp2 cc-pvtz cc-pvtz/c TightSCF  NoKeepInts
|  2>
|  3> %scf
|  4>   MaxCore 4096
|  5> end
|  6> *xyz  0  1
|  7>     C       15.1309903   15.0626520   17.2115101
|  8>     C       15.7165830   14.8969276   15.7946413
|  9>     O       16.7783718   15.8435029   15.5603923
| 10>     C       17.8785948   15.8372135   16.3672497
| 11>     O       18.5038264   14.8053913   16.5426041
| 12>     C       17.8994412   16.9489258   17.3786727
| 13>     C       17.3137634   18.1605756   17.1937586
| 14>     C       16.5447904   18.6453840   15.9817202
| 15>     N       17.4710722   19.1619489   18.1576484
| 16>     C       18.3411431   19.0980209   19.2142331
| 17>     S       18.5875119   20.3872684   20.2202844
| 18>     N       18.9968935   17.9061115   19.3932028
| 19>     C       18.6904226   16.6622908   18.6612452
| 20>     C       17.9471183   15.6801530   19.5635615
| 21>     C       18.3837818   14.3470516   19.6743295
| 22>     C       17.6982867   13.4330697   20.4918513
| 23>     C       16.5646059   13.8542128   21.2071486
| 24>     C       16.1245014   15.1801650   21.0990636
| 25>     O       15.0239679   15.5875828   21.7800138
| 26>     C       16.8086585   16.0876013   20.2843217
| 27>     H       15.8371321   14.7014987   17.9680001
| 28>     H       14.2112939   14.4741606   17.3136531
| 29>     H       14.8900234   16.1112617   17.4234819
| 30>     H       16.0904192   13.8716187   15.6681236
| 31>     H       14.9231273   15.0598444   15.0541148
| 32>     H       15.5524506   18.1803271   15.9387037
| 33>     H       17.0755686   18.3926648   15.0552061
| 34>     H       16.4019806   19.7328708   15.9802779
| 35>     H       17.0008389   20.0452947   18.0404444
| 36>     H       19.6128406   17.8744813   20.1955007
| 37>     H       19.6469445   16.2036764   18.3711988
| 38>     H       19.2496987   14.0134358   19.1071096
| 39>     H       18.0438195   12.4032140   20.5626502
| 40>     H       16.0307846   13.1507865   21.8374417
| 41>     H       14.7271704   14.8425643   22.3239302
| 42>     H       16.4485821   17.1082505   20.2167104
| 43> *
| 44>
| 45>                          ****END OF INPUT****

CARTESIAN COORDINATES (ANGSTROEM)
---------------------------------
  C     15.130990   15.062652   17.211510
  C     15.716583   14.896928   15.794641
  O     16.778372   15.843503   15.560392
  C     17.878595   15.837214   16.367250
  O     18.503826   14.805391   16.542604
  C     17.899441   16.948926   17.378673
  C     17.313763   18.160576   17.193759
  C     16.544790   18.645384   15.981720
  N     17.471072   19.161949   18.157648
  C     18.341143   19.098021   19.214233
  S     18.587512   20.387268   20.220284
  N     18.996893   17.906112   19.393203
  C     18.690423   16.662291   18.661245
  C     17.947118   15.680153   19.563561
  C     18.383782   14.347052   19.674329
  C     17.698287   13.433070   20.491851
  C     16.564606   13.854213   21.207149
  C     16.124501   15.180165   21.099064
  O     15.023968   15.587583   21.780014
  C     16.808658   16.087601   20.284322
  H     15.837132   14.701499   17.968000
  H     14.211294   14.474161   17.313653
  H     14.890023   16.111262   17.423482
  H     16.090419   13.871619   15.668124
  H     14.923127   15.059844   15.054115
  H     15.552451   18.180327   15.938704
  H     17.075569   18.392665   15.055206
  H     16.401981   19.732871   15.980278
  H     17.000839   20.045295   18.040444
  H     19.612841   17.874481   20.195501
  H     19.646945   16.203676   18.371199
  H     19.249699   14.013436   19.107110
  H     18.043820   12.403214   20.562650
  H     16.030785   13.150787   21.837442
  H     14.727170   14.842564   22.323930
  H     16.448582   17.108251   20.216710

 Total Charge           Charge          ....    0
 Multiplicity           Mult            ....    1
 Number of Electrons    NEL             ....  154
 Basis Dimension        Dim             ....  828

ORBITAL ENERGIES
----------------

  NO   OCC          E(Eh)            E(eV)
   0   2.0000     -91.890109     -2500.4570
   1   2.0000     -20.594904      -560.4158
   2   2.0000     -20.584645      -560.1367
   3   2.0000     -20.552431      -559.2601
   4   2.0000     -15.630594      -425.3301
   5   2.0000     -15.608557      -424.7304
   6   2.0000     -11.395212      -310.0795
   7   2.0000     -11.384978      -309.8010
   8   2.0000     -11.337255      -308.5024
   9   2.0000     -11.311032      -307.7888
  10   2.0000     -11.308297      -307.7144
  11   2.0000     -11.301728      -307.5356
  12   2.0000     -11.261788      -306.4488
  13   2.0000     -11.260959      -306.4263
  14   2.0000     -11.256841      -306.3142
  15   2.0000     -11.251489      -306.1686
  16   2.0000     -11.241154      -305.8874
  17   2.0000     -11.236520      -305.7613
  18   2.0000     -11.233715      -305.6849
  19   2.0000     -11.226537      -305.4896
  20   2.0000      -8.895157      -242.0495
  21   2.0000      -6.576730      -178.9619
  22   2.0000      -6.574726      -178.9074
  23   2.0000      -6.574136      -178.8913
  24   2.0000      -1.450404       -39.4675
  25   2.0000      -1.414714       -38.4963
  26   2.0000      -1.354766       -36.8651
  27   2.0000      -1.341430       -36.5022
  28   2.0000      -1.238902       -33.7122
  29   2.0000      -1.155406       -31.4402
  30   2.0000      -1.121156       -30.5082
  31   2.0000      -1.043720       -28.4011
  32   2.0000      -1.032021       -28.0827
  33   2.0000      -1.013085       -27.5675
  34   2.0000      -1.000420       -27.2228
  35   2.0000      -0.986535       -26.8450
  36   2.0000      -0.924080       -25.1455
  37   2.0000      -0.894040       -24.3281
  38   2.0000      -0.849367       -23.1124
  39   2.0000      -0.838689       -22.8219
  40   2.0000      -0.831410       -22.6238
  41   2.0000      -0.816862       -22.2279
  42   2.0000      -0.750130       -20.4121
  43   2.0000      -0.734253       -19.9800
  44   2.0000      -0.727629       -19.7998
  45   2.0000      -0.693613       -18.8742
  46   2.0000      -0.687071       -18.6962
  47   2.0000      -0.676872       -18.4186
  48   2.0000      -0.672497       -18.2996
  49   2.0000      -0.660440       -17.9715
  50   2.0000      -0.653917       -17.7940
  51   2.0000      -0.646150       -17.5826
  52   2.0000      -0.637150       -17.3377
  53   2.0000      -0.613259       -16.6876
  54   2.0000      -0.602656       -16.3991
  55   2.0000      -0.601910       -16.3788
  56   2.0000      -0.598832       -16.2950
  57   2.0000      -0.581667       -15.8280
  58   2.0000      -0.575298       -15.6546
  59   2.0000      -0.562487       -15.3060
  60   2.0000      -0.555838       -15.1251
  61   2.0000      -0.548921       -14.9369
  62   2.0000      -0.542673       -14.7669
  63   2.0000      -0.528609       -14.3842
  64   2.0000      -0.520557       -14.1651
  65   2.0000      -0.512369       -13.9423
  66   2.0000      -0.499376       -13.5887
  67   2.0000      -0.492251       -13.3948
  68   2.0000      -0.480806       -13.0834
  69   2.0000      -0.463921       -12.6239
  70   2.0000      -0.457243       -12.4422
  71   2.0000      -0.449799       -12.2396
  72   2.0000      -0.356184        -9.6922
  73   2.0000      -0.346694        -9.4340
  74   2.0000      -0.329186        -8.9576
  75   2.0000      -0.319224        -8.6865
  76   2.0000      -0.316868        -8.6224
  77   0.0000       0.069056         1.8791
  78   0.0000       0.107768         2.9325
  79   0.0000       0.119352         3.2477
  80   0.0000       0.133055         3.6206
  81   0.0000       0.137451         3.7402

MULLIKEN ATOMIC CHARGES
-----------------------
   0 C :   -0.334337
   1 C :    0.039978
   2 O :   -0.381340
   3 C :    0.464823
   4 O :   -0.405729
   5 C :   -0.190822
   6 C :    0.139882
   7 C :   -0.283502
   8 N :   -0.122968
   9 C :    0.192065
  10 S :   -0.435618
  11 N :   -0.197409
  12 C :    0.044796
  13 C :    0.027573
  14 C :   -0.162710
  15 C :   -0.138216
  16 C :   -0.276878
  17 C :    0.309720
  18 O :   -0.359783
  19 C :   -0.259154
  20 H :    0.125992
  21 H :    0.115896
  22 H :    0.099471
  23 H :    0.112622
  24 H :    0.110657
  25 H :    0.119896
  26 H :    0.130780
  27 H :    0.105628
  28 H :    0.197407
  29 H :    0.193247
  30 H :    0.156489
  31 H :    0.160531
  32 H :    0.160981
  33 H :    0.130661
  34 H :    0.240651
  35 H :    0.168718
Sum of atomic charges:    0.0000000

LOEWDIN ATOMIC CHARGES
----------------------
   0 C :    0.105087
   1 C :   -0.018454
   2 O :    0.286294
   3 C :   -0.417153
   4 O :    0.121791
   5 C :   -0.093415
   6 C :   -0.068230
   7 C :    0.125830
   8 N :    0.405696
   9 C :   -0.459838
  10 S :   -0.033834
  11 N :    0.397589
  12 C :   -0.045509
  13 C :   -0.041977
  14 C :    0.020217
  15 C :    0.040807
  16 C :   -0.002359
  17 C :   -0.194000
  18 O :    0.394293
  19 C :    0.030271
  20 H :   -0.022892
  21 H :   -0.023976
  22 H :   -0.031289
  23 H :   -0.026152
  24 H :   -0.024139
  25 H :   -0.012586
  26 H :   -0.006396
  27 H :   -0.019966
  28 H :   -0.058765
  29 H :   -0.063859
  30 H :   -0.003431
  31 H :   -0.024131
  32 H :   -0.020244
  33 H :   -0.035653
  34 H :   -0.154266
  35 H :   -0.025360

  Mayer bond orders larger than 0.100000
B(  0-C ,  1-C ) :   0.9588 B(  0-C , 20-H ) :   0.9661 B(  0-C , 21-H ) :   0.9779
B(  0-C , 22-H ) :   0.9728 B(  1-C ,  2-O ) :   0.8927 B(  1-C , 23-H ) :   0.9837
B(  1-C , 24-H ) :   0.9835 B(  2-O ,  3-C ) :   1.0907 B(  3-C ,  4-O ) :   2.0152
B(  3-C ,  5-C ) :   1.0373 B(  5-C ,  6-C ) :   1.6601 B(  5-C , 12-C ) :   0.9628
B(  6-C ,  7-C ) :   0.9555 B(  6-C ,  8-N ) :   1.1382 B(  7-C , 25-H ) :   0.9641
B(  7-C , 26-H ) :   0.9663 B(  7-C , 27-H ) :   0.9901 B(  8-N ,  9-C ) :   1.1784
B(  8-N , 28-H ) :   0.9490 B(  9-C , 10-S ) :   1.6160 B(  9-C , 11-N ) :   1.3009
B( 11-N , 12-C ) :   0.9873 B( 11-N , 29-H ) :   0.9525 B( 12-C , 13-C ) :   0.9452
B( 12-C , 30-H ) :   0.9991 B( 13-C , 14-C ) :   1.3854 B( 13-C , 19-C ) :   1.3624
B( 14-C , 15-C ) :   1.3946 B( 14-C , 31-H ) :   0.9615 B( 15-C , 16-C ) :   1.3625
B( 15-C , 32-H ) :   0.9713 B( 16-C , 17-C ) :   1.3305 B( 16-C , 33-H ) :   0.9851
B( 17-C , 18-O ) :   1.1105 B( 17-C , 19-C ) :   1.3769 B( 18-O , 34-H ) :   0.9802
B( 19-C , 35-H ) :   0.9580

MP2 TOTAL ENERGY:    -1274.330205845 Eh
FINAL SINGLE POINT ENERGY     -1274.330205844799

DIPOLE MOMENT
-------------
                                X             Y             Z
Electronic contribution:      9.92224       8.14652       6.32564
Nuclear contribution   :    -11.29334      -9.34751      -7.04917
                        -----------------------------------------
Total Dipole Moment    :     -1.37110      -1.20099      -0.72353
                        -----------------------------------------
Magnitude (a.u.)       :      1.96107
Magnitude (Debye)      :      4.98464

Rotational constants in cm-1:     0.011458     0.009824     0.006761
Rotational constants in MHz :   343.510532   294.506869   202.691146

                             ****ORCA TERMINATED NORMALLY****
TOTAL RUN TIME: 0 days 1 hours 57 minutes 40 seconds 594 msec
