                         Program Version 5.0.0 -  RELEASE  -
|  1> ! ri-mp2 cc-pvtz cc-pvtz/c TightSCF NoKeepInts
|  2>
|  3> %scf
|  4>   MaxCore 4096
|  5> end
|  6> *xyz  0  1
|  7>     C       15.7931734   13.6107865   17.4166707
|  8>     C       16.2568521   14.2182582   16.0843457
|  9>     O       17.4402630   15.0200703   16.2926848
| 10>     C       17.3634075   16.3627978   16.0474388
| 11>     O       16.7715704   16.7753704   15.0648341
| 12>     C       17.6686948   17.2154432   17.2495575
| 13>     C       17.3692321   18.5401587   17.2989177
| 14>     C       16.6067910   19.3544285   16.2753640
| 15>     N       17.8405840   19.3220680   18.3589391
| 16>     C       18.8044121   18.9199762   19.2459858
| 17>     S       19.4833274   19.9613060   20.3372030
| 18>     N       19.1931647   17.6066594   19.1642474
| 19>     C       18.4724037   16.5762145   18.3950472
| 20>     C       17.6227236   15.7608607   19.3635210
| 21>     C       18.0692441   14.4991959   19.7998954
| 22>     C       17.3210313   13.7569410   20.7293814
| 23>     C       16.1201365   14.2837368   21.2342574
| 24>     C       15.6801790   15.5464677   20.8146304
| 25>     O       14.5243531   16.0608659   21.3046097
| 26>     C       16.4264548   16.2828896   19.8893701
| 27>     H       16.6058345   13.0498726   17.8926707
| 28>     H       14.9567829   12.9214249   17.2503866
| 29>     H       15.4500336   14.3934749   18.1012031
| 30>     H       16.4947667   13.4071355   15.3842002
| 31>     H       15.4370032   14.8045359   15.6468251
| 32>     H       15.6270581   18.9027068   16.0743920
| 33>     H       17.1535026   19.3871174   15.3242353
| 34>     H       16.4320169   20.3886614   16.5941277
| 35>     H       17.5767413   20.2926713   18.4173573
| 36>     H       19.8883356   17.3302635   19.8453476
| 37>     H       19.2208660   15.9075646   17.9467381
| 38>     H       19.0004166   14.0912811   19.4158392
| 39>     H       17.6736737   12.7806307   21.0575384
| 40>     H       15.5393918   13.7147547   21.9528424
| 41>     H       14.1878401   15.4405649   21.9688019
| 42>     H       16.0747378   17.2648446   19.5945934
| 43> *
| 44>
| 45>                          ****END OF INPUT****

CARTESIAN COORDINATES (ANGSTROEM)
---------------------------------
  C     15.793173   13.610786   17.416671
  C     16.256852   14.218258   16.084346
  O     17.440263   15.020070   16.292685
  C     17.363408   16.362798   16.047439
  O     16.771570   16.775370   15.064834
  C     17.668695   17.215443   17.249557
  C     17.369232   18.540159   17.298918
  C     16.606791   19.354429   16.275364
  N     17.840584   19.322068   18.358939
  C     18.804412   18.919976   19.245986
  S     19.483327   19.961306   20.337203
  N     19.193165   17.606659   19.164247
  C     18.472404   16.576214   18.395047
  C     17.622724   15.760861   19.363521
  C     18.069244   14.499196   19.799895
  C     17.321031   13.756941   20.729381
  C     16.120137   14.283737   21.234257
  C     15.680179   15.546468   20.814630
  O     14.524353   16.060866   21.304610
  C     16.426455   16.282890   19.889370
  H     16.605835   13.049873   17.892671
  H     14.956783   12.921425   17.250387
  H     15.450034   14.393475   18.101203
  H     16.494767   13.407135   15.384200
  H     15.437003   14.804536   15.646825
  H     15.627058   18.902707   16.074392
  H     17.153503   19.387117   15.324235
  H     16.432017   20.388661   16.594128
  H     17.576741   20.292671   18.417357
  H     19.888336   17.330264   19.845348
  H     19.220866   15.907565   17.946738
  H     19.000417   14.091281   19.415839
  H     17.673674   12.780631   21.057538
  H     15.539392   13.714755   21.952842
  H     14.187840   15.440565   21.968802
  H     16.074738   17.264845   19.594593

 Total Charge           Charge          ....    0
 Multiplicity           Mult            ....    1
 Number of Electrons    NEL             ....  154
 Basis Dimension        Dim             ....  828

ORBITAL ENERGIES
----------------

  NO   OCC          E(Eh)            E(eV)
   0   2.0000     -91.890058     -2500.4556
   1   2.0000     -20.599689      -560.5460
   2   2.0000     -20.590188      -560.2875
   3   2.0000     -20.544875      -559.0545
   4   2.0000     -15.630830      -425.3365
   5   2.0000     -15.608392      -424.7259
   6   2.0000     -11.394010      -310.0468
   7   2.0000     -11.384424      -309.7859
   8   2.0000     -11.337312      -308.5039
   9   2.0000     -11.316810      -307.9461
  10   2.0000     -11.310601      -307.7771
  11   2.0000     -11.294191      -307.3306
  12   2.0000     -11.261984      -306.4542
  13   2.0000     -11.260188      -306.4053
  14   2.0000     -11.258016      -306.3462
  15   2.0000     -11.252961      -306.2086
  16   2.0000     -11.245751      -306.0124
  17   2.0000     -11.240178      -305.8608
  18   2.0000     -11.240118      -305.8592
  19   2.0000     -11.219799      -305.3062
  20   2.0000      -8.895070      -242.0472
  21   2.0000      -6.576634      -178.9593
  22   2.0000      -6.574644      -178.9052
  23   2.0000      -6.574047      -178.8889
  24   2.0000      -1.448570       -39.4176
  25   2.0000      -1.419347       -38.6224
  26   2.0000      -1.351468       -36.7753
  27   2.0000      -1.341759       -36.5111
  28   2.0000      -1.239799       -33.7367
  29   2.0000      -1.159577       -31.5537
  30   2.0000      -1.120687       -30.4954
  31   2.0000      -1.043982       -28.4082
  32   2.0000      -1.033806       -28.1313
  33   2.0000      -1.018061       -27.7029
  34   2.0000      -0.997466       -27.1424
  35   2.0000      -0.984989       -26.8029
  36   2.0000      -0.924147       -25.1473
  37   2.0000      -0.886568       -24.1248
  38   2.0000      -0.847888       -23.0722
  39   2.0000      -0.841021       -22.8853
  40   2.0000      -0.835762       -22.7422
  41   2.0000      -0.817331       -22.2407
  42   2.0000      -0.760533       -20.6952
  43   2.0000      -0.734211       -19.9789
  44   2.0000      -0.720594       -19.6084
  45   2.0000      -0.698716       -19.0130
  46   2.0000      -0.689876       -18.7725
  47   2.0000      -0.678686       -18.4680
  48   2.0000      -0.671316       -18.2674
  49   2.0000      -0.665734       -18.1155
  50   2.0000      -0.648550       -17.6479
  51   2.0000      -0.645778       -17.5725
  52   2.0000      -0.638108       -17.3638
  53   2.0000      -0.610573       -16.6145
  54   2.0000      -0.603248       -16.4152
  55   2.0000      -0.600010       -16.3271
  56   2.0000      -0.585701       -15.9377
  57   2.0000      -0.578512       -15.7421
  58   2.0000      -0.572510       -15.5788
  59   2.0000      -0.568064       -15.4578
  60   2.0000      -0.564801       -15.3690
  61   2.0000      -0.549696       -14.9580
  62   2.0000      -0.537538       -14.6272
  63   2.0000      -0.527859       -14.3638
  64   2.0000      -0.519851       -14.1459
  65   2.0000      -0.513657       -13.9773
  66   2.0000      -0.503713       -13.7067
  67   2.0000      -0.496403       -13.5078
  68   2.0000      -0.482853       -13.1391
  69   2.0000      -0.462437       -12.5835
  70   2.0000      -0.450989       -12.2720
  71   2.0000      -0.445957       -12.1351
  72   2.0000      -0.358005        -9.7418
  73   2.0000      -0.352005        -9.5785
  74   2.0000      -0.329569        -8.9680
  75   2.0000      -0.324162        -8.8209
  76   2.0000      -0.316627        -8.6159
  77   0.0000       0.070593         1.9209
  78   0.0000       0.103916         2.8277
  79   0.0000       0.121898         3.3170
  80   0.0000       0.129899         3.5347
  81   0.0000       0.133742         3.6393

MULLIKEN ATOMIC CHARGES
-----------------------
   0 C :   -0.298557
   1 C :    0.045017
   2 O :   -0.376574
   3 C :    0.479617
   4 O :   -0.417834
   5 C :   -0.238113
   6 C :    0.143766
   7 C :   -0.269633
   8 N :   -0.123507
   9 C :    0.213969
  10 S :   -0.437366
  11 N :   -0.200594
  12 C :    0.034777
  13 C :    0.089518
  14 C :   -0.209038
  15 C :   -0.122074
  16 C :   -0.271320
  17 C :    0.304718
  18 O :   -0.359475
  19 C :   -0.257597
  20 H :    0.099641
  21 H :    0.110756
  22 H :    0.104451
  23 H :    0.102628
  24 H :    0.099922
  25 H :    0.128191
  26 H :    0.135432
  27 H :    0.094329
  28 H :    0.198829
  29 H :    0.191730
  30 H :    0.149657
  31 H :    0.149376
  32 H :    0.163678
  33 H :    0.132445
  34 H :    0.241612
  35 H :    0.167625
Sum of atomic charges:   -0.0000000

LOEWDIN ATOMIC CHARGES
----------------------
   0 C :    0.104187
   1 C :   -0.011726
   2 O :    0.286778
   3 C :   -0.417097
   4 O :    0.109576
   5 C :   -0.096906
   6 C :   -0.057767
   7 C :    0.130334
   8 N :    0.407515
   9 C :   -0.455453
  10 S :   -0.032900
  11 N :    0.396249
  12 C :   -0.053666
  13 C :   -0.035094
  14 C :    0.015069
  15 C :    0.045067
  16 C :   -0.000692
  17 C :   -0.190258
  18 O :    0.396146
  19 C :    0.029605
  20 H :   -0.029193
  21 H :   -0.026380
  22 H :   -0.027943
  23 H :   -0.028427
  24 H :   -0.028270
  25 H :   -0.005890
  26 H :   -0.003053
  27 H :   -0.023331
  28 H :   -0.057659
  29 H :   -0.066202
  30 H :   -0.006554
  31 H :   -0.030914
  32 H :   -0.020569
  33 H :   -0.034916
  34 H :   -0.153007
  35 H :   -0.026658

  Mayer bond orders larger than 0.100000
B(  0-C ,  1-C ) :   0.9725 B(  0-C , 20-H ) :   0.9728 B(  0-C , 21-H ) :   0.9781
B(  0-C , 22-H ) :   0.9728 B(  1-C ,  2-O ) :   0.8857 B(  1-C , 23-H ) :   0.9887
B(  1-C , 24-H ) :   0.9724 B(  2-O ,  3-C ) :   1.1196 B(  3-C ,  4-O ) :   1.9926
B(  3-C ,  5-C ) :   1.0680 B(  5-C ,  6-C ) :   1.6492 B(  5-C , 12-C ) :   0.9759
B(  6-C ,  7-C ) :   0.9724 B(  6-C ,  8-N ) :   1.1522 B(  7-C , 25-H ) :   0.9637
B(  7-C , 26-H ) :   0.9567 B(  7-C , 27-H ) :   0.9890 B(  8-N ,  9-C ) :   1.1783
B(  8-N , 28-H ) :   0.9483 B(  9-C , 10-S ) :   1.6114 B(  9-C , 11-N ) :   1.3035
B( 11-N , 12-C ) :   0.9629 B( 11-N , 29-H ) :   0.9545 B( 12-C , 13-C ) :   0.9478
B( 12-C , 30-H ) :   1.0027 B( 13-C , 14-C ) :   1.3449 B( 13-C , 19-C ) :   1.3707
B( 14-C , 15-C ) :   1.3810 B( 14-C , 31-H ) :   0.9760 B( 15-C , 16-C ) :   1.3668
B( 15-C , 32-H ) :   0.9698 B( 16-C , 17-C ) :   1.3293 B( 16-C , 33-H ) :   0.9842
B( 17-C , 18-O ) :   1.1125 B( 17-C , 19-C ) :   1.3752 B( 18-O , 34-H ) :   0.9793
B( 19-C , 35-H ) :   0.9570

MP2 TOTAL ENERGY:    -1274.335848940 Eh
FINAL SINGLE POINT ENERGY     -1274.335848939834

DIPOLE MOMENT
-------------
                                X             Y             Z
Electronic contribution:      8.58199      10.72557       4.86039
Nuclear contribution   :     -9.62823     -12.33195      -4.81643
                        -----------------------------------------
Total Dipole Moment    :     -1.04623      -1.60638       0.04396
                        -----------------------------------------
Magnitude (a.u.)       :      1.91755
Magnitude (Debye)      :      4.87403

Rotational constants in cm-1:     0.011875     0.009385     0.006513
Rotational constants in MHz :   356.004054   281.362243   195.251759

                             ****ORCA TERMINATED NORMALLY****
TOTAL RUN TIME: 0 days 2 hours 6 minutes 55 seconds 355 msec
