                         Program Version 4.2.0 -  RELEASE  -
|  1> ! ri-mp2 cc-pvtz cc-pvtz/c TightSCF  NoKeepInts
|  2>
|  3> %scf
|  4>   MaxCore 4096
|  5> end
|  6> *xyz  0  1
|  7>     C       14.5050662   15.6215086   16.9152800
|  8>     C       15.8227063   14.8531226   16.7191407
|  9>     O       16.6917394   15.6338178   15.8765827
| 10>     C       17.9495536   15.8871910   16.3392503
| 11>     O       18.7561312   14.9762422   16.4050518
| 12>     C       17.9466553   16.9781096   17.3648045
| 13>     C       17.2974287   18.1524984   17.1771667
| 14>     C       16.5320019   18.5836444   15.9433271
| 15>     N       17.3788324   19.1547753   18.1476951
| 16>     C       18.2032836   19.1139211   19.2420294
| 17>     S       18.3293713   20.3914364   20.2844670
| 18>     N       18.9192588   17.9571229   19.4292122
| 19>     C       18.7505088   16.7199862   18.6418553
| 20>     C       18.0879235   15.6322982   19.4819436
| 21>     C       18.6517719   14.3453305   19.5525645
| 22>     C       18.0302759   13.3309924   20.2998735
| 23>     C       16.8321363   13.6038709   20.9815158
| 24>     C       16.2644446   14.8830025   20.9102701
| 25>     O       15.1000175   15.1463419   21.5546336
| 26>     C       16.8852424   15.8906103   20.1656835
| 27>     H       14.6710879   16.5329549   17.5017304
| 28>     H       13.7803016   15.0012518   17.4567106
| 29>     H       14.0666203   15.8968148   15.9480548
| 30>     H       16.2805011   14.6451291   17.6949630
| 31>     H       15.6201536   13.8892901   16.2343340
| 32>     H       15.4892731   18.2495716   15.9898940
| 33>     H       16.9753270   18.1633887   15.0319497
| 34>     H       16.5307410   19.6736506   15.8197082
| 35>     H       16.8657797   20.0133778   18.0243571
| 36>     H       19.5003882   17.9454931   20.2577269
| 37>     H       19.7504406   16.3697544   18.3467956
| 38>     H       19.5672048   14.1257049   19.0076708
| 39>     H       18.4747727   12.3380153   20.3418875
| 40>     H       16.3475028   12.8220397   21.5570188
| 41>     H       14.8655226   14.3568728   22.0657009
| 42>     H       16.4270334   16.8728674   20.1231502
| 43> *
| 44>
| 45>                          ****END OF INPUT****

CARTESIAN COORDINATES (ANGSTROEM)
---------------------------------
  C     14.505066   15.621509   16.915280
  C     15.822706   14.853123   16.719141
  O     16.691739   15.633818   15.876583
  C     17.949554   15.887191   16.339250
  O     18.756131   14.976242   16.405052
  C     17.946655   16.978110   17.364804
  C     17.297429   18.152498   17.177167
  C     16.532002   18.583644   15.943327
  N     17.378832   19.154775   18.147695
  C     18.203284   19.113921   19.242029
  S     18.329371   20.391436   20.284467
  N     18.919259   17.957123   19.429212
  C     18.750509   16.719986   18.641855
  C     18.087923   15.632298   19.481944
  C     18.651772   14.345330   19.552564
  C     18.030276   13.330992   20.299874
  C     16.832136   13.603871   20.981516
  C     16.264445   14.883002   20.910270
  O     15.100017   15.146342   21.554634
  C     16.885242   15.890610   20.165684
  H     14.671088   16.532955   17.501730
  H     13.780302   15.001252   17.456711
  H     14.066620   15.896815   15.948055
  H     16.280501   14.645129   17.694963
  H     15.620154   13.889290   16.234334
  H     15.489273   18.249572   15.989894
  H     16.975327   18.163389   15.031950
  H     16.530741   19.673651   15.819708
  H     16.865780   20.013378   18.024357
  H     19.500388   17.945493   20.257727
  H     19.750441   16.369754   18.346796
  H     19.567205   14.125705   19.007671
  H     18.474773   12.338015   20.341887
  H     16.347503   12.822040   21.557019
  H     14.865523   14.356873   22.065701
  H     16.427033   16.872867   20.123150

 Total Charge           Charge          ....    0
 Multiplicity           Mult            ....    1
 Number of Electrons    NEL             ....  154
 Basis Dimension        Dim             ....  828

ORBITAL ENERGIES
----------------

  NO   OCC          E(Eh)            E(eV)
   0   2.0000     -91.890239     -2500.4605
   1   2.0000     -20.599143      -560.5312
   2   2.0000     -20.577707      -559.9479
   3   2.0000     -20.558411      -559.4228
   4   2.0000     -15.629275      -425.2942
   5   2.0000     -15.610132      -424.7733
   6   2.0000     -11.393864      -310.0428
   7   2.0000     -11.386003      -309.8289
   8   2.0000     -11.332851      -308.3826
   9   2.0000     -11.315873      -307.9205
  10   2.0000     -11.311567      -307.8034
  11   2.0000     -11.297744      -307.4273
  12   2.0000     -11.261533      -306.4419
  13   2.0000     -11.261148      -306.4314
  14   2.0000     -11.260854      -306.4234
  15   2.0000     -11.256016      -306.2918
  16   2.0000     -11.245681      -306.0105
  17   2.0000     -11.241091      -305.8856
  18   2.0000     -11.238363      -305.8114
  19   2.0000     -11.231356      -305.6207
  20   2.0000      -8.895315      -242.0538
  21   2.0000      -6.576892      -178.9663
  22   2.0000      -6.574882      -178.9116
  23   2.0000      -6.574296      -178.8957
  24   2.0000      -1.451066       -39.4855
  25   2.0000      -1.418947       -38.6115
  26   2.0000      -1.355365       -36.8814
  27   2.0000      -1.340859       -36.4866
  28   2.0000      -1.239440       -33.7269
  29   2.0000      -1.159844       -31.5610
  30   2.0000      -1.123167       -30.5629
  31   2.0000      -1.047114       -28.4934
  32   2.0000      -1.034126       -28.1400
  33   2.0000      -1.017363       -27.6839
  34   2.0000      -1.001409       -27.2497
  35   2.0000      -0.987767       -26.8785
  36   2.0000      -0.925846       -25.1935
  37   2.0000      -0.882705       -24.0196
  38   2.0000      -0.849773       -23.1235
  39   2.0000      -0.841333       -22.8938
  40   2.0000      -0.835879       -22.7454
  41   2.0000      -0.829004       -22.5583
  42   2.0000      -0.756287       -20.5796
  43   2.0000      -0.735580       -20.0161
  44   2.0000      -0.730381       -19.8747
  45   2.0000      -0.697348       -18.9758
  46   2.0000      -0.687576       -18.7099
  47   2.0000      -0.680792       -18.5253
  48   2.0000      -0.675603       -18.3841
  49   2.0000      -0.657604       -17.8943
  50   2.0000      -0.655463       -17.8361
  51   2.0000      -0.644043       -17.5253
  52   2.0000      -0.636465       -17.3191
  53   2.0000      -0.608592       -16.5606
  54   2.0000      -0.608061       -16.5462
  55   2.0000      -0.604204       -16.4412
  56   2.0000      -0.601674       -16.3724
  57   2.0000      -0.579915       -15.7803
  58   2.0000      -0.575920       -15.6716
  59   2.0000      -0.572872       -15.5886
  60   2.0000      -0.562584       -15.3087
  61   2.0000      -0.551508       -15.0073
  62   2.0000      -0.544664       -14.8211
  63   2.0000      -0.524869       -14.2824
  64   2.0000      -0.515866       -14.0374
  65   2.0000      -0.512723       -13.9519
  66   2.0000      -0.503731       -13.7072
  67   2.0000      -0.499315       -13.5870
  68   2.0000      -0.482483       -13.1290
  69   2.0000      -0.467532       -12.7222
  70   2.0000      -0.454225       -12.3601
  71   2.0000      -0.452058       -12.3011
  72   2.0000      -0.356351        -9.6968
  73   2.0000      -0.351027        -9.5519
  74   2.0000      -0.329642        -8.9700
  75   2.0000      -0.323563        -8.8046
  76   2.0000      -0.317544        -8.6408
  77   0.0000       0.069367         1.8876
  78   0.0000       0.100428         2.7328
  79   0.0000       0.118459         3.2234
  80   0.0000       0.128641         3.5005
  81   0.0000       0.132775         3.6130

MULLIKEN ATOMIC CHARGES
-----------------------
   0 C :   -0.301835
   1 C :    0.035011
   2 O :   -0.379839
   3 C :    0.460839
   4 O :   -0.383678
   5 C :   -0.193074
   6 C :    0.112241
   7 C :   -0.286920
   8 N :   -0.124144
   9 C :    0.195674
  10 S :   -0.437947
  11 N :   -0.200953
  12 C :    0.057187
  13 C :    0.008698
  14 C :   -0.157091
  15 C :   -0.137170
  16 C :   -0.275915
  17 C :    0.309264
  18 O :   -0.358983
  19 C :   -0.262746
  20 H :    0.092179
  21 H :    0.114949
  22 H :    0.105381
  23 H :    0.102955
  24 H :    0.119339
  25 H :    0.124842
  26 H :    0.125626
  27 H :    0.112209
  28 H :    0.197787
  29 H :    0.194303
  30 H :    0.158851
  31 H :    0.161826
  32 H :    0.162610
  33 H :    0.132956
  34 H :    0.241609
  35 H :    0.173959
Sum of atomic charges:    0.0000000

LOEWDIN ATOMIC CHARGES
----------------------
   0 C :    0.104840
   1 C :   -0.009979
   2 O :    0.280051
   3 C :   -0.421205
   4 O :    0.137628
   5 C :   -0.093486
   6 C :   -0.079847
   7 C :    0.127831
   8 N :    0.404071
   9 C :   -0.457826
  10 S :   -0.035298
  11 N :    0.396886
  12 C :   -0.044783
  13 C :   -0.044374
  14 C :    0.020603
  15 C :    0.043118
  16 C :   -0.001297
  17 C :   -0.194997
  18 O :    0.394775
  19 C :    0.028302
  20 H :   -0.032857
  21 H :   -0.021984
  22 H :   -0.027762
  23 H :   -0.027573
  24 H :   -0.026298
  25 H :   -0.012563
  26 H :   -0.007596
  27 H :   -0.017519
  28 H :   -0.058215
  29 H :   -0.064077
  30 H :   -0.003627
  31 H :   -0.023305
  32 H :   -0.019186
  33 H :   -0.034712
  34 H :   -0.153272
  35 H :   -0.024467

  Mayer bond orders larger than 0.100000
B(  0-C ,  1-C ) :   0.9702 B(  0-C , 20-H ) :   0.9760 B(  0-C , 21-H ) :   0.9776
B(  0-C , 22-H ) :   0.9756 B(  1-C ,  2-O ) :   0.8849 B(  1-C , 23-H ) :   0.9648
B(  1-C , 24-H ) :   0.9865 B(  2-O ,  3-C ) :   1.0901 B(  3-C ,  4-O ) :   2.0534
B(  3-C ,  5-C ) :   0.9948 B(  5-C ,  6-C ) :   1.6758 B(  5-C , 12-C ) :   0.9588
B(  6-C ,  7-C ) :   0.9549 B(  6-C ,  8-N ) :   1.1273 B(  7-C , 25-H ) :   0.9620
B(  7-C , 26-H ) :   0.9715 B(  7-C , 27-H ) :   0.9861 B(  8-N ,  9-C ) :   1.1864
B(  8-N , 28-H ) :   0.9504 B(  9-C , 10-S ) :   1.6142 B(  9-C , 11-N ) :   1.2950
B( 11-N , 12-C ) :   0.9936 B( 11-N , 29-H ) :   0.9518 B( 12-C , 13-C ) :   0.9466
B( 12-C , 30-H ) :   0.9973 B( 13-C , 14-C ) :   1.3876 B( 13-C , 19-C ) :   1.3567
B( 14-C , 15-C ) :   1.3936 B( 14-C , 31-H ) :   0.9616 B( 15-C , 16-C ) :   1.3648
B( 15-C , 32-H ) :   0.9707 B( 16-C , 17-C ) :   1.3294 B( 16-C , 33-H ) :   0.9841
B( 17-C , 18-O ) :   1.1111 B( 17-C , 19-C ) :   1.3744 B( 18-O , 34-H ) :   0.9794
B( 19-C , 35-H ) :   0.9568

MP2 TOTAL ENERGY:    -1274.318123285 Eh
FINAL SINGLE POINT ENERGY     -1274.318123284725

DIPOLE MOMENT
-------------
                                X             Y             Z
Electronic contribution:     10.66936       6.92807       6.15303
Nuclear contribution   :    -11.84639      -8.16646      -6.59177
                        -----------------------------------------
Total Dipole Moment    :     -1.17703      -1.23839      -0.43874
                        -----------------------------------------
Magnitude (a.u.)       :      1.76395
Magnitude (Debye)      :      4.48360

Rotational constants in cm-1:     0.011930     0.009438     0.007092
Rotational constants in MHz :   357.640964   282.931273   212.608601

                             ****ORCA TERMINATED NORMALLY****
TOTAL RUN TIME: 0 days 1 hours 51 minutes 59 seconds 160 msec
