                         Program Version 5.0.0 -  RELEASE  -
|  1> ! ri-mp2 cc-pvtz cc-pvtz/c TightSCF NoKeepInts
|  2>
|  3> %scf
|  4>   MaxCore 4096
|  5> end
|  6> *xyz  0  1
|  7>     C       14.9650596   15.5729558   16.9917149
|  8>     C       16.0449349   14.4699555   16.9491189
|  9>     O       17.1845006   14.8461217   16.1422869
| 10>     C       17.8135667   16.0648812   16.0811174
| 11>     O       18.2587197   16.4530614   15.0171701
| 12>     C       17.7912859   16.9606024   17.2820328
| 13>     C       17.3610217   18.2389888   17.1637566
| 14>     C       16.6805266   18.8470945   15.9571665
| 15>     N       17.5804206   19.1527070   18.1969896
| 16>     C       18.4276011   18.9324565   19.2509139
| 17>     S       18.7805450   20.1147794   20.3519043
| 18>     N       18.9804747   17.6785522   19.3397136
| 19>     C       18.5699199   16.5137954   18.5310408
| 20>     C       17.8334496   15.5307023   19.4292735
| 21>     C       18.3473933   14.2361450   19.6356637
| 22>     C       17.6754391   13.3261352   20.4691663
| 23>     C       16.4851410   13.7150678   21.1072646
| 24>     C       15.9792286   15.0079851   20.9163261
| 25>     O       14.8302016   15.3868580   21.5294259
| 26>     C       16.6497254   15.9119387   20.0868010
| 27>     H       15.2447051   16.4031518   17.6471581
| 28>     H       14.0267287   15.1590276   17.3807896
| 29>     H       14.7669877   15.9626825   15.9854765
| 30>     H       16.3396438   14.1923913   17.9624788
| 31>     H       15.6025177   13.5698171   16.5031688
| 32>     H       16.0123031   18.1263015   15.4708660
| 33>     H       17.4286664   19.1473472   15.2116704
| 34>     H       16.0814250   19.7288078   16.2135014
| 35>     H       17.2116890   20.0877688   18.1240076
| 36>     H       19.5900052   17.5438830   20.1364552
| 37>     H       19.4870668   16.0221900   18.1761999
| 38>     H       19.2671965   13.9303590   19.1431690
| 39>     H       18.0780952   12.3255287   20.6196725
| 40>     H       15.9630909   13.0148270   21.7515119
| 41>     H       14.5596440   14.6651182   22.1173145
| 42>     H       16.2480793   16.9120143   19.9617126
| 43> *
| 44>
| 45>                          ****END OF INPUT****

CARTESIAN COORDINATES (ANGSTROEM)
---------------------------------
  C     14.965060   15.572956   16.991715
  C     16.044935   14.469955   16.949119
  O     17.184501   14.846122   16.142287
  C     17.813567   16.064881   16.081117
  O     18.258720   16.453061   15.017170
  C     17.791286   16.960602   17.282033
  C     17.361022   18.238989   17.163757
  C     16.680527   18.847095   15.957166
  N     17.580421   19.152707   18.196990
  C     18.427601   18.932457   19.250914
  S     18.780545   20.114779   20.351904
  N     18.980475   17.678552   19.339714
  C     18.569920   16.513795   18.531041
  C     17.833450   15.530702   19.429274
  C     18.347393   14.236145   19.635664
  C     17.675439   13.326135   20.469166
  C     16.485141   13.715068   21.107265
  C     15.979229   15.007985   20.916326
  O     14.830202   15.386858   21.529426
  C     16.649725   15.911939   20.086801
  H     15.244705   16.403152   17.647158
  H     14.026729   15.159028   17.380790
  H     14.766988   15.962682   15.985477
  H     16.339644   14.192391   17.962479
  H     15.602518   13.569817   16.503169
  H     16.012303   18.126302   15.470866
  H     17.428666   19.147347   15.211670
  H     16.081425   19.728808   16.213501
  H     17.211689   20.087769   18.124008
  H     19.590005   17.543883   20.136455
  H     19.487067   16.022190   18.176200
  H     19.267196   13.930359   19.143169
  H     18.078095   12.325529   20.619673
  H     15.963091   13.014827   21.751512
  H     14.559644   14.665118   22.117314
  H     16.248079   16.912014   19.961713

 Total Charge           Charge          ....    0
 Multiplicity           Mult            ....    1
 Number of Electrons    NEL             ....  154
 Basis Dimension        Dim             ....  828

ORBITAL ENERGIES
----------------

  NO   OCC          E(Eh)            E(eV)
   0   2.0000     -91.890265     -2500.4612
   1   2.0000     -20.606227      -560.7239
   2   2.0000     -20.591960      -560.3357
   3   2.0000     -20.548126      -559.1429
   4   2.0000     -15.627354      -425.2419
   5   2.0000     -15.611569      -424.8124
   6   2.0000     -11.395669      -310.0919
   7   2.0000     -11.385701      -309.8207
   8   2.0000     -11.328308      -308.2589
   9   2.0000     -11.324775      -308.1628
  10   2.0000     -11.319542      -308.0204
  11   2.0000     -11.299828      -307.4840
  12   2.0000     -11.269510      -306.6590
  13   2.0000     -11.265947      -306.5620
  14   2.0000     -11.258954      -306.3717
  15   2.0000     -11.255778      -306.2853
  16   2.0000     -11.254444      -306.2490
  17   2.0000     -11.249035      -306.1018
  18   2.0000     -11.248372      -306.0838
  19   2.0000     -11.231885      -305.6351
  20   2.0000      -8.895325      -242.0541
  21   2.0000      -6.576901      -178.9666
  22   2.0000      -6.574893      -178.9119
  23   2.0000      -6.574307      -178.8960
  24   2.0000      -1.441582       -39.2274
  25   2.0000      -1.425944       -38.8019
  26   2.0000      -1.353955       -36.8430
  27   2.0000      -1.340683       -36.4819
  28   2.0000      -1.241023       -33.7699
  29   2.0000      -1.167519       -31.7698
  30   2.0000      -1.123876       -30.5822
  31   2.0000      -1.051427       -28.6108
  32   2.0000      -1.034521       -28.1508
  33   2.0000      -1.025845       -27.9147
  34   2.0000      -1.003174       -27.2978
  35   2.0000      -0.988834       -26.9075
  36   2.0000      -0.928940       -25.2777
  37   2.0000      -0.897884       -24.4327
  38   2.0000      -0.851457       -23.1693
  39   2.0000      -0.847101       -23.0508
  40   2.0000      -0.843934       -22.9646
  41   2.0000      -0.829169       -22.5628
  42   2.0000      -0.750659       -20.4265
  43   2.0000      -0.739754       -20.1297
  44   2.0000      -0.719410       -19.5762
  45   2.0000      -0.705525       -19.1983
  46   2.0000      -0.693681       -18.8760
  47   2.0000      -0.679667       -18.4947
  48   2.0000      -0.674686       -18.3591
  49   2.0000      -0.662901       -18.0385
  50   2.0000      -0.654048       -17.7975
  51   2.0000      -0.649260       -17.6673
  52   2.0000      -0.638520       -17.3750
  53   2.0000      -0.622450       -16.9377
  54   2.0000      -0.615792       -16.7565
  55   2.0000      -0.608708       -16.5638
  56   2.0000      -0.603891       -16.4327
  57   2.0000      -0.585417       -15.9300
  58   2.0000      -0.577982       -15.7277
  59   2.0000      -0.567549       -15.4438
  60   2.0000      -0.560169       -15.2430
  61   2.0000      -0.548497       -14.9254
  62   2.0000      -0.539686       -14.6856
  63   2.0000      -0.536394       -14.5960
  64   2.0000      -0.531761       -14.4700
  65   2.0000      -0.518247       -14.1022
  66   2.0000      -0.507597       -13.8124
  67   2.0000      -0.500523       -13.6199
  68   2.0000      -0.485479       -13.2106
  69   2.0000      -0.467236       -12.7141
  70   2.0000      -0.450221       -12.2511
  71   2.0000      -0.445714       -12.1285
  72   2.0000      -0.358839        -9.7645
  73   2.0000      -0.355386        -9.6705
  74   2.0000      -0.334661        -9.1066
  75   2.0000      -0.328895        -8.9497
  76   2.0000      -0.317537        -8.6406
  77   0.0000       0.078562         2.1378
  78   0.0000       0.099531         2.7084
  79   0.0000       0.118929         3.2362
  80   0.0000       0.126063         3.4303
  81   0.0000       0.130926         3.5627

MULLIKEN ATOMIC CHARGES
-----------------------
   0 C :   -0.343498
   1 C :    0.036521
   2 O :   -0.325846
   3 C :    0.398284
   4 O :   -0.369363
   5 C :   -0.237666
   6 C :    0.156239
   7 C :   -0.286211
   8 N :   -0.127674
   9 C :    0.202022
  10 S :   -0.437754
  11 N :   -0.192209
  12 C :    0.042943
  13 C :    0.036512
  14 C :   -0.180556
  15 C :   -0.131297
  16 C :   -0.273094
  17 C :    0.317425
  18 O :   -0.355629
  19 C :   -0.284278
  20 H :    0.108802
  21 H :    0.119933
  22 H :    0.114516
  23 H :    0.101388
  24 H :    0.126069
  25 H :    0.118210
  26 H :    0.149048
  27 H :    0.096843
  28 H :    0.197581
  29 H :    0.191553
  30 H :    0.156213
  31 H :    0.151751
  32 H :    0.164325
  33 H :    0.135532
  34 H :    0.242491
  35 H :    0.180874
Sum of atomic charges:    0.0000000

LOEWDIN ATOMIC CHARGES
----------------------
   0 C :    0.103110
   1 C :   -0.014074
   2 O :    0.294475
   3 C :   -0.419796
   4 O :    0.128598
   5 C :   -0.088245
   6 C :   -0.083053
   7 C :    0.129717
   8 N :    0.404544
   9 C :   -0.456807
  10 S :   -0.034730
  11 N :    0.397034
  12 C :   -0.052566
  13 C :   -0.045259
  14 C :    0.012533
  15 C :    0.043646
  16 C :    0.001459
  17 C :   -0.190836
  18 O :    0.397979
  19 C :    0.035492
  20 H :   -0.037885
  21 H :   -0.021796
  22 H :   -0.028561
  23 H :   -0.037601
  24 H :   -0.020796
  25 H :   -0.010618
  26 H :   -0.002299
  27 H :   -0.020939
  28 H :   -0.057944
  29 H :   -0.064828
  30 H :   -0.005952
  31 H :   -0.028217
  32 H :   -0.018426
  33 H :   -0.032970
  34 H :   -0.151749
  35 H :   -0.022640

  Mayer bond orders larger than 0.100000
B(  0-C ,  1-C ) :   0.9571 B(  0-C , 20-H ) :   0.9690 B(  0-C , 21-H ) :   0.9766
B(  0-C , 22-H ) :   0.9762 B(  1-C ,  2-O ) :   0.9064 B(  1-C , 23-H ) :   0.9654
B(  1-C , 24-H ) :   0.9836 B(  2-O ,  3-C ) :   1.1962 B(  3-C ,  4-O ) :   2.1096
B(  3-C ,  5-C ) :   0.9273 B(  5-C ,  6-C ) :   1.7130 B(  5-C , 12-C ) :   0.9655
B(  6-C ,  7-C ) :   0.9526 B(  6-C ,  8-N ) :   1.1250 B(  7-C , 25-H ) :   0.9741
B(  7-C , 26-H ) :   0.9583 B(  7-C , 27-H ) :   0.9834 B(  8-N ,  9-C ) :   1.1917
B(  8-N , 28-H ) :   0.9504 B(  9-C , 10-S ) :   1.6161 B(  9-C , 11-N ) :   1.2850
B( 11-N , 12-C ) :   0.9918 B( 11-N , 29-H ) :   0.9530 B( 12-C , 13-C ) :   0.9379
B( 12-C , 30-H ) :   1.0079 B( 13-C , 14-C ) :   1.3582 B( 13-C , 19-C ) :   1.3577
B( 14-C , 15-C ) :   1.3922 B( 14-C , 31-H ) :   0.9722 B( 15-C , 16-C ) :   1.3694
B( 15-C , 32-H ) :   0.9699 B( 16-C , 17-C ) :   1.3247 B( 16-C , 33-H ) :   0.9829
B( 17-C , 18-O ) :   1.1154 B( 17-C , 19-C ) :   1.3714 B( 18-O , 34-H ) :   0.9785
B( 19-C , 35-H ) :   0.9527

MP2 TOTAL ENERGY:    -1274.326557394 Eh
FINAL SINGLE POINT ENERGY     -1274.326557394275

DIPOLE MOMENT
-------------
                                X             Y             Z
Electronic contribution:      9.82791       6.45783       5.45193
Nuclear contribution   :    -11.25235      -8.18071      -4.93159
                        -----------------------------------------
Total Dipole Moment    :     -1.42444      -1.72288       0.52034
                        -----------------------------------------
Magnitude (a.u.)       :      2.29523
Magnitude (Debye)      :      5.83401

Rotational constants in cm-1:     0.011845     0.009725     0.006745
Rotational constants in MHz :   355.108614   291.540716   202.215175

                             ****ORCA TERMINATED NORMALLY****
TOTAL RUN TIME: 0 days 1 hours 59 minutes 38 seconds 1 msec
