                         Program Version 4.2.0 -  RELEASE  -
|  1> ! ri-mp2 cc-pvtz cc-pvtz/c TightSCF  NoKeepInts
|  2>
|  3> %scf
|  4>   MaxCore 4096
|  5> end
|  6> *xyz  0  1
|  7>     C       14.1924555   15.5271835   16.1688392
|  8>     C       15.3977689   15.4626449   17.1221138
|  9>     O       16.5623855   15.1640103   16.3232733
| 10>     C       17.8174619   15.6830686   16.5284137
| 11>     O       18.7962103   15.0072781   16.2704018
| 12>     C       17.9245607   16.8631326   17.4379265
| 13>     C       17.3385860   18.0525447   17.1681840
| 14>     C       16.5221425   18.4068461   15.9444222
| 15>     N       17.5161616   19.1287662   18.0400432
| 16>     C       18.3334153   19.1130711   19.1407801
| 17>     S       18.5254469   20.4478202   20.0975250
| 18>     N       18.9789643   17.9315836   19.4144400
| 19>     C       18.7951603   16.6659534   18.6761085
| 20>     C       18.1944279   15.5832809   19.5664635
| 21>     C       18.7261358   14.2810394   19.5533784
| 22>     C       18.1578568   13.2678891   20.3433149
| 23>     C       17.0444220   13.5570971   21.1503336
| 24>     C       16.5064094   14.8508687   21.1594555
| 25>     O       15.4211919   15.1301710   21.9240585
| 26>     C       17.0739653   15.8577770   20.3723291
| 27>     H       13.2710755   15.7347848   16.7265445
| 28>     H       14.0667340   14.5710540   15.6450685
| 29>     H       14.3260783   16.3147270   15.4178035
| 30>     H       15.4686401   16.4123074   17.6610105
| 31>     H       15.2500474   14.6691293   17.8669187
| 32>     H       16.5979016   17.6435278   15.1601299
| 33>     H       16.8691064   19.3485053   15.5001816
| 34>     H       15.4616283   18.5238681   16.1982167
| 35>     H       17.0622849   20.0086536   17.8500570
| 36>     H       19.5573080   17.9438730   20.2451955
| 37>     H       19.7855941   16.3259559   18.3387167
| 38>     H       19.5737979   14.0489845   18.9119266
| 39>     H       18.5761326   12.2629083   20.3202150
| 40>     H       16.6003634   12.7757359   21.7583337
| 41>     H       15.2153588   14.3341979   22.4377366
| 42>     H       16.6398201   16.8517604   20.3941402
| 43> *
| 44>
| 45>                          ****END OF INPUT****

CARTESIAN COORDINATES (ANGSTROEM)
---------------------------------
  C     14.192455   15.527183   16.168839
  C     15.397769   15.462645   17.122114
  O     16.562386   15.164010   16.323273
  C     17.817462   15.683069   16.528414
  O     18.796210   15.007278   16.270402
  C     17.924561   16.863133   17.437926
  C     17.338586   18.052545   17.168184
  C     16.522143   18.406846   15.944422
  N     17.516162   19.128766   18.040043
  C     18.333415   19.113071   19.140780
  S     18.525447   20.447820   20.097525
  N     18.978964   17.931584   19.414440
  C     18.795160   16.665953   18.676109
  C     18.194428   15.583281   19.566464
  C     18.726136   14.281039   19.553378
  C     18.157857   13.267889   20.343315
  C     17.044422   13.557097   21.150334
  C     16.506409   14.850869   21.159455
  O     15.421192   15.130171   21.924059
  C     17.073965   15.857777   20.372329
  H     13.271076   15.734785   16.726544
  H     14.066734   14.571054   15.645069
  H     14.326078   16.314727   15.417803
  H     15.468640   16.412307   17.661010
  H     15.250047   14.669129   17.866919
  H     16.597902   17.643528   15.160130
  H     16.869106   19.348505   15.500182
  H     15.461628   18.523868   16.198217
  H     17.062285   20.008654   17.850057
  H     19.557308   17.943873   20.245196
  H     19.785594   16.325956   18.338717
  H     19.573798   14.048984   18.911927
  H     18.576133   12.262908   20.320215
  H     16.600363   12.775736   21.758334
  H     15.215359   14.334198   22.437737
  H     16.639820   16.851760   20.394140

 Total Charge           Charge          ....    0
 Multiplicity           Mult            ....    1
 Number of Electrons    NEL             ....  154
 Basis Dimension        Dim             ....  828

ORBITAL ENERGIES
----------------

  NO   OCC          E(Eh)            E(eV)
   0   2.0000     -91.890489     -2500.4673
   1   2.0000     -20.600067      -560.5563
   2   2.0000     -20.599864      -560.5508
   3   2.0000     -20.549890      -559.1909
   4   2.0000     -15.628086      -425.2619
   5   2.0000     -15.611831      -424.8195
   6   2.0000     -11.397749      -310.1485
   7   2.0000     -11.387288      -309.8639
   8   2.0000     -11.330441      -308.3170
   9   2.0000     -11.316632      -307.9412
  10   2.0000     -11.314271      -307.8770
  11   2.0000     -11.303949      -307.5961
  12   2.0000     -11.269377      -306.6553
  13   2.0000     -11.264511      -306.5229
  14   2.0000     -11.263064      -306.4836
  15   2.0000     -11.256561      -306.3066
  16   2.0000     -11.246128      -306.0227
  17   2.0000     -11.242326      -305.9192
  18   2.0000     -11.239359      -305.8385
  19   2.0000     -11.235699      -305.7389
  20   2.0000      -8.895598      -242.0615
  21   2.0000      -6.577184      -178.9743
  22   2.0000      -6.575160      -178.9192
  23   2.0000      -6.574583      -178.9035
  24   2.0000      -1.447070       -39.3768
  25   2.0000      -1.419864       -38.6365
  26   2.0000      -1.358831       -36.9757
  27   2.0000      -1.340964       -36.4895
  28   2.0000      -1.240417       -33.7535
  29   2.0000      -1.161528       -31.6068
  30   2.0000      -1.126145       -30.6440
  31   2.0000      -1.049275       -28.5522
  32   2.0000      -1.041843       -28.3500
  33   2.0000      -1.018743       -27.7214
  34   2.0000      -1.005379       -27.3578
  35   2.0000      -0.989989       -26.9390
  36   2.0000      -0.928047       -25.2534
  37   2.0000      -0.884944       -24.0806
  38   2.0000      -0.854824       -23.2609
  39   2.0000      -0.842537       -22.9266
  40   2.0000      -0.837152       -22.7801
  41   2.0000      -0.836406       -22.7598
  42   2.0000      -0.757939       -20.6246
  43   2.0000      -0.739877       -20.1331
  44   2.0000      -0.732184       -19.9237
  45   2.0000      -0.697722       -18.9860
  46   2.0000      -0.688334       -18.7305
  47   2.0000      -0.681513       -18.5449
  48   2.0000      -0.676807       -18.4169
  49   2.0000      -0.665464       -18.1082
  50   2.0000      -0.653045       -17.7702
  51   2.0000      -0.643666       -17.5150
  52   2.0000      -0.640613       -17.4320
  53   2.0000      -0.614250       -16.7146
  54   2.0000      -0.608428       -16.5562
  55   2.0000      -0.605411       -16.4741
  56   2.0000      -0.603398       -16.4193
  57   2.0000      -0.587882       -15.9971
  58   2.0000      -0.578686       -15.7468
  59   2.0000      -0.569247       -15.4900
  60   2.0000      -0.563735       -15.3400
  61   2.0000      -0.559690       -15.2299
  62   2.0000      -0.541850       -14.7445
  63   2.0000      -0.534007       -14.5311
  64   2.0000      -0.524188       -14.2639
  65   2.0000      -0.516465       -14.0537
  66   2.0000      -0.502693       -13.6790
  67   2.0000      -0.501326       -13.6418
  68   2.0000      -0.489454       -13.3187
  69   2.0000      -0.470583       -12.8052
  70   2.0000      -0.455887       -12.4053
  71   2.0000      -0.448774       -12.2117
  72   2.0000      -0.357197        -9.7198
  73   2.0000      -0.352086        -9.5807
  74   2.0000      -0.330105        -8.9826
  75   2.0000      -0.324428        -8.8281
  76   2.0000      -0.318696        -8.6722
  77   0.0000       0.082606         2.2478
  78   0.0000       0.104412         2.8412
  79   0.0000       0.114351         3.1117
  80   0.0000       0.128380         3.4934
  81   0.0000       0.132094         3.5945

MULLIKEN ATOMIC CHARGES
-----------------------
   0 C :   -0.265903
   1 C :    0.012439
   2 O :   -0.320738
   3 C :    0.404114
   4 O :   -0.382138
   5 C :   -0.197027
   6 C :    0.137432
   7 C :   -0.331903
   8 N :   -0.135827
   9 C :    0.204157
  10 S :   -0.440130
  11 N :   -0.209916
  12 C :    0.066136
  13 C :    0.033314
  14 C :   -0.189707
  15 C :   -0.128898
  16 C :   -0.277615
  17 C :    0.314517
  18 O :   -0.358626
  19 C :   -0.283548
  20 H :    0.093298
  21 H :    0.111396
  22 H :    0.089499
  23 H :    0.095887
  24 H :    0.129917
  25 H :    0.130538
  26 H :    0.141218
  27 H :    0.123265
  28 H :    0.196809
  29 H :    0.197504
  30 H :    0.163115
  31 H :    0.165855
  32 H :    0.163413
  33 H :    0.132511
  34 H :    0.241975
  35 H :    0.173668
Sum of atomic charges:   -0.0000000

LOEWDIN ATOMIC CHARGES
----------------------
   0 C :    0.106538
   1 C :   -0.017132
   2 O :    0.305226
   3 C :   -0.416273
   4 O :    0.124791
   5 C :   -0.084842
   6 C :   -0.101417
   7 C :    0.126079
   8 N :    0.401573
   9 C :   -0.455949
  10 S :   -0.036982
  11 N :    0.397196
  12 C :   -0.044975
  13 C :   -0.043920
  14 C :    0.023118
  15 C :    0.045685
  16 C :   -0.000211
  17 C :   -0.194395
  18 O :    0.394043
  19 C :    0.028210
  20 H :   -0.024658
  21 H :   -0.023021
  22 H :   -0.031999
  23 H :   -0.040805
  24 H :   -0.024513
  25 H :   -0.008052
  26 H :   -0.010227
  27 H :   -0.016326
  28 H :   -0.057672
  29 H :   -0.063554
  30 H :   -0.002706
  31 H :   -0.021996
  32 H :   -0.018524
  33 H :   -0.034580
  34 H :   -0.152856
  35 H :   -0.024873

  Mayer bond orders larger than 0.100000
B(  0-C ,  1-C ) :   0.9731 B(  0-C , 20-H ) :   0.9756 B(  0-C , 21-H ) :   0.9792
B(  0-C , 22-H ) :   0.9786 B(  1-C ,  2-O ) :   0.9009 B(  1-C , 23-H ) :   0.9636
B(  1-C , 24-H ) :   0.9765 B(  2-O ,  3-C ) :   1.1851 B(  3-C ,  4-O ) :   2.0977
B(  3-C ,  5-C ) :   0.9313 B(  5-C ,  6-C ) :   1.6844 B(  5-C , 12-C ) :   0.9591
B(  6-C ,  7-C ) :   0.9432 B(  6-C ,  8-N ) :   1.1176 B(  7-C , 25-H ) :   0.9787
B(  7-C , 26-H ) :   0.9737 B(  7-C , 27-H ) :   0.9645 B(  8-N ,  9-C ) :   1.1922
B(  8-N , 28-H ) :   0.9516 B(  9-C , 10-S ) :   1.6125 B(  9-C , 11-N ) :   1.2893
B( 11-N , 12-C ) :   1.0012 B( 11-N , 29-H ) :   0.9494 B( 12-C , 13-C ) :   0.9438
B( 12-C , 30-H ) :   0.9972 B( 13-C , 14-C ) :   1.3860 B( 13-C , 19-C ) :   1.3489
B( 14-C , 15-C ) :   1.3950 B( 14-C , 31-H ) :   0.9615 B( 15-C , 16-C ) :   1.3650
B( 15-C , 32-H ) :   0.9701 B( 16-C , 17-C ) :   1.3279 B( 16-C , 33-H ) :   0.9843
B( 17-C , 18-O ) :   1.1098 B( 17-C , 19-C ) :   1.3715 B( 18-O , 34-H ) :   0.9790
B( 19-C , 35-H ) :   0.9581

MP2 TOTAL ENERGY:    -1274.333080387 Eh
FINAL SINGLE POINT ENERGY     -1274.333080387288

DIPOLE MOMENT
-------------
                                X             Y             Z
Electronic contribution:     11.91717       5.83322       7.72571
Nuclear contribution   :    -13.45738      -6.82035      -7.96957
                        -----------------------------------------
Total Dipole Moment    :     -1.54021      -0.98713      -0.24386
                        -----------------------------------------
Magnitude (a.u.)       :      1.84557
Magnitude (Debye)      :      4.69107

Rotational constants in cm-1:     0.011285     0.009252     0.006826
Rotational constants in MHz :   338.321869   277.365086   204.631885

                             ****ORCA TERMINATED NORMALLY****
TOTAL RUN TIME: 0 days 1 hours 53 minutes 52 seconds 21 msec
