                         Program Version 4.2.0 -  RELEASE  -
|  1> ! ri-mp2 cc-pvtz cc-pvtz/c TightSCF  NoKeepInts
|  2>
|  3> %scf
|  4>   MaxCore 4096
|  5> end
|  6> *xyz  0  1
|  7>     C       14.6013902   14.3815400   15.3937916
|  8>     C       15.5628992   14.6430656   16.5648979
|  9>     O       16.5434167   15.5917033   16.1112626
| 10>     C       17.7615334   15.6003790   16.7237644
| 11>     O       18.3379465   14.5609210   16.9977728
| 12>     C       17.9861940   16.8510583   17.5193035
| 13>     C       17.5267948   18.0747768   17.1542660
| 14>     C       16.7555607   18.4336491   15.9010306
| 15>     N       17.8239205   19.1917665   17.9411757
| 16>     C       18.6767849   19.1885062   19.0136804
| 17>     S       19.0635619   20.5779866   19.8230729
| 18>     N       19.1938230   17.9717235   19.3818749
| 19>     C       18.7876070   16.6727812   18.8123327
| 20>     C       17.9904259   15.8662767   19.8340966
| 21>     C       18.3951686   14.5663930   20.1894121
| 22>     C       17.6578492   13.8157548   21.1204259
| 23>     C       16.5041206   14.3685139   21.7018282
| 24>     C       16.0950568   15.6612112   21.3475301
| 25>     O       14.9765624   16.1946490   21.9002570
| 26>     C       16.8305978   16.4056392   20.4200856
| 27>     H       15.1458748   13.9770753   14.5312662
| 28>     H       14.1035761   15.3093981   15.0862560
| 29>     H       13.8307671   13.6568592   15.6834438
| 30>     H       15.0228373   15.0362391   17.4363315
| 31>     H       16.0343898   13.6918881   16.8486598
| 32>     H       17.1705460   17.9206501   15.0243445
| 33>     H       16.7823448   19.5085724   15.6846504
| 34>     H       15.7035507   18.1369489   15.9958774
| 35>     H       17.4550944   20.0941510   17.6864197
| 36>     H       19.7959724   17.9934373   20.1948781
| 37>     H       19.7022204   16.1138225   18.5667363
| 38>     H       19.2766746   14.1294704   19.7263743
| 39>     H       17.9789481   12.8091221   21.3823094
| 40>     H       15.9308153   13.7913436   22.4196432
| 41>     H       14.6439794   15.5592674   22.5519823
| 42>     H       16.4981948   17.4054599   20.1629655
| 43> *
| 44>
| 45>                          ****END OF INPUT****

CARTESIAN COORDINATES (ANGSTROEM)
---------------------------------
  C     14.601390   14.381540   15.393792
  C     15.562899   14.643066   16.564898
  O     16.543417   15.591703   16.111263
  C     17.761533   15.600379   16.723764
  O     18.337947   14.560921   16.997773
  C     17.986194   16.851058   17.519303
  C     17.526795   18.074777   17.154266
  C     16.755561   18.433649   15.901031
  N     17.823920   19.191766   17.941176
  C     18.676785   19.188506   19.013680
  S     19.063562   20.577987   19.823073
  N     19.193823   17.971723   19.381875
  C     18.787607   16.672781   18.812333
  C     17.990426   15.866277   19.834097
  C     18.395169   14.566393   20.189412
  C     17.657849   13.815755   21.120426
  C     16.504121   14.368514   21.701828
  C     16.095057   15.661211   21.347530
  O     14.976562   16.194649   21.900257
  C     16.830598   16.405639   20.420086
  H     15.145875   13.977075   14.531266
  H     14.103576   15.309398   15.086256
  H     13.830767   13.656859   15.683444
  H     15.022837   15.036239   17.436331
  H     16.034390   13.691888   16.848660
  H     17.170546   17.920650   15.024344
  H     16.782345   19.508572   15.684650
  H     15.703551   18.136949   15.995877
  H     17.455094   20.094151   17.686420
  H     19.795972   17.993437   20.194878
  H     19.702220   16.113823   18.566736
  H     19.276675   14.129470   19.726374
  H     17.978948   12.809122   21.382309
  H     15.930815   13.791344   22.419643
  H     14.643979   15.559267   22.551982
  H     16.498195   17.405460   20.162965

 Total Charge           Charge          ....    0
 Multiplicity           Mult            ....    1
 Number of Electrons    NEL             ....  154
 Basis Dimension        Dim             ....  828

ORBITAL ENERGIES
----------------

  NO   OCC          E(Eh)            E(eV)
   0   2.0000     -91.888516     -2500.4136
   1   2.0000     -20.594723      -560.4109
   2   2.0000     -20.589368      -560.2652
   3   2.0000     -20.553262      -559.2827
   4   2.0000     -15.628304      -425.2678
   5   2.0000     -15.607778      -424.7092
   6   2.0000     -11.394849      -310.0696
   7   2.0000     -11.383861      -309.7706
   8   2.0000     -11.333761      -308.4073
   9   2.0000     -11.310740      -307.7809
  10   2.0000     -11.307736      -307.6991
  11   2.0000     -11.298015      -307.4346
  12   2.0000     -11.259950      -306.3988
  13   2.0000     -11.259692      -306.3918
  14   2.0000     -11.256351      -306.3009
  15   2.0000     -11.250812      -306.1502
  16   2.0000     -11.240431      -305.8677
  17   2.0000     -11.236443      -305.7591
  18   2.0000     -11.233608      -305.6820
  19   2.0000     -11.230906      -305.6085
  20   2.0000      -8.893588      -242.0068
  21   2.0000      -6.575167      -178.9194
  22   2.0000      -6.573157      -178.8647
  23   2.0000      -6.572573      -178.8488
  24   2.0000      -1.453335       -39.5473
  25   2.0000      -1.414485       -38.4901
  26   2.0000      -1.357255       -36.9328
  27   2.0000      -1.339364       -36.4459
  28   2.0000      -1.237483       -33.6736
  29   2.0000      -1.154927       -31.4272
  30   2.0000      -1.120760       -30.4974
  31   2.0000      -1.044325       -28.4175
  32   2.0000      -1.035885       -28.1879
  33   2.0000      -1.012370       -27.5480
  34   2.0000      -0.998646       -27.1745
  35   2.0000      -0.984118       -26.7792
  36   2.0000      -0.922570       -25.1044
  37   2.0000      -0.882874       -24.0242
  38   2.0000      -0.847906       -23.0727
  39   2.0000      -0.837570       -22.7914
  40   2.0000      -0.830918       -22.6104
  41   2.0000      -0.824014       -22.4225
  42   2.0000      -0.758337       -20.6354
  43   2.0000      -0.735910       -20.0251
  44   2.0000      -0.727309       -19.7911
  45   2.0000      -0.692803       -18.8521
  46   2.0000      -0.685706       -18.6590
  47   2.0000      -0.680984       -18.5305
  48   2.0000      -0.674399       -18.3513
  49   2.0000      -0.656061       -17.8523
  50   2.0000      -0.648680       -17.6515
  51   2.0000      -0.641438       -17.4544
  52   2.0000      -0.630329       -17.1521
  53   2.0000      -0.620614       -16.8878
  54   2.0000      -0.603181       -16.4134
  55   2.0000      -0.602220       -16.3872
  56   2.0000      -0.598107       -16.2753
  57   2.0000      -0.578036       -15.7291
  58   2.0000      -0.575451       -15.6588
  59   2.0000      -0.563016       -15.3204
  60   2.0000      -0.559801       -15.2330
  61   2.0000      -0.547394       -14.8954
  62   2.0000      -0.534348       -14.5403
  63   2.0000      -0.524248       -14.2655
  64   2.0000      -0.520071       -14.1518
  65   2.0000      -0.511119       -13.9082
  66   2.0000      -0.501739       -13.6530
  67   2.0000      -0.496757       -13.5175
  68   2.0000      -0.482275       -13.1234
  69   2.0000      -0.464741       -12.6463
  70   2.0000      -0.460612       -12.5339
  71   2.0000      -0.451007       -12.2725
  72   2.0000      -0.354004        -9.6329
  73   2.0000      -0.346687        -9.4338
  74   2.0000      -0.327782        -8.9194
  75   2.0000      -0.317811        -8.6481
  76   2.0000      -0.315399        -8.5824
  77   0.0000       0.072118         1.9624
  78   0.0000       0.106765         2.9052
  79   0.0000       0.119072         3.2401
  80   0.0000       0.133448         3.6313
  81   0.0000       0.136483         3.7139

MULLIKEN ATOMIC CHARGES
-----------------------
   0 C :   -0.261522
   1 C :    0.034978
   2 O :   -0.369851
   3 C :    0.462653
   4 O :   -0.405856
   5 C :   -0.196959
   6 C :    0.139533
   7 C :   -0.282750
   8 N :   -0.124593
   9 C :    0.203054
  10 S :   -0.439904
  11 N :   -0.200338
  12 C :    0.050078
  13 C :    0.051997
  14 C :   -0.162467
  15 C :   -0.132905
  16 C :   -0.280331
  17 C :    0.312807
  18 O :   -0.359126
  19 C :   -0.281014
  20 H :    0.100899
  21 H :    0.089654
  22 H :    0.090075
  23 H :    0.094433
  24 H :    0.114560
  25 H :    0.124689
  26 H :    0.104332
  27 H :    0.124964
  28 H :    0.197152
  29 H :    0.194162
  30 H :    0.154610
  31 H :    0.155246
  32 H :    0.160286
  33 H :    0.129568
  34 H :    0.240694
  35 H :    0.167195
Sum of atomic charges:   -0.0000000

LOEWDIN ATOMIC CHARGES
----------------------
   0 C :    0.107460
   1 C :   -0.015008
   2 O :    0.295051
   3 C :   -0.414828
   4 O :    0.122632
   5 C :   -0.093411
   6 C :   -0.072750
   7 C :    0.125709
   8 N :    0.404215
   9 C :   -0.457715
  10 S :   -0.036438
  11 N :    0.397191
  12 C :   -0.045643
  13 C :   -0.039817
  14 C :    0.021676
  15 C :    0.041483
  16 C :   -0.002177
  17 C :   -0.193785
  18 O :    0.393140
  19 C :    0.027992
  20 H :   -0.024133
  21 H :   -0.030455
  22 H :   -0.025133
  23 H :   -0.032767
  24 H :   -0.026185
  25 H :   -0.008011
  26 H :   -0.019817
  27 H :   -0.010316
  28 H :   -0.058805
  29 H :   -0.064010
  30 H :   -0.004771
  31 H :   -0.024902
  32 H :   -0.020664
  33 H :   -0.035946
  34 H :   -0.154321
  35 H :   -0.024742

  Mayer bond orders larger than 0.100000
B(  0-C ,  1-C ) :   0.9775 B(  0-C , 20-H ) :   0.9777 B(  0-C , 21-H ) :   0.9796
B(  0-C , 22-H ) :   0.9763 B(  1-C ,  2-O ) :   0.8883 B(  1-C , 23-H ) :   0.9714
B(  1-C , 24-H ) :   0.9750 B(  2-O ,  3-C ) :   1.0979 B(  3-C ,  4-O ) :   2.0192
B(  3-C ,  5-C ) :   1.0342 B(  5-C ,  6-C ) :   1.6655 B(  5-C , 12-C ) :   0.9642
B(  6-C ,  7-C ) :   0.9520 B(  6-C ,  8-N ) :   1.1401 B(  7-C , 25-H ) :   0.9699
B(  7-C , 26-H ) :   0.9885 B(  7-C , 27-H ) :   0.9635 B(  8-N ,  9-C ) :   1.1834
B(  8-N , 28-H ) :   0.9497 B(  9-C , 10-S ) :   1.6104 B(  9-C , 11-N ) :   1.3010
B( 11-N , 12-C ) :   0.9917 B( 11-N , 29-H ) :   0.9517 B( 12-C , 13-C ) :   0.9460
B( 12-C , 30-H ) :   0.9986 B( 13-C , 14-C ) :   1.3771 B( 13-C , 19-C ) :   1.3672
B( 14-C , 15-C ) :   1.3942 B( 14-C , 31-H ) :   0.9642 B( 15-C , 16-C ) :   1.3637
B( 15-C , 32-H ) :   0.9710 B( 16-C , 17-C ) :   1.3314 B( 16-C , 33-H ) :   0.9853
B( 17-C , 18-O ) :   1.1089 B( 17-C , 19-C ) :   1.3752 B( 18-O , 34-H ) :   0.9800
B( 19-C , 35-H ) :   0.9582

MP2 TOTAL ENERGY:    -1274.329514115 Eh
FINAL SINGLE POINT ENERGY     -1274.329514114798

DIPOLE MOMENT
-------------
                                X             Y             Z
Electronic contribution:     11.35933       9.82411       9.31076
Nuclear contribution   :    -12.76921     -11.13268      -9.94045
                        -----------------------------------------
Total Dipole Moment    :     -1.40989      -1.30858      -0.62969
                        -----------------------------------------
Magnitude (a.u.)       :      2.02402
Magnitude (Debye)      :      5.14465

Rotational constants in cm-1:     0.010913     0.009102     0.006249
Rotational constants in MHz :   327.155484   272.868255   187.348105

                             ****ORCA TERMINATED NORMALLY****
TOTAL RUN TIME: 0 days 1 hours 36 minutes 40 seconds 496 msec
