                         Program Version 5.0.0 -  RELEASE  -
|  1> ! ri-mp2 cc-pvtz cc-pvtz/c TightSCF NoKeepInts
|  2>
|  3> %scf
|  4>   MaxCore 4096
|  5> end
|  6> *xyz  0  1
|  7>     C       14.4727900   15.7049230   16.2646830
|  8>     C       15.5082598   15.2641851   17.3148337
|  9>     O       16.7400805   14.9407132   16.6380718
| 10>     C       17.7942783   15.7998466   16.4498198
| 11>     O       18.8116536   15.3812704   15.9311219
| 12>     C       17.8798709   16.9238450   17.4255174
| 13>     C       17.3855440   18.1507738   17.1510410
| 14>     C       16.6909173   18.5856728   15.8808548
| 15>     N       17.5531792   19.1895502   18.0688922
| 16>     C       18.2828848   19.0969067   19.2257357
| 17>     S       18.4640108   20.3871406   20.2437686
| 18>     N       18.8515328   17.8773108   19.5022655
| 19>     C       18.6724543   16.6473188   18.7043290
| 20>     C       18.0451757   15.5272707   19.5295219
| 21>     C       18.4851611   14.2016473   19.3597106
| 22>     C       17.9020837   13.1536395   20.0909321
| 23>     C       16.8683590   13.4316603   21.0010129
| 24>     C       16.4244728   14.7496200   21.1714160
| 25>     O       15.4167839   15.0200579   22.0382881
| 26>     C       17.0055876   15.7914474   20.4414620
| 27>     H       14.8104130   16.5797758   15.7033249
| 28>     H       13.5198276   15.9533483   16.7476849
| 29>     H       14.2888978   14.8934045   15.5492102
| 30>     H       15.6336116   16.0398272   18.0791052
| 31>     H       15.1341827   14.3637024   17.8194509
| 32>     H       16.7626600   17.8308038   15.0882070
| 33>     H       17.1472269   19.5005896   15.4817013
| 34>     H       15.6291035   18.7915339   16.0625548
| 35>     H       17.1583391   20.0969579   17.8768378
| 36>     H       19.3707151   17.8358829   20.3703548
| 37>     H       19.6728958   16.3101746   18.3945306
| 38>     H       19.2724479   13.9806568   18.6417572
| 39>     H       18.2484009   12.1317272   19.9448883
| 40>     H       16.4136606   12.6240960   21.5654306
| 41>     H       15.1894665   14.1920358   22.4882212
| 42>     H       16.6400710   16.8026831   20.5874622
| 43> *
| 44>
| 45>                          ****END OF INPUT****

CARTESIAN COORDINATES (ANGSTROEM)
---------------------------------
  C     14.472790   15.704923   16.264683
  C     15.508260   15.264185   17.314834
  O     16.740081   14.940713   16.638072
  C     17.794278   15.799847   16.449820
  O     18.811654   15.381270   15.931122
  C     17.879871   16.923845   17.425517
  C     17.385544   18.150774   17.151041
  C     16.690917   18.585673   15.880855
  N     17.553179   19.189550   18.068892
  C     18.282885   19.096907   19.225736
  S     18.464011   20.387141   20.243769
  N     18.851533   17.877311   19.502266
  C     18.672454   16.647319   18.704329
  C     18.045176   15.527271   19.529522
  C     18.485161   14.201647   19.359711
  C     17.902084   13.153639   20.090932
  C     16.868359   13.431660   21.001013
  C     16.424473   14.749620   21.171416
  O     15.416784   15.020058   22.038288
  C     17.005588   15.791447   20.441462
  H     14.810413   16.579776   15.703325
  H     13.519828   15.953348   16.747685
  H     14.288898   14.893405   15.549210
  H     15.633612   16.039827   18.079105
  H     15.134183   14.363702   17.819451
  H     16.762660   17.830804   15.088207
  H     17.147227   19.500590   15.481701
  H     15.629103   18.791534   16.062555
  H     17.158339   20.096958   17.876838
  H     19.370715   17.835883   20.370355
  H     19.672896   16.310175   18.394531
  H     19.272448   13.980657   18.641757
  H     18.248401   12.131727   19.944888
  H     16.413661   12.624096   21.565431
  H     15.189466   14.192036   22.488221
  H     16.640071   16.802683   20.587462

 Total Charge           Charge          ....    0
 Multiplicity           Mult            ....    1
 Number of Electrons    NEL             ....  154
 Basis Dimension        Dim             ....  828

ORBITAL ENERGIES
----------------

  NO   OCC          E(Eh)            E(eV)
   0   2.0000     -91.888865     -2500.4231
   1   2.0000     -20.601885      -560.6058
   2   2.0000     -20.601075      -560.5837
   3   2.0000     -20.553598      -559.2918
   4   2.0000     -15.623867      -425.1470
   5   2.0000     -15.611989      -424.8238
   6   2.0000     -11.398535      -310.1699
   7   2.0000     -11.385932      -309.8270
   8   2.0000     -11.323899      -308.1390
   9   2.0000     -11.318358      -307.9882
  10   2.0000     -11.318030      -307.9793
  11   2.0000     -11.302857      -307.5664
  12   2.0000     -11.268020      -306.6184
  13   2.0000     -11.265405      -306.5473
  14   2.0000     -11.265216      -306.5421
  15   2.0000     -11.258286      -306.3535
  16   2.0000     -11.247438      -306.0583
  17   2.0000     -11.243400      -305.9485
  18   2.0000     -11.241060      -305.8848
  19   2.0000     -11.235389      -305.7305
  20   2.0000      -8.894003      -242.0181
  21   2.0000      -6.575599      -178.9312
  22   2.0000      -6.573564      -178.8758
  23   2.0000      -6.572997      -178.8603
  24   2.0000      -1.449978       -39.4559
  25   2.0000      -1.420898       -38.6646
  26   2.0000      -1.360938       -37.0330
  27   2.0000      -1.338653       -36.4266
  28   2.0000      -1.239469       -33.7277
  29   2.0000      -1.162401       -31.6305
  30   2.0000      -1.125599       -30.6291
  31   2.0000      -1.049747       -28.5651
  32   2.0000      -1.040324       -28.3087
  33   2.0000      -1.020280       -27.7632
  34   2.0000      -1.005451       -27.3597
  35   2.0000      -0.989236       -26.9185
  36   2.0000      -0.928302       -25.2604
  37   2.0000      -0.893070       -24.3017
  38   2.0000      -0.852917       -23.2090
  39   2.0000      -0.841593       -22.9009
  40   2.0000      -0.838173       -22.8078
  41   2.0000      -0.836404       -22.7597
  42   2.0000      -0.755159       -20.5489
  43   2.0000      -0.734193       -19.9784
  44   2.0000      -0.731624       -19.9085
  45   2.0000      -0.698703       -19.0127
  46   2.0000      -0.690573       -18.7914
  47   2.0000      -0.680414       -18.5150
  48   2.0000      -0.678174       -18.4540
  49   2.0000      -0.668510       -18.1911
  50   2.0000      -0.653656       -17.7869
  51   2.0000      -0.641171       -17.4472
  52   2.0000      -0.638241       -17.3674
  53   2.0000      -0.619178       -16.8487
  54   2.0000      -0.610202       -16.6044
  55   2.0000      -0.608144       -16.5484
  56   2.0000      -0.604408       -16.4468
  57   2.0000      -0.589155       -16.0317
  58   2.0000      -0.578863       -15.7517
  59   2.0000      -0.569106       -15.4862
  60   2.0000      -0.567486       -15.4421
  61   2.0000      -0.558199       -15.1894
  62   2.0000      -0.544552       -14.8180
  63   2.0000      -0.536057       -14.5869
  64   2.0000      -0.523236       -14.2380
  65   2.0000      -0.515758       -14.0345
  66   2.0000      -0.503180       -13.6922
  67   2.0000      -0.502652       -13.6779
  68   2.0000      -0.488161       -13.2835
  69   2.0000      -0.471237       -12.8230
  70   2.0000      -0.452583       -12.3154
  71   2.0000      -0.450149       -12.2492
  72   2.0000      -0.356471        -9.7001
  73   2.0000      -0.351898        -9.5756
  74   2.0000      -0.328799        -8.9471
  75   2.0000      -0.325534        -8.8582
  76   2.0000      -0.317819        -8.6483
  77   0.0000       0.093377         2.5409
  78   0.0000       0.104628         2.8471
  79   0.0000       0.112467         3.0604
  80   0.0000       0.126824         3.4511
  81   0.0000       0.128256         3.4900

MULLIKEN ATOMIC CHARGES
-----------------------
   0 C :   -0.275791
   1 C :    0.021441
   2 O :   -0.313529
   3 C :    0.381754
   4 O :   -0.372930
   5 C :   -0.166126
   6 C :    0.135506
   7 C :   -0.341901
   8 N :   -0.138085
   9 C :    0.210422
  10 S :   -0.444210
  11 N :   -0.223873
  12 C :    0.079685
  13 C :    0.007560
  14 C :   -0.183463
  15 C :   -0.133936
  16 C :   -0.277341
  17 C :    0.316093
  18 O :   -0.356351
  19 C :   -0.275242
  20 H :    0.083949
  21 H :    0.096634
  22 H :    0.111517
  23 H :    0.099157
  24 H :    0.126233
  25 H :    0.120908
  26 H :    0.141012
  27 H :    0.124743
  28 H :    0.195426
  29 H :    0.201682
  30 H :    0.165524
  31 H :    0.162562
  32 H :    0.163860
  33 H :    0.133374
  34 H :    0.241847
  35 H :    0.181888
Sum of atomic charges:   -0.0000000

LOEWDIN ATOMIC CHARGES
----------------------
   0 C :    0.104478
   1 C :   -0.019857
   2 O :    0.314939
   3 C :   -0.420330
   4 O :    0.129495
   5 C :   -0.077687
   6 C :   -0.111139
   7 C :    0.122758
   8 N :    0.400121
   9 C :   -0.455324
  10 S :   -0.040366
  11 N :    0.397536
  12 C :   -0.042734
  13 C :   -0.042870
  14 C :    0.024555
  15 C :    0.045939
  16 C :   -0.000508
  17 C :   -0.194139
  18 O :    0.395154
  19 C :    0.027237
  20 H :   -0.035766
  21 H :   -0.024851
  22 H :   -0.022991
  23 H :   -0.040399
  24 H :   -0.019096
  25 H :   -0.010483
  26 H :   -0.009924
  27 H :   -0.016962
  28 H :   -0.058667
  29 H :   -0.063769
  30 H :   -0.002263
  31 H :   -0.022063
  32 H :   -0.018198
  33 H :   -0.034443
  34 H :   -0.152719
  35 H :   -0.024662

  Mayer bond orders larger than 0.100000
B(  0-C ,  1-C ) :   0.9764 B(  0-C , 20-H ) :   0.9774 B(  0-C , 21-H ) :   0.9760
B(  0-C , 22-H ) :   0.9797 B(  1-C ,  2-O ) :   0.8942 B(  1-C , 23-H ) :   0.9583
B(  1-C , 24-H ) :   0.9778 B(  2-O ,  3-C ) :   1.1618 B(  3-C ,  4-O ) :   2.1016
B(  3-C ,  5-C ) :   0.9076 B(  5-C ,  6-C ) :   1.7133 B(  5-C , 12-C ) :   0.9588
B(  6-C ,  7-C ) :   0.9420 B(  6-C ,  8-N ) :   1.1058 B(  7-C , 25-H ) :   0.9827
B(  7-C , 26-H ) :   0.9707 B(  7-C , 27-H ) :   0.9667 B(  8-N ,  9-C ) :   1.2036
B(  8-N , 28-H ) :   0.9535 B(  9-C , 10-S ) :   1.6065 B(  9-C , 11-N ) :   1.2828
B( 11-N , 12-C ) :   0.9922 B( 11-N , 29-H ) :   0.9467 B( 12-C , 13-C ) :   0.9438
B( 12-C , 30-H ) :   0.9980 B( 13-C , 14-C ) :   1.3878 B( 13-C , 19-C ) :   1.3392
B( 14-C , 15-C ) :   1.3994 B( 14-C , 31-H ) :   0.9648 B( 15-C , 16-C ) :   1.3606
B( 15-C , 32-H ) :   0.9697 B( 16-C , 17-C ) :   1.3306 B( 16-C , 33-H ) :   0.9841
B( 17-C , 18-O ) :   1.1108 B( 17-C , 19-C ) :   1.3666 B( 18-O , 34-H ) :   0.9789
B( 19-C , 35-H ) :   0.9563

MP2 TOTAL ENERGY:    -1274.326189602 Eh
FINAL SINGLE POINT ENERGY     -1274.326189601885

DIPOLE MOMENT
-------------
                                X             Y             Z
Electronic contribution:     10.94146       5.33600       7.90691
Nuclear contribution   :    -12.56196      -6.52788      -8.20037
                        -----------------------------------------
Total Dipole Moment    :     -1.62050      -1.19189      -0.29346
                        -----------------------------------------
Magnitude (a.u.)       :      2.03291
Magnitude (Debye)      :      5.16725

Rotational constants in cm-1:     0.011831     0.009259     0.006757
Rotational constants in MHz :   354.686747   277.572628   202.561295

                             ****ORCA TERMINATED NORMALLY****
TOTAL RUN TIME: 0 days 2 hours 40 minutes 12 seconds 210 msec
