                         Program Version 4.2.0 -  RELEASE  -
|  1> ! ri-mp2 cc-pvtz cc-pvtz/c TightSCF  NoKeepInts
|  2>
|  3> %scf
|  4>   MaxCore 4096
|  5> end
|  6> *xyz  0  1
|  7>     C       14.9490332   16.0474077   17.2824147
|  8>     C       15.7184147   14.7147748   17.1492523
|  9>     O       16.9700451   14.8013582   16.4206161
| 10>     C       17.8855975   15.8235356   16.3312591
| 11>     O       18.6255756   15.8901325   15.3678589
| 12>     C       17.8415063   16.9326774   17.3282277
| 13>     C       17.5113950   18.1856077   16.9391354
| 14>     C       17.0362230   18.6045992   15.5648567
| 15>     N       17.6121207   19.2499711   17.8368892
| 16>     C       18.0943820   19.1486640   19.1149411
| 17>     S       18.1705500   20.4553520   20.1253294
| 18>     N       18.5073753   17.9040827   19.5216321
| 19>     C       18.4504680   16.6693441   18.7134668
| 20>     C       17.8076842   15.5285471   19.4956000
| 21>     C       18.3418078   14.2291476   19.4042430
| 22>     C       17.7712788   13.1675854   20.1262292
| 23>     C       16.6601991   13.4061678   20.9526374
| 24>     C       16.1297035   14.6991011   21.0538860
| 25>     O       15.0536674   14.9323284   21.8458795
| 26>     C       16.6983012   15.7542044   20.3331190
| 27>     H       15.3712223   16.6993503   18.0530806
| 28>     H       13.9123747   15.8439088   17.5775200
| 29>     H       14.9198411   16.5825161   16.3262945
| 30>     H       15.8912523   14.2990490   18.1474773
| 31>     H       15.0767982   13.9950147   16.6247821
| 32>     H       16.5921256   17.7684620   15.0111424
| 33>     H       17.8804044   18.9708856   14.9667731
| 34>     H       16.2812572   19.3982460   15.6162495
| 35>     H       17.3382377   20.1755180   17.5467482
| 36>     H       18.8401145   17.8588076   20.4767910
| 37>     H       19.4937125   16.3727509   18.5314950
| 38>     H       19.1988790   14.0381575   18.7624568
| 39>     H       18.1906483   12.1659480   20.0432594
| 40>     H       16.2166430   12.5884982   21.5117287
| 41>     H       14.8401962   14.1042145   22.3024553
| 42>     H       16.2679646   16.7460842   20.4282723
| 43> *
| 44>
| 45>                          ****END OF INPUT****

CARTESIAN COORDINATES (ANGSTROEM)
---------------------------------
  C     14.949033   16.047408   17.282415
  C     15.718415   14.714775   17.149252
  O     16.970045   14.801358   16.420616
  C     17.885597   15.823536   16.331259
  O     18.625576   15.890132   15.367859
  C     17.841506   16.932677   17.328228
  C     17.511395   18.185608   16.939135
  C     17.036223   18.604599   15.564857
  N     17.612121   19.249971   17.836889
  C     18.094382   19.148664   19.114941
  S     18.170550   20.455352   20.125329
  N     18.507375   17.904083   19.521632
  C     18.450468   16.669344   18.713467
  C     17.807684   15.528547   19.495600
  C     18.341808   14.229148   19.404243
  C     17.771279   13.167585   20.126229
  C     16.660199   13.406168   20.952637
  C     16.129704   14.699101   21.053886
  O     15.053667   14.932328   21.845879
  C     16.698301   15.754204   20.333119
  H     15.371222   16.699350   18.053081
  H     13.912375   15.843909   17.577520
  H     14.919841   16.582516   16.326294
  H     15.891252   14.299049   18.147477
  H     15.076798   13.995015   16.624782
  H     16.592126   17.768462   15.011142
  H     17.880404   18.970886   14.966773
  H     16.281257   19.398246   15.616249
  H     17.338238   20.175518   17.546748
  H     18.840114   17.858808   20.476791
  H     19.493713   16.372751   18.531495
  H     19.198879   14.038157   18.762457
  H     18.190648   12.165948   20.043259
  H     16.216643   12.588498   21.511729
  H     14.840196   14.104214   22.302455
  H     16.267965   16.746084   20.428272

 Total Charge           Charge          ....    0
 Multiplicity           Mult            ....    1
 Number of Electrons    NEL             ....  154
 Basis Dimension        Dim             ....  828

ORBITAL ENERGIES
----------------

  NO   OCC          E(Eh)            E(eV)
   0   2.0000     -91.889757     -2500.4474
   1   2.0000     -20.606268      -560.7251
   2   2.0000     -20.594006      -560.3914
   3   2.0000     -20.548926      -559.1647
   4   2.0000     -15.625196      -425.1832
   5   2.0000     -15.612523      -424.8384
   6   2.0000     -11.397152      -310.1323
   7   2.0000     -11.386328      -309.8377
   8   2.0000     -11.324616      -308.1585
   9   2.0000     -11.324523      -308.1559
  10   2.0000     -11.319978      -308.0323
  11   2.0000     -11.303408      -307.5814
  12   2.0000     -11.272382      -306.7371
  13   2.0000     -11.265630      -306.5534
  14   2.0000     -11.259693      -306.3918
  15   2.0000     -11.257806      -306.3405
  16   2.0000     -11.254301      -306.2451
  17   2.0000     -11.249474      -306.1137
  18   2.0000     -11.249152      -306.1050
  19   2.0000     -11.234140      -305.6965
  20   2.0000      -8.894877      -242.0419
  21   2.0000      -6.576467      -178.9548
  22   2.0000      -6.574439      -178.8996
  23   2.0000      -6.573866      -178.8840
  24   2.0000      -1.440564       -39.1998
  25   2.0000      -1.426099       -38.8061
  26   2.0000      -1.354217       -36.8501
  27   2.0000      -1.339165       -36.4405
  28   2.0000      -1.240473       -33.7550
  29   2.0000      -1.167971       -31.7821
  30   2.0000      -1.124467       -30.5983
  31   2.0000      -1.051973       -28.6256
  32   2.0000      -1.036666       -28.2091
  33   2.0000      -1.026183       -27.9239
  34   2.0000      -1.004181       -27.3252
  35   2.0000      -0.989738       -26.9321
  36   2.0000      -0.929083       -25.2816
  37   2.0000      -0.899605       -24.4795
  38   2.0000      -0.852132       -23.1877
  39   2.0000      -0.845923       -23.0187
  40   2.0000      -0.842607       -22.9285
  41   2.0000      -0.830574       -22.6011
  42   2.0000      -0.749512       -20.3953
  43   2.0000      -0.739577       -20.1249
  44   2.0000      -0.722863       -19.6701
  45   2.0000      -0.704902       -19.1814
  46   2.0000      -0.691841       -18.8259
  47   2.0000      -0.678175       -18.4541
  48   2.0000      -0.676047       -18.3962
  49   2.0000      -0.661198       -17.9921
  50   2.0000      -0.655715       -17.8429
  51   2.0000      -0.651451       -17.7269
  52   2.0000      -0.638808       -17.3828
  53   2.0000      -0.618701       -16.8357
  54   2.0000      -0.614398       -16.7186
  55   2.0000      -0.609282       -16.5794
  56   2.0000      -0.605831       -16.4855
  57   2.0000      -0.584494       -15.9049
  58   2.0000      -0.578894       -15.7525
  59   2.0000      -0.570310       -15.5189
  60   2.0000      -0.568321       -15.4648
  61   2.0000      -0.554731       -15.0950
  62   2.0000      -0.540226       -14.7003
  63   2.0000      -0.534608       -14.5474
  64   2.0000      -0.527406       -14.3514
  65   2.0000      -0.516815       -14.0632
  66   2.0000      -0.506110       -13.7720
  67   2.0000      -0.500052       -13.6071
  68   2.0000      -0.489776       -13.3275
  69   2.0000      -0.466868       -12.7041
  70   2.0000      -0.451280       -12.2800
  71   2.0000      -0.446306       -12.1446
  72   2.0000      -0.360260        -9.8032
  73   2.0000      -0.350817        -9.5462
  74   2.0000      -0.333157        -9.0657
  75   2.0000      -0.329288        -8.9604
  76   2.0000      -0.318111        -8.6563
  77   0.0000       0.089160         2.4262
  78   0.0000       0.096788         2.6337
  79   0.0000       0.119302         3.2464
  80   0.0000       0.125544         3.4162
  81   0.0000       0.127220         3.4618

MULLIKEN ATOMIC CHARGES
-----------------------
   0 C :   -0.338942
   1 C :    0.035094
   2 O :   -0.323574
   3 C :    0.381085
   4 O :   -0.372452
   5 C :   -0.203524
   6 C :    0.149993
   7 C :   -0.301149
   8 N :   -0.135902
   9 C :    0.214652
  10 S :   -0.443480
  11 N :   -0.231109
  12 C :    0.093331
  13 C :   -0.012318
  14 C :   -0.187350
  15 C :   -0.132946
  16 C :   -0.274062
  17 C :    0.319815
  18 O :   -0.355268
  19 C :   -0.275018
  20 H :    0.112642
  21 H :    0.124529
  22 H :    0.107030
  23 H :    0.101353
  24 H :    0.128189
  25 H :    0.116955
  26 H :    0.146867
  27 H :    0.104083
  28 H :    0.196798
  29 H :    0.204323
  30 H :    0.163789
  31 H :    0.155693
  32 H :    0.165153
  33 H :    0.135247
  34 H :    0.242583
  35 H :    0.187891
Sum of atomic charges:   -0.0000000

LOEWDIN ATOMIC CHARGES
----------------------
   0 C :    0.102680
   1 C :   -0.012455
   2 O :    0.294924
   3 C :   -0.420454
   4 O :    0.127430
   5 C :   -0.083693
   6 C :   -0.090971
   7 C :    0.128232
   8 N :    0.403898
   9 C :   -0.455517
  10 S :   -0.038792
  11 N :    0.396686
  12 C :   -0.051675
  13 C :   -0.043807
  14 C :    0.019727
  15 C :    0.045399
  16 C :    0.000671
  17 C :   -0.193677
  18 O :    0.397805
  19 C :    0.029610
  20 H :   -0.035618
  21 H :   -0.021094
  22 H :   -0.029918
  23 H :   -0.032160
  24 H :   -0.021042
  25 H :   -0.010802
  26 H :   -0.004920
  27 H :   -0.019386
  28 H :   -0.057297
  29 H :   -0.064883
  30 H :   -0.008176
  31 H :   -0.025180
  32 H :   -0.017401
  33 H :   -0.033018
  34 H :   -0.151669
  35 H :   -0.023456

  Mayer bond orders larger than 0.100000
B(  0-C ,  1-C ) :   0.9566 B(  0-C , 20-H ) :   0.9696 B(  0-C , 21-H ) :   0.9766
B(  0-C , 22-H ) :   0.9756 B(  1-C ,  2-O ) :   0.9059 B(  1-C , 23-H ) :   0.9674
B(  1-C , 24-H ) :   0.9832 B(  2-O ,  3-C ) :   1.1953 B(  3-C ,  4-O ) :   2.1154
B(  3-C ,  5-C ) :   0.8940 B(  5-C ,  6-C ) :   1.7222 B(  5-C , 12-C ) :   0.9494
B(  6-C ,  7-C ) :   0.9516 B(  6-C ,  8-N ) :   1.1245 B(  7-C , 25-H ) :   0.9765
B(  7-C , 26-H ) :   0.9611 B(  7-C , 27-H ) :   0.9792 B(  8-N ,  9-C ) :   1.2064
B(  8-N , 28-H ) :   0.9513 B(  9-C , 10-S ) :   1.6048 B(  9-C , 11-N ) :   1.2838
B( 11-N , 12-C ) :   0.9906 B( 11-N , 29-H ) :   0.9443 B( 12-C , 13-C ) :   0.9370
B( 12-C , 30-H ) :   1.0018 B( 13-C , 14-C ) :   1.3785 B( 13-C , 19-C ) :   1.3444
B( 14-C , 15-C ) :   1.4027 B( 14-C , 31-H ) :   0.9710 B( 15-C , 16-C ) :   1.3578
B( 15-C , 32-H ) :   0.9697 B( 16-C , 17-C ) :   1.3305 B( 16-C , 33-H ) :   0.9838
B( 17-C , 18-O ) :   1.1128 B( 17-C , 19-C ) :   1.3606 B( 18-O , 34-H ) :   0.9781
B( 19-C , 35-H ) :   0.9505

MP2 TOTAL ENERGY:    -1274.324398504 Eh
FINAL SINGLE POINT ENERGY     -1274.324398503675

DIPOLE MOMENT
-------------
                                X             Y             Z
Electronic contribution:      8.73596       5.51114       5.79663
Nuclear contribution   :    -10.02690      -7.14330      -5.57394
                        -----------------------------------------
Total Dipole Moment    :     -1.29094      -1.63217       0.22270
                        -----------------------------------------
Magnitude (a.u.)       :      2.09287
Magnitude (Debye)      :      5.31965

Rotational constants in cm-1:     0.012705     0.009168     0.006588
Rotational constants in MHz :   380.899559   274.859076   197.492003

                             ****ORCA TERMINATED NORMALLY****
TOTAL RUN TIME: 0 days 1 hours 50 minutes 8 seconds 685 msec
