                         Program Version 5.0.0 -  RELEASE  -
|  1> ! ri-mp2 cc-pvtz cc-pvtz/c TightSCF NoKeepInts
|  2>
|  3> %scf
|  4>   MaxCore 4096
|  5> end
|  6> *xyz  0  1
|  7>     C       14.4602600   14.9101744   14.8973014
|  8>     C       15.5152498   14.4846643   15.9321517
|  9>     O       16.4287730   15.5817229   16.0915466
| 10>     C       17.5172696   15.4121830   16.8960118
| 11>     O       17.9242189   14.3035325   17.2037162
| 12>     C       17.9388713   16.6529356   17.6300107
| 13>     C       17.6414503   17.9223169   17.2463342
| 14>     C       16.8607229   18.3702888   16.0275125
| 15>     N       18.1419427   19.0039409   17.9788029
| 16>     C       19.0565095   18.9070022   18.9941030
| 17>     S       19.6974598   20.2472051   19.7211894
| 18>     N       19.4135271   17.6386657   19.3754647
| 19>     C       18.7720119   16.4016367   18.8921002
| 20>     C       17.9220560   15.7756887   19.9949735
| 21>     C       18.1330663   14.4405068   20.3860014
| 22>     C       17.3520112   13.8581439   21.3983010
| 23>     C       16.3498850   14.6167900   22.0266291
| 24>     C       16.1337430   15.9457562   21.6377897
| 25>     O       15.1626590   16.6790976   22.2382791
| 26>     C       16.9124080   16.5224530   20.6295389
| 27>     H       13.9141261   15.7964346   15.2433421
| 28>     H       13.7361856   14.1028852   14.7328890
| 29>     H       14.9344972   15.1469715   13.9367237
| 30>     H       15.0355562   14.2436447   16.8903866
| 31>     H       16.0451357   13.5923562   15.5711577
| 32>     H       17.2245187   17.8656438   15.1237556
| 33>     H       16.9406079   19.4489869   15.8463386
| 34>     H       15.7957830   18.1319962   16.1413773
| 35>     H       17.8920619   19.9432340   17.7137442
| 36>     H       20.0654360   17.5937419   20.1480747
| 37>     H       19.5715456   15.6935464   18.6302677
| 38>     H       18.8959986   13.8461437   19.8891060
| 39>     H       17.5216676   12.8224222   21.6869340
| 40>     H       15.7432540   14.1704114   22.8074301
| 41>     H       14.7659907   16.1252011   22.9271984
| 42>     H       16.7305401   17.5536748   20.3475165
| 43> *
| 44>
| 45>                          ****END OF INPUT****

CARTESIAN COORDINATES (ANGSTROEM)
---------------------------------
  C     14.460260   14.910174   14.897301
  C     15.515250   14.484664   15.932152
  O     16.428773   15.581723   16.091547
  C     17.517270   15.412183   16.896012
  O     17.924219   14.303532   17.203716
  C     17.938871   16.652936   17.630011
  C     17.641450   17.922317   17.246334
  C     16.860723   18.370289   16.027513
  N     18.141943   19.003941   17.978803
  C     19.056510   18.907002   18.994103
  S     19.697460   20.247205   19.721189
  N     19.413527   17.638666   19.375465
  C     18.772012   16.401637   18.892100
  C     17.922056   15.775689   19.994974
  C     18.133066   14.440507   20.386001
  C     17.352011   13.858144   21.398301
  C     16.349885   14.616790   22.026629
  C     16.133743   15.945756   21.637790
  O     15.162659   16.679098   22.238279
  C     16.912408   16.522453   20.629539
  H     13.914126   15.796435   15.243342
  H     13.736186   14.102885   14.732889
  H     14.934497   15.146971   13.936724
  H     15.035556   14.243645   16.890387
  H     16.045136   13.592356   15.571158
  H     17.224519   17.865644   15.123756
  H     16.940608   19.448987   15.846339
  H     15.795783   18.131996   16.141377
  H     17.892062   19.943234   17.713744
  H     20.065436   17.593742   20.148075
  H     19.571546   15.693546   18.630268
  H     18.895999   13.846144   19.889106
  H     17.521668   12.822422   21.686934
  H     15.743254   14.170411   22.807430
  H     14.765991   16.125201   22.927198
  H     16.730540   17.553675   20.347516

 Total Charge           Charge          ....    0
 Multiplicity           Mult            ....    1
 Number of Electrons    NEL             ....  154
 Basis Dimension        Dim             ....  828

ORBITAL ENERGIES
----------------

  NO   OCC          E(Eh)            E(eV)
   0   2.0000     -91.888054     -2500.4011
   1   2.0000     -20.601200      -560.5872
   2   2.0000     -20.591844      -560.3326
   3   2.0000     -20.547131      -559.1159
   4   2.0000     -15.628357      -425.2692
   5   2.0000     -15.606742      -424.6811
   6   2.0000     -11.394954      -310.0725
   7   2.0000     -11.383014      -309.7476
   8   2.0000     -11.335885      -308.4651
   9   2.0000     -11.307644      -307.6966
  10   2.0000     -11.305794      -307.6463
  11   2.0000     -11.298968      -307.4605
  12   2.0000     -11.260410      -306.4113
  13   2.0000     -11.259124      -306.3763
  14   2.0000     -11.253544      -306.2245
  15   2.0000     -11.247736      -306.0664
  16   2.0000     -11.237412      -305.7855
  17   2.0000     -11.234920      -305.7177
  18   2.0000     -11.233533      -305.6800
  19   2.0000     -11.230495      -305.5973
  20   2.0000      -8.893120      -241.9941
  21   2.0000      -6.574697      -178.9066
  22   2.0000      -6.572690      -178.8520
  23   2.0000      -6.572105      -178.8361
  24   2.0000      -1.455284       -39.6003
  25   2.0000      -1.411581       -38.4111
  26   2.0000      -1.357307       -36.9342
  27   2.0000      -1.339279       -36.4436
  28   2.0000      -1.236936       -33.6588
  29   2.0000      -1.152220       -31.3535
  30   2.0000      -1.119658       -30.4675
  31   2.0000      -1.044654       -28.4265
  32   2.0000      -1.036990       -28.2179
  33   2.0000      -1.009588       -27.4723
  34   2.0000      -0.997694       -27.1486
  35   2.0000      -0.983358       -26.7585
  36   2.0000      -0.921111       -25.0647
  37   2.0000      -0.887624       -24.1535
  38   2.0000      -0.846970       -23.0472
  39   2.0000      -0.835058       -22.7231
  40   2.0000      -0.827938       -22.5293
  41   2.0000      -0.818748       -22.2793
  42   2.0000      -0.761409       -20.7190
  43   2.0000      -0.735893       -20.0247
  44   2.0000      -0.724970       -19.7274
  45   2.0000      -0.690511       -18.7898
  46   2.0000      -0.683556       -18.6005
  47   2.0000      -0.681753       -18.5514
  48   2.0000      -0.676135       -18.3986
  49   2.0000      -0.657191       -17.8831
  50   2.0000      -0.650848       -17.7105
  51   2.0000      -0.643288       -17.5048
  52   2.0000      -0.634670       -17.2703
  53   2.0000      -0.602877       -16.4051
  54   2.0000      -0.600812       -16.3489
  55   2.0000      -0.599802       -16.3214
  56   2.0000      -0.595205       -16.1964
  57   2.0000      -0.578282       -15.7358
  58   2.0000      -0.573329       -15.6011
  59   2.0000      -0.563609       -15.3366
  60   2.0000      -0.561864       -15.2891
  61   2.0000      -0.549709       -14.9583
  62   2.0000      -0.542239       -14.7551
  63   2.0000      -0.521953       -14.2031
  64   2.0000      -0.517120       -14.0715
  65   2.0000      -0.509735       -13.8706
  66   2.0000      -0.505195       -13.7471
  67   2.0000      -0.495618       -13.4864
  68   2.0000      -0.481192       -13.0939
  69   2.0000      -0.462678       -12.5901
  70   2.0000      -0.461919       -12.5694
  71   2.0000      -0.453709       -12.3461
  72   2.0000      -0.354103        -9.6356
  73   2.0000      -0.344081        -9.3629
  74   2.0000      -0.327192        -8.9033
  75   2.0000      -0.315608        -8.5881
  76   2.0000      -0.313927        -8.5424
  77   0.0000       0.075393         2.0516
  78   0.0000       0.112353         3.0573
  79   0.0000       0.120318         3.2740
  80   0.0000       0.135645         3.6911
  81   0.0000       0.138538         3.7698

MULLIKEN ATOMIC CHARGES
-----------------------
   0 C :   -0.273531
   1 C :    0.046096
   2 O :   -0.341721
   3 C :    0.436315
   4 O :   -0.420948
   5 C :   -0.173901
   6 C :    0.143138
   7 C :   -0.288195
   8 N :   -0.123144
   9 C :    0.201824
  10 S :   -0.439402
  11 N :   -0.197511
  12 C :    0.038054
  13 C :    0.055712
  14 C :   -0.160173
  15 C :   -0.133963
  16 C :   -0.279396
  17 C :    0.311131
  18 O :   -0.359149
  19 C :   -0.272930
  20 H :    0.092243
  21 H :    0.099361
  22 H :    0.097363
  23 H :    0.090773
  24 H :    0.104469
  25 H :    0.126502
  26 H :    0.104081
  27 H :    0.127108
  28 H :    0.196863
  29 H :    0.193668
  30 H :    0.153707
  31 H :    0.153377
  32 H :    0.159169
  33 H :    0.128149
  34 H :    0.240083
  35 H :    0.164780
Sum of atomic charges:    0.0000000

LOEWDIN ATOMIC CHARGES
----------------------
   0 C :    0.107239
   1 C :   -0.017444
   2 O :    0.304110
   3 C :   -0.414253
   4 O :    0.107692
   5 C :   -0.091603
   6 C :   -0.067159
   7 C :    0.125159
   8 N :    0.404694
   9 C :   -0.458683
  10 S :   -0.036089
  11 N :    0.397722
  12 C :   -0.046231
  13 C :   -0.038928
  14 C :    0.022200
  15 C :    0.040944
  16 C :   -0.002460
  17 C :   -0.192839
  18 O :    0.392935
  19 C :    0.028245
  20 H :   -0.029436
  21 H :   -0.023064
  22 H :   -0.026524
  23 H :   -0.028507
  24 H :   -0.027580
  25 H :   -0.008501
  26 H :   -0.020738
  27 H :   -0.010366
  28 H :   -0.059106
  29 H :   -0.063736
  30 H :   -0.004864
  31 H :   -0.025253
  32 H :   -0.021179
  33 H :   -0.036406
  34 H :   -0.154902
  35 H :   -0.025088

  Mayer bond orders larger than 0.100000
B(  0-C ,  1-C ) :   0.9709 B(  0-C , 20-H ) :   0.9786 B(  0-C , 21-H ) :   0.9783
B(  0-C , 22-H ) :   0.9771 B(  1-C ,  2-O ) :   0.9037 B(  1-C , 23-H ) :   0.9744
B(  1-C , 24-H ) :   0.9786 B(  2-O ,  3-C ) :   1.1505 B(  3-C ,  4-O ) :   1.9958
B(  3-C ,  5-C ) :   1.0459 B(  5-C ,  6-C ) :   1.6504 B(  5-C , 12-C ) :   0.9665
B(  6-C ,  7-C ) :   0.9538 B(  6-C ,  8-N ) :   1.1432 B(  7-C , 25-H ) :   0.9666
B(  7-C , 26-H ) :   0.9918 B(  7-C , 27-H ) :   0.9628 B(  8-N ,  9-C ) :   1.1796
B(  8-N , 28-H ) :   0.9490 B(  9-C , 10-S ) :   1.6107 B(  9-C , 11-N ) :   1.3037
B( 11-N , 12-C ) :   0.9915 B( 11-N , 29-H ) :   0.9520 B( 12-C , 13-C ) :   0.9473
B( 12-C , 30-H ) :   0.9996 B( 13-C , 14-C ) :   1.3763 B( 13-C , 19-C ) :   1.3693
B( 14-C , 15-C ) :   1.3948 B( 14-C , 31-H ) :   0.9648 B( 15-C , 16-C ) :   1.3626
B( 15-C , 32-H ) :   0.9714 B( 16-C , 17-C ) :   1.3314 B( 16-C , 33-H ) :   0.9860
B( 17-C , 18-O ) :   1.1080 B( 17-C , 19-C ) :   1.3790 B( 18-O , 34-H ) :   0.9806
B( 19-C , 35-H ) :   0.9584

MP2 TOTAL ENERGY:    -1274.344817800 Eh
FINAL SINGLE POINT ENERGY     -1274.344817799818

DIPOLE MOMENT
-------------
                                X             Y             Z
Electronic contribution:     12.20372       8.16844      11.06132
Nuclear contribution   :    -13.82376      -9.35343     -11.95964
                        -----------------------------------------
Total Dipole Moment    :     -1.62004      -1.18499      -0.89832
                        -----------------------------------------
Magnitude (a.u.)       :      2.19903
Magnitude (Debye)      :      5.58948

Rotational constants in cm-1:     0.010341     0.008958     0.005926
Rotational constants in MHz :   310.016285   268.559666   177.665610

                             ****ORCA TERMINATED NORMALLY****
TOTAL RUN TIME: 0 days 1 hours 51 minutes 36 seconds 885 msec
