                         Program Version 5.0.0 -  RELEASE  -
|  1> ! ri-mp2 cc-pvtz cc-pvtz/c TightSCF NoKeepInts
|  2>
|  3> %scf
|  4>   MaxCore 4096
|  5> end
|  6> *xyz  0  1
|  7>     C       14.9365163   16.1987682   17.3249748
|  8>     C       15.5659668   14.9105986   16.7554515
|  9>     O       16.8670812   15.0079073   16.1120452
| 10>     C       18.0125872   15.6786957   16.4774959
| 11>     O       19.0923086   15.1489162   16.2911507
| 12>     C       17.9132935   16.8568358   17.3794095
| 13>     C       17.4368628   18.0452256   16.9454606
| 14>     C       16.9465745   18.3663745   15.5496259
| 15>     N       17.4566297   19.1534665   17.7945560
| 16>     C       18.0002439   19.1612424   19.0531997
| 17>     S       17.9941193   20.5216198   19.9931328
| 18>     N       18.5502670   17.9834302   19.4982721
| 19>     C       18.5534546   16.7038013   18.7602540
| 20>     C       17.9048039   15.5745708   19.5603660
| 21>     C       18.3934628   14.2605170   19.4355324
| 22>     C       17.7996848   13.2021657   20.1426955
| 23>     C       16.7059426   13.4570678   20.9865605
| 24>     C       16.2158678   14.7630070   21.1171443
| 25>     O       15.1540629   15.0120269   21.9238598
| 26>     C       16.8088520   15.8148907   20.4115912
| 27>     H       15.4822109   16.5940665   18.1848016
| 28>     H       13.9229045   15.9764843   17.6806116
| 29>     H       14.8400714   16.9698745   16.5546454
| 30>     H       15.6546386   14.1963472   17.5853055
| 31>     H       14.8634106   14.4688602   16.0370080
| 32>     H       16.6903613   17.4655045   14.9791113
| 33>     H       17.7231641   18.8974225   14.9845811
| 34>     H       16.0522609   19.0010601   15.5737360
| 35>     H       17.0824550   20.0342227   17.4780919
| 36>     H       18.9324637   18.0179282   20.4350222
| 37>     H       19.6052413   16.4249022   18.5972585
| 38>     H       19.2337735   14.0561218   18.7747125
| 39>     H       18.1871905   12.1906343   20.0317928
| 40>     H       16.2434667   12.6420109   21.5336039
| 41>     H       14.9208182   14.1804559   22.3638437
| 42>     H       16.4039867   16.8149761   20.5270957
| 43> *
| 44>
| 45>                          ****END OF INPUT****

CARTESIAN COORDINATES (ANGSTROEM)
---------------------------------
  C     14.936516   16.198768   17.324975
  C     15.565967   14.910599   16.755451
  O     16.867081   15.007907   16.112045
  C     18.012587   15.678696   16.477496
  O     19.092309   15.148916   16.291151
  C     17.913293   16.856836   17.379410
  C     17.436863   18.045226   16.945461
  C     16.946575   18.366374   15.549626
  N     17.456630   19.153466   17.794556
  C     18.000244   19.161242   19.053200
  S     17.994119   20.521620   19.993133
  N     18.550267   17.983430   19.498272
  C     18.553455   16.703801   18.760254
  C     17.904804   15.574571   19.560366
  C     18.393463   14.260517   19.435532
  C     17.799685   13.202166   20.142695
  C     16.705943   13.457068   20.986560
  C     16.215868   14.763007   21.117144
  O     15.154063   15.012027   21.923860
  C     16.808852   15.814891   20.411591
  H     15.482211   16.594067   18.184802
  H     13.922904   15.976484   17.680612
  H     14.840071   16.969874   16.554645
  H     15.654639   14.196347   17.585306
  H     14.863411   14.468860   16.037008
  H     16.690361   17.465505   14.979111
  H     17.723164   18.897422   14.984581
  H     16.052261   19.001060   15.573736
  H     17.082455   20.034223   17.478092
  H     18.932464   18.017928   20.435022
  H     19.605241   16.424902   18.597258
  H     19.233773   14.056122   18.774712
  H     18.187190   12.190634   20.031793
  H     16.243467   12.642011   21.533604
  H     14.920818   14.180456   22.363844
  H     16.403987   16.814976   20.527096

 Total Charge           Charge          ....    0
 Multiplicity           Mult            ....    1
 Number of Electrons    NEL             ....  154
 Basis Dimension        Dim             ....  828

ORBITAL ENERGIES
----------------

  NO   OCC          E(Eh)            E(eV)
   0   2.0000     -91.890206     -2500.4596
   1   2.0000     -20.601470      -560.5945
   2   2.0000     -20.594109      -560.3942
   3   2.0000     -20.549855      -559.1900
   4   2.0000     -15.626416      -425.2164
   5   2.0000     -15.612368      -424.8341
   6   2.0000     -11.398988      -310.1822
   7   2.0000     -11.387193      -309.8613
   8   2.0000     -11.326257      -308.2031
   9   2.0000     -11.318721      -307.9981
  10   2.0000     -11.316317      -307.9326
  11   2.0000     -11.309538      -307.7482
  12   2.0000     -11.266945      -306.5892
  13   2.0000     -11.265593      -306.5524
  14   2.0000     -11.261158      -306.4317
  15   2.0000     -11.258740      -306.3659
  16   2.0000     -11.247833      -306.0691
  17   2.0000     -11.244219      -305.9707
  18   2.0000     -11.240543      -305.8707
  19   2.0000     -11.235086      -305.7222
  20   2.0000      -8.895318      -242.0539
  21   2.0000      -6.576907      -178.9667
  22   2.0000      -6.574881      -178.9116
  23   2.0000      -6.574306      -178.8960
  24   2.0000      -1.441515       -39.2256
  25   2.0000      -1.421280       -38.6750
  26   2.0000      -1.353952       -36.8429
  27   2.0000      -1.339572       -36.4516
  28   2.0000      -1.239951       -33.7408
  29   2.0000      -1.162777       -31.6408
  30   2.0000      -1.125516       -30.6268
  31   2.0000      -1.049544       -28.5595
  32   2.0000      -1.039698       -28.2916
  33   2.0000      -1.020910       -27.7804
  34   2.0000      -1.004973       -27.3467
  35   2.0000      -0.990751       -26.9597
  36   2.0000      -0.928455       -25.2646
  37   2.0000      -0.899345       -24.4724
  38   2.0000      -0.852745       -23.2044
  39   2.0000      -0.842034       -22.9129
  40   2.0000      -0.838078       -22.8053
  41   2.0000      -0.830369       -22.5955
  42   2.0000      -0.748624       -20.3711
  43   2.0000      -0.734812       -19.9952
  44   2.0000      -0.729340       -19.8464
  45   2.0000      -0.699151       -19.0249
  46   2.0000      -0.687900       -18.7187
  47   2.0000      -0.676970       -18.4213
  48   2.0000      -0.675506       -18.3815
  49   2.0000      -0.662375       -18.0241
  50   2.0000      -0.655509       -17.8373
  51   2.0000      -0.651154       -17.7188
  52   2.0000      -0.639623       -17.4050
  53   2.0000      -0.614348       -16.7173
  54   2.0000      -0.607620       -16.5342
  55   2.0000      -0.605360       -16.4727
  56   2.0000      -0.601334       -16.3631
  57   2.0000      -0.594111       -16.1666
  58   2.0000      -0.580896       -15.8070
  59   2.0000      -0.577711       -15.7203
  60   2.0000      -0.567202       -15.4344
  61   2.0000      -0.557393       -15.1674
  62   2.0000      -0.541934       -14.7468
  63   2.0000      -0.532711       -14.4958
  64   2.0000      -0.521121       -14.1804
  65   2.0000      -0.514568       -14.0021
  66   2.0000      -0.503662       -13.7054
  67   2.0000      -0.497100       -13.5268
  68   2.0000      -0.487087       -13.2543
  69   2.0000      -0.466161       -12.6849
  70   2.0000      -0.454974       -12.3805
  71   2.0000      -0.448070       -12.1926
  72   2.0000      -0.355508        -9.6739
  73   2.0000      -0.351475        -9.5641
  74   2.0000      -0.329886        -8.9766
  75   2.0000      -0.326429        -8.8826
  76   2.0000      -0.318707        -8.6725
  77   0.0000       0.088807         2.4166
  78   0.0000       0.103753         2.8233
  79   0.0000       0.118435         3.2228
  80   0.0000       0.124256         3.3812
  81   0.0000       0.128469         3.4958

MULLIKEN ATOMIC CHARGES
-----------------------
   0 C :   -0.347154
   1 C :    0.049843
   2 O :   -0.345811
   3 C :    0.401942
   4 O :   -0.379100
   5 C :   -0.195982
   6 C :    0.145323
   7 C :   -0.324061
   8 N :   -0.138141
   9 C :    0.211788
  10 S :   -0.441847
  11 N :   -0.233553
  12 C :    0.112579
  13 C :    0.009989
  14 C :   -0.220707
  15 C :   -0.132893
  16 C :   -0.278262
  17 C :    0.324495
  18 O :   -0.355765
  19 C :   -0.284155
  20 H :    0.119390
  21 H :    0.129285
  22 H :    0.099837
  23 H :    0.104592
  24 H :    0.121203
  25 H :    0.121377
  26 H :    0.150449
  27 H :    0.109036
  28 H :    0.196209
  29 H :    0.203599
  30 H :    0.165644
  31 H :    0.175104
  32 H :    0.165942
  33 H :    0.133160
  34 H :    0.241816
  35 H :    0.184831
Sum of atomic charges:    0.0000000

LOEWDIN ATOMIC CHARGES
----------------------
   0 C :    0.104059
   1 C :   -0.009926
   2 O :    0.286110
   3 C :   -0.416573
   4 O :    0.126513
   5 C :   -0.083548
   6 C :   -0.098402
   7 C :    0.123728
   8 N :    0.403134
   9 C :   -0.454715
  10 S :   -0.038079
  11 N :    0.397784
  12 C :   -0.043792
  13 C :   -0.042695
  14 C :    0.021182
  15 C :    0.044167
  16 C :   -0.001314
  17 C :   -0.193685
  18 O :    0.395697
  19 C :    0.025823
  20 H :   -0.034878
  21 H :   -0.018923
  22 H :   -0.031944
  23 H :   -0.025864
  24 H :   -0.019672
  25 H :   -0.010779
  26 H :   -0.007680
  27 H :   -0.018511
  28 H :   -0.058029
  29 H :   -0.064399
  30 H :   -0.003052
  31 H :   -0.021274
  32 H :   -0.017876
  33 H :   -0.034396
  34 H :   -0.152743
  35 H :   -0.025448

  Mayer bond orders larger than 0.100000
B(  0-C ,  1-C ) :   0.9598 B(  0-C , 20-H ) :   0.9673 B(  0-C , 21-H ) :   0.9769
B(  0-C , 22-H ) :   0.9769 B(  1-C ,  2-O ) :   0.9042 B(  1-C , 23-H ) :   0.9739
B(  1-C , 24-H ) :   0.9813 B(  2-O ,  3-C ) :   1.1696 B(  3-C ,  4-O ) :   2.0958
B(  3-C ,  5-C ) :   0.9319 B(  5-C ,  6-C ) :   1.6884 B(  5-C , 12-C ) :   0.9455
B(  6-C ,  7-C ) :   0.9477 B(  6-C ,  8-N ) :   1.1167 B(  7-C , 25-H ) :   0.9781
B(  7-C , 26-H ) :   0.9645 B(  7-C , 27-H ) :   0.9735 B(  8-N ,  9-C ) :   1.2005
B(  8-N , 28-H ) :   0.9516 B(  9-C , 10-S ) :   1.6069 B(  9-C , 11-N ) :   1.2847
B( 11-N , 12-C ) :   0.9921 B( 11-N , 29-H ) :   0.9462 B( 12-C , 13-C ) :   0.9464
B( 12-C , 30-H ) :   0.9964 B( 13-C , 14-C ) :   1.3890 B( 13-C , 19-C ) :   1.3369
B( 14-C , 15-C ) :   1.4042 B( 14-C , 31-H ) :   0.9596 B( 15-C , 16-C ) :   1.3567
B( 15-C , 32-H ) :   0.9693 B( 16-C , 17-C ) :   1.3323 B( 16-C , 33-H ) :   0.9844
B( 17-C , 18-O ) :   1.1107 B( 17-C , 19-C ) :   1.3642 B( 18-O , 34-H ) :   0.9789
B( 19-C , 35-H ) :   0.9525

MP2 TOTAL ENERGY:    -1274.322968263 Eh
FINAL SINGLE POINT ENERGY     -1274.322968263293

DIPOLE MOMENT
-------------
                                X             Y             Z
Electronic contribution:      9.15067       5.36957       6.11011
Nuclear contribution   :    -10.62909      -6.63877      -6.46970
                        -----------------------------------------
Total Dipole Moment    :     -1.47842      -1.26921      -0.35959
                        -----------------------------------------
Magnitude (a.u.)       :      1.98139
Magnitude (Debye)      :      5.03630

Rotational constants in cm-1:     0.012424     0.009260     0.006844
Rotational constants in MHz :   372.470302   277.620192   205.182147

                             ****ORCA TERMINATED NORMALLY****
TOTAL RUN TIME: 0 days 2 hours 5 minutes 18 seconds 264 msec
