                         Program Version 5.0.0 -  RELEASE  -
|  1> ! ri-mp2 cc-pvtz cc-pvtz/c TightSCF NoKeepInts
|  2>
|  3> %scf
|  4>   MaxCore 4096
|  5> end
|  6> *xyz  0  1
|  7>     C       14.6936866   14.3331571   17.1963330
|  8>     C       15.6261592   15.4264805   16.6507924
|  9>     O       16.9697721   14.9484318   16.8055213
| 10>     C       18.0339905   15.7442574   16.4942881
| 11>     O       19.0844185   15.2040222   16.2041992
| 12>     C       18.0787605   16.9381892   17.3830296
| 13>     C       17.6086005   18.1360449   16.9744472
| 14>     C       16.9857456   18.4417578   15.6296255
| 15>     N       17.7049128   19.2450138   17.8176686
| 16>     C       18.3428979   19.2444768   19.0316440
| 17>     S       18.4627775   20.6161147   19.9474834
| 18>     N       18.8700599   18.0473900   19.4536687
| 19>     C       18.7197323   16.7532235   18.7574749
| 20>     C       17.9276605   15.7630064   19.6043838
| 21>     C       18.4017505   14.4513849   19.7887904
| 22>     C       17.6646121   13.5239428   20.5439002
| 23>     C       16.4406425   13.9093630   21.1167278
| 24>     C       15.9619313   15.2129132   20.9287085
| 25>     O       14.7724645   15.5833334   21.4660797
| 26>     C       16.6980032   16.1348956   20.1782256
| 27>     H       14.8214767   13.4001494   16.6332842
| 28>     H       13.6447164   14.6432005   17.1183821
| 29>     H       14.9153693   14.1306290   18.2518492
| 30>     H       15.4052925   15.6210201   15.5930553
| 31>     H       15.4670715   16.3470529   17.2269180
| 32>     H       17.3185021   17.7391858   14.8551897
| 33>     H       17.2650361   19.4443236   15.2810242
| 34>     H       15.8912337   18.3980219   15.6830961
| 35>     H       17.3328260   20.1347071   17.5245347
| 36>     H       19.3120087   18.0733337   20.3638468
| 37>     H       19.7261728   16.3395902   18.5967514
| 38>     H       19.3373287   14.1443397   19.3271615
| 39>     H       18.0389344   12.5099974   20.6736018
| 40>     H       15.8662044   13.1940195   21.6957867
| 41>     H       14.4480560   14.8370014   21.9925180
| 42>     H       16.3081923   17.1380287   20.0440085
| 43> *
| 44>
| 45>                          ****END OF INPUT****

CARTESIAN COORDINATES (ANGSTROEM)
---------------------------------
  C     14.693687   14.333157   17.196333
  C     15.626159   15.426480   16.650792
  O     16.969772   14.948432   16.805521
  C     18.033990   15.744257   16.494288
  O     19.084419   15.204022   16.204199
  C     18.078760   16.938189   17.383030
  C     17.608601   18.136045   16.974447
  C     16.985746   18.441758   15.629625
  N     17.704913   19.245014   17.817669
  C     18.342898   19.244477   19.031644
  S     18.462778   20.616115   19.947483
  N     18.870060   18.047390   19.453669
  C     18.719732   16.753224   18.757475
  C     17.927661   15.763006   19.604384
  C     18.401750   14.451385   19.788790
  C     17.664612   13.523943   20.543900
  C     16.440642   13.909363   21.116728
  C     15.961931   15.212913   20.928708
  O     14.772464   15.583333   21.466080
  C     16.698003   16.134896   20.178226
  H     14.821477   13.400149   16.633284
  H     13.644716   14.643201   17.118382
  H     14.915369   14.130629   18.251849
  H     15.405292   15.621020   15.593055
  H     15.467071   16.347053   17.226918
  H     17.318502   17.739186   14.855190
  H     17.265036   19.444324   15.281024
  H     15.891234   18.398022   15.683096
  H     17.332826   20.134707   17.524535
  H     19.312009   18.073334   20.363847
  H     19.726173   16.339590   18.596751
  H     19.337329   14.144340   19.327161
  H     18.038934   12.509997   20.673602
  H     15.866204   13.194019   21.695787
  H     14.448056   14.837001   21.992518
  H     16.308192   17.138029   20.044008

 Total Charge           Charge          ....    0
 Multiplicity           Mult            ....    1
 Number of Electrons    NEL             ....  154
 Basis Dimension        Dim             ....  828

ORBITAL ENERGIES
----------------

  NO   OCC          E(Eh)            E(eV)
   0   2.0000     -91.886620     -2500.3620
   1   2.0000     -20.600435      -560.5663
   2   2.0000     -20.599083      -560.5295
   3   2.0000     -20.561342      -559.5026
   4   2.0000     -15.621617      -425.0858
   5   2.0000     -15.609786      -424.7639
   6   2.0000     -11.394225      -310.0526
   7   2.0000     -11.383625      -309.7642
   8   2.0000     -11.319689      -308.0244
   9   2.0000     -11.315910      -307.9216
  10   2.0000     -11.315334      -307.9059
  11   2.0000     -11.304793      -307.6190
  12   2.0000     -11.268394      -306.6286
  13   2.0000     -11.262388      -306.4652
  14   2.0000     -11.261818      -306.4496
  15   2.0000     -11.255603      -306.2805
  16   2.0000     -11.244557      -305.9800
  17   2.0000     -11.240169      -305.8605
  18   2.0000     -11.238321      -305.8103
  19   2.0000     -11.231365      -305.6210
  20   2.0000      -8.891771      -241.9574
  21   2.0000      -6.573370      -178.8705
  22   2.0000      -6.571335      -178.8151
  23   2.0000      -6.570772      -178.7998
  24   2.0000      -1.458356       -39.6839
  25   2.0000      -1.418844       -38.6087
  26   2.0000      -1.365250       -37.1503
  27   2.0000      -1.336063       -36.3561
  28   2.0000      -1.236836       -33.6560
  29   2.0000      -1.159360       -31.5478
  30   2.0000      -1.123595       -30.5746
  31   2.0000      -1.047560       -28.5055
  32   2.0000      -1.040718       -28.3194
  33   2.0000      -1.017042       -27.6751
  34   2.0000      -1.002946       -27.2916
  35   2.0000      -0.986458       -26.8429
  36   2.0000      -0.926165       -25.2022
  37   2.0000      -0.881469       -23.9860
  38   2.0000      -0.852350       -23.1936
  39   2.0000      -0.839579       -22.8461
  40   2.0000      -0.835900       -22.7460
  41   2.0000      -0.835316       -22.7301
  42   2.0000      -0.759818       -20.6757
  43   2.0000      -0.736328       -20.0365
  44   2.0000      -0.730306       -19.8726
  45   2.0000      -0.697735       -18.9863
  46   2.0000      -0.690698       -18.7949
  47   2.0000      -0.683740       -18.6055
  48   2.0000      -0.676642       -18.4124
  49   2.0000      -0.661139       -17.9905
  50   2.0000      -0.655688       -17.8422
  51   2.0000      -0.646818       -17.6008
  52   2.0000      -0.637739       -17.3537
  53   2.0000      -0.612886       -16.6775
  54   2.0000      -0.610244       -16.6056
  55   2.0000      -0.605983       -16.4896
  56   2.0000      -0.601808       -16.3760
  57   2.0000      -0.586153       -15.9500
  58   2.0000      -0.577428       -15.7126
  59   2.0000      -0.565638       -15.3918
  60   2.0000      -0.560154       -15.2426
  61   2.0000      -0.550879       -14.9902
  62   2.0000      -0.544049       -14.8043
  63   2.0000      -0.528997       -14.3947
  64   2.0000      -0.521671       -14.1954
  65   2.0000      -0.512993       -13.9593
  66   2.0000      -0.503134       -13.6910
  67   2.0000      -0.500404       -13.6167
  68   2.0000      -0.490208       -13.3392
  69   2.0000      -0.466192       -12.6857
  70   2.0000      -0.459130       -12.4936
  71   2.0000      -0.453666       -12.3449
  72   2.0000      -0.353941        -9.6312
  73   2.0000      -0.349695        -9.5157
  74   2.0000      -0.326736        -8.8909
  75   2.0000      -0.322769        -8.7830
  76   2.0000      -0.314511        -8.5583
  77   0.0000       0.092078         2.5056
  78   0.0000       0.097653         2.6573
  79   0.0000       0.107591         2.9277
  80   0.0000       0.125447         3.4136
  81   0.0000       0.128172         3.4877

MULLIKEN ATOMIC CHARGES
-----------------------
   0 C :   -0.263002
   1 C :   -0.001160
   2 O :   -0.302202
   3 C :    0.381811
   4 O :   -0.355349
   5 C :   -0.145849
   6 C :    0.114214
   7 C :   -0.320762
   8 N :   -0.133188
   9 C :    0.209257
  10 S :   -0.446840
  11 N :   -0.207608
  12 C :    0.036202
  13 C :    0.044052
  14 C :   -0.175939
  15 C :   -0.129999
  16 C :   -0.274190
  17 C :    0.290919
  18 O :   -0.362534
  19 C :   -0.257056
  20 H :    0.103489
  21 H :    0.086715
  22 H :    0.113089
  23 H :    0.107091
  24 H :    0.092699
  25 H :    0.123167
  26 H :    0.125227
  27 H :    0.123038
  28 H :    0.194175
  29 H :    0.196384
  30 H :    0.164997
  31 H :    0.156979
  32 H :    0.161639
  33 H :    0.132779
  34 H :    0.241670
  35 H :    0.176084
Sum of atomic charges:   -0.0000000

LOEWDIN ATOMIC CHARGES
----------------------
   0 C :    0.113700
   1 C :   -0.034777
   2 O :    0.328909
   3 C :   -0.425724
   4 O :    0.147383
   5 C :   -0.079697
   6 C :   -0.116664
   7 C :    0.123383
   8 N :    0.398644
   9 C :   -0.454668
  10 S :   -0.042488
  11 N :    0.397359
  12 C :   -0.041037
  13 C :   -0.039175
  14 C :    0.023333
  15 C :    0.046028
  16 C :   -0.001302
  17 C :   -0.194068
  18 O :    0.394465
  19 C :    0.028954
  20 H :   -0.024790
  21 H :   -0.025935
  22 H :   -0.022535
  23 H :   -0.035953
  24 H :   -0.038716
  25 H :   -0.010117
  26 H :   -0.012151
  27 H :   -0.017499
  28 H :   -0.060744
  29 H :   -0.063872
  30 H :   -0.003078
  31 H :   -0.024663
  32 H :   -0.019205
  33 H :   -0.035285
  34 H :   -0.153325
  35 H :   -0.024692

  Mayer bond orders larger than 0.100000
B(  0-C ,  1-C ) :   0.9833 B(  0-C , 20-H ) :   0.9803 B(  0-C , 21-H ) :   0.9763
B(  0-C , 22-H ) :   0.9732 B(  1-C ,  2-O ) :   0.9203 B(  1-C , 23-H ) :   0.9774
B(  1-C , 24-H ) :   0.9637 B(  2-O ,  3-C ) :   1.1068 B(  3-C ,  4-O ) :   2.1105
B(  3-C ,  5-C ) :   0.9261 B(  5-C ,  6-C ) :   1.7237 B(  5-C , 12-C ) :   0.9701
B(  6-C ,  7-C ) :   0.9329 B(  6-C ,  8-N ) :   1.1012 B(  7-C , 25-H ) :   0.9814
B(  7-C , 26-H ) :   0.9790 B(  7-C , 27-H ) :   0.9659 B(  8-N ,  9-C ) :   1.2023
B(  8-N , 28-H ) :   0.9537 B(  9-C , 10-S ) :   1.6047 B(  9-C , 11-N ) :   1.2850
B( 11-N , 12-C ) :   0.9995 B( 11-N , 29-H ) :   0.9490 B( 12-C , 13-C ) :   0.9479
B( 12-C , 30-H ) :   0.9986 B( 13-C , 14-C ) :   1.3800 B( 13-C , 19-C ) :   1.3511
B( 14-C , 15-C ) :   1.3958 B( 14-C , 31-H ) :   0.9661 B( 15-C , 16-C ) :   1.3639
B( 15-C , 32-H ) :   0.9708 B( 16-C , 17-C ) :   1.3295 B( 16-C , 33-H ) :   0.9847
B( 17-C , 18-O ) :   1.1034 B( 17-C , 19-C ) :   1.3706 B( 18-O , 34-H ) :   0.9793
B( 19-C , 35-H ) :   0.9571

MP2 TOTAL ENERGY:    -1274.315674945 Eh
FINAL SINGLE POINT ENERGY     -1274.315674944598

DIPOLE MOMENT
-------------
                                X             Y             Z
Electronic contribution:     10.61220       8.38497       6.46339
Nuclear contribution   :    -12.23959      -9.62394      -7.13974
                        -----------------------------------------
Total Dipole Moment    :     -1.62739      -1.23897      -0.67635
                        -----------------------------------------
Magnitude (a.u.)       :      2.15428
Magnitude (Debye)      :      5.47574

Rotational constants in cm-1:     0.012647     0.008967     0.006872
Rotational constants in MHz :   379.160995   268.814136   206.026736

                             ****ORCA TERMINATED NORMALLY****
TOTAL RUN TIME: 0 days 2 hours 4 minutes 30 seconds 225 msec
