                         Program Version 4.2.0 -  RELEASE  -
|  1> ! ri-mp2 cc-pvtz cc-pvtz/c TightSCF  NoKeepInts
|  2>
|  3> %scf
|  4>   MaxCore 4096
|  5> end
|  6> *xyz  0  1
|  7>     C       15.1822802   14.1962410   17.1589730
|  8>     C       15.3793915   15.6211513   16.6094742
|  9>     O       16.5869534   15.6460962   15.8217978
| 10>     C       17.7926804   15.7127474   16.4603570
| 11>     O       18.5077480   14.7302945   16.5407622
| 12>     C       17.9767840   16.9107830   17.3416831
| 13>     C       17.5285685   18.1516734   17.0295023
| 14>     C       16.8310965   18.5818642   15.7559730
| 15>     N       17.7676714   19.2166767   17.9022354
| 16>     C       18.5373047   19.1426175   19.0337378
| 17>     S       18.8365168   20.4727384   19.9694081
| 18>     N       19.0436401   17.9073012   19.3534436
| 19>     C       18.7259173   16.6498970   18.6494963
| 20>     C       17.9160877   15.7174580   19.5450796
| 21>     C       18.3305547   14.3888608   19.7503106
| 22>     C       17.5718035   13.5175382   20.5495600
| 23>     C       16.3855508   13.9767857   21.1467025
| 24>     C       15.9670289   15.2981530   20.9409476
| 25>     O       14.8149053   15.7414430   21.5035887
| 26>     C       16.7251733   16.1638821   20.1466578
| 27>     H       15.9969580   13.9223644   17.8412297
| 28>     H       15.1603976   13.4655523   16.3407925
| 29>     H       14.2382652   14.1233803   17.7121420
| 30>     H       14.5254145   15.8714867   15.9670411
| 31>     H       15.4086346   16.3455192   17.4336126
| 32>     H       17.1927337   18.0109089   14.8912672
| 33>     H       17.0095925   19.6400946   15.5277906
| 34>     H       15.7474345   18.4330268   15.8293746
| 35>     H       17.4116025   20.1335949   17.6824232
| 36>     H       19.5858034   17.8769323   20.2076435
| 37>     H       19.6756170   16.1542625   18.3998948
| 38>     H       19.2350579   14.0240049   19.2689071
| 39>     H       17.9001881   12.4897178   20.6945952
| 40>     H       15.7942925   13.3050938   21.7602893
| 41>     H       14.4730039   15.0283518   22.0641780
| 42>     H       16.3843473   17.1835064   20.0031282
| 43> *
| 44>
| 45>                          ****END OF INPUT****

CARTESIAN COORDINATES (ANGSTROEM)
---------------------------------
  C     15.182280   14.196241   17.158973
  C     15.379392   15.621151   16.609474
  O     16.586953   15.646096   15.821798
  C     17.792680   15.712747   16.460357
  O     18.507748   14.730294   16.540762
  C     17.976784   16.910783   17.341683
  C     17.528568   18.151673   17.029502
  C     16.831097   18.581864   15.755973
  N     17.767671   19.216677   17.902235
  C     18.537305   19.142618   19.033738
  S     18.836517   20.472738   19.969408
  N     19.043640   17.907301   19.353444
  C     18.725917   16.649897   18.649496
  C     17.916088   15.717458   19.545080
  C     18.330555   14.388861   19.750311
  C     17.571803   13.517538   20.549560
  C     16.385551   13.976786   21.146702
  C     15.967029   15.298153   20.940948
  O     14.814905   15.741443   21.503589
  C     16.725173   16.163882   20.146658
  H     15.996958   13.922364   17.841230
  H     15.160398   13.465552   16.340792
  H     14.238265   14.123380   17.712142
  H     14.525415   15.871487   15.967041
  H     15.408635   16.345519   17.433613
  H     17.192734   18.010909   14.891267
  H     17.009592   19.640095   15.527791
  H     15.747435   18.433027   15.829375
  H     17.411603   20.133595   17.682423
  H     19.585803   17.876932   20.207643
  H     19.675617   16.154263   18.399895
  H     19.235058   14.024005   19.268907
  H     17.900188   12.489718   20.694595
  H     15.794292   13.305094   21.760289
  H     14.473004   15.028352   22.064178
  H     16.384347   17.183506   20.003128

 Total Charge           Charge          ....    0
 Multiplicity           Mult            ....    1
 Number of Electrons    NEL             ....  154
 Basis Dimension        Dim             ....  828

ORBITAL ENERGIES
----------------

  NO   OCC          E(Eh)            E(eV)
   0   2.0000     -91.891101     -2500.4840
   1   2.0000     -20.599327      -560.5362
   2   2.0000     -20.588267      -560.2352
   3   2.0000     -20.553857      -559.2989
   4   2.0000     -15.630747      -425.3342
   5   2.0000     -15.610879      -424.7936
   6   2.0000     -11.394889      -310.0707
   7   2.0000     -11.386964      -309.8550
   8   2.0000     -11.336298      -308.4763
   9   2.0000     -11.315707      -307.9160
  10   2.0000     -11.310995      -307.7878
  11   2.0000     -11.303577      -307.5860
  12   2.0000     -11.264709      -306.5283
  13   2.0000     -11.262036      -306.4556
  14   2.0000     -11.261172      -306.4321
  15   2.0000     -11.255408      -306.2752
  16   2.0000     -11.245063      -305.9937
  17   2.0000     -11.241489      -305.8965
  18   2.0000     -11.238112      -305.8046
  19   2.0000     -11.222304      -305.3744
  20   2.0000      -8.896179      -242.0773
  21   2.0000      -6.577755      -178.9898
  22   2.0000      -6.575744      -178.9351
  23   2.0000      -6.575158      -178.9191
  24   2.0000      -1.449089       -39.4317
  25   2.0000      -1.419100       -38.6157
  26   2.0000      -1.358728       -36.9729
  27   2.0000      -1.342187       -36.5228
  28   2.0000      -1.240563       -33.7574
  29   2.0000      -1.160090       -31.5676
  30   2.0000      -1.124247       -30.5923
  31   2.0000      -1.047297       -28.4984
  32   2.0000      -1.031596       -28.0712
  33   2.0000      -1.017428       -27.6856
  34   2.0000      -1.003567       -27.3084
  35   2.0000      -0.988538       -26.8995
  36   2.0000      -0.926800       -25.2195
  37   2.0000      -0.885068       -24.0839
  38   2.0000      -0.853931       -23.2367
  39   2.0000      -0.842078       -22.9141
  40   2.0000      -0.835854       -22.7447
  41   2.0000      -0.832345       -22.6493
  42   2.0000      -0.748352       -20.3637
  43   2.0000      -0.735576       -20.0160
  44   2.0000      -0.730689       -19.8831
  45   2.0000      -0.697464       -18.9790
  46   2.0000      -0.687588       -18.7102
  47   2.0000      -0.680003       -18.5038
  48   2.0000      -0.676554       -18.4100
  49   2.0000      -0.664954       -18.0943
  50   2.0000      -0.653169       -17.7736
  51   2.0000      -0.649234       -17.6666
  52   2.0000      -0.639856       -17.4114
  53   2.0000      -0.611347       -16.6356
  54   2.0000      -0.608487       -16.5578
  55   2.0000      -0.604405       -16.4467
  56   2.0000      -0.599749       -16.3200
  57   2.0000      -0.581292       -15.8177
  58   2.0000      -0.576869       -15.6974
  59   2.0000      -0.570164       -15.5150
  60   2.0000      -0.558590       -15.2000
  61   2.0000      -0.555309       -15.1107
  62   2.0000      -0.540081       -14.6963
  63   2.0000      -0.526965       -14.3395
  64   2.0000      -0.519926       -14.1479
  65   2.0000      -0.513400       -13.9703
  66   2.0000      -0.502297       -13.6682
  67   2.0000      -0.492763       -13.4088
  68   2.0000      -0.487270       -13.2593
  69   2.0000      -0.469145       -12.7661
  70   2.0000      -0.459676       -12.5084
  71   2.0000      -0.447932       -12.1889
  72   2.0000      -0.357466        -9.7271
  73   2.0000      -0.351580        -9.5670
  74   2.0000      -0.330466        -8.9924
  75   2.0000      -0.323089        -8.7917
  76   2.0000      -0.318914        -8.6781
  77   0.0000       0.071822         1.9544
  78   0.0000       0.102689         2.7943
  79   0.0000       0.117645         3.2013
  80   0.0000       0.128342         3.4924
  81   0.0000       0.136617         3.7175

MULLIKEN ATOMIC CHARGES
-----------------------
   0 C :   -0.271825
   1 C :   -0.002834
   2 O :   -0.358349
   3 C :    0.453409
   4 O :   -0.385255
   5 C :   -0.243996
   6 C :    0.162117
   7 C :   -0.296446
   8 N :   -0.127338
   9 C :    0.201238
  10 S :   -0.437452
  11 N :   -0.203419
  12 C :    0.062791
  13 C :    0.037316
  14 C :   -0.171467
  15 C :   -0.131991
  16 C :   -0.276280
  17 C :    0.317111
  18 O :   -0.360666
  19 C :   -0.293616
  20 H :    0.110625
  21 H :    0.109428
  22 H :    0.091216
  23 H :    0.120591
  24 H :    0.099185
  25 H :    0.137317
  26 H :    0.114709
  27 H :    0.120662
  28 H :    0.197532
  29 H :    0.195364
  30 H :    0.157632
  31 H :    0.160348
  32 H :    0.162844
  33 H :    0.131882
  34 H :    0.241988
  35 H :    0.175627
Sum of atomic charges:    0.0000000

LOEWDIN ATOMIC CHARGES
----------------------
   0 C :    0.109736
   1 C :   -0.024875
   2 O :    0.292194
   3 C :   -0.419257
   4 O :    0.130705
   5 C :   -0.093996
   6 C :   -0.080123
   7 C :    0.128257
   8 N :    0.403948
   9 C :   -0.457557
  10 S :   -0.034416
  11 N :    0.397229
  12 C :   -0.046099
  13 C :   -0.043466
  14 C :    0.022241
  15 C :    0.043499
  16 C :   -0.000138
  17 C :   -0.193518
  18 O :    0.394008
  19 C :    0.027896
  20 H :   -0.023919
  21 H :   -0.023545
  22 H :   -0.027564
  23 H :   -0.025522
  24 H :   -0.039303
  25 H :   -0.005724
  26 H :   -0.016327
  27 H :   -0.013263
  28 H :   -0.058008
  29 H :   -0.063525
  30 H :   -0.003849
  31 H :   -0.023256
  32 H :   -0.019317
  33 H :   -0.034887
  34 H :   -0.152987
  35 H :   -0.025269

  Mayer bond orders larger than 0.100000
B(  0-C ,  1-C ) :   0.9841 B(  0-C , 20-H ) :   0.9678 B(  0-C , 21-H ) :   0.9783
B(  0-C , 22-H ) :   0.9759 B(  1-C ,  2-O ) :   0.8944 B(  1-C , 23-H ) :   0.9789
B(  1-C , 24-H ) :   0.9625 B(  2-O ,  3-C ) :   1.1265 B(  3-C ,  4-O ) :   2.0729
B(  3-C ,  5-C ) :   0.9665 B(  5-C ,  6-C ) :   1.6648 B(  5-C , 12-C ) :   0.9644
B(  6-C ,  7-C ) :   0.9482 B(  6-C ,  8-N ) :   1.1392 B(  7-C , 25-H ) :   0.9697
B(  7-C , 26-H ) :   0.9846 B(  7-C , 27-H ) :   0.9636 B(  8-N ,  9-C ) :   1.1845
B(  8-N , 28-H ) :   0.9497 B(  9-C , 10-S ) :   1.6135 B(  9-C , 11-N ) :   1.2977
B( 11-N , 12-C ) :   0.9963 B( 11-N , 29-H ) :   0.9513 B( 12-C , 13-C ) :   0.9418
B( 12-C , 30-H ) :   0.9980 B( 13-C , 14-C ) :   1.3838 B( 13-C , 19-C ) :   1.3523
B( 14-C , 15-C ) :   1.3923 B( 14-C , 31-H ) :   0.9629 B( 15-C , 16-C ) :   1.3631
B( 15-C , 32-H ) :   0.9709 B( 16-C , 17-C ) :   1.3313 B( 16-C , 33-H ) :   0.9846
B( 17-C , 18-O ) :   1.1093 B( 17-C , 19-C ) :   1.3686 B( 18-O , 34-H ) :   0.9792
B( 19-C , 35-H ) :   0.9570

MP2 TOTAL ENERGY:    -1274.334239035 Eh
FINAL SINGLE POINT ENERGY     -1274.334239035066

DIPOLE MOMENT
-------------
                                X             Y             Z
Electronic contribution:     10.06906       8.76054       5.55818
Nuclear contribution   :    -11.52022      -9.65885      -5.89733
                        -----------------------------------------
Total Dipole Moment    :     -1.45116      -0.89831      -0.33915
                        -----------------------------------------
Magnitude (a.u.)       :      1.74007
Magnitude (Debye)      :      4.42290

Rotational constants in cm-1:     0.012501     0.009253     0.006837
Rotational constants in MHz :   374.761073   277.385859   204.957429

                             ****ORCA TERMINATED NORMALLY****
TOTAL RUN TIME: 0 days 1 hours 52 minutes 23 seconds 906 msec
