                         Program Version 5.0.0 -  RELEASE  -
|  1> ! ri-mp2 cc-pvtz cc-pvtz/c TightSCF NoKeepInts
|  2>
|  3> %scf
|  4>   MaxCore 4096
|  5> end
|  6> *xyz  0  1
|  7>     C       14.9826523   14.3672461   16.8327980
|  8>     C       16.4351100   13.9367962   16.5242120
|  9>     O       17.3859192   15.0298548   16.5120492
| 10>     C       17.0359151   16.3451543   16.3708037
| 11>     O       16.2401211   16.7204518   15.5275614
| 12>     C       17.7040846   17.2392232   17.3789691
| 13>     C       17.5562429   18.5884198   17.3653487
| 14>     C       16.7435320   19.4119126   16.3892210
| 15>     N       18.2194348   19.3766146   18.3104603
| 16>     C       19.1091805   18.9065778   19.2388507
| 17>     S       19.9119054   19.9182734   20.2723078
| 18>     N       19.3041012   17.5494913   19.2681247
| 19>     C       18.5564323   16.5639540   18.4665313
| 20>     C       17.7178405   15.6839083   19.3889378
| 21>     C       18.0885277   14.3470965   19.6270382
| 22>     C       17.3122083   13.5282179   20.4641948
| 23>     C       16.1580130   14.0512276   21.0717393
| 24>     C       15.7912044   15.3846952   20.8442008
| 25>     O       14.6778052   15.8928200   21.4295539
| 26>     C       16.5656813   16.1972174   20.0106217
| 27>     H       14.9383566   14.9884434   17.7360264
| 28>     H       14.3573066   13.4829363   17.0037757
| 29>     H       14.5404602   14.9229135   15.9968675
| 30>     H       16.7575609   13.1956359   17.2666314
| 31>     H       16.4464942   13.4444803   15.5431389
| 32>     H       17.0753587   19.2281561   15.3593427
| 33>     H       16.8166112   20.4903591   16.5718947
| 34>     H       15.6823381   19.1371385   16.4440997
| 35>     H       18.0900908   20.3757560   18.3030126
| 36>     H       19.9374953   17.2303277   19.9897468
| 37>     H       19.2955235   15.9284464   17.9585578
| 38>     H       18.9783913   13.9393943   19.1547327
| 39>     H       17.6061355   12.4949841   20.6412281
| 40>     H       15.5552578   13.4230471   21.7194671
| 41>     H       14.3058376   15.2025632   21.9989555
| 42>     H       16.2678700   17.2282652   19.8529980
| 43> *
| 44>
| 45>                          ****END OF INPUT****

CARTESIAN COORDINATES (ANGSTROEM)
---------------------------------
  C     14.982652   14.367246   16.832798
  C     16.435110   13.936796   16.524212
  O     17.385919   15.029855   16.512049
  C     17.035915   16.345154   16.370804
  O     16.240121   16.720452   15.527561
  C     17.704085   17.239223   17.378969
  C     17.556243   18.588420   17.365349
  C     16.743532   19.411913   16.389221
  N     18.219435   19.376615   18.310460
  C     19.109181   18.906578   19.238851
  S     19.911905   19.918273   20.272308
  N     19.304101   17.549491   19.268125
  C     18.556432   16.563954   18.466531
  C     17.717841   15.683908   19.388938
  C     18.088528   14.347096   19.627038
  C     17.312208   13.528218   20.464195
  C     16.158013   14.051228   21.071739
  C     15.791204   15.384695   20.844201
  O     14.677805   15.892820   21.429554
  C     16.565681   16.197217   20.010622
  H     14.938357   14.988443   17.736026
  H     14.357307   13.482936   17.003776
  H     14.540460   14.922913   15.996868
  H     16.757561   13.195636   17.266631
  H     16.446494   13.444480   15.543139
  H     17.075359   19.228156   15.359343
  H     16.816611   20.490359   16.571895
  H     15.682338   19.137138   16.444100
  H     18.090091   20.375756   18.303013
  H     19.937495   17.230328   19.989747
  H     19.295524   15.928446   17.958558
  H     18.978391   13.939394   19.154733
  H     17.606136   12.494984   20.641228
  H     15.555258   13.423047   21.719467
  H     14.305838   15.202563   21.998956
  H     16.267870   17.228265   19.852998

 Total Charge           Charge          ....    0
 Multiplicity           Mult            ....    1
 Number of Electrons    NEL             ....  154
 Basis Dimension        Dim             ....  828

ORBITAL ENERGIES
----------------

  NO   OCC          E(Eh)            E(eV)
   0   2.0000     -91.889248     -2500.4336
   1   2.0000     -20.600049      -560.5558
   2   2.0000     -20.589639      -560.2726
   3   2.0000     -20.541953      -558.9750
   4   2.0000     -15.629368      -425.2967
   5   2.0000     -15.608767      -424.7362
   6   2.0000     -11.394221      -310.0525
   7   2.0000     -11.384414      -309.7856
   8   2.0000     -11.336097      -308.4709
   9   2.0000     -11.317440      -307.9632
  10   2.0000     -11.309576      -307.7492
  11   2.0000     -11.299261      -307.4685
  12   2.0000     -11.262999      -306.4818
  13   2.0000     -11.259220      -306.3789
  14   2.0000     -11.258193      -306.3510
  15   2.0000     -11.252239      -306.1890
  16   2.0000     -11.246689      -306.0380
  17   2.0000     -11.241652      -305.9009
  18   2.0000     -11.241437      -305.8951
  19   2.0000     -11.222845      -305.3891
  20   2.0000      -8.894312      -242.0265
  21   2.0000      -6.575886      -178.9390
  22   2.0000      -6.573881      -178.8844
  23   2.0000      -6.573295      -178.8684
  24   2.0000      -1.443044       -39.2672
  25   2.0000      -1.419733       -38.6329
  26   2.0000      -1.351199       -36.7680
  27   2.0000      -1.340424       -36.4748
  28   2.0000      -1.239142       -33.7188
  29   2.0000      -1.160804       -31.5871
  30   2.0000      -1.120820       -30.4991
  31   2.0000      -1.044739       -28.4288
  32   2.0000      -1.032708       -28.1014
  33   2.0000      -1.018815       -27.7234
  34   2.0000      -0.996592       -27.1186
  35   2.0000      -0.984995       -26.8031
  36   2.0000      -0.923842       -25.1390
  37   2.0000      -0.896986       -24.4082
  38   2.0000      -0.848050       -23.0766
  39   2.0000      -0.840624       -22.8745
  40   2.0000      -0.837321       -22.7847
  41   2.0000      -0.817784       -22.2530
  42   2.0000      -0.744529       -20.2597
  43   2.0000      -0.733509       -19.9598
  44   2.0000      -0.720959       -19.6183
  45   2.0000      -0.698779       -19.0148
  46   2.0000      -0.689267       -18.7559
  47   2.0000      -0.673947       -18.3390
  48   2.0000      -0.671543       -18.2736
  49   2.0000      -0.659356       -17.9420
  50   2.0000      -0.652580       -17.7576
  51   2.0000      -0.642522       -17.4839
  52   2.0000      -0.636592       -17.3225
  53   2.0000      -0.619844       -16.8668
  54   2.0000      -0.610387       -16.6095
  55   2.0000      -0.602944       -16.4069
  56   2.0000      -0.600217       -16.3327
  57   2.0000      -0.580075       -15.7846
  58   2.0000      -0.571288       -15.5455
  59   2.0000      -0.566895       -15.4260
  60   2.0000      -0.552135       -15.0244
  61   2.0000      -0.541973       -14.7478
  62   2.0000      -0.534605       -14.5474
  63   2.0000      -0.527742       -14.3606
  64   2.0000      -0.521890       -14.2014
  65   2.0000      -0.514376       -13.9969
  66   2.0000      -0.502459       -13.6726
  67   2.0000      -0.497222       -13.5301
  68   2.0000      -0.487380       -13.2623
  69   2.0000      -0.463925       -12.6240
  70   2.0000      -0.454219       -12.3599
  71   2.0000      -0.441814       -12.0224
  72   2.0000      -0.354487        -9.6461
  73   2.0000      -0.352328        -9.5873
  74   2.0000      -0.329159        -8.9569
  75   2.0000      -0.324940        -8.8421
  76   2.0000      -0.316842        -8.6217
  77   0.0000       0.074507         2.0274
  78   0.0000       0.101744         2.7686
  79   0.0000       0.123261         3.3541
  80   0.0000       0.130990         3.5644
  81   0.0000       0.135640         3.6910

MULLIKEN ATOMIC CHARGES
-----------------------
   0 C :   -0.320984
   1 C :    0.037291
   2 O :   -0.380746
   3 C :    0.473374
   4 O :   -0.422037
   5 C :   -0.250935
   6 C :    0.162241
   7 C :   -0.271493
   8 N :   -0.122292
   9 C :    0.213770
  10 S :   -0.440559
  11 N :   -0.208547
  12 C :    0.075660
  13 C :    0.065817
  14 C :   -0.208054
  15 C :   -0.122600
  16 C :   -0.278107
  17 C :    0.325615
  18 O :   -0.359366
  19 C :   -0.288783
  20 H :    0.105639
  21 H :    0.100604
  22 H :    0.127753
  23 H :    0.105999
  24 H :    0.116510
  25 H :    0.132404
  26 H :    0.095316
  27 H :    0.130906
  28 H :    0.197288
  29 H :    0.195397
  30 H :    0.150324
  31 H :    0.155057
  32 H :    0.164745
  33 H :    0.132476
  34 H :    0.241322
  35 H :    0.168998
Sum of atomic charges:    0.0000000

LOEWDIN ATOMIC CHARGES
----------------------
   0 C :    0.105163
   1 C :   -0.010978
   2 O :    0.291837
   3 C :   -0.417395
   4 O :    0.106657
   5 C :   -0.096846
   6 C :   -0.058876
   7 C :    0.131632
   8 N :    0.406770
   9 C :   -0.455714
  10 S :   -0.035660
  11 N :    0.396225
  12 C :   -0.052041
  13 C :   -0.038178
  14 C :    0.015987
  15 C :    0.039860
  16 C :   -0.001883
  17 C :   -0.190059
  18 O :    0.396274
  19 C :    0.031134
  20 H :   -0.028590
  21 H :   -0.025613
  22 H :   -0.025469
  23 H :   -0.028830
  24 H :   -0.028676
  25 H :   -0.003464
  26 H :   -0.023423
  27 H :   -0.004961
  28 H :   -0.057507
  29 H :   -0.064826
  30 H :   -0.010435
  31 H :   -0.029368
  32 H :   -0.020696
  33 H :   -0.034985
  34 H :   -0.153107
  35 H :   -0.023958

  Mayer bond orders larger than 0.100000
B(  0-C ,  1-C ) :   0.9600 B(  0-C , 20-H ) :   0.9714 B(  0-C , 21-H ) :   0.9765
B(  0-C , 22-H ) :   0.9725 B(  1-C ,  2-O ) :   0.8868 B(  1-C , 23-H ) :   0.9767
B(  1-C , 24-H ) :   0.9856 B(  2-O ,  3-C ) :   1.1355 B(  3-C ,  4-O ) :   1.9946
B(  3-C ,  5-C ) :   1.0502 B(  5-C ,  6-C ) :   1.6491 B(  5-C , 12-C ) :   0.9697
B(  6-C ,  7-C ) :   0.9656 B(  6-C ,  8-N ) :   1.1634 B(  7-C , 25-H ) :   0.9601
B(  7-C , 26-H ) :   0.9903 B(  7-C , 27-H ) :   0.9605 B(  8-N ,  9-C ) :   1.1839
B(  8-N , 28-H ) :   0.9478 B(  9-C , 10-S ) :   1.6053 B(  9-C , 11-N ) :   1.3072
B( 11-N , 12-C ) :   0.9810 B( 11-N , 29-H ) :   0.9515 B( 12-C , 13-C ) :   0.9385
B( 12-C , 30-H ) :   1.0014 B( 13-C , 14-C ) :   1.3464 B( 13-C , 19-C ) :   1.3737
B( 14-C , 15-C ) :   1.3837 B( 14-C , 31-H ) :   0.9727 B( 15-C , 16-C ) :   1.3645
B( 15-C , 32-H ) :   0.9694 B( 16-C , 17-C ) :   1.3305 B( 16-C , 33-H ) :   0.9840
B( 17-C , 18-O ) :   1.1078 B( 17-C , 19-C ) :   1.3641 B( 18-O , 34-H ) :   0.9794
B( 19-C , 35-H ) :   0.9596

MP2 TOTAL ENERGY:    -1274.340495931 Eh
FINAL SINGLE POINT ENERGY     -1274.340495930988

DIPOLE MOMENT
-------------
                                X             Y             Z
Electronic contribution:     10.04759       9.56107       6.20900
Nuclear contribution   :    -11.05251     -11.28987      -6.30037
                        -----------------------------------------
Total Dipole Moment    :     -1.00492      -1.72880      -0.09137
                        -----------------------------------------
Magnitude (a.u.)       :      2.00174
Magnitude (Debye)      :      5.08802

Rotational constants in cm-1:     0.012743     0.008763     0.006470
Rotational constants in MHz :   382.022718   262.704083   193.969203

                             ****ORCA TERMINATED NORMALLY****
TOTAL RUN TIME: 0 days 2 hours 8 minutes 30 seconds 768 msec
