                         Program Version 5.0.0 -  RELEASE  -
|  1> ! ri-mp2 cc-pvtz cc-pvtz/c TightSCF NoKeepInts
|  2>
|  3> %scf
|  4>   MaxCore 4096
|  5> end
|  6> *xyz  0  1
|  7>     C       15.4767201   13.7585295   15.2569232
|  8>     C       15.0557122   14.9883968   16.0908457
|  9>     O       16.0936055   15.9922353   16.1375340
| 10>     C       17.3128290   15.7710604   16.7193274
| 11>     O       17.7771329   14.6559027   16.8836708
| 12>     C       17.7696704   16.9297948   17.5578594
| 13>     C       17.4445971   18.2268940   17.3191302
| 14>     C       16.6083254   18.7809122   16.1837973
| 15>     N       17.9704791   19.2362081   18.1321329
| 16>     C       18.9317917   19.0490105   19.0900891
| 17>     S       19.5922783   20.3171574   19.9214966
| 18>     N       19.3188170   17.7535847   19.3228312
| 19>     C       18.6711926   16.5622339   18.7420249
| 20>     C       17.8869658   15.8061578   19.8115939
| 21>     C       18.1325652   14.4400876   20.0430911
| 22>     C       17.4105857   13.7379454   21.0227038
| 23>     C       16.4330837   14.4067440   21.7788781
| 24>     C       16.1823034   15.7662610   21.5488769
| 25>     O       15.2342185   16.4132582   22.2726895
| 26>     C       16.9021070   16.4622545   20.5726960
| 27>     H       15.9662392   14.0679227   14.3252767
| 28>     H       14.5964296   13.1588381   14.9963631
| 29>     H       16.1617163   13.1071737   15.8125386
| 30>     H       14.1607086   15.4323541   15.6366196
| 31>     H       14.7925458   14.6702171   17.1086229
| 32>     H       16.8876066   18.3172834   15.2294245
| 33>     H       16.7300531   19.8639126   16.0602849
| 34>     H       15.5430706   18.5827988   16.3559146
| 35>     H       17.6992851   20.1938709   17.9761015
| 36>     H       20.0065970   17.6396232   20.0562183
| 37>     H       19.4660536   15.9018111   18.3662329
| 38>     H       18.8756249   13.9163059   19.4465949
| 39>     H       17.6064938   12.6799638   21.1873451
| 40>     H       15.8720191   13.8678874   22.5350168
| 41>     H       14.8833181   15.7826888   22.9192480
| 42>     H       16.6942579   17.5147195   20.4140056
| 43> *
| 44>
| 45>                          ****END OF INPUT****

CARTESIAN COORDINATES (ANGSTROEM)
---------------------------------
  C     15.476720   13.758529   15.256923
  C     15.055712   14.988397   16.090846
  O     16.093605   15.992235   16.137534
  C     17.312829   15.771060   16.719327
  O     17.777133   14.655903   16.883671
  C     17.769670   16.929795   17.557859
  C     17.444597   18.226894   17.319130
  C     16.608325   18.780912   16.183797
  N     17.970479   19.236208   18.132133
  C     18.931792   19.049010   19.090089
  S     19.592278   20.317157   19.921497
  N     19.318817   17.753585   19.322831
  C     18.671193   16.562234   18.742025
  C     17.886966   15.806158   19.811594
  C     18.132565   14.440088   20.043091
  C     17.410586   13.737945   21.022704
  C     16.433084   14.406744   21.778878
  C     16.182303   15.766261   21.548877
  O     15.234219   16.413258   22.272689
  C     16.902107   16.462255   20.572696
  H     15.966239   14.067923   14.325277
  H     14.596430   13.158838   14.996363
  H     16.161716   13.107174   15.812539
  H     14.160709   15.432354   15.636620
  H     14.792546   14.670217   17.108623
  H     16.887607   18.317283   15.229425
  H     16.730053   19.863913   16.060285
  H     15.543071   18.582799   16.355915
  H     17.699285   20.193871   17.976101
  H     20.006597   17.639623   20.056218
  H     19.466054   15.901811   18.366233
  H     18.875625   13.916306   19.446595
  H     17.606494   12.679964   21.187345
  H     15.872019   13.867887   22.535017
  H     14.883318   15.782689   22.919248
  H     16.694258   17.514719   20.414006

 Total Charge           Charge          ....    0
 Multiplicity           Mult            ....    1
 Number of Electrons    NEL             ....  154
 Basis Dimension        Dim             ....  828

ORBITAL ENERGIES
----------------

  NO   OCC          E(Eh)            E(eV)
   0   2.0000     -91.887471     -2500.3852
   1   2.0000     -20.596367      -560.4556
   2   2.0000     -20.592604      -560.3532
   3   2.0000     -20.549862      -559.1902
   4   2.0000     -15.627092      -425.2348
   5   2.0000     -15.606532      -424.6753
   6   2.0000     -11.397633      -310.1454
   7   2.0000     -11.382554      -309.7350
   8   2.0000     -11.333205      -308.3922
   9   2.0000     -11.308566      -307.7217
  10   2.0000     -11.306184      -307.6569
  11   2.0000     -11.303635      -307.5875
  12   2.0000     -11.259383      -306.3834
  13   2.0000     -11.258321      -306.3545
  14   2.0000     -11.254384      -306.2474
  15   2.0000     -11.248815      -306.0958
  16   2.0000     -11.238397      -305.8123
  17   2.0000     -11.234306      -305.7010
  18   2.0000     -11.231549      -305.6260
  19   2.0000     -11.221389      -305.3495
  20   2.0000      -8.892546      -241.9785
  21   2.0000      -6.574126      -178.8911
  22   2.0000      -6.572116      -178.8364
  23   2.0000      -6.571533      -178.8205
  24   2.0000      -1.450175       -39.4613
  25   2.0000      -1.412346       -38.4319
  26   2.0000      -1.358190       -36.9582
  27   2.0000      -1.338348       -36.4183
  28   2.0000      -1.236342       -33.6426
  29   2.0000      -1.152835       -31.3702
  30   2.0000      -1.119147       -30.4535
  31   2.0000      -1.042028       -28.3550
  32   2.0000      -1.032813       -28.1043
  33   2.0000      -1.010315       -27.4921
  34   2.0000      -0.996703       -27.1217
  35   2.0000      -0.982075       -26.7236
  36   2.0000      -0.921352       -25.0713
  37   2.0000      -0.891890       -24.2696
  38   2.0000      -0.847336       -23.0572
  39   2.0000      -0.836155       -22.7529
  40   2.0000      -0.828901       -22.5556
  41   2.0000      -0.819632       -22.3033
  42   2.0000      -0.747660       -20.3449
  43   2.0000      -0.730636       -19.8816
  44   2.0000      -0.725482       -19.7414
  45   2.0000      -0.691474       -18.8160
  46   2.0000      -0.684736       -18.6326
  47   2.0000      -0.680367       -18.5137
  48   2.0000      -0.670770       -18.2526
  49   2.0000      -0.663995       -18.0682
  50   2.0000      -0.645407       -17.5624
  51   2.0000      -0.641755       -17.4630
  52   2.0000      -0.633661       -17.2428
  53   2.0000      -0.603890       -16.4327
  54   2.0000      -0.600376       -16.3371
  55   2.0000      -0.597390       -16.2558
  56   2.0000      -0.595300       -16.1989
  57   2.0000      -0.586900       -15.9704
  58   2.0000      -0.573407       -15.6032
  59   2.0000      -0.569262       -15.4904
  60   2.0000      -0.559950       -15.2370
  61   2.0000      -0.545383       -14.8406
  62   2.0000      -0.535630       -14.5752
  63   2.0000      -0.519337       -14.1319
  64   2.0000      -0.518007       -14.0957
  65   2.0000      -0.510605       -13.8943
  66   2.0000      -0.501353       -13.6425
  67   2.0000      -0.495581       -13.4855
  68   2.0000      -0.479645       -13.0518
  69   2.0000      -0.461846       -12.5675
  70   2.0000      -0.457465       -12.4482
  71   2.0000      -0.448265       -12.1979
  72   2.0000      -0.352996        -9.6055
  73   2.0000      -0.344704        -9.3799
  74   2.0000      -0.326720        -8.8905
  75   2.0000      -0.315878        -8.5955
  76   2.0000      -0.314154        -8.5486
  77   0.0000       0.075854         2.0641
  78   0.0000       0.110842         3.0162
  79   0.0000       0.121423         3.3041
  80   0.0000       0.135296         3.6816
  81   0.0000       0.139991         3.8093

MULLIKEN ATOMIC CHARGES
-----------------------
   0 C :   -0.293988
   1 C :    0.049254
   2 O :   -0.361226
   3 C :    0.435911
   4 O :   -0.419919
   5 C :   -0.147397
   6 C :    0.135756
   7 C :   -0.284581
   8 N :   -0.122612
   9 C :    0.202115
  10 S :   -0.440950
  11 N :   -0.198475
  12 C :    0.039822
  13 C :    0.053371
  14 C :   -0.164506
  15 C :   -0.134001
  16 C :   -0.279947
  17 C :    0.311302
  18 O :   -0.358658
  19 C :   -0.271505
  20 H :    0.093362
  21 H :    0.092961
  22 H :    0.125632
  23 H :    0.099373
  24 H :    0.093332
  25 H :    0.123643
  26 H :    0.102019
  27 H :    0.126766
  28 H :    0.196727
  29 H :    0.193576
  30 H :    0.154629
  31 H :    0.154382
  32 H :    0.159545
  33 H :    0.128602
  34 H :    0.240101
  35 H :    0.165586
Sum of atomic charges:   -0.0000000

LOEWDIN ATOMIC CHARGES
----------------------
   0 C :    0.103839
   1 C :   -0.012069
   2 O :    0.292941
   3 C :   -0.411019
   4 O :    0.119908
   5 C :   -0.090795
   6 C :   -0.070187
   7 C :    0.125020
   8 N :    0.404178
   9 C :   -0.458439
  10 S :   -0.037302
  11 N :    0.397459
  12 C :   -0.045861
  13 C :   -0.039093
  14 C :    0.020960
  15 C :    0.040460
  16 C :   -0.002574
  17 C :   -0.192863
  18 O :    0.393178
  19 C :    0.028804
  20 H :   -0.027640
  21 H :   -0.029983
  22 H :   -0.026569
  23 H :   -0.024634
  24 H :   -0.027912
  25 H :   -0.008900
  26 H :   -0.020540
  27 H :   -0.009795
  28 H :   -0.059135
  29 H :   -0.063947
  30 H :   -0.005203
  31 H :   -0.025370
  32 H :   -0.021184
  33 H :   -0.036304
  34 H :   -0.154814
  35 H :   -0.024615

  Mayer bond orders larger than 0.100000
B(  0-C ,  1-C ) :   0.9702 B(  0-C , 20-H ) :   0.9757 B(  0-C , 21-H ) :   0.9767
B(  0-C , 22-H ) :   0.9712 B(  1-C ,  2-O ) :   0.9076 B(  1-C , 23-H ) :   0.9840
B(  1-C , 24-H ) :   0.9778 B(  2-O ,  3-C ) :   1.1097 B(  3-C ,  4-O ) :   1.9805
B(  3-C ,  5-C ) :   1.0477 B(  5-C ,  6-C ) :   1.6576 B(  5-C , 12-C ) :   0.9639
B(  6-C ,  7-C ) :   0.9548 B(  6-C ,  8-N ) :   1.1401 B(  7-C , 25-H ) :   0.9684
B(  7-C , 26-H ) :   0.9902 B(  7-C , 27-H ) :   0.9629 B(  8-N ,  9-C ) :   1.1824
B(  8-N , 28-H ) :   0.9495 B(  9-C , 10-S ) :   1.6094 B(  9-C , 11-N ) :   1.3019
B( 11-N , 12-C ) :   0.9929 B( 11-N , 29-H ) :   0.9518 B( 12-C , 13-C ) :   0.9460
B( 12-C , 30-H ) :   0.9990 B( 13-C , 14-C ) :   1.3762 B( 13-C , 19-C ) :   1.3697
B( 14-C , 15-C ) :   1.3945 B( 14-C , 31-H ) :   0.9647 B( 15-C , 16-C ) :   1.3630
B( 15-C , 32-H ) :   0.9712 B( 16-C , 17-C ) :   1.3311 B( 16-C , 33-H ) :   0.9858
B( 17-C , 18-O ) :   1.1085 B( 17-C , 19-C ) :   1.3781 B( 18-O , 34-H ) :   0.9805
B( 19-C , 35-H ) :   0.9582

MP2 TOTAL ENERGY:    -1274.334025730 Eh
FINAL SINGLE POINT ENERGY     -1274.334025729796

DIPOLE MOMENT
-------------
                                X             Y             Z
Electronic contribution:     10.27087      10.44042      10.12765
Nuclear contribution   :    -11.90989     -11.63150     -10.94857
                        -----------------------------------------
Total Dipole Moment    :     -1.63903      -1.19109      -0.82092
                        -----------------------------------------
Magnitude (a.u.)       :      2.18609
Magnitude (Debye)      :      5.55661

Rotational constants in cm-1:     0.010943     0.008975     0.005997
Rotational constants in MHz :   328.059418   269.065446   179.791876

                             ****ORCA TERMINATED NORMALLY****
TOTAL RUN TIME: 0 days 1 hours 50 minutes 16 seconds 323 msec
