                         Program Version 4.2.0 -  RELEASE  -
|  1> ! ri-mp2 cc-pvtz cc-pvtz/c TightSCF  NoKeepInts
|  2>
|  3> %scf
|  4>   MaxCore 4096
|  5> end
|  6> *xyz  0  1
|  7>     C       15.1469460   14.8305304   17.3853153
|  8>     C       15.4889073   15.5504899   16.0687455
|  9>     O       16.8630845   15.2910353   15.7059327
| 10>     C       17.9725041   15.6286819   16.4433332
| 11>     O       18.9237662   14.8698188   16.4759521
| 12>     C       17.8960985   16.8135251   17.3602727
| 13>     C       17.4261830   18.0271041   16.9753831
| 14>     C       16.9502048   18.4489744   15.5993673
| 15>     N       17.5047170   19.1145221   17.8489553
| 16>     C       18.2077470   19.1225859   19.0242228
| 17>     S       18.3515078   20.4899152   19.9427151
| 18>     N       18.7950659   17.9393360   19.3942973
| 19>     C       18.5888205   16.6421503   18.7202745
| 20>     C       17.8501107   15.6588986   19.6263509
| 21>     C       18.1921960   14.2938061   19.6070369
| 22>     C       17.5172755   13.3719294   20.4240462
| 23>     C       16.4904095   13.8167652   21.2732174
| 24>     C       16.1463991   15.1746567   21.2993542
| 25>     O       15.1490534   15.6061550   22.1114882
| 26>     C       16.8190111   16.0907120   20.4840206
| 27>     H       15.5320472   15.3833462   18.2448475
| 28>     H       15.5679127   13.8168744   17.4016945
| 29>     H       14.0598632   14.7506182   17.5059650
| 30>     H       14.8434971   15.1527240   15.2747833
| 31>     H       15.2670759   16.6158801   16.1675909
| 32>     H       17.1192031   17.6776629   14.8389129
| 33>     H       17.4977140   19.3369385   15.2575883
| 34>     H       15.8828946   18.7008309   15.6030346
| 35>     H       17.1036663   19.9997754   17.5816463
| 36>     H       19.3005170   17.9691854   20.2708475
| 37>     H       19.5859762   16.2190430   18.5273704
| 38>     H       18.9815876   13.9426869   18.9455625
| 39>     H       17.7908087   12.3185286   20.3939154
| 40>     H       15.9656081   13.1074569   21.9046468
| 41>     H       14.8422281   14.8439993   22.6254811
| 42>     H       16.5263924   17.1348570   20.5198316
| 43> *
| 44>
| 45>                          ****END OF INPUT****

CARTESIAN COORDINATES (ANGSTROEM)
---------------------------------
  C     15.146946   14.830530   17.385315
  C     15.488907   15.550490   16.068745
  O     16.863084   15.291035   15.705933
  C     17.972504   15.628682   16.443333
  O     18.923766   14.869819   16.475952
  C     17.896099   16.813525   17.360273
  C     17.426183   18.027104   16.975383
  C     16.950205   18.448974   15.599367
  N     17.504717   19.114522   17.848955
  C     18.207747   19.122586   19.024223
  S     18.351508   20.489915   19.942715
  N     18.795066   17.939336   19.394297
  C     18.588821   16.642150   18.720274
  C     17.850111   15.658899   19.626351
  C     18.192196   14.293806   19.607037
  C     17.517276   13.371929   20.424046
  C     16.490409   13.816765   21.273217
  C     16.146399   15.174657   21.299354
  O     15.149053   15.606155   22.111488
  C     16.819011   16.090712   20.484021
  H     15.532047   15.383346   18.244847
  H     15.567913   13.816874   17.401695
  H     14.059863   14.750618   17.505965
  H     14.843497   15.152724   15.274783
  H     15.267076   16.615880   16.167591
  H     17.119203   17.677663   14.838913
  H     17.497714   19.336938   15.257588
  H     15.882895   18.700831   15.603035
  H     17.103666   19.999775   17.581646
  H     19.300517   17.969185   20.270847
  H     19.585976   16.219043   18.527370
  H     18.981588   13.942687   18.945563
  H     17.790809   12.318529   20.393915
  H     15.965608   13.107457   21.904647
  H     14.842228   14.843999   22.625481
  H     16.526392   17.134857   20.519832

 Total Charge           Charge          ....    0
 Multiplicity           Mult            ....    1
 Number of Electrons    NEL             ....  154
 Basis Dimension        Dim             ....  828

ORBITAL ENERGIES
----------------

  NO   OCC          E(Eh)            E(eV)
   0   2.0000     -91.891195     -2500.4865
   1   2.0000     -20.598434      -560.5119
   2   2.0000     -20.597698      -560.4919
   3   2.0000     -20.550007      -559.1941
   4   2.0000     -15.629513      -425.3007
   5   2.0000     -15.611102      -424.7997
   6   2.0000     -11.400257      -310.2168
   7   2.0000     -11.387133      -309.8596
   8   2.0000     -11.336941      -308.4938
   9   2.0000     -11.314660      -307.8875
  10   2.0000     -11.313145      -307.8463
  11   2.0000     -11.307592      -307.6952
  12   2.0000     -11.269045      -306.6463
  13   2.0000     -11.268833      -306.6405
  14   2.0000     -11.261895      -306.4517
  15   2.0000     -11.254836      -306.2597
  16   2.0000     -11.243886      -305.9617
  17   2.0000     -11.239649      -305.8464
  18   2.0000     -11.235774      -305.7409
  19   2.0000     -11.226161      -305.4794
  20   2.0000      -8.896286      -242.0802
  21   2.0000      -6.577870      -178.9930
  22   2.0000      -6.575848      -178.9379
  23   2.0000      -6.575268      -178.9221
  24   2.0000      -1.446687       -39.3663
  25   2.0000      -1.417508       -38.5723
  26   2.0000      -1.359018       -36.9808
  27   2.0000      -1.342808       -36.5397
  28   2.0000      -1.241253       -33.7762
  29   2.0000      -1.158834       -31.5335
  30   2.0000      -1.124885       -30.6097
  31   2.0000      -1.047224       -28.4964
  32   2.0000      -1.037193       -28.2235
  33   2.0000      -1.017417       -27.6853
  34   2.0000      -1.005570       -27.3629
  35   2.0000      -0.989849       -26.9352
  36   2.0000      -0.927769       -25.2459
  37   2.0000      -0.894342       -24.3363
  38   2.0000      -0.855615       -23.2825
  39   2.0000      -0.841665       -22.9029
  40   2.0000      -0.834434       -22.7061
  41   2.0000      -0.830449       -22.5977
  42   2.0000      -0.747061       -20.3286
  43   2.0000      -0.739872       -20.1329
  44   2.0000      -0.730190       -19.8695
  45   2.0000      -0.695528       -18.9263
  46   2.0000      -0.687590       -18.7103
  47   2.0000      -0.681376       -18.5412
  48   2.0000      -0.675500       -18.3813
  49   2.0000      -0.660963       -17.9857
  50   2.0000      -0.655627       -17.8405
  51   2.0000      -0.648989       -17.6599
  52   2.0000      -0.639129       -17.3916
  53   2.0000      -0.623562       -16.9680
  54   2.0000      -0.610049       -16.6003
  55   2.0000      -0.605659       -16.4808
  56   2.0000      -0.601483       -16.3672
  57   2.0000      -0.587555       -15.9882
  58   2.0000      -0.576157       -15.6780
  59   2.0000      -0.565808       -15.3964
  60   2.0000      -0.564774       -15.3683
  61   2.0000      -0.549345       -14.9484
  62   2.0000      -0.542644       -14.7661
  63   2.0000      -0.534799       -14.5526
  64   2.0000      -0.520006       -14.1501
  65   2.0000      -0.513080       -13.9616
  66   2.0000      -0.501872       -13.6566
  67   2.0000      -0.499688       -13.5972
  68   2.0000      -0.482026       -13.1166
  69   2.0000      -0.469417       -12.7735
  70   2.0000      -0.457906       -12.4602
  71   2.0000      -0.449394       -12.2286
  72   2.0000      -0.359911        -9.7937
  73   2.0000      -0.349137        -9.5005
  74   2.0000      -0.330699        -8.9988
  75   2.0000      -0.323125        -8.7927
  76   2.0000      -0.319791        -8.7020
  77   0.0000       0.078798         2.1442
  78   0.0000       0.106565         2.8998
  79   0.0000       0.115316         3.1379
  80   0.0000       0.129799         3.5320
  81   0.0000       0.131303         3.5729

MULLIKEN ATOMIC CHARGES
-----------------------
   0 C :   -0.311840
   1 C :    0.027758
   2 O :   -0.334363
   3 C :    0.439650
   4 O :   -0.386049
   5 C :   -0.234770
   6 C :    0.154995
   7 C :   -0.328570
   8 N :   -0.135362
   9 C :    0.197243
  10 S :   -0.438330
  11 N :   -0.221880
  12 C :    0.081138
  13 C :    0.010745
  14 C :   -0.205175
  15 C :   -0.141674
  16 C :   -0.268946
  17 C :    0.311245
  18 O :   -0.357138
  19 C :   -0.253384
  20 H :    0.109708
  21 H :    0.117271
  22 H :    0.106262
  23 H :    0.123536
  24 H :    0.085353
  25 H :    0.136148
  26 H :    0.137923
  27 H :    0.121096
  28 H :    0.196661
  29 H :    0.201444
  30 H :    0.166722
  31 H :    0.177964
  32 H :    0.164803
  33 H :    0.132155
  34 H :    0.240723
  35 H :    0.176938
Sum of atomic charges:   -0.0000000

LOEWDIN ATOMIC CHARGES
----------------------
   0 C :    0.108475
   1 C :   -0.021779
   2 O :    0.297171
   3 C :   -0.413964
   4 O :    0.122715
   5 C :   -0.082768
   6 C :   -0.090533
   7 C :    0.122656
   8 N :    0.403398
   9 C :   -0.459701
  10 S :   -0.035792
  11 N :    0.397861
  12 C :   -0.043143
  13 C :   -0.043515
  14 C :    0.020456
  15 C :    0.044338
  16 C :   -0.001044
  17 C :   -0.192818
  18 O :    0.395615
  19 C :    0.025230
  20 H :   -0.032977
  21 H :   -0.020704
  22 H :   -0.025473
  23 H :   -0.020438
  24 H :   -0.039635
  25 H :   -0.008200
  26 H :   -0.009553
  27 H :   -0.018993
  28 H :   -0.056688
  29 H :   -0.063111
  30 H :   -0.002075
  31 H :   -0.022554
  32 H :   -0.018830
  33 H :   -0.035029
  34 H :   -0.153472
  35 H :   -0.025126

  Mayer bond orders larger than 0.100000
B(  0-C ,  1-C ) :   0.9651 B(  0-C , 20-H ) :   0.9695 B(  0-C , 21-H ) :   0.9723
B(  0-C , 22-H ) :   0.9784 B(  1-C ,  2-O ) :   0.8988 B(  1-C , 23-H ) :   0.9823
B(  1-C , 24-H ) :   0.9697 B(  2-O ,  3-C ) :   1.1657 B(  3-C ,  4-O ) :   2.0728
B(  3-C ,  5-C ) :   0.9423 B(  5-C ,  6-C ) :   1.6823 B(  5-C , 12-C ) :   0.9473
B(  6-C ,  7-C ) :   0.9394 B(  6-C ,  8-N ) :   1.1179 B(  7-C , 25-H ) :   0.9765
B(  7-C , 26-H ) :   0.9713 B(  7-C , 27-H ) :   0.9660 B(  8-N ,  9-C ) :   1.1917
B(  8-N , 28-H ) :   0.9520 B(  9-C , 10-S ) :   1.6116 B(  9-C , 11-N ) :   1.2920
B( 11-N , 12-C ) :   0.9855 B( 11-N , 29-H ) :   0.9487 B( 12-C , 13-C ) :   0.9532
B( 12-C , 30-H ) :   0.9953 B( 13-C , 14-C ) :   1.3907 B( 13-C , 19-C ) :   1.3425
B( 14-C , 15-C ) :   1.3994 B( 14-C , 31-H ) :   0.9566 B( 15-C , 16-C ) :   1.3593
B( 15-C , 32-H ) :   0.9697 B( 16-C , 17-C ) :   1.3314 B( 16-C , 33-H ) :   0.9844
B( 17-C , 18-O ) :   1.1109 B( 17-C , 19-C ) :   1.3671 B( 18-O , 34-H ) :   0.9798
B( 19-C , 35-H ) :   0.9595

MP2 TOTAL ENERGY:    -1274.334779196 Eh
FINAL SINGLE POINT ENERGY     -1274.334779195571

DIPOLE MOMENT
-------------
                                X             Y             Z
Electronic contribution:      9.38070       7.23229       6.24190
Nuclear contribution   :    -10.95966      -8.15560      -6.79233
                        -----------------------------------------
Total Dipole Moment    :     -1.57896      -0.92330      -0.55043
                        -----------------------------------------
Magnitude (a.u.)       :      1.91013
Magnitude (Debye)      :      4.85516

Rotational constants in cm-1:     0.011524     0.009680     0.006633
Rotational constants in MHz :   345.488049   290.194691   198.865457

                             ****ORCA TERMINATED NORMALLY****
TOTAL RUN TIME: 0 days 1 hours 48 minutes 3 seconds 877 msec
