                         Program Version 5.0.0 -  RELEASE  -
|  1> ! ri-mp2 cc-pvtz cc-pvtz/c TightSCF NoKeepInts
|  2>
|  3> %scf
|  4>   MaxCore 4096
|  5> end
|  6> *xyz  0  1
|  7>     C       14.9243551   16.1127607   17.2824979
|  8>     C       15.6821471   14.7755623   17.1375198
|  9>     O       16.9019938   14.8542131   16.3583140
| 10>     C       17.9102893   15.7901001   16.3638956
| 11>     O       18.7425811   15.7920733   15.4769220
| 12>     C       17.8572585   16.9119619   17.3425580
| 13>     C       17.5009447   18.1534640   16.9418225
| 14>     C       17.0137491   18.5514369   15.5655967
| 15>     N       17.5863537   19.2278049   17.8290977
| 16>     C       18.0767646   19.1465515   19.1058941
| 17>     S       18.1328735   20.4634599   20.1042346
| 18>     N       18.5146422   17.9132518   19.5221046
| 19>     C       18.4761097   16.6707240   18.7246446
| 20>     C       17.8357357   15.5272591   19.5043876
| 21>     C       18.3641835   14.2267731   19.3990914
| 22>     C       17.7894189   13.1603434   20.1103719
| 23>     C       16.6787374   13.3948955   20.9384761
| 24>     C       16.1521861   14.6884859   21.0512937
| 25>     O       15.0751731   14.9173902   21.8432224
| 26>     C       16.7247186   15.7484658   20.3408662
| 27>     H       15.3631798   16.7587405   18.0492110
| 28>     H       13.8904788   15.9167236   17.5920892
| 29>     H       14.8865207   16.6497031   16.3276519
| 30>     H       15.8927342   14.3677647   18.1317828
| 31>     H       15.0180182   14.0548774   16.6431897
| 32>     H       16.6963465   17.6854191   14.9717552
| 33>     H       17.8171280   19.0456917   15.0047650
| 34>     H       16.1604891   19.2380800   15.6212846
| 35>     H       17.2933620   20.1453704   17.5321714
| 36>     H       18.8540457   17.8828546   20.4754879
| 37>     H       19.5224149   16.3833766   18.5446888
| 38>     H       19.2205060   14.0390031   18.7551522
| 39>     H       18.2050626   12.1579916   20.0176441
| 40>     H       16.2318634   12.5733659   21.4892078
| 41>     H       14.8590937   14.0858977   22.2923923
| 42>     H       16.2955410   16.7401629   20.4427150
| 43> *
| 44>
| 45>                          ****END OF INPUT****

CARTESIAN COORDINATES (ANGSTROEM)
---------------------------------
  C     14.924355   16.112761   17.282498
  C     15.682147   14.775562   17.137520
  O     16.901994   14.854213   16.358314
  C     17.910289   15.790100   16.363896
  O     18.742581   15.792073   15.476922
  C     17.857259   16.911962   17.342558
  C     17.500945   18.153464   16.941823
  C     17.013749   18.551437   15.565597
  N     17.586354   19.227805   17.829098
  C     18.076765   19.146552   19.105894
  S     18.132873   20.463460   20.104235
  N     18.514642   17.913252   19.522105
  C     18.476110   16.670724   18.724645
  C     17.835736   15.527259   19.504388
  C     18.364183   14.226773   19.399091
  C     17.789419   13.160343   20.110372
  C     16.678737   13.394896   20.938476
  C     16.152186   14.688486   21.051294
  O     15.075173   14.917390   21.843222
  C     16.724719   15.748466   20.340866
  H     15.363180   16.758740   18.049211
  H     13.890479   15.916724   17.592089
  H     14.886521   16.649703   16.327652
  H     15.892734   14.367765   18.131783
  H     15.018018   14.054877   16.643190
  H     16.696347   17.685419   14.971755
  H     17.817128   19.045692   15.004765
  H     16.160489   19.238080   15.621285
  H     17.293362   20.145370   17.532171
  H     18.854046   17.882855   20.475488
  H     19.522415   16.383377   18.544689
  H     19.220506   14.039003   18.755152
  H     18.205063   12.157992   20.017644
  H     16.231863   12.573366   21.489208
  H     14.859094   14.085898   22.292392
  H     16.295541   16.740163   20.442715

 Total Charge           Charge          ....    0
 Multiplicity           Mult            ....    1
 Number of Electrons    NEL             ....  154
 Basis Dimension        Dim             ....  828

ORBITAL ENERGIES
----------------

  NO   OCC          E(Eh)            E(eV)
   0   2.0000     -91.889435     -2500.4387
   1   2.0000     -20.606734      -560.7377
   2   2.0000     -20.596214      -560.4515
   3   2.0000     -20.549302      -559.1749
   4   2.0000     -15.624472      -425.1635
   5   2.0000     -15.612547      -424.8390
   6   2.0000     -11.397717      -310.1476
   7   2.0000     -11.386255      -309.8358
   8   2.0000     -11.325217      -308.1748
   9   2.0000     -11.323132      -308.1181
  10   2.0000     -11.320035      -308.0338
  11   2.0000     -11.303515      -307.5843
  12   2.0000     -11.272972      -306.7532
  13   2.0000     -11.266371      -306.5735
  14   2.0000     -11.259997      -306.4001
  15   2.0000     -11.258733      -306.3657
  16   2.0000     -11.254711      -306.2563
  17   2.0000     -11.249770      -306.1218
  18   2.0000     -11.249664      -306.1189
  19   2.0000     -11.233754      -305.6860
  20   2.0000      -8.894561      -242.0333
  21   2.0000      -6.576154      -178.9462
  22   2.0000      -6.574123      -178.8910
  23   2.0000      -6.573552      -178.8755
  24   2.0000      -1.441453       -39.2239
  25   2.0000      -1.426540       -38.8181
  26   2.0000      -1.355457       -36.8839
  27   2.0000      -1.338707       -36.4281
  28   2.0000      -1.240183       -33.7471
  29   2.0000      -1.168639       -31.8003
  30   2.0000      -1.124986       -30.6124
  31   2.0000      -1.052478       -28.6394
  32   2.0000      -1.037085       -28.2205
  33   2.0000      -1.026777       -27.9400
  34   2.0000      -1.004626       -27.3373
  35   2.0000      -0.989858       -26.9354
  36   2.0000      -0.929446       -25.2915
  37   2.0000      -0.898964       -24.4620
  38   2.0000      -0.852418       -23.1955
  39   2.0000      -0.846353       -23.0304
  40   2.0000      -0.842816       -22.9342
  41   2.0000      -0.831594       -22.6288
  42   2.0000      -0.750360       -20.4183
  43   2.0000      -0.739791       -20.1307
  44   2.0000      -0.724469       -19.7138
  45   2.0000      -0.705365       -19.1940
  46   2.0000      -0.692485       -18.8435
  47   2.0000      -0.678817       -18.4716
  48   2.0000      -0.676104       -18.3977
  49   2.0000      -0.661907       -18.0114
  50   2.0000      -0.656141       -17.8545
  51   2.0000      -0.649779       -17.6814
  52   2.0000      -0.638928       -17.3861
  53   2.0000      -0.618020       -16.8172
  54   2.0000      -0.614177       -16.7126
  55   2.0000      -0.609980       -16.5984
  56   2.0000      -0.606991       -16.5171
  57   2.0000      -0.585146       -15.9226
  58   2.0000      -0.578972       -15.7546
  59   2.0000      -0.573424       -15.6037
  60   2.0000      -0.568224       -15.4622
  61   2.0000      -0.555167       -15.1069
  62   2.0000      -0.539664       -14.6850
  63   2.0000      -0.535380       -14.5684
  64   2.0000      -0.527012       -14.3407
  65   2.0000      -0.516820       -14.0634
  66   2.0000      -0.506053       -13.7704
  67   2.0000      -0.502327       -13.6690
  68   2.0000      -0.491133       -13.3644
  69   2.0000      -0.465932       -12.6787
  70   2.0000      -0.451165       -12.2768
  71   2.0000      -0.447237       -12.1699
  72   2.0000      -0.360238        -9.8026
  73   2.0000      -0.351376        -9.5614
  74   2.0000      -0.333965        -9.0876
  75   2.0000      -0.329063        -8.9543
  76   2.0000      -0.317673        -8.6443
  77   0.0000       0.090641         2.4665
  78   0.0000       0.097676         2.6579
  79   0.0000       0.119299         3.2463
  80   0.0000       0.125852         3.4246
  81   0.0000       0.126802         3.4505

MULLIKEN ATOMIC CHARGES
-----------------------
   0 C :   -0.338580
   1 C :    0.036173
   2 O :   -0.320514
   3 C :    0.378713
   4 O :   -0.374722
   5 C :   -0.190240
   6 C :    0.146930
   7 C :   -0.311719
   8 N :   -0.137330
   9 C :    0.214535
  10 S :   -0.444347
  11 N :   -0.232350
  12 C :    0.093220
  13 C :   -0.012115
  14 C :   -0.194057
  15 C :   -0.132393
  16 C :   -0.273228
  17 C :    0.318551
  18 O :   -0.354991
  19 C :   -0.273628
  20 H :    0.112408
  21 H :    0.123686
  22 H :    0.107294
  23 H :    0.100416
  24 H :    0.127898
  25 H :    0.118743
  26 H :    0.147154
  27 H :    0.108396
  28 H :    0.196870
  29 H :    0.203958
  30 H :    0.164562
  31 H :    0.158796
  32 H :    0.165569
  33 H :    0.135417
  34 H :    0.242658
  35 H :    0.188271
Sum of atomic charges:    0.0000000

LOEWDIN ATOMIC CHARGES
----------------------
   0 C :    0.102403
   1 C :   -0.013061
   2 O :    0.296661
   3 C :   -0.419678
   4 O :    0.126966
   5 C :   -0.081540
   6 C :   -0.095430
   7 C :    0.127266
   8 N :    0.403425
   9 C :   -0.455053
  10 S :   -0.039537
  11 N :    0.396623
  12 C :   -0.051472
  13 C :   -0.044229
  14 C :    0.018126
  15 C :    0.046112
  16 C :    0.000882
  17 C :   -0.193194
  18 O :    0.398037
  19 C :    0.029483
  20 H :   -0.035510
  21 H :   -0.021561
  22 H :   -0.029255
  23 H :   -0.032683
  24 H :   -0.020276
  25 H :   -0.009251
  26 H :   -0.006354
  27 H :   -0.018832
  28 H :   -0.057055
  29 H :   -0.065140
  30 H :   -0.007060
  31 H :   -0.024716
  32 H :   -0.017114
  33 H :   -0.032934
  34 H :   -0.151565
  35 H :   -0.023488

  Mayer bond orders larger than 0.100000
B(  0-C ,  1-C ) :   0.9550 B(  0-C , 20-H ) :   0.9702 B(  0-C , 21-H ) :   0.9774
B(  0-C , 22-H ) :   0.9759 B(  1-C ,  2-O ) :   0.9063 B(  1-C , 23-H ) :   0.9677
B(  1-C , 24-H ) :   0.9836 B(  2-O ,  3-C ) :   1.1987 B(  3-C ,  4-O ) :   2.1164
B(  3-C ,  5-C ) :   0.8902 B(  5-C ,  6-C ) :   1.7270 B(  5-C , 12-C ) :   0.9491
B(  6-C ,  7-C ) :   0.9525 B(  6-C ,  8-N ) :   1.1188 B(  7-C , 25-H ) :   0.9775
B(  7-C , 26-H ) :   0.9629 B(  7-C , 27-H ) :   0.9752 B(  8-N ,  9-C ) :   1.2082
B(  8-N , 28-H ) :   0.9516 B(  9-C , 10-S ) :   1.6044 B(  9-C , 11-N ) :   1.2824
B( 11-N , 12-C ) :   0.9911 B( 11-N , 29-H ) :   0.9447 B( 12-C , 13-C ) :   0.9371
B( 12-C , 30-H ) :   1.0009 B( 13-C , 14-C ) :   1.3800 B( 13-C , 19-C ) :   1.3441
B( 14-C , 15-C ) :   1.4024 B( 14-C , 31-H ) :   0.9697 B( 15-C , 16-C ) :   1.3595
B( 15-C , 32-H ) :   0.9694 B( 16-C , 17-C ) :   1.3297 B( 16-C , 33-H ) :   0.9837
B( 17-C , 18-O ) :   1.1137 B( 17-C , 19-C ) :   1.3616 B( 18-O , 34-H ) :   0.9780
B( 19-C , 35-H ) :   0.9505

MP2 TOTAL ENERGY:    -1274.325813597 Eh
FINAL SINGLE POINT ENERGY     -1274.325813597026

DIPOLE MOMENT
-------------
                                X             Y             Z
Electronic contribution:      8.83229       5.32425       5.82494
Nuclear contribution   :    -10.15633      -6.96229      -5.61241
                        -----------------------------------------
Total Dipole Moment    :     -1.32404      -1.63804       0.21254
                        -----------------------------------------
Magnitude (a.u.)       :      2.11694
Magnitude (Debye)      :      5.38083

Rotational constants in cm-1:     0.012671     0.009173     0.006650
Rotational constants in MHz :   379.872173   275.012148   199.350162

                             ****ORCA TERMINATED NORMALLY****
TOTAL RUN TIME: 0 days 1 hours 59 minutes 32 seconds 569 msec
