                         Program Version 5.0.0 -  RELEASE  -
|  1> ! ri-mp2 cc-pvtz cc-pvtz/c TightSCF NoKeepInts
|  2>
|  3> %scf
|  4>   MaxCore 4096
|  5> end
|  6> *xyz  0  1
|  7>     C       15.4559390   13.6575787   15.7904165
|  8>     C       15.1083238   15.1271738   16.1105417
|  9>     O       16.2374588   16.0262332   16.0003814
| 10>     C       17.4366160   15.8252994   16.6302440
| 11>     O       17.9462003   14.7268605   16.7690022
| 12>     C       17.8306653   16.9799881   17.5049003
| 13>     C       17.4782570   18.2722751   17.2798075
| 14>     C       16.6723960   18.8271432   16.1231518
| 15>     N       17.9402073   19.2776789   18.1352956
| 16>     C       18.8594298   19.0951859   19.1345684
| 17>     S       19.4418348   20.3617792   20.0245720
| 18>     N       19.2716623   17.8060059   19.3585319
| 19>     C       18.6920624   16.6105213   18.7175395
| 20>     C       17.8861310   15.7988903   19.7286072
| 21>     C       18.1642800   14.4345156   19.9312740
| 22>     C       17.4198885   13.6806275   20.8539675
| 23>     C       16.3867518   14.2953877   21.5814965
| 24>     C       16.1034729   15.6529805   21.3797025
| 25>     O       15.1013147   16.2476902   22.0748855
| 26>     C       16.8456653   16.4005619   20.4600695
| 27>     H       16.0863320   13.5906720   14.8948783
| 28>     H       14.5408664   13.0818374   15.6074040
| 29>     H       15.9812757   13.1803806   16.6269294
| 30>     H       14.3267212   15.4647588   15.4179730
| 31>     H       14.6946274   15.1798391   17.1263867
| 32>     H       16.9992197   18.3879994   15.1722106
| 33>     H       16.7731153   19.9147422   16.0231879
| 34>     H       15.6064462   18.6012909   16.2502458
| 35>     H       17.6503856   20.2310256   17.9863419
| 36>     H       19.9269970   17.6945813   20.1214579
| 37>     H       19.5250024   15.9877166   18.3603005
| 38>     H       18.9507259   13.9523400   19.3555868
| 39>     H       17.6417945   12.6245607   20.9966360
| 40>     H       15.8082373   13.7163636   22.2935409
| 41>     H       14.7449754   15.5889918   22.6897396
| 42>     H       16.6117215   17.4505232   20.3222253
| 43> *
| 44>
| 45>                          ****END OF INPUT****

CARTESIAN COORDINATES (ANGSTROEM)
---------------------------------
  C     15.455939   13.657579   15.790416
  C     15.108324   15.127174   16.110542
  O     16.237459   16.026233   16.000381
  C     17.436616   15.825299   16.630244
  O     17.946200   14.726860   16.769002
  C     17.830665   16.979988   17.504900
  C     17.478257   18.272275   17.279808
  C     16.672396   18.827143   16.123152
  N     17.940207   19.277679   18.135296
  C     18.859430   19.095186   19.134568
  S     19.441835   20.361779   20.024572
  N     19.271662   17.806006   19.358532
  C     18.692062   16.610521   18.717540
  C     17.886131   15.798890   19.728607
  C     18.164280   14.434516   19.931274
  C     17.419888   13.680627   20.853967
  C     16.386752   14.295388   21.581497
  C     16.103473   15.652980   21.379703
  O     15.101315   16.247690   22.074886
  C     16.845665   16.400562   20.460069
  H     16.086332   13.590672   14.894878
  H     14.540866   13.081837   15.607404
  H     15.981276   13.180381   16.626929
  H     14.326721   15.464759   15.417973
  H     14.694627   15.179839   17.126387
  H     16.999220   18.387999   15.172211
  H     16.773115   19.914742   16.023188
  H     15.606446   18.601291   16.250246
  H     17.650386   20.231026   17.986342
  H     19.926997   17.694581   20.121458
  H     19.525002   15.987717   18.360301
  H     18.950726   13.952340   19.355587
  H     17.641794   12.624561   20.996636
  H     15.808237   13.716364   22.293541
  H     14.744975   15.588992   22.689740
  H     16.611722   17.450523   20.322225

 Total Charge           Charge          ....    0
 Multiplicity           Mult            ....    1
 Number of Electrons    NEL             ....  154
 Basis Dimension        Dim             ....  828

ORBITAL ENERGIES
----------------

  NO   OCC          E(Eh)            E(eV)
   0   2.0000     -91.887835     -2500.3951
   1   2.0000     -20.593751      -560.3845
   2   2.0000     -20.591837      -560.3324
   3   2.0000     -20.550678      -559.2124
   4   2.0000     -15.627474      -425.2452
   5   2.0000     -15.606938      -424.6864
   6   2.0000     -11.397658      -310.1460
   7   2.0000     -11.382952      -309.7459
   8   2.0000     -11.333597      -308.4029
   9   2.0000     -11.309795      -307.7552
  10   2.0000     -11.306453      -307.6642
  11   2.0000     -11.305047      -307.6260
  12   2.0000     -11.259057      -306.3745
  13   2.0000     -11.258516      -306.3598
  14   2.0000     -11.255454      -306.2765
  15   2.0000     -11.249993      -306.1279
  16   2.0000     -11.239547      -305.8436
  17   2.0000     -11.235503      -305.7336
  18   2.0000     -11.232664      -305.6563
  19   2.0000     -11.221175      -305.3437
  20   2.0000      -8.892910      -241.9884
  21   2.0000      -6.574490      -178.9010
  22   2.0000      -6.572480      -178.8463
  23   2.0000      -6.571897      -178.8304
  24   2.0000      -1.447377       -39.3851
  25   2.0000      -1.413505       -38.4634
  26   2.0000      -1.357715       -36.9453
  27   2.0000      -1.338700       -36.4279
  28   2.0000      -1.236745       -33.6535
  29   2.0000      -1.153895       -31.3991
  30   2.0000      -1.119415       -30.4608
  31   2.0000      -1.042501       -28.3679
  32   2.0000      -1.032620       -28.0990
  33   2.0000      -1.011443       -27.5228
  34   2.0000      -0.997358       -27.1395
  35   2.0000      -0.982620       -26.7385
  36   2.0000      -0.921945       -25.0874
  37   2.0000      -0.891605       -24.2618
  38   2.0000      -0.847969       -23.0744
  39   2.0000      -0.837058       -22.7775
  40   2.0000      -0.830041       -22.5866
  41   2.0000      -0.820983       -22.3401
  42   2.0000      -0.745297       -20.2806
  43   2.0000      -0.728154       -19.8141
  44   2.0000      -0.726181       -19.7604
  45   2.0000      -0.692199       -18.8357
  46   2.0000      -0.684677       -18.6310
  47   2.0000      -0.680138       -18.5075
  48   2.0000      -0.671376       -18.2691
  49   2.0000      -0.665885       -18.1197
  50   2.0000      -0.645923       -17.5765
  51   2.0000      -0.643605       -17.5134
  52   2.0000      -0.634978       -17.2786
  53   2.0000      -0.603846       -16.4315
  54   2.0000      -0.601332       -16.3631
  55   2.0000      -0.598461       -16.2849
  56   2.0000      -0.597221       -16.2512
  57   2.0000      -0.580770       -15.8036
  58   2.0000      -0.573961       -15.6183
  59   2.0000      -0.571397       -15.5485
  60   2.0000      -0.559907       -15.2358
  61   2.0000      -0.546000       -14.8574
  62   2.0000      -0.536037       -14.5863
  63   2.0000      -0.522147       -14.2083
  64   2.0000      -0.518664       -14.1136
  65   2.0000      -0.510699       -13.8968
  66   2.0000      -0.499216       -13.5844
  67   2.0000      -0.494975       -13.4690
  68   2.0000      -0.479738       -13.0543
  69   2.0000      -0.462984       -12.5984
  70   2.0000      -0.456853       -12.4316
  71   2.0000      -0.445791       -12.1306
  72   2.0000      -0.353282        -9.6133
  73   2.0000      -0.345769        -9.4089
  74   2.0000      -0.327111        -8.9011
  75   2.0000      -0.316952        -8.6247
  76   2.0000      -0.314708        -8.5636
  77   0.0000       0.074523         2.0279
  78   0.0000       0.108639         2.9562
  79   0.0000       0.121051         3.2940
  80   0.0000       0.134266         3.6536
  81   0.0000       0.138765         3.7760

MULLIKEN ATOMIC CHARGES
-----------------------
   0 C :   -0.279279
   1 C :    0.046232
   2 O :   -0.375630
   3 C :    0.446807
   4 O :   -0.412243
   5 C :   -0.163149
   6 C :    0.140732
   7 C :   -0.283818
   8 N :   -0.123462
   9 C :    0.201897
  10 S :   -0.440659
  11 N :   -0.199858
  12 C :    0.045070
  13 C :    0.052097
  14 C :   -0.167342
  15 C :   -0.133444
  16 C :   -0.280205
  17 C :    0.311848
  18 O :   -0.358617
  19 C :   -0.275445
  20 H :    0.101537
  21 H :    0.091815
  22 H :    0.115848
  23 H :    0.099260
  24 H :    0.088427
  25 H :    0.125745
  26 H :    0.102880
  27 H :    0.124404
  28 H :    0.196872
  29 H :    0.193985
  30 H :    0.155191
  31 H :    0.156137
  32 H :    0.160322
  33 H :    0.129161
  34 H :    0.240367
  35 H :    0.166517
Sum of atomic charges:    0.0000000

LOEWDIN ATOMIC CHARGES
----------------------
   0 C :    0.103808
   1 C :   -0.012463
   2 O :    0.287138
   3 C :   -0.410900
   4 O :    0.125542
   5 C :   -0.092264
   6 C :   -0.070255
   7 C :    0.125050
   8 N :    0.404237
   9 C :   -0.458389
  10 S :   -0.037070
  11 N :    0.397401
  12 C :   -0.046027
  13 C :   -0.039595
  14 C :    0.020873
  15 C :    0.040463
  16 C :   -0.002470
  17 C :   -0.193311
  18 O :    0.393200
  19 C :    0.028267
  20 H :   -0.024238
  21 H :   -0.029923
  22 H :   -0.026373
  23 H :   -0.024135
  24 H :   -0.030342
  25 H :   -0.008096
  26 H :   -0.020481
  27 H :   -0.010195
  28 H :   -0.059037
  29 H :   -0.063968
  30 H :   -0.005214
  31 H :   -0.025062
  32 H :   -0.020939
  33 H :   -0.036128
  34 H :   -0.154584
  35 H :   -0.024520

  Mayer bond orders larger than 0.100000
B(  0-C ,  1-C ) :   0.9779 B(  0-C , 20-H ) :   0.9750 B(  0-C , 21-H ) :   0.9745
B(  0-C , 22-H ) :   0.9721 B(  1-C ,  2-O ) :   0.9050 B(  1-C , 23-H ) :   0.9820
B(  1-C , 24-H ) :   0.9752 B(  2-O ,  3-C ) :   1.0852 B(  3-C ,  4-O ) :   2.0020
B(  3-C ,  5-C ) :   1.0435 B(  5-C ,  6-C ) :   1.6648 B(  5-C , 12-C ) :   0.9630
B(  6-C ,  7-C ) :   0.9531 B(  6-C ,  8-N ) :   1.1398 B(  7-C , 25-H ) :   0.9681
B(  7-C , 26-H ) :   0.9899 B(  7-C , 27-H ) :   0.9640 B(  8-N ,  9-C ) :   1.1832
B(  8-N , 28-H ) :   0.9494 B(  9-C , 10-S ) :   1.6096 B(  9-C , 11-N ) :   1.3019
B( 11-N , 12-C ) :   0.9913 B( 11-N , 29-H ) :   0.9517 B( 12-C , 13-C ) :   0.9458
B( 12-C , 30-H ) :   0.9990 B( 13-C , 14-C ) :   1.3765 B( 13-C , 19-C ) :   1.3682
B( 14-C , 15-C ) :   1.3937 B( 14-C , 31-H ) :   0.9641 B( 15-C , 16-C ) :   1.3631
B( 15-C , 32-H ) :   0.9709 B( 16-C , 17-C ) :   1.3313 B( 16-C , 33-H ) :   0.9856
B( 17-C , 18-O ) :   1.1088 B( 17-C , 19-C ) :   1.3765 B( 18-O , 34-H ) :   0.9803
B( 19-C , 35-H ) :   0.9582

MP2 TOTAL ENERGY:    -1274.329744869 Eh
FINAL SINGLE POINT ENERGY     -1274.329744868694

DIPOLE MOMENT
-------------
                                X             Y             Z
Electronic contribution:     10.27227      10.57063       8.97213
Nuclear contribution   :    -11.88781     -11.75122      -9.74382
                        -----------------------------------------
Total Dipole Moment    :     -1.61554      -1.18059      -0.77169
                        -----------------------------------------
Magnitude (a.u.)       :      2.14459
Magnitude (Debye)      :      5.45112

Rotational constants in cm-1:     0.011303     0.009017     0.006154
Rotational constants in MHz :   338.868124   270.337718   184.500385

                             ****ORCA TERMINATED NORMALLY****
TOTAL RUN TIME: 0 days 1 hours 53 minutes 50 seconds 205 msec
