                         Program Version 4.2.0 -  RELEASE  -
|  1> ! ri-mp2 cc-pvtz cc-pvtz/c TightSCF  NoKeepInts
|  2>
|  3> %scf
|  4>   MaxCore 4096
|  5> end
|  6> *xyz  0  1
|  7>     C       14.6513718   14.3244169   16.1000891
|  8>     C       15.7596960   14.8661208   15.1790253
|  9>     O       16.3736085   15.9892511   15.8372477
| 10>     C       17.4325371   15.7903700   16.6766371
| 11>     O       17.9907284   14.7099495   16.7808346
| 12>     C       17.7692995   16.9596008   17.5592058
| 13>     C       17.3110306   18.2290310   17.3937866
| 14>     C       16.3895078   18.7607040   16.3149080
| 15>     N       17.7489568   19.2421314   18.2537383
| 16>     C       18.7393963   19.1038103   19.1897584
| 17>     S       19.2887282   20.3886647   20.0746744
| 18>     N       19.2515152   17.8423081   19.3542099
| 19>     C       18.7080887   16.6246481   18.7243487
| 20>     C       18.0034850   15.7550615   19.7626999
| 21>     C       18.3727083   14.4078385   19.9324500
| 22>     C       17.7245272   13.6012348   20.8827943
| 23>     C       16.6969921   14.1454275   21.6718311
| 24>     C       16.3234504   15.4856552   21.5036150
| 25>     O       15.3272404   16.0124055   22.2595949
| 26>     C       16.9701929   16.2858738   20.5566078
| 27>     H       15.0786162   13.9483617   17.0387103
| 28>     H       14.1173278   13.4988455   15.6143259
| 29>     H       13.9253055   15.1110010   16.3399082
| 30>     H       16.4902438   14.0819648   14.9367027
| 31>     H       15.3028716   15.2040106   14.2400798
| 32>     H       16.7686901   18.5041629   15.3179089
| 33>     H       16.2826429   19.8517010   16.3474045
| 34>     H       15.3855568   18.3299281   16.4170621
| 35>     H       17.3849751   20.1756314   18.1490720
| 36>     H       19.9580726   17.7594599   20.0737903
| 37>     H       19.5567053   16.0554959   18.3179784
| 38>     H       19.1549090   13.9795269   19.3103936
| 39>     H       18.0155672   12.5588795   20.9992482
| 40>     H       16.1923839   13.5255103   22.4052765
| 41>     H       15.0329168   15.3218171   22.8721135
| 42>     H       16.6671542   17.3211998   20.4459682
| 43> *
| 44>
| 45>                          ****END OF INPUT****

CARTESIAN COORDINATES (ANGSTROEM)
---------------------------------
  C     14.651372   14.324417   16.100089
  C     15.759696   14.866121   15.179025
  O     16.373608   15.989251   15.837248
  C     17.432537   15.790370   16.676637
  O     17.990728   14.709950   16.780835
  C     17.769299   16.959601   17.559206
  C     17.311031   18.229031   17.393787
  C     16.389508   18.760704   16.314908
  N     17.748957   19.242131   18.253738
  C     18.739396   19.103810   19.189758
  S     19.288728   20.388665   20.074674
  N     19.251515   17.842308   19.354210
  C     18.708089   16.624648   18.724349
  C     18.003485   15.755062   19.762700
  C     18.372708   14.407839   19.932450
  C     17.724527   13.601235   20.882794
  C     16.696992   14.145428   21.671831
  C     16.323450   15.485655   21.503615
  O     15.327240   16.012405   22.259595
  C     16.970193   16.285874   20.556608
  H     15.078616   13.948362   17.038710
  H     14.117328   13.498845   15.614326
  H     13.925305   15.111001   16.339908
  H     16.490244   14.081965   14.936703
  H     15.302872   15.204011   14.240080
  H     16.768690   18.504163   15.317909
  H     16.282643   19.851701   16.347404
  H     15.385557   18.329928   16.417062
  H     17.384975   20.175631   18.149072
  H     19.958073   17.759460   20.073790
  H     19.556705   16.055496   18.317978
  H     19.154909   13.979527   19.310394
  H     18.015567   12.558879   20.999248
  H     16.192384   13.525510   22.405276
  H     15.032917   15.321817   22.872113
  H     16.667154   17.321200   20.445968

 Total Charge           Charge          ....    0
 Multiplicity           Mult            ....    1
 Number of Electrons    NEL             ....  154
 Basis Dimension        Dim             ....  828

ORBITAL ENERGIES
----------------

  NO   OCC          E(Eh)            E(eV)
   0   2.0000     -91.888160     -2500.4039
   1   2.0000     -20.604188      -560.6685
   2   2.0000     -20.591428      -560.3212
   3   2.0000     -20.545085      -559.0602
   4   2.0000     -15.628640      -425.2769
   5   2.0000     -15.606706      -424.6801
   6   2.0000     -11.396561      -310.1162
   7   2.0000     -11.382971      -309.7464
   8   2.0000     -11.337041      -308.4966
   9   2.0000     -11.307260      -307.6862
  10   2.0000     -11.305299      -307.6328
  11   2.0000     -11.299121      -307.4647
  12   2.0000     -11.260807      -306.4221
  13   2.0000     -11.258884      -306.3698
  14   2.0000     -11.253170      -306.2143
  15   2.0000     -11.247398      -306.0573
  16   2.0000     -11.237072      -305.7763
  17   2.0000     -11.233198      -305.6709
  18   2.0000     -11.230114      -305.5869
  19   2.0000     -11.228453      -305.5417
  20   2.0000      -8.893220      -241.9968
  21   2.0000      -6.574796      -178.9093
  22   2.0000      -6.572790      -178.8547
  23   2.0000      -6.572204      -178.8388
  24   2.0000      -1.454262       -39.5725
  25   2.0000      -1.411169       -38.3999
  26   2.0000      -1.357284       -36.9336
  27   2.0000      -1.339521       -36.4502
  28   2.0000      -1.237044       -33.6617
  29   2.0000      -1.151964       -31.3465
  30   2.0000      -1.119472       -30.4624
  31   2.0000      -1.042534       -28.3688
  32   2.0000      -1.035064       -28.1655
  33   2.0000      -1.009275       -27.4638
  34   2.0000      -0.997518       -27.1438
  35   2.0000      -0.983000       -26.7488
  36   2.0000      -0.921208       -25.0673
  37   2.0000      -0.893294       -24.3078
  38   2.0000      -0.847557       -23.0632
  39   2.0000      -0.834950       -22.7202
  40   2.0000      -0.827604       -22.5203
  41   2.0000      -0.815171       -22.1819
  42   2.0000      -0.757121       -20.6023
  43   2.0000      -0.736219       -20.0335
  44   2.0000      -0.724640       -19.7185
  45   2.0000      -0.690806       -18.7978
  46   2.0000      -0.685582       -18.6556
  47   2.0000      -0.679479       -18.4896
  48   2.0000      -0.671025       -18.2595
  49   2.0000      -0.655435       -17.8353
  50   2.0000      -0.650004       -17.6875
  51   2.0000      -0.644365       -17.5341
  52   2.0000      -0.631477       -17.1834
  53   2.0000      -0.609955       -16.5977
  54   2.0000      -0.600098       -16.3295
  55   2.0000      -0.599043       -16.3008
  56   2.0000      -0.594692       -16.1824
  57   2.0000      -0.582241       -15.8436
  58   2.0000      -0.573787       -15.6135
  59   2.0000      -0.563160       -15.3244
  60   2.0000      -0.558626       -15.2010
  61   2.0000      -0.549614       -14.9557
  62   2.0000      -0.534221       -14.5369
  63   2.0000      -0.532020       -14.4770
  64   2.0000      -0.516788       -14.0625
  65   2.0000      -0.509185       -13.8556
  66   2.0000      -0.497941       -13.5497
  67   2.0000      -0.495126       -13.4731
  68   2.0000      -0.481836       -13.1114
  69   2.0000      -0.463348       -12.6083
  70   2.0000      -0.458998       -12.4900
  71   2.0000      -0.452809       -12.3216
  72   2.0000      -0.354440        -9.6448
  73   2.0000      -0.343855        -9.3568
  74   2.0000      -0.327255        -8.9050
  75   2.0000      -0.315676        -8.5900
  76   2.0000      -0.313548        -8.5321
  77   0.0000       0.075893         2.0652
  78   0.0000       0.113515         3.0889
  79   0.0000       0.120538         3.2800
  80   0.0000       0.136178         3.7056
  81   0.0000       0.141230         3.8431

MULLIKEN ATOMIC CHARGES
-----------------------
   0 C :   -0.282629
   1 C :    0.021542
   2 O :   -0.347534
   3 C :    0.452282
   4 O :   -0.433516
   5 C :   -0.175550
   6 C :    0.142063
   7 C :   -0.283794
   8 N :   -0.121118
   9 C :    0.201361
  10 S :   -0.438894
  11 N :   -0.197314
  12 C :    0.034816
  13 C :    0.058132
  14 C :   -0.161360
  15 C :   -0.134308
  16 C :   -0.279247
  17 C :    0.311867
  18 O :   -0.359116
  19 C :   -0.273166
  20 H :    0.112418
  21 H :    0.094720
  22 H :    0.092085
  23 H :    0.116578
  24 H :    0.104827
  25 H :    0.126969
  26 H :    0.101519
  27 H :    0.127389
  28 H :    0.196774
  29 H :    0.193621
  30 H :    0.153525
  31 H :    0.153487
  32 H :    0.159100
  33 H :    0.128098
  34 H :    0.240028
  35 H :    0.164344
Sum of atomic charges:   -0.0000000

LOEWDIN ATOMIC CHARGES
----------------------
   0 C :    0.105313
   1 C :   -0.017147
   2 O :    0.307798
   3 C :   -0.414705
   4 O :    0.101145
   5 C :   -0.090931
   6 C :   -0.064638
   7 C :    0.125084
   8 N :    0.404969
   9 C :   -0.458987
  10 S :   -0.035689
  11 N :    0.398000
  12 C :   -0.046621
  13 C :   -0.038944
  14 C :    0.022146
  15 C :    0.040570
  16 C :   -0.002413
  17 C :   -0.192651
  18 O :    0.393002
  19 C :    0.028404
  20 H :   -0.022837
  21 H :   -0.026167
  22 H :   -0.029321
  23 H :   -0.027377
  24 H :   -0.027623
  25 H :   -0.008305
  26 H :   -0.021217
  27 H :   -0.009943
  28 H :   -0.059192
  29 H :   -0.063600
  30 H :   -0.005111
  31 H :   -0.025268
  32 H :   -0.021248
  33 H :   -0.036405
  34 H :   -0.154934
  35 H :   -0.025158

  Mayer bond orders larger than 0.100000
B(  0-C ,  1-C ) :   0.9657 B(  0-C , 20-H ) :   0.9761 B(  0-C , 21-H ) :   0.9756
B(  0-C , 22-H ) :   0.9780 B(  1-C ,  2-O ) :   0.8886 B(  1-C , 23-H ) :   0.9752
B(  1-C , 24-H ) :   0.9843 B(  2-O ,  3-C ) :   1.1620 B(  3-C ,  4-O ) :   1.9725
B(  3-C ,  5-C ) :   1.0577 B(  5-C ,  6-C ) :   1.6437 B(  5-C , 12-C ) :   0.9672
B(  6-C ,  7-C ) :   0.9562 B(  6-C ,  8-N ) :   1.1508 B(  7-C , 25-H ) :   0.9652
B(  7-C , 26-H ) :   0.9912 B(  7-C , 27-H ) :   0.9637 B(  8-N ,  9-C ) :   1.1775
B(  8-N , 28-H ) :   0.9487 B(  9-C , 10-S ) :   1.6111 B(  9-C , 11-N ) :   1.3048
B( 11-N , 12-C ) :   0.9922 B( 11-N , 29-H ) :   0.9520 B( 12-C , 13-C ) :   0.9470
B( 12-C , 30-H ) :   1.0004 B( 13-C , 14-C ) :   1.3752 B( 13-C , 19-C ) :   1.3693
B( 14-C , 15-C ) :   1.3947 B( 14-C , 31-H ) :   0.9648 B( 15-C , 16-C ) :   1.3622
B( 15-C , 32-H ) :   0.9714 B( 16-C , 17-C ) :   1.3315 B( 16-C , 33-H ) :   0.9860
B( 17-C , 18-O ) :   1.1080 B( 17-C , 19-C ) :   1.3791 B( 18-O , 34-H ) :   0.9806
B( 19-C , 35-H ) :   0.9585

MP2 TOTAL ENERGY:    -1274.349443815 Eh
FINAL SINGLE POINT ENERGY     -1274.349443814884

DIPOLE MOMENT
-------------
                                X             Y             Z
Electronic contribution:     11.13595       9.61686       9.36026
Nuclear contribution   :    -12.61638     -10.85256     -10.44476
                        -----------------------------------------
Total Dipole Moment    :     -1.48042      -1.23570      -1.08450
                        -----------------------------------------
Magnitude (a.u.)       :      2.21241
Magnitude (Debye)      :      5.62350

Rotational constants in cm-1:     0.010656     0.009148     0.006045
Rotational constants in MHz :   319.465044   274.261059   181.221005

                             ****ORCA TERMINATED NORMALLY****
TOTAL RUN TIME: 0 days 1 hours 37 minutes 16 seconds 481 msec
