                         Program Version 4.2.0 -  RELEASE  -
|  1> ! ri-mp2 cc-pvtz cc-pvtz/c TightSCF  NoKeepInts
|  2>
|  3> %scf
|  4>   MaxCore 4096
|  5> end
|  6> *xyz  0  1
|  7>     C       15.9190827   14.1422863   14.5263713
|  8>     C       15.0459985   14.9464762   15.5159245
|  9>     O       15.8133866   15.9321806   16.2425817
| 10>     C       16.9406413   15.6297977   16.9564904
| 11>     O       17.3365556   14.4881097   17.1216918
| 12>     C       17.5388288   16.7938678   17.6968732
| 13>     C       17.2650476   18.1036720   17.4547723
| 14>     C       16.3319931   18.6905526   16.4149680
| 15>     N       17.9414519   19.0977469   18.1703370
| 16>     C       18.9997323   18.8766283   19.0113695
| 17>     S       19.8339586   20.1224422   19.7097662
| 18>     N       19.3313085   17.5661878   19.2425479
| 19>     C       18.5384666   16.4064829   18.7937470
| 20>     C       17.8308046   15.7535242   19.9785807
| 21>     C       18.0004208   14.3814981   20.2412420
| 22>     C       17.3512898   13.7742389   21.3292668
| 23>     C       16.5242741   14.5449290   22.1639041
| 24>     C       16.3494275   15.9109108   21.9039546
| 25>     O       15.5467621   16.6566164   22.7046635
| 26>     C       16.9965729   16.5124234   20.8200336
| 27>     H       16.5736946   14.8091300   13.9519327
| 28>     H       15.2822970   13.5990807   13.8178275
| 29>     H       16.5397280   13.3989315   15.0405266
| 30>     H       14.2496832   15.4578383   14.9601561
| 31>     H       14.5697171   14.2525613   16.2214505
| 32>     H       15.2877165   18.4559473   16.6564517
| 33>     H       16.5505400   18.2820354   15.4205505
| 34>     H       16.4139158   19.7815689   16.3389294
| 35>     H       17.7122811   20.0662915   18.0146576
| 36>     H       20.0944198   17.4276883   19.8924181
| 37>     H       19.2380577   15.6738648   18.3659477
| 38>     H       18.6255201   13.7793651   19.5863272
| 39>     H       17.4858262   12.7105672   21.5169417
| 40>     H       16.0193776   14.0795570   23.0037463
| 41>     H       15.2184503   16.0753207   23.4067806
| 42>     H       16.8497712   17.5716801   20.6402697
| 43> *
| 44>
| 45>                          ****END OF INPUT****

CARTESIAN COORDINATES (ANGSTROEM)
---------------------------------
  C     15.919083   14.142286   14.526371
  C     15.045998   14.946476   15.515924
  O     15.813387   15.932181   16.242582
  C     16.940641   15.629798   16.956490
  O     17.336556   14.488110   17.121692
  C     17.538829   16.793868   17.696873
  C     17.265048   18.103672   17.454772
  C     16.331993   18.690553   16.414968
  N     17.941452   19.097747   18.170337
  C     18.999732   18.876628   19.011370
  S     19.833959   20.122442   19.709766
  N     19.331308   17.566188   19.242548
  C     18.538467   16.406483   18.793747
  C     17.830805   15.753524   19.978581
  C     18.000421   14.381498   20.241242
  C     17.351290   13.774239   21.329267
  C     16.524274   14.544929   22.163904
  C     16.349428   15.910911   21.903955
  O     15.546762   16.656616   22.704663
  C     16.996573   16.512423   20.820034
  H     16.573695   14.809130   13.951933
  H     15.282297   13.599081   13.817827
  H     16.539728   13.398931   15.040527
  H     14.249683   15.457838   14.960156
  H     14.569717   14.252561   16.221450
  H     15.287716   18.455947   16.656452
  H     16.550540   18.282035   15.420550
  H     16.413916   19.781569   16.338929
  H     17.712281   20.066291   18.014658
  H     20.094420   17.427688   19.892418
  H     19.238058   15.673865   18.365948
  H     18.625520   13.779365   19.586327
  H     17.485826   12.710567   21.516942
  H     16.019378   14.079557   23.003746
  H     15.218450   16.075321   23.406781
  H     16.849771   17.571680   20.640270

 Total Charge           Charge          ....    0
 Multiplicity           Mult            ....    1
 Number of Electrons    NEL             ....  154
 Basis Dimension        Dim             ....  828

ORBITAL ENERGIES
----------------

  NO   OCC          E(Eh)            E(eV)
   0   2.0000     -91.887628     -2500.3895
   1   2.0000     -20.603218      -560.6421
   2   2.0000     -20.590306      -560.2907
   3   2.0000     -20.544857      -559.0540
   4   2.0000     -15.627906      -425.2570
   5   2.0000     -15.606117      -424.6640
   6   2.0000     -11.397406      -310.1392
   7   2.0000     -11.382385      -309.7304
   8   2.0000     -11.336039      -308.4693
   9   2.0000     -11.306078      -307.6540
  10   2.0000     -11.304702      -307.6166
  11   2.0000     -11.304380      -307.6078
  12   2.0000     -11.260292      -306.4081
  13   2.0000     -11.258518      -306.3598
  14   2.0000     -11.252130      -306.1860
  15   2.0000     -11.246259      -306.0263
  16   2.0000     -11.235887      -305.7440
  17   2.0000     -11.232016      -305.6387
  18   2.0000     -11.229021      -305.5572
  19   2.0000     -11.225935      -305.4732
  20   2.0000      -8.892692      -241.9825
  21   2.0000      -6.574270      -178.8950
  22   2.0000      -6.572264      -178.8404
  23   2.0000      -6.571678      -178.8245
  24   2.0000      -1.450737       -39.4766
  25   2.0000      -1.410036       -38.3690
  26   2.0000      -1.357236       -36.9323
  27   2.0000      -1.338898       -36.4333
  28   2.0000      -1.236403       -33.6442
  29   2.0000      -1.150800       -31.3149
  30   2.0000      -1.118529       -30.4367
  31   2.0000      -1.041354       -28.3367
  32   2.0000      -1.034293       -28.1445
  33   2.0000      -1.008150       -27.4331
  34   2.0000      -0.996474       -27.1154
  35   2.0000      -0.982109       -26.7246
  36   2.0000      -0.920718       -25.0540
  37   2.0000      -0.896505       -24.3951
  38   2.0000      -0.847430       -23.0597
  39   2.0000      -0.834667       -22.7125
  40   2.0000      -0.826527       -22.4909
  41   2.0000      -0.816529       -22.2189
  42   2.0000      -0.748328       -20.3630
  43   2.0000      -0.731903       -19.9161
  44   2.0000      -0.723773       -19.6949
  45   2.0000      -0.689927       -18.7739
  46   2.0000      -0.684236       -18.6190
  47   2.0000      -0.678594       -18.4655
  48   2.0000      -0.670137       -18.2354
  49   2.0000      -0.663019       -18.0417
  50   2.0000      -0.645659       -17.5693
  51   2.0000      -0.641583       -17.4584
  52   2.0000      -0.632202       -17.2031
  53   2.0000      -0.611805       -16.6481
  54   2.0000      -0.599265       -16.3068
  55   2.0000      -0.598239       -16.2789
  56   2.0000      -0.593460       -16.1489
  57   2.0000      -0.584990       -15.9184
  58   2.0000      -0.571766       -15.5585
  59   2.0000      -0.565885       -15.3985
  60   2.0000      -0.559574       -15.2268
  61   2.0000      -0.544322       -14.8118
  62   2.0000      -0.535899       -14.5826
  63   2.0000      -0.523397       -14.2424
  64   2.0000      -0.516006       -14.0412
  65   2.0000      -0.511045       -13.9063
  66   2.0000      -0.500623       -13.6226
  67   2.0000      -0.494625       -13.4594
  68   2.0000      -0.479931       -13.0596
  69   2.0000      -0.462458       -12.5841
  70   2.0000      -0.456154       -12.4126
  71   2.0000      -0.450863       -12.2686
  72   2.0000      -0.353732        -9.6255
  73   2.0000      -0.342728        -9.3261
  74   2.0000      -0.326724        -8.8906
  75   2.0000      -0.314937        -8.5699
  76   2.0000      -0.312494        -8.5034
  77   0.0000       0.076748         2.0884
  78   0.0000       0.114958         3.1282
  79   0.0000       0.120601         3.2817
  80   0.0000       0.136977         3.7273
  81   0.0000       0.140791         3.8311

MULLIKEN ATOMIC CHARGES
-----------------------
   0 C :   -0.307035
   1 C :    0.043328
   2 O :   -0.346980
   3 C :    0.450090
   4 O :   -0.437636
   5 C :   -0.168628
   6 C :    0.146398
   7 C :   -0.285589
   8 N :   -0.120526
   9 C :    0.200773
  10 S :   -0.439722
  11 N :   -0.195835
  12 C :    0.032215
  13 C :    0.058791
  14 C :   -0.160356
  15 C :   -0.133878
  16 C :   -0.278703
  17 C :    0.311627
  18 O :   -0.359218
  19 C :   -0.270965
  20 H :    0.090213
  21 H :    0.097199
  22 H :    0.130382
  23 H :    0.105154
  24 H :    0.097948
  25 H :    0.129966
  26 H :    0.123320
  27 H :    0.102268
  28 H :    0.196623
  29 H :    0.193162
  30 H :    0.153157
  31 H :    0.152589
  32 H :    0.158397
  33 H :    0.127513
  34 H :    0.239845
  35 H :    0.164115
Sum of atomic charges:   -0.0000000

LOEWDIN ATOMIC CHARGES
----------------------
   0 C :    0.104098
   1 C :   -0.012315
   2 O :    0.300271
   3 C :   -0.413527
   4 O :    0.106846
   5 C :   -0.090043
   6 C :   -0.064912
   7 C :    0.124570
   8 N :    0.404795
   9 C :   -0.459198
  10 S :   -0.036321
  11 N :    0.397937
  12 C :   -0.046523
  13 C :   -0.038494
  14 C :    0.021970
  15 C :    0.040807
  16 C :   -0.002270
  17 C :   -0.192304
  18 O :    0.392983
  19 C :    0.028829
  20 H :   -0.030148
  21 H :   -0.027565
  22 H :   -0.025134
  23 H :   -0.024938
  24 H :   -0.027133
  25 H :   -0.009098
  26 H :   -0.009650
  27 H :   -0.021279
  28 H :   -0.059330
  29 H :   -0.063656
  30 H :   -0.005349
  31 H :   -0.025614
  32 H :   -0.021448
  33 H :   -0.036547
  34 H :   -0.155080
  35 H :   -0.025230

  Mayer bond orders larger than 0.100000
B(  0-C ,  1-C ) :   0.9651 B(  0-C , 20-H ) :   0.9761 B(  0-C , 21-H ) :   0.9774
B(  0-C , 22-H ) :   0.9708 B(  1-C ,  2-O ) :   0.9047 B(  1-C , 23-H ) :   0.9843
B(  1-C , 24-H ) :   0.9798 B(  2-O ,  3-C ) :   1.1650 B(  3-C ,  4-O ) :   1.9539
B(  3-C ,  5-C ) :   1.0665 B(  5-C ,  6-C ) :   1.6423 B(  5-C , 12-C ) :   0.9668
B(  6-C ,  7-C ) :   0.9551 B(  6-C ,  8-N ) :   1.1529 B(  7-C , 25-H ) :   0.9629
B(  7-C , 26-H ) :   0.9660 B(  7-C , 27-H ) :   0.9920 B(  8-N ,  9-C ) :   1.1774
B(  8-N , 28-H ) :   0.9490 B(  9-C , 10-S ) :   1.6105 B(  9-C , 11-N ) :   1.3047
B( 11-N , 12-C ) :   0.9939 B( 11-N , 29-H ) :   0.9520 B( 12-C , 13-C ) :   0.9474
B( 12-C , 30-H ) :   1.0006 B( 13-C , 14-C ) :   1.3747 B( 13-C , 19-C ) :   1.3702
B( 14-C , 15-C ) :   1.3948 B( 14-C , 31-H ) :   0.9654 B( 15-C , 16-C ) :   1.3627
B( 15-C , 32-H ) :   0.9716 B( 16-C , 17-C ) :   1.3315 B( 16-C , 33-H ) :   0.9862
B( 17-C , 18-O ) :   1.1078 B( 17-C , 19-C ) :   1.3797 B( 18-O , 34-H ) :   0.9808
B( 19-C , 35-H ) :   0.9583

MP2 TOTAL ENERGY:    -1274.344709683 Eh
FINAL SINGLE POINT ENERGY     -1274.344709683230

DIPOLE MOMENT
-------------
                                X             Y             Z
Electronic contribution:      9.25775       9.21914      12.24156
Nuclear contribution   :    -10.93017     -10.30729     -13.26042
                        -----------------------------------------
Total Dipole Moment    :     -1.67243      -1.08815      -1.01886
                        -----------------------------------------
Magnitude (a.u.)       :      2.24035
Magnitude (Debye)      :      5.69451

Rotational constants in cm-1:     0.010565     0.008764     0.005746
Rotational constants in MHz :   316.717969   262.751812   172.249747

                             ****ORCA TERMINATED NORMALLY****
TOTAL RUN TIME: 0 days 1 hours 35 minutes 25 seconds 613 msec
