                         Program Version 5.0.0 -  RELEASE  -
|  1> ! ri-mp2 cc-pvtz cc-pvtz/c TightSCF NoKeepInts
|  2>
|  3> %scf
|  4>   MaxCore 4096
|  5> end
|  6> *xyz  0  1
|  7>     C       14.1875556   15.0925987   16.3083163
|  8>     C       15.6494546   14.7656058   16.6547911
|  9>     O       16.4780512   15.7482570   16.0139077
| 10>     C       17.7640479   15.8410982   16.4524610
| 11>     O       18.4571161   14.8415701   16.5404246
| 12>     C       17.9348291   16.9859934   17.4031475
| 13>     C       17.3465558   18.1955324   17.2304605
| 14>     C       16.4723674   18.6319249   16.0735399
| 15>     N       17.5882174   19.2232325   18.1468969
| 16>     C       18.4977447   19.1592122   19.1701526
| 17>     S       18.8041084   20.4594377   20.1451994
| 18>     N       19.1411727   17.9592380   19.3453490
| 19>     C       18.8228992   16.7141797   18.6201242
| 20>     C       18.1566773   15.7049608   19.5514901
| 21>     C       18.6816347   14.4069641   19.6896680
| 22>     C       18.0596650   13.4682744   20.5297854
| 23>     C       16.9008482   13.8290302   21.2380361
| 24>     C       16.3721439   15.1194326   21.1000667
| 25>     O       15.2470592   15.4678526   21.7735460
| 26>     C       16.9929734   16.0512677   20.2625287
| 27>     H       13.5118840   14.3606086   16.7672785
| 28>     H       14.0333275   15.0688284   15.2223215
| 29>     H       13.9152587   16.0889615   16.6773346
| 30>     H       15.7821199   14.8021006   17.7451762
| 31>     H       15.9134301   13.7580610   16.3059615
| 32>     H       16.8544552   18.2416217   15.1219185
| 33>     H       16.4231613   19.7231987   15.9747633
| 34>     H       15.4485564   18.2589132   16.2002019
| 35>     H       17.1265789   20.1118203   18.0343853
| 36>     H       19.7849458   17.9313951   20.1256576
| 37>     H       19.7682370   16.2837741   18.2589894
| 38>     H       19.5662707   14.1191462   19.1265327
| 39>     H       18.4732117   12.4655961   20.6233018
| 40>     H       16.4162278   13.1061685   21.8859534
| 41>     H       15.0063969   14.7211902   22.3425893
| 42>     H       16.5678162   17.0449526   20.1717428
| 43> *
| 44>
| 45>                          ****END OF INPUT****

CARTESIAN COORDINATES (ANGSTROEM)
---------------------------------
  C     14.187556   15.092599   16.308316
  C     15.649455   14.765606   16.654791
  O     16.478051   15.748257   16.013908
  C     17.764048   15.841098   16.452461
  O     18.457116   14.841570   16.540425
  C     17.934829   16.985993   17.403147
  C     17.346556   18.195532   17.230460
  C     16.472367   18.631925   16.073540
  N     17.588217   19.223233   18.146897
  C     18.497745   19.159212   19.170153
  S     18.804108   20.459438   20.145199
  N     19.141173   17.959238   19.345349
  C     18.822899   16.714180   18.620124
  C     18.156677   15.704961   19.551490
  C     18.681635   14.406964   19.689668
  C     18.059665   13.468274   20.529785
  C     16.900848   13.829030   21.238036
  C     16.372144   15.119433   21.100067
  O     15.247059   15.467853   21.773546
  C     16.992973   16.051268   20.262529
  H     13.511884   14.360609   16.767278
  H     14.033327   15.068828   15.222321
  H     13.915259   16.088961   16.677335
  H     15.782120   14.802101   17.745176
  H     15.913430   13.758061   16.305961
  H     16.854455   18.241622   15.121918
  H     16.423161   19.723199   15.974763
  H     15.448556   18.258913   16.200202
  H     17.126579   20.111820   18.034385
  H     19.784946   17.931395   20.125658
  H     19.768237   16.283774   18.258989
  H     19.566271   14.119146   19.126533
  H     18.473212   12.465596   20.623302
  H     16.416228   13.106168   21.885953
  H     15.006397   14.721190   22.342589
  H     16.567816   17.044953   20.171743

 Total Charge           Charge          ....    0
 Multiplicity           Mult            ....    1
 Number of Electrons    NEL             ....  154
 Basis Dimension        Dim             ....  828

ORBITAL ENERGIES
----------------

  NO   OCC          E(Eh)            E(eV)
   0   2.0000     -91.889100     -2500.4295
   1   2.0000     -20.596633      -560.4629
   2   2.0000     -20.584158      -560.1234
   3   2.0000     -20.555782      -559.3513
   4   2.0000     -15.628610      -425.2761
   5   2.0000     -15.608673      -424.7336
   6   2.0000     -11.393612      -310.0359
   7   2.0000     -11.384625      -309.7914
   8   2.0000     -11.333037      -308.3876
   9   2.0000     -11.312917      -307.8401
  10   2.0000     -11.309183      -307.7385
  11   2.0000     -11.297369      -307.4170
  12   2.0000     -11.260549      -306.4151
  13   2.0000     -11.259729      -306.3928
  14   2.0000     -11.258258      -306.3528
  15   2.0000     -11.252940      -306.2081
  16   2.0000     -11.242634      -305.9276
  17   2.0000     -11.238413      -305.8128
  18   2.0000     -11.235602      -305.7363
  19   2.0000     -11.232652      -305.6560
  20   2.0000      -8.894172      -242.0227
  21   2.0000      -6.575750      -178.9353
  22   2.0000      -6.573741      -178.8806
  23   2.0000      -6.573156      -178.8647
  24   2.0000      -1.453968       -39.5645
  25   2.0000      -1.416448       -38.5435
  26   2.0000      -1.356638       -36.9160
  27   2.0000      -1.339763       -36.4568
  28   2.0000      -1.238104       -33.6905
  29   2.0000      -1.156946       -31.4821
  30   2.0000      -1.121700       -30.5230
  31   2.0000      -1.045348       -28.4454
  32   2.0000      -1.035517       -28.1779
  33   2.0000      -1.014430       -27.6040
  34   2.0000      -0.999679       -27.2027
  35   2.0000      -0.985420       -26.8146
  36   2.0000      -0.923742       -25.1363
  37   2.0000      -0.881840       -23.9961
  38   2.0000      -0.848316       -23.0839
  39   2.0000      -0.839036       -22.8313
  40   2.0000      -0.832928       -22.6651
  41   2.0000      -0.825995       -22.4765
  42   2.0000      -0.757454       -20.6114
  43   2.0000      -0.735929       -20.0257
  44   2.0000      -0.728711       -19.8292
  45   2.0000      -0.694657       -18.9026
  46   2.0000      -0.685739       -18.6599
  47   2.0000      -0.681658       -18.5488
  48   2.0000      -0.675894       -18.3920
  49   2.0000      -0.655557       -17.8386
  50   2.0000      -0.652850       -17.7649
  51   2.0000      -0.643127       -17.5004
  52   2.0000      -0.635327       -17.2881
  53   2.0000      -0.613328       -16.6895
  54   2.0000      -0.605240       -16.4694
  55   2.0000      -0.603208       -16.4141
  56   2.0000      -0.600183       -16.3318
  57   2.0000      -0.577958       -15.7270
  58   2.0000      -0.575605       -15.6630
  59   2.0000      -0.565180       -15.3793
  60   2.0000      -0.557961       -15.1829
  61   2.0000      -0.546630       -14.8746
  62   2.0000      -0.544986       -14.8298
  63   2.0000      -0.522287       -14.2121
  64   2.0000      -0.516992       -14.0681
  65   2.0000      -0.511923       -13.9301
  66   2.0000      -0.505485       -13.7549
  67   2.0000      -0.498425       -13.5628
  68   2.0000      -0.482390       -13.1265
  69   2.0000      -0.465780       -12.6745
  70   2.0000      -0.457862       -12.4591
  71   2.0000      -0.452066       -12.3013
  72   2.0000      -0.354657        -9.6507
  73   2.0000      -0.348546        -9.4844
  74   2.0000      -0.328428        -8.9370
  75   2.0000      -0.320085        -8.7100
  76   2.0000      -0.315968        -8.5979
  77   0.0000       0.070512         1.9187
  78   0.0000       0.104069         2.8319
  79   0.0000       0.118774         3.2320
  80   0.0000       0.131556         3.5798
  81   0.0000       0.135469         3.6863

MULLIKEN ATOMIC CHARGES
-----------------------
   0 C :   -0.277507
   1 C :    0.047955
   2 O :   -0.368295
   3 C :    0.449196
   4 O :   -0.396450
   5 C :   -0.194340
   6 C :    0.131317
   7 C :   -0.281391
   8 N :   -0.124387
   9 C :    0.202223
  10 S :   -0.439380
  11 N :   -0.201251
  12 C :    0.058424
  13 C :    0.036840
  14 C :   -0.155451
  15 C :   -0.134725
  16 C :   -0.278752
  17 C :    0.317309
  18 O :   -0.360059
  19 C :   -0.286442
  20 H :    0.100301
  21 H :    0.101131
  22 H :    0.089671
  23 H :    0.093702
  24 H :    0.108977
  25 H :    0.123617
  26 H :    0.106028
  27 H :    0.124397
  28 H :    0.197346
  29 H :    0.194249
  30 H :    0.155691
  31 H :    0.157359
  32 H :    0.161230
  33 H :    0.131312
  34 H :    0.240968
  35 H :    0.169186
Sum of atomic charges:    0.0000000

LOEWDIN ATOMIC CHARGES
----------------------
   0 C :    0.108939
   1 C :   -0.017562
   2 O :    0.290108
   3 C :   -0.418035
   4 O :    0.130385
   5 C :   -0.094203
   6 C :   -0.075421
   7 C :    0.126641
   8 N :    0.404035
   9 C :   -0.457417
  10 S :   -0.036131
  11 N :    0.397007
  12 C :   -0.045147
  13 C :   -0.041550
  14 C :    0.021912
  15 C :    0.042455
  16 C :   -0.002112
  17 C :   -0.195044
  18 O :    0.393724
  19 C :    0.027188
  20 H :   -0.023037
  21 H :   -0.025822
  22 H :   -0.030442
  23 H :   -0.029005
  24 H :   -0.027808
  25 H :   -0.007744
  26 H :   -0.019255
  27 H :   -0.011120
  28 H :   -0.058674
  29 H :   -0.064112
  30 H :   -0.004460
  31 H :   -0.024289
  32 H :   -0.020049
  33 H :   -0.035460
  34 H :   -0.153898
  35 H :   -0.024597

  Mayer bond orders larger than 0.100000
B(  0-C ,  1-C ) :   0.9744 B(  0-C , 20-H ) :   0.9774 B(  0-C , 21-H ) :   0.9774
B(  0-C , 22-H ) :   0.9784 B(  1-C ,  2-O ) :   0.8965 B(  1-C , 23-H ) :   0.9646
B(  1-C , 24-H ) :   0.9823 B(  2-O ,  3-C ) :   1.0925 B(  3-C ,  4-O ) :   2.0269
B(  3-C ,  5-C ) :   1.0254 B(  5-C ,  6-C ) :   1.6708 B(  5-C , 12-C ) :   0.9612
B(  6-C ,  7-C ) :   0.9518 B(  6-C ,  8-N ) :   1.1371 B(  7-C , 25-H ) :   0.9709
B(  7-C , 26-H ) :   0.9880 B(  7-C , 27-H ) :   0.9627 B(  8-N ,  9-C ) :   1.1847
B(  8-N , 28-H ) :   0.9500 B(  9-C , 10-S ) :   1.6115 B(  9-C , 11-N ) :   1.2991
B( 11-N , 12-C ) :   0.9933 B( 11-N , 29-H ) :   0.9517 B( 12-C , 13-C ) :   0.9446
B( 12-C , 30-H ) :   0.9983 B( 13-C , 14-C ) :   1.3792 B( 13-C , 19-C ) :   1.3643
B( 14-C , 15-C ) :   1.3947 B( 14-C , 31-H ) :   0.9632 B( 15-C , 16-C ) :   1.3640
B( 15-C , 32-H ) :   0.9709 B( 16-C , 17-C ) :   1.3300 B( 16-C , 33-H ) :   0.9847
B( 17-C , 18-O ) :   1.1098 B( 17-C , 19-C ) :   1.3710 B( 18-O , 34-H ) :   0.9797
B( 19-C , 35-H ) :   0.9591

MP2 TOTAL ENERGY:    -1274.324772812 Eh
FINAL SINGLE POINT ENERGY     -1274.324772811830

DIPOLE MOMENT
-------------
                                X             Y             Z
Electronic contribution:     11.94127       8.24102       7.22007
Nuclear contribution   :    -13.25571      -9.52085      -7.75915
                        -----------------------------------------
Total Dipole Moment    :     -1.31444      -1.27984      -0.53908
                        -----------------------------------------
Magnitude (a.u.)       :      1.91216
Magnitude (Debye)      :      4.86032

Rotational constants in cm-1:     0.011408     0.009213     0.006689
Rotational constants in MHz :   342.001707   276.185606   200.543734

                             ****ORCA TERMINATED NORMALLY****
TOTAL RUN TIME: 0 days 1 hours 59 minutes 7 seconds 540 msec
