                         Program Version 4.2.0 -  RELEASE  -
|  1> ! ri-mp2 cc-pvtz cc-pvtz/c TightSCF  NoKeepInts
|  2>
|  3> %scf
|  4>   MaxCore 4096
|  5> end
|  6> *xyz  0  1
|  7>     C       15.7927006   14.1136247   14.5708849
|  8>     C       15.0428581   14.8990945   15.6694569
|  9>     O       15.8771231   15.9339878   16.2316915
| 10>     C       17.0273762   15.6520531   16.9161976
| 11>     O       17.4349801   14.5147208   17.0847122
| 12>     C       17.5928769   16.8186379   17.6768934
| 13>     C       17.3057055   18.1248671   17.4328394
| 14>     C       16.3925414   18.6997166   16.3690470
| 15>     N       17.9485073   19.1261074   18.1688707
| 16>     C       18.9879242   18.9170936   19.0362035
| 17>     S       19.7838631   20.1721522   19.7621829
| 18>     N       19.3343831   17.6107812   19.2696323
| 19>     C       18.5732093   16.4405074   18.7939675
| 20>     C       17.8492233   15.7666862   19.9570108
| 21>     C       18.0385785   14.3965267   20.2158703
| 22>     C       17.3742948   13.7702161   21.2837646
| 23>     C       16.5120325   14.5197742   22.1018255
| 24>     C       16.3174907   15.8837756   21.8454590
| 25>     O       15.4808660   16.6090093   22.6300380
| 26>     C       16.9797697   16.5042618   20.7815633
| 27>     H       16.2621384   14.7991443   13.8547803
| 28>     H       15.0930455   13.4736670   14.0199413
| 29>     H       16.5691230   13.4636801   14.9912801
| 30>     H       14.1492606   15.3616562   15.2312935
| 31>     H       14.7138191   14.2089442   16.4581234
| 32>     H       15.3434101   18.4732916   16.5968232
| 33>     H       16.6248975   18.2748875   15.3846017
| 34>     H       16.4818900   19.7889472   16.2772818
| 35>     H       17.7081082   20.0916945   18.0116358
| 36>     H       20.0826696   17.4811827   19.9383122
| 37>     H       19.2952815   15.7233531   18.3774757
| 38>     H       18.6913742   13.8105873   19.5734088
| 39>     H       17.5246937   12.7081927   21.4687513
| 40>     H       15.9954709   14.0396547   22.9261368
| 41>     H       15.1482512   16.0178768   23.3218499
| 42>     H       16.8172623   17.5616462   20.6041928
| 43> *
| 44>
| 45>                          ****END OF INPUT****

CARTESIAN COORDINATES (ANGSTROEM)
---------------------------------
  C     15.792701   14.113625   14.570885
  C     15.042858   14.899095   15.669457
  O     15.877123   15.933988   16.231692
  C     17.027376   15.652053   16.916198
  O     17.434980   14.514721   17.084712
  C     17.592877   16.818638   17.676893
  C     17.305705   18.124867   17.432839
  C     16.392541   18.699717   16.369047
  N     17.948507   19.126107   18.168871
  C     18.987924   18.917094   19.036203
  S     19.783863   20.172152   19.762183
  N     19.334383   17.610781   19.269632
  C     18.573209   16.440507   18.793968
  C     17.849223   15.766686   19.957011
  C     18.038578   14.396527   20.215870
  C     17.374295   13.770216   21.283765
  C     16.512033   14.519774   22.101825
  C     16.317491   15.883776   21.845459
  O     15.480866   16.609009   22.630038
  C     16.979770   16.504262   20.781563
  H     16.262138   14.799144   13.854780
  H     15.093046   13.473667   14.019941
  H     16.569123   13.463680   14.991280
  H     14.149261   15.361656   15.231293
  H     14.713819   14.208944   16.458123
  H     15.343410   18.473292   16.596823
  H     16.624897   18.274887   15.384602
  H     16.481890   19.788947   16.277282
  H     17.708108   20.091694   18.011636
  H     20.082670   17.481183   19.938312
  H     19.295282   15.723353   18.377476
  H     18.691374   13.810587   19.573409
  H     17.524694   12.708193   21.468751
  H     15.995471   14.039655   22.926137
  H     15.148251   16.017877   23.321850
  H     16.817262   17.561646   20.604193

 Total Charge           Charge          ....    0
 Multiplicity           Mult            ....    1
 Number of Electrons    NEL             ....  154
 Basis Dimension        Dim             ....  828

ORBITAL ENERGIES
----------------

  NO   OCC          E(Eh)            E(eV)
   0   2.0000     -91.887633     -2500.3896
   1   2.0000     -20.603225      -560.6423
   2   2.0000     -20.590708      -560.3016
   3   2.0000     -20.545879      -559.0818
   4   2.0000     -15.627825      -425.2547
   5   2.0000     -15.606240      -424.6674
   6   2.0000     -11.397357      -310.1379
   7   2.0000     -11.382473      -309.7328
   8   2.0000     -11.335633      -308.4583
   9   2.0000     -11.306513      -307.6658
  10   2.0000     -11.305090      -307.6271
  11   2.0000     -11.303264      -307.5774
  12   2.0000     -11.260267      -306.4074
  13   2.0000     -11.258494      -306.3592
  14   2.0000     -11.252541      -306.1972
  15   2.0000     -11.246715      -306.0387
  16   2.0000     -11.236331      -305.7561
  17   2.0000     -11.232423      -305.6498
  18   2.0000     -11.229488      -305.5699
  19   2.0000     -11.225026      -305.4485
  20   2.0000      -8.892699      -241.9827
  21   2.0000      -6.574278      -178.8952
  22   2.0000      -6.572271      -178.8406
  23   2.0000      -6.571685      -178.8247
  24   2.0000      -1.451943       -39.5094
  25   2.0000      -1.410439       -38.3800
  26   2.0000      -1.357652       -36.9436
  27   2.0000      -1.338855       -36.4321
  28   2.0000      -1.236448       -33.6454
  29   2.0000      -1.151193       -31.3256
  30   2.0000      -1.118818       -30.4446
  31   2.0000      -1.041503       -28.3407
  32   2.0000      -1.034064       -28.1383
  33   2.0000      -1.008534       -27.4436
  34   2.0000      -0.996535       -27.1171
  35   2.0000      -0.982132       -26.7252
  36   2.0000      -0.920821       -25.0568
  37   2.0000      -0.895087       -24.3565
  38   2.0000      -0.847359       -23.0578
  39   2.0000      -0.834871       -22.7180
  40   2.0000      -0.826950       -22.5024
  41   2.0000      -0.816994       -22.2315
  42   2.0000      -0.750065       -20.4103
  43   2.0000      -0.732785       -19.9401
  44   2.0000      -0.724127       -19.7045
  45   2.0000      -0.690171       -18.7805
  46   2.0000      -0.684481       -18.6257
  47   2.0000      -0.679181       -18.4814
  48   2.0000      -0.670483       -18.2448
  49   2.0000      -0.661877       -18.0106
  50   2.0000      -0.645745       -17.5716
  51   2.0000      -0.641379       -17.4528
  52   2.0000      -0.631719       -17.1900
  53   2.0000      -0.610706       -16.6181
  54   2.0000      -0.599409       -16.3107
  55   2.0000      -0.598563       -16.2877
  56   2.0000      -0.593861       -16.1598
  57   2.0000      -0.585594       -15.9348
  58   2.0000      -0.572140       -15.5687
  59   2.0000      -0.566493       -15.4150
  60   2.0000      -0.559734       -15.2311
  61   2.0000      -0.544836       -14.8257
  62   2.0000      -0.535799       -14.5798
  63   2.0000      -0.522999       -14.2315
  64   2.0000      -0.516262       -14.0482
  65   2.0000      -0.510864       -13.9013
  66   2.0000      -0.500835       -13.6284
  67   2.0000      -0.494850       -13.4655
  68   2.0000      -0.479741       -13.0544
  69   2.0000      -0.462103       -12.5745
  70   2.0000      -0.456905       -12.4330
  71   2.0000      -0.452058       -12.3011
  72   2.0000      -0.353709        -9.6249
  73   2.0000      -0.343081        -9.3357
  74   2.0000      -0.326754        -8.8914
  75   2.0000      -0.315040        -8.5727
  76   2.0000      -0.312919        -8.5149
  77   0.0000       0.076767         2.0889
  78   0.0000       0.114305         3.1104
  79   0.0000       0.121097         3.2952
  80   0.0000       0.136689         3.7195
  81   0.0000       0.140990         3.8365

MULLIKEN ATOMIC CHARGES
-----------------------
   0 C :   -0.306206
   1 C :    0.042630
   2 O :   -0.346510
   3 C :    0.444997
   4 O :   -0.436752
   5 C :   -0.160223
   6 C :    0.144329
   7 C :   -0.285737
   8 N :   -0.120749
   9 C :    0.201142
  10 S :   -0.439871
  11 N :   -0.196050
  12 C :    0.032725
  13 C :    0.057802
  14 C :   -0.160701
  15 C :   -0.134056
  16 C :   -0.278839
  17 C :    0.311573
  18 O :   -0.359120
  19 C :   -0.270716
  20 H :    0.089685
  21 H :    0.096770
  22 H :    0.128473
  23 H :    0.105316
  24 H :    0.098524
  25 H :    0.129369
  26 H :    0.123935
  27 H :    0.101934
  28 H :    0.196657
  29 H :    0.193186
  30 H :    0.153305
  31 H :    0.152801
  32 H :    0.158598
  33 H :    0.127674
  34 H :    0.239875
  35 H :    0.164229
Sum of atomic charges:   -0.0000000

LOEWDIN ATOMIC CHARGES
----------------------
   0 C :    0.104381
   1 C :   -0.013406
   2 O :    0.301228
   3 C :   -0.412527
   4 O :    0.107073
   5 C :   -0.089970
   6 C :   -0.065875
   7 C :    0.124709
   8 N :    0.404704
   9 C :   -0.459018
  10 S :   -0.036422
  11 N :    0.397847
  12 C :   -0.046338
  13 C :   -0.038591
  14 C :    0.021809
  15 C :    0.040723
  16 C :   -0.002314
  17 C :   -0.192353
  18 O :    0.393022
  19 C :    0.028903
  20 H :   -0.030722
  21 H :   -0.027625
  22 H :   -0.025578
  23 H :   -0.024898
  24 H :   -0.027061
  25 H :   -0.009250
  26 H :   -0.009461
  27 H :   -0.021121
  28 H :   -0.059259
  29 H :   -0.063700
  30 H :   -0.005243
  31 H :   -0.025577
  32 H :   -0.021412
  33 H :   -0.036514
  34 H :   -0.155046
  35 H :   -0.025118

  Mayer bond orders larger than 0.100000
B(  0-C ,  1-C ) :   0.9665 B(  0-C , 20-H ) :   0.9760 B(  0-C , 21-H ) :   0.9774
B(  0-C , 22-H ) :   0.9711 B(  1-C ,  2-O ) :   0.9059 B(  1-C , 23-H ) :   0.9845
B(  1-C , 24-H ) :   0.9784 B(  2-O ,  3-C ) :   1.1581 B(  3-C ,  4-O ) :   1.9518
B(  3-C ,  5-C ) :   1.0648 B(  5-C ,  6-C ) :   1.6450 B(  5-C , 12-C ) :   0.9659
B(  6-C ,  7-C ) :   0.9550 B(  6-C ,  8-N ) :   1.1506 B(  7-C , 25-H ) :   0.9629
B(  7-C , 26-H ) :   0.9664 B(  7-C , 27-H ) :   0.9917 B(  8-N ,  9-C ) :   1.1781
B(  8-N , 28-H ) :   0.9490 B(  9-C , 10-S ) :   1.6103 B(  9-C , 11-N ) :   1.3041
B( 11-N , 12-C ) :   0.9942 B( 11-N , 29-H ) :   0.9520 B( 12-C , 13-C ) :   0.9473
B( 12-C , 30-H ) :   1.0001 B( 13-C , 14-C ) :   1.3749 B( 13-C , 19-C ) :   1.3703
B( 14-C , 15-C ) :   1.3948 B( 14-C , 31-H ) :   0.9653 B( 15-C , 16-C ) :   1.3627
B( 15-C , 32-H ) :   0.9715 B( 16-C , 17-C ) :   1.3314 B( 16-C , 33-H ) :   0.9861
B( 17-C , 18-O ) :   1.1079 B( 17-C , 19-C ) :   1.3795 B( 18-O , 34-H ) :   0.9807
B( 19-C , 35-H ) :   0.9584

MP2 TOTAL ENERGY:    -1274.345054474 Eh
FINAL SINGLE POINT ENERGY     -1274.345054473715

DIPOLE MOMENT
-------------
                                X             Y             Z
Electronic contribution:      9.54094       9.45677      12.02335
Nuclear contribution   :    -11.21269     -10.57855     -12.99288
                        -----------------------------------------
Total Dipole Moment    :     -1.67175      -1.12179      -0.96953
                        -----------------------------------------
Magnitude (a.u.)       :      2.23453
Magnitude (Debye)      :      5.67974

Rotational constants in cm-1:     0.010564     0.008820     0.005771
Rotational constants in MHz :   316.690835   264.419411   173.011749

                             ****ORCA TERMINATED NORMALLY****
TOTAL RUN TIME: 0 days 1 hours 35 minutes 18 seconds 458 msec
