                         Program Version 5.0.0 -  RELEASE  -
|  1> ! ri-mp2 cc-pvtz cc-pvtz/c TightSCF NoKeepInts
|  2>
|  3> %scf
|  4>   MaxCore 4096
|  5> end
|  6> *xyz  0  1
|  7>     C       14.6112664   14.8242996   16.8335617
|  8>     C       15.7037504   14.7343160   15.7534158
|  9>     O       16.5098776   15.9218590   15.8579061
| 10>     C       17.7096993   15.8653082   16.5069127
| 11>     O       18.3492817   14.8303890   16.6006171
| 12>     C       17.9154820   17.0115108   17.4518515
| 13>     C       17.3971480   18.2539101   17.2759073
| 14>     C       16.5656057   18.7539557   16.1128093
| 15>     N       17.6802148   19.2622053   18.2026856
| 16>     C       18.5653909   19.1451098   19.2419236
| 17>     S       18.9260845   20.4236648   20.2272448
| 18>     N       19.1376549   17.9112269   19.4230022
| 19>     C       18.7641205   16.6895086   18.6855677
| 20>     C       18.0299294   15.7145603   19.6021511
| 21>     C       18.5035913   14.4006575   19.7724515
| 22>     C       17.8213172   13.4952440   20.6023093
| 23>     C       16.6534680   13.9056908   21.2674173
| 24>     C       16.1760074   15.2122000   21.0970982
| 25>     O       15.0432683   15.6088188   21.7301405
| 26>     C       16.8575737   16.1112771   20.2711283
| 27>     H       15.0597613   14.8296900   17.8356200
| 28>     H       13.9339488   13.9642604   16.7678856
| 29>     H       14.0187782   15.7396390   16.7134850
| 30>     H       16.2916077   13.8136256   15.8700503
| 31>     H       15.2252755   14.7072205   14.7660748
| 32>     H       16.9840233   18.4135128   15.1574320
| 33>     H       16.5176686   19.8487989   16.0691923
| 34>     H       15.5375638   18.3770589   16.1829762
| 35>     H       17.2699850   20.1751283   18.0871898
| 36>     H       19.7623409   17.8437753   20.2161737
| 37>     H       19.6914228   16.2099875   18.3400990
| 38>     H       19.3952166   14.0747830   19.2423903
| 39>     H       18.1949113   12.4797098   20.7205633
| 40>     H       16.1219443   13.2086309   21.9065904
| 41>     H       14.7498525   14.8722391   22.2871620
| 42>     H       16.4719674   17.1182278   20.1550137
| 43> *
| 44>
| 45>                          ****END OF INPUT****

CARTESIAN COORDINATES (ANGSTROEM)
---------------------------------
  C     14.611266   14.824300   16.833562
  C     15.703750   14.734316   15.753416
  O     16.509878   15.921859   15.857906
  C     17.709699   15.865308   16.506913
  O     18.349282   14.830389   16.600617
  C     17.915482   17.011511   17.451852
  C     17.397148   18.253910   17.275907
  C     16.565606   18.753956   16.112809
  N     17.680215   19.262205   18.202686
  C     18.565391   19.145110   19.241924
  S     18.926085   20.423665   20.227245
  N     19.137655   17.911227   19.423002
  C     18.764121   16.689509   18.685568
  C     18.029929   15.714560   19.602151
  C     18.503591   14.400657   19.772451
  C     17.821317   13.495244   20.602309
  C     16.653468   13.905691   21.267417
  C     16.176007   15.212200   21.097098
  O     15.043268   15.608819   21.730141
  C     16.857574   16.111277   20.271128
  H     15.059761   14.829690   17.835620
  H     13.933949   13.964260   16.767886
  H     14.018778   15.739639   16.713485
  H     16.291608   13.813626   15.870050
  H     15.225275   14.707220   14.766075
  H     16.984023   18.413513   15.157432
  H     16.517669   19.848799   16.069192
  H     15.537564   18.377059   16.182976
  H     17.269985   20.175128   18.087190
  H     19.762341   17.843775   20.216174
  H     19.691423   16.209988   18.340099
  H     19.395217   14.074783   19.242390
  H     18.194911   12.479710   20.720563
  H     16.121944   13.208631   21.906590
  H     14.749852   14.872239   22.287162
  H     16.471967   17.118228   20.155014

 Total Charge           Charge          ....    0
 Multiplicity           Mult            ....    1
 Number of Electrons    NEL             ....  154
 Basis Dimension        Dim             ....  828

ORBITAL ENERGIES
----------------

  NO   OCC          E(Eh)            E(eV)
   0   2.0000     -91.888084     -2500.4019
   1   2.0000     -20.597122      -560.4762
   2   2.0000     -20.594230      -560.3975
   3   2.0000     -20.549294      -559.1747
   4   2.0000     -15.627799      -425.2540
   5   2.0000     -15.607399      -424.6989
   6   2.0000     -11.395940      -310.0993
   7   2.0000     -11.383394      -309.7579
   8   2.0000     -11.333817      -308.4088
   9   2.0000     -11.310247      -307.7675
  10   2.0000     -11.307193      -307.6844
  11   2.0000     -11.297480      -307.4201
  12   2.0000     -11.259722      -306.3926
  13   2.0000     -11.259070      -306.3749
  14   2.0000     -11.255832      -306.2868
  15   2.0000     -11.250464      -306.1407
  16   2.0000     -11.240076      -305.8580
  17   2.0000     -11.235912      -305.7447
  18   2.0000     -11.233261      -305.6726
  19   2.0000     -11.227971      -305.5286
  20   2.0000      -8.893159      -241.9952
  21   2.0000      -6.574738      -178.9077
  22   2.0000      -6.572728      -178.8530
  23   2.0000      -6.572145      -178.8372
  24   2.0000      -1.453247       -39.5449
  25   2.0000      -1.414013       -38.4773
  26   2.0000      -1.357501       -36.9395
  27   2.0000      -1.338989       -36.4357
  28   2.0000      -1.237129       -33.6640
  29   2.0000      -1.154663       -31.4200
  30   2.0000      -1.120497       -30.4903
  31   2.0000      -1.043712       -28.4009
  32   2.0000      -1.034811       -28.1586
  33   2.0000      -1.011963       -27.5369
  34   2.0000      -0.998470       -27.1697
  35   2.0000      -0.983964       -26.7750
  36   2.0000      -0.922365       -25.0988
  37   2.0000      -0.890706       -24.2373
  38   2.0000      -0.847230       -23.0543
  39   2.0000      -0.836481       -22.7618
  40   2.0000      -0.830486       -22.5987
  41   2.0000      -0.815617       -22.1941
  42   2.0000      -0.757705       -20.6182
  43   2.0000      -0.736473       -20.0405
  44   2.0000      -0.726662       -19.7735
  45   2.0000      -0.692795       -18.8519
  46   2.0000      -0.685378       -18.6501
  47   2.0000      -0.678436       -18.4612
  48   2.0000      -0.674142       -18.3443
  49   2.0000      -0.660809       -17.9815
  50   2.0000      -0.650340       -17.6967
  51   2.0000      -0.644974       -17.5506
  52   2.0000      -0.634666       -17.2702
  53   2.0000      -0.604233       -16.4420
  54   2.0000      -0.601685       -16.3727
  55   2.0000      -0.597837       -16.2680
  56   2.0000      -0.594958       -16.1896
  57   2.0000      -0.582094       -15.8396
  58   2.0000      -0.575305       -15.6549
  59   2.0000      -0.562580       -15.3086
  60   2.0000      -0.559403       -15.2221
  61   2.0000      -0.555464       -15.1149
  62   2.0000      -0.538906       -14.6644
  63   2.0000      -0.525011       -14.2863
  64   2.0000      -0.519555       -14.1378
  65   2.0000      -0.510654       -13.8956
  66   2.0000      -0.498471       -13.5641
  67   2.0000      -0.496051       -13.4982
  68   2.0000      -0.482138       -13.1196
  69   2.0000      -0.463827       -12.6214
  70   2.0000      -0.459149       -12.4941
  71   2.0000      -0.451791       -12.2939
  72   2.0000      -0.353692        -9.6244
  73   2.0000      -0.346342        -9.4244
  74   2.0000      -0.327367        -8.9081
  75   2.0000      -0.317518        -8.6401
  76   2.0000      -0.315000        -8.5716
  77   0.0000       0.075262         2.0480
  78   0.0000       0.109195         2.9714
  79   0.0000       0.119408         3.2493
  80   0.0000       0.133283         3.6268
  81   0.0000       0.142792         3.8856

MULLIKEN ATOMIC CHARGES
-----------------------
   0 C :   -0.280793
   1 C :    0.022313
   2 O :   -0.356887
   3 C :    0.442964
   4 O :   -0.417157
   5 C :   -0.174669
   6 C :    0.139159
   7 C :   -0.284290
   8 N :   -0.124597
   9 C :    0.204679
  10 S :   -0.440423
  11 N :   -0.199843
  12 C :    0.050698
  13 C :    0.052195
  14 C :   -0.159616
  15 C :   -0.133741
  16 C :   -0.279014
  17 C :    0.317876
  18 O :   -0.361577
  19 C :   -0.288856
  20 H :    0.113905
  21 H :    0.097537
  22 H :    0.088906
  23 H :    0.117726
  24 H :    0.102016
  25 H :    0.124951
  26 H :    0.102779
  27 H :    0.126466
  28 H :    0.196936
  29 H :    0.194138
  30 H :    0.154190
  31 H :    0.154740
  32 H :    0.160113
  33 H :    0.129902
  34 H :    0.240493
  35 H :    0.166780
Sum of atomic charges:    0.0000000

LOEWDIN ATOMIC CHARGES
----------------------
   0 C :    0.104295
   1 C :   -0.015239
   2 O :    0.303284
   3 C :   -0.414038
   4 O :    0.111547
   5 C :   -0.092052
   6 C :   -0.071335
   7 C :    0.125549
   8 N :    0.404253
   9 C :   -0.457646
  10 S :   -0.036766
  11 N :    0.397440
  12 C :   -0.045703
  13 C :   -0.040181
  14 C :    0.022010
  15 C :    0.041411
  16 C :   -0.002512
  17 C :   -0.193856
  18 O :    0.393558
  19 C :    0.028815
  20 H :   -0.023735
  21 H :   -0.025941
  22 H :   -0.030103
  23 H :   -0.026882
  24 H :   -0.028412
  25 H :   -0.008218
  26 H :   -0.020267
  27 H :   -0.010646
  28 H :   -0.058980
  29 H :   -0.063963
  30 H :   -0.004912
  31 H :   -0.024945
  32 H :   -0.020742
  33 H :   -0.035975
  34 H :   -0.154418
  35 H :   -0.024696

  Mayer bond orders larger than 0.100000
B(  0-C ,  1-C ) :   0.9678 B(  0-C , 20-H ) :   0.9719 B(  0-C , 21-H ) :   0.9772
B(  0-C , 22-H ) :   0.9795 B(  1-C ,  2-O ) :   0.8881 B(  1-C , 23-H ) :   0.9728
B(  1-C , 24-H ) :   0.9844 B(  2-O ,  3-C ) :   1.1352 B(  3-C ,  4-O ) :   2.0012
B(  3-C ,  5-C ) :   1.0295 B(  5-C ,  6-C ) :   1.6630 B(  5-C , 12-C ) :   0.9643
B(  6-C ,  7-C ) :   0.9536 B(  6-C ,  8-N ) :   1.1418 B(  7-C , 25-H ) :   0.9690
B(  7-C , 26-H ) :   0.9891 B(  7-C , 27-H ) :   0.9631 B(  8-N ,  9-C ) :   1.1830
B(  8-N , 28-H ) :   0.9495 B(  9-C , 10-S ) :   1.6095 B(  9-C , 11-N ) :   1.3017
B( 11-N , 12-C ) :   0.9932 B( 11-N , 29-H ) :   0.9518 B( 12-C , 13-C ) :   0.9448
B( 12-C , 30-H ) :   0.9989 B( 13-C , 14-C ) :   1.3764 B( 13-C , 19-C ) :   1.3653
B( 14-C , 15-C ) :   1.3937 B( 14-C , 31-H ) :   0.9642 B( 15-C , 16-C ) :   1.3632
B( 15-C , 32-H ) :   0.9713 B( 16-C , 17-C ) :   1.3308 B( 16-C , 33-H ) :   0.9852
B( 17-C , 18-O ) :   1.1064 B( 17-C , 19-C ) :   1.3741 B( 18-O , 34-H ) :   0.9802
B( 19-C , 35-H ) :   0.9593

MP2 TOTAL ENERGY:    -1274.340025588 Eh
FINAL SINGLE POINT ENERGY     -1274.340025587759

DIPOLE MOMENT
-------------
                                X             Y             Z
Electronic contribution:     11.00574       8.82395       7.33967
Nuclear contribution   :    -12.38617     -10.15656      -8.23301
                        -----------------------------------------
Total Dipole Moment    :     -1.38044      -1.33261      -0.89334
                        -----------------------------------------
Magnitude (a.u.)       :      2.11648
Magnitude (Debye)      :      5.37967

Rotational constants in cm-1:     0.011475     0.009228     0.006549
Rotational constants in MHz :   344.008796   276.662290   196.323182

                             ****ORCA TERMINATED NORMALLY****
TOTAL RUN TIME: 0 days 2 hours 53 minutes 41 seconds 802 msec
