                         Program Version 4.2.0 -  RELEASE  -
|  1> ! ri-mp2 cc-pvtz cc-pvtz/c TightSCF  NoKeepInts
|  2>
|  3> %scf
|  4>   MaxCore 4096
|  5> end
|  6> *xyz  0  1
|  7>     C       14.8374160   14.6365991   17.4131732
|  8>     C       15.6226660   15.4556697   16.3761637
|  9>     O       16.9768179   14.9669201   16.3832671
| 10>     C       18.1054075   15.7443675   16.4430622
| 11>     O       19.1809708   15.1918578   16.3069998
| 12>     C       18.0114523   16.9103577   17.3695342
| 13>     C       17.5313856   18.1080592   16.9641325
| 14>     C       17.0050662   18.4573171   15.5878770
| 15>     N       17.5671369   19.2025144   17.8305068
| 16>     C       18.1946430   19.2081754   19.0492964
| 17>     S       18.2665759   20.5717975   19.9817744
| 18>     N       18.7620965   18.0252982   19.4566247
| 19>     C       18.6378586   16.7320623   18.7530080
| 20>     C       17.8716429   15.7068520   19.5849564
| 21>     C       18.2472213   14.3515160   19.5414189
| 22>     C       17.5557316   13.3903364   20.2971002
| 23>     C       16.4780724   13.7861788   21.1070424
| 24>     C       16.0964128   15.1337490   21.1505782
| 25>     O       15.0470803   15.5167836   21.9204328
| 26>     C       16.7830500   16.0883954   20.3930390
| 27>     H       15.2644118   14.7640094   18.4134769
| 28>     H       14.8665829   13.5686675   17.1632192
| 29>     H       13.7883704   14.9543955   17.4452048
| 30>     H       15.1820199   15.3281983   15.3788646
| 31>     H       15.5495979   16.5099207   16.6561279
| 32>     H       17.1311549   17.6387347   14.8690472
| 33>     H       17.5418571   19.3219837   15.1763886
| 34>     H       15.9383753   18.7108511   15.6250878
| 35>     H       17.1747249   20.0850062   17.5419239
| 36>     H       19.2067710   18.0554719   20.3654460
| 37>     H       19.6555290   16.3415800   18.6033711
| 38>     H       19.0738331   14.0401698   18.9057414
| 39>     H       17.8550175   12.3447092   20.2490143
| 40>     H       15.9409304   13.0464684   21.6913738
| 41>     H       14.7372900   14.7334818   22.3997019
| 42>     H       16.4618299   17.1235445   20.4400226
| 43> *
| 44>
| 45>                          ****END OF INPUT****

CARTESIAN COORDINATES (ANGSTROEM)
---------------------------------
  C     14.837416   14.636599   17.413173
  C     15.622666   15.455670   16.376164
  O     16.976818   14.966920   16.383267
  C     18.105407   15.744367   16.443062
  O     19.180971   15.191858   16.307000
  C     18.011452   16.910358   17.369534
  C     17.531386   18.108059   16.964133
  C     17.005066   18.457317   15.587877
  N     17.567137   19.202514   17.830507
  C     18.194643   19.208175   19.049296
  S     18.266576   20.571797   19.981774
  N     18.762096   18.025298   19.456625
  C     18.637859   16.732062   18.753008
  C     17.871643   15.706852   19.584956
  C     18.247221   14.351516   19.541419
  C     17.555732   13.390336   20.297100
  C     16.478072   13.786179   21.107042
  C     16.096413   15.133749   21.150578
  O     15.047080   15.516784   21.920433
  C     16.783050   16.088395   20.393039
  H     15.264412   14.764009   18.413477
  H     14.866583   13.568668   17.163219
  H     13.788370   14.954396   17.445205
  H     15.182020   15.328198   15.378865
  H     15.549598   16.509921   16.656128
  H     17.131155   17.638735   14.869047
  H     17.541857   19.321984   15.176389
  H     15.938375   18.710851   15.625088
  H     17.174725   20.085006   17.541924
  H     19.206771   18.055472   20.365446
  H     19.655529   16.341580   18.603371
  H     19.073833   14.040170   18.905741
  H     17.855017   12.344709   20.249014
  H     15.940930   13.046468   21.691374
  H     14.737290   14.733482   22.399702
  H     16.461830   17.123545   20.440023

 Total Charge           Charge          ....    0
 Multiplicity           Mult            ....    1
 Number of Electrons    NEL             ....  154
 Basis Dimension        Dim             ....  828

ORBITAL ENERGIES
----------------

  NO   OCC          E(Eh)            E(eV)
   0   2.0000     -91.889041     -2500.4279
   1   2.0000     -20.602896      -560.6333
   2   2.0000     -20.598278      -560.5076
   3   2.0000     -20.554086      -559.3051
   4   2.0000     -15.625020      -425.1784
   5   2.0000     -15.611158      -424.8012
   6   2.0000     -11.398371      -310.1654
   7   2.0000     -11.385861      -309.8250
   8   2.0000     -11.326143      -308.2000
   9   2.0000     -11.316020      -307.9246
  10   2.0000     -11.315189      -307.9019
  11   2.0000     -11.304330      -307.6065
  12   2.0000     -11.271620      -306.7164
  13   2.0000     -11.266542      -306.5782
  14   2.0000     -11.263122      -306.4851
  15   2.0000     -11.255608      -306.2807
  16   2.0000     -11.244421      -305.9763
  17   2.0000     -11.240640      -305.8734
  18   2.0000     -11.237632      -305.7915
  19   2.0000     -11.226944      -305.5007
  20   2.0000      -8.894163      -242.0225
  21   2.0000      -6.575757      -178.9354
  22   2.0000      -6.573725      -178.8801
  23   2.0000      -6.573155      -178.8646
  24   2.0000      -1.452476       -39.5239
  25   2.0000      -1.418110       -38.5887
  26   2.0000      -1.361345       -37.0441
  27   2.0000      -1.339147       -36.4400
  28   2.0000      -1.239155       -33.7191
  29   2.0000      -1.159825       -31.5605
  30   2.0000      -1.125304       -30.6211
  31   2.0000      -1.048462       -28.5301
  32   2.0000      -1.039248       -28.2794
  33   2.0000      -1.017893       -27.6983
  34   2.0000      -1.004880       -27.3442
  35   2.0000      -0.988865       -26.9084
  36   2.0000      -0.927524       -25.2392
  37   2.0000      -0.884583       -24.0707
  38   2.0000      -0.854190       -23.2437
  39   2.0000      -0.840962       -22.8837
  40   2.0000      -0.835437       -22.7334
  41   2.0000      -0.834582       -22.7101
  42   2.0000      -0.758125       -20.6296
  43   2.0000      -0.738750       -20.1024
  44   2.0000      -0.730636       -19.8816
  45   2.0000      -0.696526       -18.9534
  46   2.0000      -0.689621       -18.7656
  47   2.0000      -0.683691       -18.6042
  48   2.0000      -0.676227       -18.4011
  49   2.0000      -0.662899       -18.0384
  50   2.0000      -0.653702       -17.7881
  51   2.0000      -0.641147       -17.4465
  52   2.0000      -0.637426       -17.3452
  53   2.0000      -0.617450       -16.8017
  54   2.0000      -0.611620       -16.6430
  55   2.0000      -0.606133       -16.4937
  56   2.0000      -0.602093       -16.3838
  57   2.0000      -0.588481       -16.0134
  58   2.0000      -0.576904       -15.6984
  59   2.0000      -0.567607       -15.4454
  60   2.0000      -0.561780       -15.2868
  61   2.0000      -0.557861       -15.1802
  62   2.0000      -0.538364       -14.6496
  63   2.0000      -0.533834       -14.5264
  64   2.0000      -0.518476       -14.1084
  65   2.0000      -0.513052       -13.9609
  66   2.0000      -0.502826       -13.6826
  67   2.0000      -0.501457       -13.6453
  68   2.0000      -0.486874       -13.2485
  69   2.0000      -0.468646       -12.7525
  70   2.0000      -0.455190       -12.3863
  71   2.0000      -0.450832       -12.2678
  72   2.0000      -0.357077        -9.7166
  73   2.0000      -0.350454        -9.5363
  74   2.0000      -0.328808        -8.9473
  75   2.0000      -0.323146        -8.7933
  76   2.0000      -0.317594        -8.6422
  77   0.0000       0.091007         2.4764
  78   0.0000       0.102823         2.7980
  79   0.0000       0.108850         2.9620
  80   0.0000       0.128612         3.4997
  81   0.0000       0.129820         3.5326

MULLIKEN ATOMIC CHARGES
-----------------------
   0 C :   -0.267008
   1 C :    0.014272
   2 O :   -0.308457
   3 C :    0.386833
   4 O :   -0.373725
   5 C :   -0.146837
   6 C :    0.114784
   7 C :   -0.320815
   8 N :   -0.135904
   9 C :    0.206229
  10 S :   -0.442848
  11 N :   -0.224679
  12 C :    0.058797
  13 C :    0.017386
  14 C :   -0.192598
  15 C :   -0.139503
  16 C :   -0.266246
  17 C :    0.300906
  18 O :   -0.360927
  19 C :   -0.249022
  20 H :    0.113779
  21 H :    0.102813
  22 H :    0.090574
  23 H :    0.111704
  24 H :    0.085685
  25 H :    0.118351
  26 H :    0.139110
  27 H :    0.121297
  28 H :    0.194968
  29 H :    0.201595
  30 H :    0.169397
  31 H :    0.167388
  32 H :    0.163299
  33 H :    0.132141
  34 H :    0.240895
  35 H :    0.176362
Sum of atomic charges:   -0.0000000

LOEWDIN ATOMIC CHARGES
----------------------
   0 C :    0.111227
   1 C :   -0.024723
   2 O :    0.319817
   3 C :   -0.421231
   4 O :    0.131276
   5 C :   -0.078129
   6 C :   -0.112604
   7 C :    0.122317
   8 N :    0.400383
   9 C :   -0.456105
  10 S :   -0.039593
  11 N :    0.398026
  12 C :   -0.041802
  13 C :   -0.041774
  14 C :    0.023399
  15 C :    0.045606
  16 C :   -0.001595
  17 C :   -0.194332
  18 O :    0.395750
  19 C :    0.024892
  20 H :   -0.024124
  21 H :   -0.025194
  22 H :   -0.026967
  23 H :   -0.031208
  24 H :   -0.039429
  25 H :   -0.010494
  26 H :   -0.009203
  27 H :   -0.016932
  28 H :   -0.058693
  29 H :   -0.063709
  30 H :   -0.001584
  31 H :   -0.021807
  32 H :   -0.018557
  33 H :   -0.035091
  34 H :   -0.153262
  35 H :   -0.024552

  Mayer bond orders larger than 0.100000
B(  0-C ,  1-C ) :   0.9789 B(  0-C , 20-H ) :   0.9704 B(  0-C , 21-H ) :   0.9811
B(  0-C , 22-H ) :   0.9762 B(  1-C ,  2-O ) :   0.9253 B(  1-C , 23-H ) :   0.9801
B(  1-C , 24-H ) :   0.9616 B(  2-O ,  3-C ) :   1.1321 B(  3-C ,  4-O ) :   2.0904
B(  3-C ,  5-C ) :   0.9214 B(  5-C ,  6-C ) :   1.7045 B(  5-C , 12-C ) :   0.9620
B(  6-C ,  7-C ) :   0.9468 B(  6-C ,  8-N ) :   1.1052 B(  7-C , 25-H ) :   0.9819
B(  7-C , 26-H ) :   0.9698 B(  7-C , 27-H ) :   0.9667 B(  8-N ,  9-C ) :   1.1999
B(  8-N , 28-H ) :   0.9533 B(  9-C , 10-S ) :   1.6071 B(  9-C , 11-N ) :   1.2859
B( 11-N , 12-C ) :   0.9859 B( 11-N , 29-H ) :   0.9474 B( 12-C , 13-C ) :   0.9477
B( 12-C , 30-H ) :   0.9966 B( 13-C , 14-C ) :   1.3872 B( 13-C , 19-C ) :   1.3515
B( 14-C , 15-C ) :   1.3995 B( 14-C , 31-H ) :   0.9619 B( 15-C , 16-C ) :   1.3563
B( 15-C , 32-H ) :   0.9703 B( 16-C , 17-C ) :   1.3354 B( 16-C , 33-H ) :   0.9851
B( 17-C , 18-O ) :   1.1081 B( 17-C , 19-C ) :   1.3659 B( 18-O , 34-H ) :   0.9796
B( 19-C , 35-H ) :   0.9569

MP2 TOTAL ENERGY:    -1274.324492656 Eh
FINAL SINGLE POINT ENERGY     -1274.324492656081

DIPOLE MOMENT
-------------
                                X             Y             Z
Electronic contribution:     10.08834       7.77915       6.38066
Nuclear contribution   :    -11.67377      -8.84838      -7.10854
                        -----------------------------------------
Total Dipole Moment    :     -1.58543      -1.06923      -0.72788
                        -----------------------------------------
Magnitude (a.u.)       :      2.04614
Magnitude (Debye)      :      5.20086

Rotational constants in cm-1:     0.012158     0.009300     0.006750
Rotational constants in MHz :   364.490321   278.811724   202.348894

                             ****ORCA TERMINATED NORMALLY****
TOTAL RUN TIME: 0 days 1 hours 48 minutes 6 seconds 770 msec
