                         Program Version 4.2.0 -  RELEASE  -
|  1> ! ri-mp2 cc-pvtz cc-pvtz/c TightSCF  NoKeepInts
|  2>
|  3> %scf
|  4>   MaxCore 4096
|  5> end
|  6> *xyz  0  1
|  7>     C       15.8224827   13.9099696   14.8962780
|  8>     C       15.4777377   14.3103622   16.3413065
|  9>     O       16.5029123   15.2057192   16.8068404
| 10>     C       16.2757604   16.5543777   16.8289623
| 11>     O       15.3224462   17.0667236   16.2667994
| 12>     C       17.2941389   17.3010435   17.6456558
| 13>     C       17.3011891   18.6550050   17.7405275
| 14>     C       16.3405796   19.6248936   17.0863316
| 15>     N       18.2965607   19.3008590   18.4800774
| 16>     C       19.3707223   18.6793494   19.0588772
| 17>     S       20.5589917   19.5285008   19.8353224
| 18>     N       19.4132862   17.3120841   18.9595949
| 19>     C       18.3420013   16.4670159   18.4008187
| 20>     C       17.7103981   15.6326952   19.5116956
| 21>     C       17.8528859   14.2323341   19.5215167
| 22>     C       17.2711092   13.4614933   20.5420876
| 23>     C       16.5430231   14.0958059   21.5631256
| 24>     C       16.4024559   15.4903902   21.5586313
| 25>     O       15.7008957   16.1058127   22.5435735
| 26>     C       16.9822858   16.2547918   20.5414759
| 27>     H       15.8091297   14.7896337   14.2402372
| 28>     H       15.0921891   13.1871096   14.5129909
| 29>     H       16.8187581   13.4536232   14.8460637
| 30>     H       14.4778719   14.7626402   16.3960763
| 31>     H       15.4751922   13.4093625   16.9681322
| 32>     H       15.3147567   19.4414367   17.4308852
| 33>     H       16.3467307   19.4985695   15.9962144
| 34>     H       16.5784181   20.6737512   17.2987249
| 35>     H       18.2823454   20.3049054   18.5621271
| 36>     H       20.1978059   16.8791550   19.4296313
| 37>     H       18.8101489   15.7850206   17.6771254
| 38>     H       18.4108766   13.7391194   18.7301041
| 39>     H       17.3853453   12.3789321   20.5398475
| 40>     H       16.0922078   13.5050015   22.3536758
| 41>     H       15.4053952   15.4212525   23.1622904
| 42>     H       16.8679657   17.3332599   20.5603753
| 43> *
| 44>
| 45>                          ****END OF INPUT****

CARTESIAN COORDINATES (ANGSTROEM)
---------------------------------
  C     15.822483   13.909970   14.896278
  C     15.477738   14.310362   16.341307
  O     16.502912   15.205719   16.806840
  C     16.275760   16.554378   16.828962
  O     15.322446   17.066724   16.266799
  C     17.294139   17.301043   17.645656
  C     17.301189   18.655005   17.740527
  C     16.340580   19.624894   17.086332
  N     18.296561   19.300859   18.480077
  C     19.370722   18.679349   19.058877
  S     20.558992   19.528501   19.835322
  N     19.413286   17.312084   18.959595
  C     18.342001   16.467016   18.400819
  C     17.710398   15.632695   19.511696
  C     17.852886   14.232334   19.521517
  C     17.271109   13.461493   20.542088
  C     16.543023   14.095806   21.563126
  C     16.402456   15.490390   21.558631
  O     15.700896   16.105813   22.543573
  C     16.982286   16.254792   20.541476
  H     15.809130   14.789634   14.240237
  H     15.092189   13.187110   14.512991
  H     16.818758   13.453623   14.846064
  H     14.477872   14.762640   16.396076
  H     15.475192   13.409363   16.968132
  H     15.314757   19.441437   17.430885
  H     16.346731   19.498569   15.996214
  H     16.578418   20.673751   17.298725
  H     18.282345   20.304905   18.562127
  H     20.197806   16.879155   19.429631
  H     18.810149   15.785021   17.677125
  H     18.410877   13.739119   18.730104
  H     17.385345   12.378932   20.539847
  H     16.092208   13.505002   22.353676
  H     15.405395   15.421252   23.162290
  H     16.867966   17.333260   20.560375

 Total Charge           Charge          ....    0
 Multiplicity           Mult            ....    1
 Number of Electrons    NEL             ....  154
 Basis Dimension        Dim             ....  828

ORBITAL ENERGIES
----------------

  NO   OCC          E(Eh)            E(eV)
   0   2.0000     -91.888751     -2500.4200
   1   2.0000     -20.601792      -560.6033
   2   2.0000     -20.595648      -560.4361
   3   2.0000     -20.541998      -558.9762
   4   2.0000     -15.628980      -425.2862
   5   2.0000     -15.608042      -424.7164
   6   2.0000     -11.395641      -310.0912
   7   2.0000     -11.383840      -309.7700
   8   2.0000     -11.335949      -308.4669
   9   2.0000     -11.312729      -307.8350
  10   2.0000     -11.308629      -307.7235
  11   2.0000     -11.296220      -307.3858
  12   2.0000     -11.258873      -306.3695
  13   2.0000     -11.258757      -306.3664
  14   2.0000     -11.254244      -306.2435
  15   2.0000     -11.251968      -306.1816
  16   2.0000     -11.242103      -305.9132
  17   2.0000     -11.237595      -305.7905
  18   2.0000     -11.237374      -305.7845
  19   2.0000     -11.226419      -305.4864
  20   2.0000      -8.893811      -242.0129
  21   2.0000      -6.575385      -178.9253
  22   2.0000      -6.573381      -178.8708
  23   2.0000      -6.572794      -178.8548
  24   2.0000      -1.451709       -39.5030
  25   2.0000      -1.415298       -38.5122
  26   2.0000      -1.355106       -36.8743
  27   2.0000      -1.339906       -36.4607
  28   2.0000      -1.238291       -33.6956
  29   2.0000      -1.156810       -31.4784
  30   2.0000      -1.120189       -30.4819
  31   2.0000      -1.042531       -28.3687
  32   2.0000      -1.037894       -28.2425
  33   2.0000      -1.014122       -27.5957
  34   2.0000      -0.995313       -27.0838
  35   2.0000      -0.983933       -26.7742
  36   2.0000      -0.922140       -25.0927
  37   2.0000      -0.891953       -24.2713
  38   2.0000      -0.846767       -23.0417
  39   2.0000      -0.837012       -22.7762
  40   2.0000      -0.833163       -22.6715
  41   2.0000      -0.817793       -22.2533
  42   2.0000      -0.761152       -20.7120
  43   2.0000      -0.731786       -19.9129
  44   2.0000      -0.722928       -19.6719
  45   2.0000      -0.694806       -18.9066
  46   2.0000      -0.687635       -18.7115
  47   2.0000      -0.680504       -18.5175
  48   2.0000      -0.671919       -18.2838
  49   2.0000      -0.654553       -17.8113
  50   2.0000      -0.645770       -17.5723
  51   2.0000      -0.644589       -17.5402
  52   2.0000      -0.629922       -17.1411
  53   2.0000      -0.612942       -16.6790
  54   2.0000      -0.605831       -16.4855
  55   2.0000      -0.598917       -16.2974
  56   2.0000      -0.598116       -16.2756
  57   2.0000      -0.578342       -15.7375
  58   2.0000      -0.570900       -15.5350
  59   2.0000      -0.569238       -15.4897
  60   2.0000      -0.563415       -15.3313
  61   2.0000      -0.539575       -14.6826
  62   2.0000      -0.534447       -14.5430
  63   2.0000      -0.532103       -14.4792
  64   2.0000      -0.524226       -14.2649
  65   2.0000      -0.513142       -13.9633
  66   2.0000      -0.500906       -13.6304
  67   2.0000      -0.496938       -13.5224
  68   2.0000      -0.485940       -13.2231
  69   2.0000      -0.463845       -12.6219
  70   2.0000      -0.454058       -12.3555
  71   2.0000      -0.449368       -12.2279
  72   2.0000      -0.354245        -9.6395
  73   2.0000      -0.348586        -9.4855
  74   2.0000      -0.328044        -8.9265
  75   2.0000      -0.320454        -8.7200
  76   2.0000      -0.315785        -8.5930
  77   0.0000       0.076465         2.0807
  78   0.0000       0.107377         2.9219
  79   0.0000       0.124496         3.3877
  80   0.0000       0.132780         3.6131
  81   0.0000       0.136404         3.7118

MULLIKEN ATOMIC CHARGES
-----------------------
   0 C :   -0.275286
   1 C :    0.030063
   2 O :   -0.352188
   3 C :    0.470899
   4 O :   -0.437365
   5 C :   -0.220856
   6 C :    0.150149
   7 C :   -0.274390
   8 N :   -0.120247
   9 C :    0.210431
  10 S :   -0.439782
  11 N :   -0.203264
  12 C :    0.048564
  13 C :    0.067215
  14 C :   -0.180564
  15 C :   -0.132998
  16 C :   -0.278260
  17 C :    0.315618
  18 O :   -0.356784
  19 C :   -0.268791
  20 H :    0.105407
  21 H :    0.092010
  22 H :    0.091449
  23 H :    0.109186
  24 H :    0.106391
  25 H :    0.132179
  26 H :    0.130620
  27 H :    0.095064
  28 H :    0.197313
  29 H :    0.194441
  30 H :    0.151010
  31 H :    0.148376
  32 H :    0.159899
  33 H :    0.129365
  34 H :    0.240556
  35 H :    0.164569
Sum of atomic charges:   -0.0000000

LOEWDIN ATOMIC CHARGES
----------------------
   0 C :    0.104462
   1 C :   -0.014900
   2 O :    0.310635
   3 C :   -0.413652
   4 O :    0.094245
   5 C :   -0.094226
   6 C :   -0.058777
   7 C :    0.131524
   8 N :    0.406554
   9 C :   -0.456656
  10 S :   -0.035400
  11 N :    0.396579
  12 C :   -0.052676
  13 C :   -0.038771
  14 C :    0.014421
  15 C :    0.038635
  16 C :   -0.001588
  17 C :   -0.189502
  18 O :    0.395056
  19 C :    0.031501
  20 H :   -0.024669
  21 H :   -0.026852
  22 H :   -0.029469
  23 H :   -0.027651
  24 H :   -0.028030
  25 H :   -0.004482
  26 H :   -0.004077
  27 H :   -0.023419
  28 H :   -0.057580
  29 H :   -0.064538
  30 H :   -0.011194
  31 H :   -0.030318
  32 H :   -0.021621
  33 H :   -0.035718
  34 H :   -0.154039
  35 H :   -0.023806

  Mayer bond orders larger than 0.100000
B(  0-C ,  1-C ) :   0.9698 B(  0-C , 20-H ) :   0.9780 B(  0-C , 21-H ) :   0.9757
B(  0-C , 22-H ) :   0.9783 B(  1-C ,  2-O ) :   0.8873 B(  1-C , 23-H ) :   0.9747
B(  1-C , 24-H ) :   0.9812 B(  2-O ,  3-C ) :   1.1684 B(  3-C ,  4-O ) :   1.9563
B(  3-C ,  5-C ) :   1.0661 B(  5-C ,  6-C ) :   1.6561 B(  5-C , 12-C ) :   0.9729
B(  6-C ,  7-C ) :   0.9673 B(  6-C ,  8-N ) :   1.1651 B(  7-C , 25-H ) :   0.9604
B(  7-C , 26-H ) :   0.9603 B(  7-C , 27-H ) :   0.9905 B(  8-N ,  9-C ) :   1.1824
B(  8-N , 28-H ) :   0.9479 B(  9-C , 10-S ) :   1.6079 B(  9-C , 11-N ) :   1.3047
B( 11-N , 12-C ) :   0.9887 B( 11-N , 29-H ) :   0.9516 B( 12-C , 13-C ) :   0.9366
B( 12-C , 30-H ) :   1.0029 B( 13-C , 14-C ) :   1.3554 B( 13-C , 19-C ) :   1.3823
B( 14-C , 15-C ) :   1.3921 B( 14-C , 31-H ) :   0.9719 B( 15-C , 16-C ) :   1.3641
B( 15-C , 32-H ) :   0.9708 B( 16-C , 17-C ) :   1.3316 B( 16-C , 33-H ) :   0.9852
B( 17-C , 18-O ) :   1.1098 B( 17-C , 19-C ) :   1.3733 B( 18-O , 34-H ) :   0.9800
B( 19-C , 35-H ) :   0.9583

MP2 TOTAL ENERGY:    -1274.350251256 Eh
FINAL SINGLE POINT ENERGY     -1274.350251256368

DIPOLE MOMENT
-------------
                                X             Y             Z
Electronic contribution:      9.36377       9.59362      10.16712
Nuclear contribution   :    -10.53462     -11.21187     -10.49808
                        -----------------------------------------
Total Dipole Moment    :     -1.17085      -1.61825      -0.33096
                        -----------------------------------------
Magnitude (a.u.)       :      2.02464
Magnitude (Debye)      :      5.14622

Rotational constants in cm-1:     0.010914     0.008756     0.006037
Rotational constants in MHz :   327.182268   262.506239   180.976952

                             ****ORCA TERMINATED NORMALLY****
TOTAL RUN TIME: 0 days 1 hours 38 minutes 13 seconds 783 msec
