                         Program Version 5.0.0 -  RELEASE  -
|  1> ! ri-mp2 cc-pvtz cc-pvtz/c TightSCF NoKeepInts
|  2>
|  3> %scf
|  4>   MaxCore 4096
|  5> end
|  6> *xyz  0  1
|  7>     C       15.0596729   14.0020400   15.9120225
|  8>     C       16.0486873   14.4503449   17.0035145
|  9>     O       17.1438777   15.1435165   16.3752400
| 10>     C       17.0465827   16.4967046   16.2281042
| 11>     O       16.2913517   16.9682674   15.3976109
| 12>     C       17.6141900   17.2760670   17.3863031
| 13>     C       17.3972874   18.6084149   17.5408717
| 14>     C       16.5290702   19.5067288   16.6857671
| 15>     N       18.0544864   19.3111018   18.5559209
| 16>     C       19.0823130   18.8091847   19.3092230
| 17>     S       19.9351058   19.7506231   20.3683747
| 18>     N       19.3787183   17.4825158   19.1265869
| 19>     C       18.5452898   16.5358797   18.3640134
| 20>     C       17.7986405   15.6384535   19.3453568
| 21>     C       18.2140564   14.3081862   19.5440339
| 22>     C       17.5317573   13.4729696   20.4445183
| 23>     C       16.4298973   13.9736354   21.1585898
| 24>     C       16.0223648   15.3017963   20.9744558
| 25>     O       14.9606832   15.7894742   21.6636894
| 26>     C       16.7015843   16.1300766   20.0757799
| 27>     H       14.6117930   14.8683109   15.4091129
| 28>     H       14.2494329   13.4059147   16.3485772
| 29>     H       15.5685400   13.3906363   15.1565563
| 30>     H       15.5406685   15.0860745   17.7409006
| 31>     H       16.4285059   13.5594488   17.5194660
| 32>     H       15.4985306   19.1306898   16.6529176
| 33>     H       16.9003234   19.5322239   15.6531697
| 34>     H       16.4908528   20.5402126   17.0494595
| 35>     H       17.8579756   20.2901670   18.6905237
| 36>     H       20.1259703   17.1340144   19.7131844
| 37>     H       19.2199295   15.9066734   17.7660680
| 38>     H       19.0659381   13.9177463   18.9931079
| 39>     H       17.8592011   12.4445909   20.5894492
| 40>     H       15.9008886   13.3327583   21.8566243
| 41>     H       14.6674835   15.0989799   22.2775036
| 42>     H       16.3753490   17.1575775   19.9574024
| 43> *
| 44>
| 45>                          ****END OF INPUT****

CARTESIAN COORDINATES (ANGSTROEM)
---------------------------------
  C     15.059673   14.002040   15.912023
  C     16.048687   14.450345   17.003515
  O     17.143878   15.143516   16.375240
  C     17.046583   16.496705   16.228104
  O     16.291352   16.968267   15.397611
  C     17.614190   17.276067   17.386303
  C     17.397287   18.608415   17.540872
  C     16.529070   19.506729   16.685767
  N     18.054486   19.311102   18.555921
  C     19.082313   18.809185   19.309223
  S     19.935106   19.750623   20.368375
  N     19.378718   17.482516   19.126587
  C     18.545290   16.535880   18.364013
  C     17.798641   15.638454   19.345357
  C     18.214056   14.308186   19.544034
  C     17.531757   13.472970   20.444518
  C     16.429897   13.973635   21.158590
  C     16.022365   15.301796   20.974456
  O     14.960683   15.789474   21.663689
  C     16.701584   16.130077   20.075780
  H     14.611793   14.868311   15.409113
  H     14.249433   13.405915   16.348577
  H     15.568540   13.390636   15.156556
  H     15.540668   15.086075   17.740901
  H     16.428506   13.559449   17.519466
  H     15.498531   19.130690   16.652918
  H     16.900323   19.532224   15.653170
  H     16.490853   20.540213   17.049460
  H     17.857976   20.290167   18.690524
  H     20.125970   17.134014   19.713184
  H     19.219929   15.906673   17.766068
  H     19.065938   13.917746   18.993108
  H     17.859201   12.444591   20.589449
  H     15.900889   13.332758   21.856624
  H     14.667483   15.098980   22.277504
  H     16.375349   17.157577   19.957402

 Total Charge           Charge          ....    0
 Multiplicity           Mult            ....    1
 Number of Electrons    NEL             ....  154
 Basis Dimension        Dim             ....  828

ORBITAL ENERGIES
----------------

  NO   OCC          E(Eh)            E(eV)
   0   2.0000     -91.891296     -2500.4893
   1   2.0000     -20.602272      -560.6163
   2   2.0000     -20.580798      -560.0320
   3   2.0000     -20.548637      -559.1568
   4   2.0000     -15.632016      -425.3688
   5   2.0000     -15.610244      -424.7763
   6   2.0000     -11.393788      -310.0407
   7   2.0000     -11.385926      -309.8268
   8   2.0000     -11.338689      -308.5414
   9   2.0000     -11.320000      -308.0329
  10   2.0000     -11.312506      -307.8289
  11   2.0000     -11.294966      -307.3516
  12   2.0000     -11.264652      -306.5268
  13   2.0000     -11.261318      -306.4360
  14   2.0000     -11.260218      -306.4061
  15   2.0000     -11.254203      -306.2424
  16   2.0000     -11.249150      -306.1049
  17   2.0000     -11.243658      -305.9555
  18   2.0000     -11.243513      -305.9516
  19   2.0000     -11.216052      -305.2043
  20   2.0000      -8.896324      -242.0813
  21   2.0000      -6.577890      -178.9935
  22   2.0000      -6.575895      -178.9392
  23   2.0000      -6.575299      -178.9230
  24   2.0000      -1.447450       -39.3871
  25   2.0000      -1.421963       -38.6936
  26   2.0000      -1.353266       -36.8242
  27   2.0000      -1.343074       -36.5469
  28   2.0000      -1.241400       -33.7802
  29   2.0000      -1.162815       -31.6418
  30   2.0000      -1.121952       -30.5299
  31   2.0000      -1.046778       -28.4843
  32   2.0000      -1.029544       -28.0153
  33   2.0000      -1.021211       -27.7886
  34   2.0000      -0.998117       -27.1601
  35   2.0000      -0.986260       -26.8375
  36   2.0000      -0.926129       -25.2013
  37   2.0000      -0.880956       -23.9720
  38   2.0000      -0.850444       -23.1418
  39   2.0000      -0.843941       -22.9648
  40   2.0000      -0.839389       -22.8409
  41   2.0000      -0.829171       -22.5629
  42   2.0000      -0.755772       -20.5656
  43   2.0000      -0.735908       -20.0251
  44   2.0000      -0.720513       -19.6062
  45   2.0000      -0.701423       -19.0867
  46   2.0000      -0.692356       -18.8400
  47   2.0000      -0.679625       -18.4935
  48   2.0000      -0.669677       -18.2228
  49   2.0000      -0.661224       -17.9928
  50   2.0000      -0.649661       -17.6782
  51   2.0000      -0.648642       -17.6504
  52   2.0000      -0.639042       -17.3892
  53   2.0000      -0.613022       -16.6812
  54   2.0000      -0.606305       -16.4984
  55   2.0000      -0.602155       -16.3855
  56   2.0000      -0.586785       -15.9672
  57   2.0000      -0.583405       -15.8753
  58   2.0000      -0.578143       -15.7321
  59   2.0000      -0.572558       -15.5801
  60   2.0000      -0.565147       -15.3784
  61   2.0000      -0.540997       -14.7213
  62   2.0000      -0.536109       -14.5883
  63   2.0000      -0.529776       -14.4159
  64   2.0000      -0.517657       -14.0862
  65   2.0000      -0.512322       -13.9410
  66   2.0000      -0.505506       -13.7555
  67   2.0000      -0.498014       -13.5516
  68   2.0000      -0.485180       -13.2024
  69   2.0000      -0.464478       -12.6391
  70   2.0000      -0.453896       -12.3511
  71   2.0000      -0.442088       -12.0298
  72   2.0000      -0.358198        -9.7471
  73   2.0000      -0.354827        -9.6553
  74   2.0000      -0.331254        -9.0139
  75   2.0000      -0.327123        -8.9015
  76   2.0000      -0.318409        -8.6643
  77   0.0000       0.068623         1.8673
  78   0.0000       0.099231         2.7002
  79   0.0000       0.121588         3.3086
  80   0.0000       0.128066         3.4848
  81   0.0000       0.131895         3.5890

MULLIKEN ATOMIC CHARGES
-----------------------
   0 C :   -0.263446
   1 C :    0.022065
   2 O :   -0.386978
   3 C :    0.503319
   4 O :   -0.407344
   5 C :   -0.275932
   6 C :    0.157864
   7 C :   -0.270282
   8 N :   -0.123957
   9 C :    0.213397
  10 S :   -0.436276
  11 N :   -0.201345
  12 C :    0.049575
  13 C :    0.068193
  14 C :   -0.204712
  15 C :   -0.126128
  16 C :   -0.274947
  17 C :    0.318206
  18 O :   -0.356234
  19 C :   -0.269750
  20 H :    0.110276
  21 H :    0.085728
  22 H :    0.094295
  23 H :    0.098382
  24 H :    0.111846
  25 H :    0.128880
  26 H :    0.134976
  27 H :    0.095086
  28 H :    0.198472
  29 H :    0.193145
  30 H :    0.151185
  31 H :    0.150258
  32 H :    0.165992
  33 H :    0.133623
  34 H :    0.242112
  35 H :    0.170458
Sum of atomic charges:   -0.0000000

LOEWDIN ATOMIC CHARGES
----------------------
   0 C :    0.105663
   1 C :   -0.021366
   2 O :    0.285196
   3 C :   -0.419820
   4 O :    0.122044
   5 C :   -0.099597
   6 C :   -0.057472
   7 C :    0.131042
   8 N :    0.407275
   9 C :   -0.456481
  10 S :   -0.032234
  11 N :    0.396238
  12 C :   -0.052919
  13 C :   -0.036960
  14 C :    0.015099
  15 C :    0.041838
  16 C :   -0.000880
  17 C :   -0.190725
  18 O :    0.396424
  19 C :    0.031133
  20 H :   -0.026375
  21 H :   -0.030939
  22 H :   -0.026977
  23 H :   -0.031963
  24 H :   -0.025172
  25 H :   -0.005450
  26 H :   -0.002930
  27 H :   -0.023139
  28 H :   -0.057248
  29 H :   -0.065279
  30 H :   -0.007112
  31 H :   -0.029292
  32 H :   -0.019844
  33 H :   -0.034213
  34 H :   -0.152420
  35 H :   -0.025144

  Mayer bond orders larger than 0.100000
B(  0-C ,  1-C ) :   0.9843 B(  0-C , 20-H ) :   0.9732 B(  0-C , 21-H ) :   0.9774
B(  0-C , 22-H ) :   0.9795 B(  1-C ,  2-O ) :   0.8706 B(  1-C , 23-H ) :   0.9665
B(  1-C , 24-H ) :   0.9771 B(  2-O ,  3-C ) :   1.0911 B(  3-C ,  4-O ) :   2.0074
B(  3-C ,  5-C ) :   1.0701 B(  5-C ,  6-C ) :   1.6478 B(  5-C , 12-C ) :   0.9691
B(  6-C ,  7-C ) :   0.9701 B(  6-C ,  8-N ) :   1.1593 B(  7-C , 25-H ) :   0.9621
B(  7-C , 26-H ) :   0.9575 B(  7-C , 27-H ) :   0.9895 B(  8-N ,  9-C ) :   1.1786
B(  8-N , 28-H ) :   0.9478 B(  9-C , 10-S ) :   1.6116 B(  9-C , 11-N ) :   1.3044
B( 11-N , 12-C ) :   0.9703 B( 11-N , 29-H ) :   0.9533 B( 12-C , 13-C ) :   0.9505
B( 12-C , 30-H ) :   1.0010 B( 13-C , 14-C ) :   1.3413 B( 13-C , 19-C ) :   1.3658
B( 14-C , 15-C ) :   1.3856 B( 14-C , 31-H ) :   0.9773 B( 15-C , 16-C ) :   1.3663
B( 15-C , 32-H ) :   0.9686 B( 16-C , 17-C ) :   1.3278 B( 16-C , 33-H ) :   0.9836
B( 17-C , 18-O ) :   1.1142 B( 17-C , 19-C ) :   1.3700 B( 18-O , 34-H ) :   0.9788
B( 19-C , 35-H ) :   0.9577

MP2 TOTAL ENERGY:    -1274.329764545 Eh
FINAL SINGLE POINT ENERGY     -1274.329764545150

DIPOLE MOMENT
-------------
                                X             Y             Z
Electronic contribution:     10.52642       9.54903       6.93611
Nuclear contribution   :    -11.52161     -11.02329      -6.65647
                        -----------------------------------------
Total Dipole Moment    :     -0.99518      -1.47426       0.27965
                        -----------------------------------------
Magnitude (a.u.)       :      1.80057
Magnitude (Debye)      :      4.57668

Rotational constants in cm-1:     0.011958     0.009110     0.006374
Rotational constants in MHz :   358.497364   273.123435   191.082858

                             ****ORCA TERMINATED NORMALLY****
TOTAL RUN TIME: 0 days 2 hours 23 minutes 44 seconds 941 msec
