                         Program Version 4.2.0 -  RELEASE  -
|  1> ! ri-mp2 cc-pvtz cc-pvtz/c TightSCF  NoKeepInts
|  2>
|  3> %scf
|  4>   MaxCore 4096
|  5> end
|  6> *xyz  0  1
|  7>     C       15.1073877   15.3450064   16.9223729
|  8>     C       16.2426201   14.2947782   16.8721733
|  9>     O       17.5090876   14.8051438   16.3776661
| 10>     C       17.7302296   16.1209762   16.0819048
| 11>     O       17.5244047   16.5159263   14.9488360
| 12>     C       17.8018502   17.0335155   17.2767270
| 13>     C       17.3721208   18.3200136   17.2305529
| 14>     C       16.6262154   18.9971718   16.1011945
| 15>     N       17.6458454   19.1863107   18.2929696
| 16>     C       18.5294198   18.9150226   19.3041308
| 17>     S       18.9517951   20.0525559   20.4277278
| 18>     N       19.0567548   17.6482248   19.3292235
| 19>     C       18.5749650   16.5226906   18.5066634
| 20>     C       17.7962182   15.5626963   19.3986202
| 21>     C       18.2859016   14.2645853   19.6393354
| 22>     C       17.5836665   13.3789989   20.4742092
| 23>     C       16.3868604   13.7967048   21.0808609
| 24>     C       15.9063528   15.0942901   20.8587002
| 25>     O       14.7530129   15.5024388   21.4445279
| 26>     C       16.6083192   15.9739182   20.0291812
| 27>     H       15.3061790   16.1388661   17.6482850
| 28>     H       14.1679303   14.8625508   17.2181692
| 29>     H       14.9497381   15.7984628   15.9354403
| 30>     H       16.3739024   13.8592949   17.8686970
| 31>     H       15.9248100   13.4766807   16.2129795
| 32>     H       15.8054596   18.3644337   15.7412023
| 33>     H       17.2975699   19.1739786   15.2508467
| 34>     H       16.1925355   19.9605059   16.3938992
| 35>     H       17.2852940   20.1270796   18.2737860
| 36>     H       19.6886483   17.4709941   20.0996600
| 37>     H       19.4595236   15.9891810   18.1309751
| 38>     H       19.2103165   13.9368086   19.1705814
| 39>     H       17.9678612   12.3753272   20.6497556
| 40>     H       15.8408710   13.1159425   21.7260237
| 41>     H       14.4563067   14.7921436   22.0335475
| 42>     H       16.2270259   16.9787811   19.8825739
| 43> *
| 44>
| 45>                          ****END OF INPUT****

CARTESIAN COORDINATES (ANGSTROEM)
---------------------------------
  C     15.107388   15.345006   16.922373
  C     16.242620   14.294778   16.872173
  O     17.509088   14.805144   16.377666
  C     17.730230   16.120976   16.081905
  O     17.524405   16.515926   14.948836
  C     17.801850   17.033515   17.276727
  C     17.372121   18.320014   17.230553
  C     16.626215   18.997172   16.101194
  N     17.645845   19.186311   18.292970
  C     18.529420   18.915023   19.304131
  S     18.951795   20.052556   20.427728
  N     19.056755   17.648225   19.329224
  C     18.574965   16.522691   18.506663
  C     17.796218   15.562696   19.398620
  C     18.285902   14.264585   19.639335
  C     17.583666   13.378999   20.474209
  C     16.386860   13.796705   21.080861
  C     15.906353   15.094290   20.858700
  O     14.753013   15.502439   21.444528
  C     16.608319   15.973918   20.029181
  H     15.306179   16.138866   17.648285
  H     14.167930   14.862551   17.218169
  H     14.949738   15.798463   15.935440
  H     16.373902   13.859295   17.868697
  H     15.924810   13.476681   16.212979
  H     15.805460   18.364434   15.741202
  H     17.297570   19.173979   15.250847
  H     16.192536   19.960506   16.393899
  H     17.285294   20.127080   18.273786
  H     19.688648   17.470994   20.099660
  H     19.459524   15.989181   18.130975
  H     19.210317   13.936809   19.170581
  H     17.967861   12.375327   20.649756
  H     15.840871   13.115942   21.726024
  H     14.456307   14.792144   22.033548
  H     16.227026   16.978781   19.882574

 Total Charge           Charge          ....    0
 Multiplicity           Mult            ....    1
 Number of Electrons    NEL             ....  154
 Basis Dimension        Dim             ....  828

ORBITAL ENERGIES
----------------

  NO   OCC          E(Eh)            E(eV)
   0   2.0000     -91.891371     -2500.4913
   1   2.0000     -20.603210      -560.6418
   2   2.0000     -20.577250      -559.9354
   3   2.0000     -20.551383      -559.2316
   4   2.0000     -15.630633      -425.3311
   5   2.0000     -15.610764      -424.7905
   6   2.0000     -11.393766      -310.0401
   7   2.0000     -11.386092      -309.8313
   8   2.0000     -11.335368      -308.4511
   9   2.0000     -11.321029      -308.0608
  10   2.0000     -11.315028      -307.8976
  11   2.0000     -11.299378      -307.4717
  12   2.0000     -11.265736      -306.5563
  13   2.0000     -11.261701      -306.4465
  14   2.0000     -11.259624      -306.3899
  15   2.0000     -11.254427      -306.2485
  16   2.0000     -11.250389      -306.1387
  17   2.0000     -11.245256      -305.9990
  18   2.0000     -11.244465      -305.9775
  19   2.0000     -11.229070      -305.5585
  20   2.0000      -8.896400      -242.0834
  21   2.0000      -6.577967      -178.9956
  22   2.0000      -6.575971      -178.9413
  23   2.0000      -6.575376      -178.9251
  24   2.0000      -1.442060       -39.2404
  25   2.0000      -1.422930       -38.7199
  26   2.0000      -1.349707       -36.7274
  27   2.0000      -1.342437       -36.5296
  28   2.0000      -1.241411       -33.7805
  29   2.0000      -1.163653       -31.6646
  30   2.0000      -1.122070       -30.5331
  31   2.0000      -1.047825       -28.5128
  32   2.0000      -1.031157       -28.0592
  33   2.0000      -1.022055       -27.8115
  34   2.0000      -1.001518       -27.2527
  35   2.0000      -0.987799       -26.8794
  36   2.0000      -0.926936       -25.2232
  37   2.0000      -0.896554       -24.3965
  38   2.0000      -0.849856       -23.1258
  39   2.0000      -0.845266       -23.0009
  40   2.0000      -0.840662       -22.8756
  41   2.0000      -0.823168       -22.3995
  42   2.0000      -0.746347       -20.3091
  43   2.0000      -0.736919       -20.0526
  44   2.0000      -0.718938       -19.5633
  45   2.0000      -0.702005       -19.1025
  46   2.0000      -0.691815       -18.8252
  47   2.0000      -0.674915       -18.3654
  48   2.0000      -0.672001       -18.2861
  49   2.0000      -0.658173       -17.9098
  50   2.0000      -0.657500       -17.8915
  51   2.0000      -0.648144       -17.6369
  52   2.0000      -0.638247       -17.3676
  53   2.0000      -0.627907       -17.0862
  54   2.0000      -0.613209       -16.6863
  55   2.0000      -0.605316       -16.4715
  56   2.0000      -0.602457       -16.3937
  57   2.0000      -0.582627       -15.8541
  58   2.0000      -0.574537       -15.6339
  59   2.0000      -0.566538       -15.4163
  60   2.0000      -0.546895       -14.8818
  61   2.0000      -0.544488       -14.8163
  62   2.0000      -0.540072       -14.6961
  63   2.0000      -0.533173       -14.5084
  64   2.0000      -0.530526       -14.4363
  65   2.0000      -0.516923       -14.0662
  66   2.0000      -0.506133       -13.7726
  67   2.0000      -0.493413       -13.4265
  68   2.0000      -0.480163       -13.0659
  69   2.0000      -0.471208       -12.8222
  70   2.0000      -0.449932       -12.2433
  71   2.0000      -0.444184       -12.0869
  72   2.0000      -0.358087        -9.7440
  73   2.0000      -0.354246        -9.6395
  74   2.0000      -0.331580        -9.0228
  75   2.0000      -0.328209        -8.9310
  76   2.0000      -0.318635        -8.6705
  77   0.0000       0.068903         1.8750
  78   0.0000       0.101563         2.7637
  79   0.0000       0.120033         3.2663
  80   0.0000       0.126413         3.4399
  81   0.0000       0.131988         3.5916

MULLIKEN ATOMIC CHARGES
-----------------------
   0 C :   -0.350574
   1 C :    0.042571
   2 O :   -0.385221
   3 C :    0.486377
   4 O :   -0.386893
   5 C :   -0.283360
   6 C :    0.164635
   7 C :   -0.275675
   8 N :   -0.124683
   9 C :    0.202947
  10 S :   -0.434502
  11 N :   -0.193214
  12 C :    0.049623
  13 C :    0.047664
  14 C :   -0.162988
  15 C :   -0.134828
  16 C :   -0.275141
  17 C :    0.320159
  18 O :   -0.357006
  19 C :   -0.298752
  20 H :    0.108135
  21 H :    0.120046
  22 H :    0.119918
  23 H :    0.110940
  24 H :    0.123082
  25 H :    0.125075
  26 H :    0.142270
  27 H :    0.094554
  28 H :    0.198017
  29 H :    0.191770
  30 H :    0.148230
  31 H :    0.148662
  32 H :    0.163938
  33 H :    0.134175
  34 H :    0.242144
  35 H :    0.177902
Sum of atomic charges:   -0.0000000

LOEWDIN ATOMIC CHARGES
----------------------
   0 C :    0.104759
   1 C :   -0.006115
   2 O :    0.274306
   3 C :   -0.424249
   4 O :    0.130928
   5 C :   -0.096512
   6 C :   -0.066115
   7 C :    0.130130
   8 N :    0.406360
   9 C :   -0.457746
  10 S :   -0.032051
  11 N :    0.396679
  12 C :   -0.053051
  13 C :   -0.040310
  14 C :    0.015898
  15 C :    0.040992
  16 C :   -0.001056
  17 C :   -0.190932
  18 O :    0.396821
  19 C :    0.034494
  20 H :   -0.037719
  21 H :   -0.020931
  22 H :   -0.027453
  23 H :   -0.031102
  24 H :   -0.025188
  25 H :   -0.008308
  26 H :   -0.002731
  27 H :   -0.022687
  28 H :   -0.057659
  29 H :   -0.064871
  30 H :   -0.006401
  31 H :   -0.028278
  32 H :   -0.019504
  33 H :   -0.033937
  34 H :   -0.152322
  35 H :   -0.024140

  Mayer bond orders larger than 0.100000
B(  0-C ,  1-C ) :   0.9635 B(  0-C , 20-H ) :   0.9674 B(  0-C , 21-H ) :   0.9758
B(  0-C , 22-H ) :   0.9729 B(  1-C ,  2-O ) :   0.8855 B(  1-C , 23-H ) :   0.9692
B(  1-C , 24-H ) :   0.9847 B(  2-O ,  3-C ) :   1.1214 B(  3-C ,  4-O ) :   2.0604
B(  3-C ,  5-C ) :   1.0053 B(  5-C ,  6-C ) :   1.6684 B(  5-C , 12-C ) :   0.9717
B(  6-C ,  7-C ) :   0.9630 B(  6-C ,  8-N ) :   1.1449 B(  7-C , 25-H ) :   0.9682
B(  7-C , 26-H ) :   0.9568 B(  7-C , 27-H ) :   0.9868 B(  8-N ,  9-C ) :   1.1821
B(  8-N , 28-H ) :   0.9490 B(  9-C , 10-S ) :   1.6176 B(  9-C , 11-N ) :   1.2956
B( 11-N , 12-C ) :   0.9863 B( 11-N , 29-H ) :   0.9537 B( 12-C , 13-C ) :   0.9404
B( 12-C , 30-H ) :   1.0059 B( 13-C , 14-C ) :   1.3526 B( 13-C , 19-C ) :   1.3595
B( 14-C , 15-C ) :   1.3940 B( 14-C , 31-H ) :   0.9733 B( 15-C , 16-C ) :   1.3635
B( 15-C , 32-H ) :   0.9704 B( 16-C , 17-C ) :   1.3280 B( 16-C , 33-H ) :   0.9835
B( 17-C , 18-O ) :   1.1138 B( 17-C , 19-C ) :   1.3720 B( 18-O , 34-H ) :   0.9789
B( 19-C , 35-H ) :   0.9537

MP2 TOTAL ENERGY:    -1274.320962155 Eh
FINAL SINGLE POINT ENERGY     -1274.320962154605

DIPOLE MOMENT
-------------
                                X             Y             Z
Electronic contribution:      9.82492       7.12051       5.60786
Nuclear contribution   :    -10.98479      -8.69803      -5.28971
                        -----------------------------------------
Total Dipole Moment    :     -1.15986      -1.57752       0.31815
                        -----------------------------------------
Magnitude (a.u.)       :      1.98370
Magnitude (Debye)      :      5.04217

Rotational constants in cm-1:     0.011942     0.009825     0.006765
Rotational constants in MHz :   358.008291   294.536741   202.795531

                             ****ORCA TERMINATED NORMALLY****
TOTAL RUN TIME: 0 days 1 hours 55 minutes 16 seconds 229 msec
