                         Program Version 4.2.0 -  RELEASE  -
|  1> ! ri-mp2 cc-pvtz cc-pvtz/c TightSCF  NoKeepInts
|  2>
|  3> %scf
|  4>   MaxCore 4096
|  5> end
|  6> *xyz  0  1
|  7>     C       14.6592436   14.1769249   16.5979248
|  8>     C       15.6394160   15.2201090   17.1577699
|  9>     O       16.8483024   15.1173952   16.3837243
| 10>     C       17.6821127   16.1867855   16.2050075
| 11>     O       18.0859586   16.4683303   15.0924976
| 12>     C       17.8196199   17.1321988   17.3556325
| 13>     C       17.4406785   18.4238164   17.2278306
| 14>     C       16.7099627   19.0225471   16.0465545
| 15>     N       17.7516530   19.3479463   18.2276119
| 16>     C       18.5852255   19.0926665   19.2848253
| 17>     S       18.9981653   20.2660293   20.3741619
| 18>     N       19.0636394   17.8098532   19.3962357
| 19>     C       18.6352847   16.6633274   18.5693202
| 20>     C       17.9300165   15.6241143   19.4317583
| 21>     C       18.2534268   14.2605311   19.2995849
| 22>     C       17.6043188   13.2924025   20.0837942
| 23>     C       16.6268551   13.6897541   21.0118243
| 24>     C       16.3051954   15.0465271   21.1507055
| 25>     O       15.3561163   15.4325554   22.0394462
| 26>     C       16.9498224   16.0086532   20.3665601
| 27>     H       13.7060293   14.2132528   17.1390712
| 28>     H       15.0738690   13.1661233   16.6991695
| 29>     H       14.4603144   14.3638925   15.5351068
| 30>     H       15.1945337   16.2188812   17.0563777
| 31>     H       15.8135518   15.0131023   18.2161732
| 32>     H       15.9282215   18.3464584   15.6792073
| 33>     H       17.4078450   19.1924630   15.2158332
| 34>     H       16.2316032   19.9791467   16.2881077
| 35>     H       17.4328521   20.3005135   18.1456225
| 36>     H       19.6624785   17.6513290   20.1970076
| 37>     H       19.5488767   16.1953534   18.1750184
| 38>     H       19.0034145   13.9470421   18.5773576
| 39>     H       17.8590165   12.2397767   19.9698504
| 40>     H       16.1231135   12.9444752   21.6189761
| 41>     H       15.0737684   14.6444038   22.5280767
| 42>     H       16.6824985   17.0533185   20.4902742
| 43> *
| 44>
| 45>                          ****END OF INPUT****

CARTESIAN COORDINATES (ANGSTROEM)
---------------------------------
  C     14.659244   14.176925   16.597925
  C     15.639416   15.220109   17.157770
  O     16.848302   15.117395   16.383724
  C     17.682113   16.186785   16.205008
  O     18.085959   16.468330   15.092498
  C     17.819620   17.132199   17.355632
  C     17.440679   18.423816   17.227831
  C     16.709963   19.022547   16.046554
  N     17.751653   19.347946   18.227612
  C     18.585225   19.092666   19.284825
  S     18.998165   20.266029   20.374162
  N     19.063639   17.809853   19.396236
  C     18.635285   16.663327   18.569320
  C     17.930017   15.624114   19.431758
  C     18.253427   14.260531   19.299585
  C     17.604319   13.292402   20.083794
  C     16.626855   13.689754   21.011824
  C     16.305195   15.046527   21.150706
  O     15.356116   15.432555   22.039446
  C     16.949822   16.008653   20.366560
  H     13.706029   14.213253   17.139071
  H     15.073869   13.166123   16.699169
  H     14.460314   14.363892   15.535107
  H     15.194534   16.218881   17.056378
  H     15.813552   15.013102   18.216173
  H     15.928221   18.346458   15.679207
  H     17.407845   19.192463   15.215833
  H     16.231603   19.979147   16.288108
  H     17.432852   20.300513   18.145623
  H     19.662478   17.651329   20.197008
  H     19.548877   16.195353   18.175018
  H     19.003415   13.947042   18.577358
  H     17.859016   12.239777   19.969850
  H     16.123113   12.944475   21.618976
  H     15.073768   14.644404   22.528077
  H     16.682499   17.053318   20.490274

 Total Charge           Charge          ....    0
 Multiplicity           Mult            ....    1
 Number of Electrons    NEL             ....  154
 Basis Dimension        Dim             ....  828

ORBITAL ENERGIES
----------------

  NO   OCC          E(Eh)            E(eV)
   0   2.0000     -91.890413     -2500.4652
   1   2.0000     -20.603994      -560.6632
   2   2.0000     -20.593512      -560.3780
   3   2.0000     -20.553650      -559.2933
   4   2.0000     -15.626996      -425.2322
   5   2.0000     -15.612039      -424.8252
   6   2.0000     -11.394942      -310.0721
   7   2.0000     -11.386278      -309.8364
   8   2.0000     -11.328614      -308.2673
   9   2.0000     -11.322386      -308.0978
  10   2.0000     -11.319250      -308.0124
  11   2.0000     -11.297778      -307.4282
  12   2.0000     -11.268515      -306.6319
  13   2.0000     -11.263894      -306.5061
  14   2.0000     -11.259361      -306.3828
  15   2.0000     -11.258211      -306.3515
  16   2.0000     -11.252184      -306.1875
  17   2.0000     -11.246926      -306.0444
  18   2.0000     -11.246570      -306.0347
  19   2.0000     -11.229169      -305.5612
  20   2.0000      -8.895498      -242.0588
  21   2.0000      -6.577079      -178.9714
  22   2.0000      -6.575063      -178.9166
  23   2.0000      -6.574482      -178.9007
  24   2.0000      -1.448272       -39.4095
  25   2.0000      -1.423813       -38.7439
  26   2.0000      -1.359599       -36.9966
  27   2.0000      -1.340043       -36.4644
  28   2.0000      -1.240563       -33.7574
  29   2.0000      -1.165764       -31.7221
  30   2.0000      -1.124588       -30.6016
  31   2.0000      -1.050615       -28.5887
  32   2.0000      -1.036655       -28.2088
  33   2.0000      -1.024088       -27.8668
  34   2.0000      -1.002720       -27.2854
  35   2.0000      -0.988784       -26.9062
  36   2.0000      -0.928657       -25.2700
  37   2.0000      -0.877591       -23.8805
  38   2.0000      -0.853236       -23.2177
  39   2.0000      -0.844150       -22.9705
  40   2.0000      -0.842664       -22.9301
  41   2.0000      -0.838034       -22.8041
  42   2.0000      -0.758968       -20.6526
  43   2.0000      -0.738060       -20.0836
  44   2.0000      -0.730913       -19.8891
  45   2.0000      -0.702956       -19.1284
  46   2.0000      -0.692375       -18.8405
  47   2.0000      -0.680896       -18.5281
  48   2.0000      -0.677136       -18.4258
  49   2.0000      -0.666389       -18.1334
  50   2.0000      -0.653526       -17.7834
  51   2.0000      -0.650318       -17.6961
  52   2.0000      -0.638714       -17.3803
  53   2.0000      -0.613901       -16.7051
  54   2.0000      -0.608486       -16.5577
  55   2.0000      -0.604714       -16.4551
  56   2.0000      -0.594065       -16.1653
  57   2.0000      -0.582190       -15.8422
  58   2.0000      -0.577632       -15.7182
  59   2.0000      -0.568050       -15.4574
  60   2.0000      -0.560999       -15.2655
  61   2.0000      -0.558221       -15.1900
  62   2.0000      -0.547442       -14.8966
  63   2.0000      -0.530973       -14.4485
  64   2.0000      -0.521232       -14.1835
  65   2.0000      -0.517062       -14.0700
  66   2.0000      -0.506907       -13.7936
  67   2.0000      -0.504060       -13.7162
  68   2.0000      -0.484939       -13.1959
  69   2.0000      -0.470462       -12.8019
  70   2.0000      -0.453162       -12.3312
  71   2.0000      -0.451466       -12.2850
  72   2.0000      -0.356827        -9.7098
  73   2.0000      -0.355170        -9.6647
  74   2.0000      -0.331730        -9.0268
  75   2.0000      -0.329259        -8.9596
  76   2.0000      -0.318371        -8.6633
  77   0.0000       0.082923         2.2564
  78   0.0000       0.099605         2.7104
  79   0.0000       0.118554         3.2260
  80   0.0000       0.127189         3.4610
  81   0.0000       0.127622         3.4728

MULLIKEN ATOMIC CHARGES
-----------------------
   0 C :   -0.258960
   1 C :    0.021993
   2 O :   -0.314124
   3 C :    0.380037
   4 O :   -0.365418
   5 C :   -0.195695
   6 C :    0.153498
   7 C :   -0.289384
   8 N :   -0.129581
   9 C :    0.204275
  10 S :   -0.438019
  11 N :   -0.211183
  12 C :    0.033079
  13 C :    0.014922
  14 C :   -0.180140
  15 C :   -0.139050
  16 C :   -0.270331
  17 C :    0.303667
  18 O :   -0.355077
  19 C :   -0.240821
  20 H :    0.087673
  21 H :    0.099061
  22 H :    0.103912
  23 H :    0.089495
  24 H :    0.113341
  25 H :    0.115231
  26 H :    0.146871
  27 H :    0.098569
  28 H :    0.197011
  29 H :    0.196419
  30 H :    0.161360
  31 H :    0.151298
  32 H :    0.164258
  33 H :    0.134997
  34 H :    0.241612
  35 H :    0.175204
Sum of atomic charges:   -0.0000000

LOEWDIN ATOMIC CHARGES
----------------------
   0 C :    0.110938
   1 C :   -0.022994
   2 O :    0.303514
   3 C :   -0.420253
   4 O :    0.133144
   5 C :   -0.088264
   6 C :   -0.086611
   7 C :    0.129735
   8 N :    0.403886
   9 C :   -0.456386
  10 S :   -0.035600
  11 N :    0.396672
  12 C :   -0.052311
  13 C :   -0.045353
  14 C :    0.016380
  15 C :    0.043985
  16 C :    0.000425
  17 C :   -0.193067
  18 O :    0.397594
  19 C :    0.030946
  20 H :   -0.026106
  21 H :   -0.025524
  22 H :   -0.025089
  23 H :   -0.036228
  24 H :   -0.034877
  25 H :   -0.011837
  26 H :   -0.002522
  27 H :   -0.020365
  28 H :   -0.058478
  29 H :   -0.064583
  30 H :   -0.007611
  31 H :   -0.027504
  32 H :   -0.018271
  33 H :   -0.033432
  34 H :   -0.152214
  35 H :   -0.021740

  Mayer bond orders larger than 0.100000
B(  0-C ,  1-C ) :   0.9842 B(  0-C , 20-H ) :   0.9766 B(  0-C , 21-H ) :   0.9789
B(  0-C , 22-H ) :   0.9791 B(  1-C ,  2-O ) :   0.8969 B(  1-C , 23-H ) :   0.9727
B(  1-C , 24-H ) :   0.9635 B(  2-O ,  3-C ) :   1.1904 B(  3-C ,  4-O ) :   2.1232
B(  3-C ,  5-C ) :   0.9139 B(  5-C ,  6-C ) :   1.7179 B(  5-C , 12-C ) :   0.9666
B(  6-C ,  7-C ) :   0.9465 B(  6-C ,  8-N ) :   1.1228 B(  7-C , 25-H ) :   0.9757
B(  7-C , 26-H ) :   0.9594 B(  7-C , 27-H ) :   0.9854 B(  8-N ,  9-C ) :   1.1960
B(  8-N , 28-H ) :   0.9501 B(  9-C , 10-S ) :   1.6135 B(  9-C , 11-N ) :   1.2834
B( 11-N , 12-C ) :   0.9930 B( 11-N , 29-H ) :   0.9495 B( 12-C , 13-C ) :   0.9304
B( 12-C , 30-H ) :   1.0097 B( 13-C , 14-C ) :   1.3771 B( 13-C , 19-C ) :   1.3602
B( 14-C , 15-C ) :   1.3953 B( 14-C , 31-H ) :   0.9704 B( 15-C , 16-C ) :   1.3640
B( 15-C , 32-H ) :   0.9700 B( 16-C , 17-C ) :   1.3269 B( 16-C , 33-H ) :   0.9836
B( 17-C , 18-O ) :   1.1141 B( 17-C , 19-C ) :   1.3694 B( 18-O , 34-H ) :   0.9787
B( 19-C , 35-H ) :   0.9575

MP2 TOTAL ENERGY:    -1274.328090826 Eh
FINAL SINGLE POINT ENERGY     -1274.328090825677

DIPOLE MOMENT
-------------
                                X             Y             Z
Electronic contribution:     11.15502       8.87127       6.70904
Nuclear contribution   :    -12.57270     -10.42399      -6.43550
                        -----------------------------------------
Total Dipole Moment    :     -1.41768      -1.55272       0.27353
                        -----------------------------------------
Magnitude (a.u.)       :      2.12028
Magnitude (Debye)      :      5.38933

Rotational constants in cm-1:     0.011812     0.009307     0.006281
Rotational constants in MHz :   354.120733   279.016315   188.297397

                             ****ORCA TERMINATED NORMALLY****
TOTAL RUN TIME: 0 days 1 hours 52 minutes 23 seconds 370 msec
