                         Program Version 5.0.0 -  RELEASE  -
|  1> ! ri-mp2 cc-pvtz cc-pvtz/c TightSCF NoKeepInts
|  2>
|  3> %scf
|  4>   MaxCore 4096
|  5> end
|  6> *xyz  0  1
|  7>     C       15.4709716   13.4512752   16.8316250
|  8>     C       15.6933210   14.9726617   16.8509913
|  9>     O       16.9480054   15.2360322   16.1976804
| 10>     C       17.3103895   16.5362907   16.0075505
| 11>     O       16.9765821   17.0898919   14.9764906
| 12>     C       17.6524184   17.2832832   17.2687166
| 13>     C       17.3891060   18.6063418   17.4209004
| 14>     C       16.5819615   19.4942041   16.4986196
| 15>     N       17.9360401   19.3062728   18.5009111
| 16>     C       18.9440141   18.8289525   19.2973566
| 17>     S       19.7001640   19.7794941   20.4195600
| 18>     N       19.3010605   17.5173823   19.1056910
| 19>     C       18.5242265   16.5515104   18.3061635
| 20>     C       17.7497843   15.6424531   19.2538042
| 21>     C       18.0209211   14.2617871   19.2914527
| 22>     C       17.3166358   13.4181021   20.1668444
| 23>     C       16.3359712   13.9589296   21.0154686
| 24>     C       16.0704981   15.3346039   20.9890979
| 25>     O       15.1237192   15.8603488   21.8059192
| 26>     C       16.7728491   16.1721959   20.1171272
| 27>     H       14.5173459   13.1959462   17.3091045
| 28>     H       16.2737103   12.9337652   17.3699318
| 29>     H       15.4505843   13.0781422   15.8000177
| 30>     H       14.8803374   15.4602642   16.2960532
| 31>     H       15.6679300   15.3465594   17.8777951
| 32>     H       15.6448355   19.0037629   16.2067651
| 33>     H       17.1424570   19.7001594   15.5774394
| 34>     H       16.3192864   20.4556967   16.9551294
| 35>     H       17.7003942   20.2767398   18.6358470
| 36>     H       20.0329922   17.1859097   19.7211245
| 37>     H       19.2409940   15.9301464   17.7506305
| 38>     H       18.7755834   13.8382545   18.6335804
| 39>     H       17.5318401   12.3508859   20.1857117
| 40>     H       15.7892043   13.3107336   21.6926678
| 41>     H       14.8036044   15.1478859   22.3798710
| 42>     H       16.5572615   17.2351345   20.1203604
| 43> *
| 44>
| 45>                          ****END OF INPUT****

CARTESIAN COORDINATES (ANGSTROEM)
---------------------------------
  C     15.470972   13.451275   16.831625
  C     15.693321   14.972662   16.850991
  O     16.948005   15.236032   16.197680
  C     17.310389   16.536291   16.007551
  O     16.976582   17.089892   14.976491
  C     17.652418   17.283283   17.268717
  C     17.389106   18.606342   17.420900
  C     16.581961   19.494204   16.498620
  N     17.936040   19.306273   18.500911
  C     18.944014   18.828952   19.297357
  S     19.700164   19.779494   20.419560
  N     19.301060   17.517382   19.105691
  C     18.524227   16.551510   18.306164
  C     17.749784   15.642453   19.253804
  C     18.020921   14.261787   19.291453
  C     17.316636   13.418102   20.166844
  C     16.335971   13.958930   21.015469
  C     16.070498   15.334604   20.989098
  O     15.123719   15.860349   21.805919
  C     16.772849   16.172196   20.117127
  H     14.517346   13.195946   17.309105
  H     16.273710   12.933765   17.369932
  H     15.450584   13.078142   15.800018
  H     14.880337   15.460264   16.296053
  H     15.667930   15.346559   17.877795
  H     15.644835   19.003763   16.206765
  H     17.142457   19.700159   15.577439
  H     16.319286   20.455697   16.955129
  H     17.700394   20.276740   18.635847
  H     20.032992   17.185910   19.721124
  H     19.240994   15.930146   17.750630
  H     18.775583   13.838254   18.633580
  H     17.531840   12.350886   20.185712
  H     15.789204   13.310734   21.692668
  H     14.803604   15.147886   22.379871
  H     16.557261   17.235134   20.120360

 Total Charge           Charge          ....    0
 Multiplicity           Mult            ....    1
 Number of Electrons    NEL             ....  154
 Basis Dimension        Dim             ....  828

ORBITAL ENERGIES
----------------

  NO   OCC          E(Eh)            E(eV)
   0   2.0000     -91.891943     -2500.5069
   1   2.0000     -20.602509      -560.6228
   2   2.0000     -20.581372      -560.0476
   3   2.0000     -20.552481      -559.2614
   4   2.0000     -15.631477      -425.3541
   5   2.0000     -15.611024      -424.7976
   6   2.0000     -11.392232      -309.9984
   7   2.0000     -11.386518      -309.8429
   8   2.0000     -11.336897      -308.4927
   9   2.0000     -11.320588      -308.0489
  10   2.0000     -11.315379      -307.9071
  11   2.0000     -11.294762      -307.3461
  12   2.0000     -11.265714      -306.5557
  13   2.0000     -11.261800      -306.4491
  14   2.0000     -11.260313      -306.4087
  15   2.0000     -11.254632      -306.2541
  16   2.0000     -11.249794      -306.1225
  17   2.0000     -11.244292      -305.9727
  18   2.0000     -11.244085      -305.9671
  19   2.0000     -11.225899      -305.4722
  20   2.0000      -8.896954      -242.0984
  21   2.0000      -6.578516      -179.0105
  22   2.0000      -6.576525      -178.9563
  23   2.0000      -6.575926      -178.9400
  24   2.0000      -1.448737       -39.4221
  25   2.0000      -1.422248       -38.7013
  26   2.0000      -1.353997       -36.8441
  27   2.0000      -1.343066       -36.5467
  28   2.0000      -1.241726       -33.7891
  29   2.0000      -1.163361       -31.6567
  30   2.0000      -1.122263       -30.5383
  31   2.0000      -1.047675       -28.5087
  32   2.0000      -1.033331       -28.1184
  33   2.0000      -1.022004       -27.8101
  34   2.0000      -1.000176       -27.2162
  35   2.0000      -0.987263       -26.8648
  36   2.0000      -0.927065       -25.2267
  37   2.0000      -0.876283       -23.8449
  38   2.0000      -0.850715       -23.1491
  39   2.0000      -0.844803       -22.9883
  40   2.0000      -0.840286       -22.8653
  41   2.0000      -0.833465       -22.6797
  42   2.0000      -0.760981       -20.7074
  43   2.0000      -0.736999       -20.0548
  44   2.0000      -0.725838       -19.7511
  45   2.0000      -0.701982       -19.1019
  46   2.0000      -0.692557       -18.8454
  47   2.0000      -0.681448       -18.5431
  48   2.0000      -0.673890       -18.3375
  49   2.0000      -0.658176       -17.9099
  50   2.0000      -0.649956       -17.6862
  51   2.0000      -0.644185       -17.5292
  52   2.0000      -0.636025       -17.3071
  53   2.0000      -0.620016       -16.8715
  54   2.0000      -0.612176       -16.6581
  55   2.0000      -0.604603       -16.4521
  56   2.0000      -0.601805       -16.3759
  57   2.0000      -0.582748       -15.8574
  58   2.0000      -0.574244       -15.6260
  59   2.0000      -0.565533       -15.3889
  60   2.0000      -0.553486       -15.0611
  61   2.0000      -0.543574       -14.7914
  62   2.0000      -0.534424       -14.5424
  63   2.0000      -0.531080       -14.4514
  64   2.0000      -0.519725       -14.1424
  65   2.0000      -0.518413       -14.1067
  66   2.0000      -0.507468       -13.8089
  67   2.0000      -0.501018       -13.6334
  68   2.0000      -0.481785       -13.1100
  69   2.0000      -0.467864       -12.7312
  70   2.0000      -0.458366       -12.4728
  71   2.0000      -0.445810       -12.1311
  72   2.0000      -0.359589        -9.7849
  73   2.0000      -0.353896        -9.6300
  74   2.0000      -0.331630        -9.0241
  75   2.0000      -0.328176        -8.9301
  76   2.0000      -0.319108        -8.6834
  77   0.0000       0.068907         1.8751
  78   0.0000       0.100589         2.7372
  79   0.0000       0.119801         3.2599
  80   0.0000       0.125842         3.4243
  81   0.0000       0.130212         3.5433

MULLIKEN ATOMIC CHARGES
-----------------------
   0 C :   -0.268775
   1 C :    0.021380
   2 O :   -0.362127
   3 C :    0.461224
   4 O :   -0.379228
   5 C :   -0.265462
   6 C :    0.153419
   7 C :   -0.271845
   8 N :   -0.126769
   9 C :    0.201561
  10 S :   -0.432416
  11 N :   -0.189076
  12 C :    0.035768
  13 C :    0.034632
  14 C :   -0.172187
  15 C :   -0.143159
  16 C :   -0.265283
  17 C :    0.301637
  18 O :   -0.355655
  19 C :   -0.253702
  20 H :    0.089123
  21 H :    0.093296
  22 H :    0.109153
  23 H :    0.107678
  24 H :    0.111805
  25 H :    0.124673
  26 H :    0.139520
  27 H :    0.093999
  28 H :    0.198593
  29 H :    0.190656
  30 H :    0.147878
  31 H :    0.154691
  32 H :    0.167977
  33 H :    0.134573
  34 H :    0.241645
  35 H :    0.170800
Sum of atomic charges:   -0.0000000

LOEWDIN ATOMIC CHARGES
----------------------
   0 C :    0.111527
   1 C :   -0.018789
   2 O :    0.286860
   3 C :   -0.423810
   4 O :    0.132962
   5 C :   -0.098880
   6 C :   -0.063870
   7 C :    0.129872
   8 N :    0.406199
   9 C :   -0.458014
  10 S :   -0.030492
  11 N :    0.396358
  12 C :   -0.052799
  13 C :   -0.041201
  14 C :    0.016239
  15 C :    0.045116
  16 C :    0.000069
  17 C :   -0.191494
  18 O :    0.396935
  19 C :    0.030894
  20 H :   -0.025391
  21 H :   -0.030991
  22 H :   -0.024958
  23 H :   -0.031968
  24 H :   -0.039637
  25 H :   -0.006879
  26 H :   -0.002963
  27 H :   -0.022725
  28 H :   -0.057435
  29 H :   -0.065117
  30 H :   -0.006190
  31 H :   -0.029042
  32 H :   -0.019689
  33 H :   -0.033995
  34 H :   -0.152518
  35 H :   -0.024181

  Mayer bond orders larger than 0.100000
B(  0-C ,  1-C ) :   0.9827 B(  0-C , 20-H ) :   0.9757 B(  0-C , 21-H ) :   0.9758
B(  0-C , 22-H ) :   0.9788 B(  1-C ,  2-O ) :   0.8797 B(  1-C , 23-H ) :   0.9798
B(  1-C , 24-H ) :   0.9585 B(  2-O ,  3-C ) :   1.1327 B(  3-C ,  4-O ) :   2.0740
B(  3-C ,  5-C ) :   1.0033 B(  5-C ,  6-C ) :   1.6754 B(  5-C , 12-C ) :   0.9675
B(  6-C ,  7-C ) :   0.9677 B(  6-C ,  8-N ) :   1.1415 B(  7-C , 25-H ) :   0.9683
B(  7-C , 26-H ) :   0.9557 B(  7-C , 27-H ) :   0.9865 B(  8-N ,  9-C ) :   1.1792
B(  8-N , 28-H ) :   0.9491 B(  9-C , 10-S ) :   1.6212 B(  9-C , 11-N ) :   1.2948
B( 11-N , 12-C ) :   0.9871 B( 11-N , 29-H ) :   0.9543 B( 12-C , 13-C ) :   0.9480
B( 12-C , 30-H ) :   1.0063 B( 13-C , 14-C ) :   1.3598 B( 13-C , 19-C ) :   1.3620
B( 14-C , 15-C ) :   1.3788 B( 14-C , 31-H ) :   0.9708 B( 15-C , 16-C ) :   1.3705
B( 15-C , 32-H ) :   0.9684 B( 16-C , 17-C ) :   1.3244 B( 16-C , 33-H ) :   0.9829
B( 17-C , 18-O ) :   1.1154 B( 17-C , 19-C ) :   1.3831 B( 18-O , 34-H ) :   0.9789
B( 19-C , 35-H ) :   0.9566

MP2 TOTAL ENERGY:    -1274.325056018 Eh
FINAL SINGLE POINT ENERGY     -1274.325056018334

DIPOLE MOMENT
-------------
                                X             Y             Z
Electronic contribution:     10.17575      10.16615       5.26162
Nuclear contribution   :    -11.42732     -11.63154      -4.90478
                        -----------------------------------------
Total Dipole Moment    :     -1.25157      -1.46539       0.35684
                        -----------------------------------------
Magnitude (a.u.)       :      1.95988
Magnitude (Debye)      :      4.98162

Rotational constants in cm-1:     0.012098     0.009381     0.006382
Rotational constants in MHz :   362.674988   281.247472   191.313211

                             ****ORCA TERMINATED NORMALLY****
TOTAL RUN TIME: 0 days 2 hours 12 minutes 52 seconds 33 msec
