                         Program Version 4.2.0 -  RELEASE  -
|  1> ! ri-mp2 cc-pvtz cc-pvtz/c TightSCF  NoKeepInts
|  2>
|  3> %scf
|  4>   MaxCore 4096
|  5> end
|  6> *xyz  0  1
|  7>     C       15.5338100   14.1333196   14.8703299
|  8>     C       15.5989328   14.1239930   16.4122690
|  9>     O       16.5755304   15.0774660   16.8737123
| 10>     C       16.3398622   16.4247055   16.8070294
| 11>     O       15.3612950   16.8967389   16.2537255
| 12>     C       17.3278529   17.2227847   17.6132044
| 13>     C       17.3058768   18.5794255   17.6560353
| 14>     C       16.3384028   19.5041488   16.9485393
| 15>     N       18.2767398   19.2738024   18.3841988
| 16>     C       19.3591808   18.6982892   18.9942622
| 17>     S       20.5217114   19.6017178   19.7481187
| 18>     N       19.4332227   17.3296980   18.9446897
| 19>     C       18.3824580   16.4415658   18.4146019
| 20>     C       17.7557384   15.6471511   19.5571588
| 21>     C       17.9372483   14.2537777   19.6409621
| 22>     C       17.3613111   13.5194872   20.6913853
| 23>     C       16.5998101   14.1837522   21.6680278
| 24>     C       16.4205006   15.5716988   21.5900183
| 25>     O       15.6869120   16.2160650   22.5322136
| 26>     C       16.9947682   16.2996986   20.5434529
| 27>     H       15.1232613   15.0759880   14.4890872
| 28>     H       14.8890395   13.3215811   14.5126596
| 29>     H       16.5324412   13.9907056   14.4396077
| 30>     H       14.6108562   14.3510034   16.8353270
| 31>     H       15.8903689   13.1215287   16.7507499
| 32>     H       15.3125004   19.3247300   17.2950814
| 33>     H       16.3537428   19.3249083   15.8660016
| 34>     H       16.5620443   20.5650419   17.1106026
| 35>     H       18.2389877   20.2795447   18.4298349
| 36>     H       20.2228689   16.9319599   19.4366836
| 37>     H       18.8691902   15.7359901   17.7267363
| 38>     H       18.5215909   13.7372063   18.8843146
| 39>     H       17.5057947   12.4419652   20.7464199
| 40>     H       16.1533023   13.6212628   22.4813317
| 41>     H       15.3996443   15.5553160   23.1799790
| 42>     H       16.8502020   17.3739822   20.5056477
| 43> *
| 44>
| 45>                          ****END OF INPUT****

CARTESIAN COORDINATES (ANGSTROEM)
---------------------------------
  C     15.533810   14.133320   14.870330
  C     15.598933   14.123993   16.412269
  O     16.575530   15.077466   16.873712
  C     16.339862   16.424706   16.807029
  O     15.361295   16.896739   16.253726
  C     17.327853   17.222785   17.613204
  C     17.305877   18.579425   17.656035
  C     16.338403   19.504149   16.948539
  N     18.276740   19.273802   18.384199
  C     19.359181   18.698289   18.994262
  S     20.521711   19.601718   19.748119
  N     19.433223   17.329698   18.944690
  C     18.382458   16.441566   18.414602
  C     17.755738   15.647151   19.557159
  C     17.937248   14.253778   19.640962
  C     17.361311   13.519487   20.691385
  C     16.599810   14.183752   21.668028
  C     16.420501   15.571699   21.590018
  O     15.686912   16.216065   22.532214
  C     16.994768   16.299699   20.543453
  H     15.123261   15.075988   14.489087
  H     14.889040   13.321581   14.512660
  H     16.532441   13.990706   14.439608
  H     14.610856   14.351003   16.835327
  H     15.890369   13.121529   16.750750
  H     15.312500   19.324730   17.295081
  H     16.353743   19.324908   15.866002
  H     16.562044   20.565042   17.110603
  H     18.238988   20.279545   18.429835
  H     20.222869   16.931960   19.436684
  H     18.869190   15.735990   17.726736
  H     18.521591   13.737206   18.884315
  H     17.505795   12.441965   20.746420
  H     16.153302   13.621263   22.481332
  H     15.399644   15.555316   23.179979
  H     16.850202   17.373982   20.505648

 Total Charge           Charge          ....    0
 Multiplicity           Mult            ....    1
 Number of Electrons    NEL             ....  154
 Basis Dimension        Dim             ....  828

ORBITAL ENERGIES
----------------

  NO   OCC          E(Eh)            E(eV)
   0   2.0000     -91.888481     -2500.4127
   1   2.0000     -20.601428      -560.5934
   2   2.0000     -20.595206      -560.4241
   3   2.0000     -20.542373      -558.9864
   4   2.0000     -15.628727      -425.2793
   5   2.0000     -15.607695      -424.7070
   6   2.0000     -11.396285      -310.1087
   7   2.0000     -11.383528      -309.7615
   8   2.0000     -11.335609      -308.4576
   9   2.0000     -11.312205      -307.8207
  10   2.0000     -11.308321      -307.7150
  11   2.0000     -11.299333      -307.4705
  12   2.0000     -11.258868      -306.3694
  13   2.0000     -11.258227      -306.3519
  14   2.0000     -11.253704      -306.2288
  15   2.0000     -11.251910      -306.1800
  16   2.0000     -11.241500      -305.8968
  17   2.0000     -11.236970      -305.7735
  18   2.0000     -11.236768      -305.7680
  19   2.0000     -11.222684      -305.3848
  20   2.0000      -8.893543      -242.0056
  21   2.0000      -6.575118      -178.9180
  22   2.0000      -6.573113      -178.8635
  23   2.0000      -6.572527      -178.8475
  24   2.0000      -1.450420       -39.4679
  25   2.0000      -1.414849       -38.5000
  26   2.0000      -1.355382       -36.8818
  27   2.0000      -1.339668       -36.4542
  28   2.0000      -1.238005       -33.6878
  29   2.0000      -1.156229       -31.4626
  30   2.0000      -1.119758       -30.4702
  31   2.0000      -1.041813       -28.3492
  32   2.0000      -1.035956       -28.1898
  33   2.0000      -1.013557       -27.5803
  34   2.0000      -0.994767       -27.0690
  35   2.0000      -0.983378       -26.7591
  36   2.0000      -0.921802       -25.0835
  37   2.0000      -0.894638       -24.3443
  38   2.0000      -0.846692       -23.0397
  39   2.0000      -0.836776       -22.7698
  40   2.0000      -0.832617       -22.6567
  41   2.0000      -0.818005       -22.2590
  42   2.0000      -0.754987       -20.5442
  43   2.0000      -0.730806       -19.8862
  44   2.0000      -0.722235       -19.6530
  45   2.0000      -0.694512       -18.8986
  46   2.0000      -0.687803       -18.7161
  47   2.0000      -0.680483       -18.5169
  48   2.0000      -0.670301       -18.2398
  49   2.0000      -0.652910       -17.7666
  50   2.0000      -0.648236       -17.6394
  51   2.0000      -0.644959       -17.5502
  52   2.0000      -0.631184       -17.1754
  53   2.0000      -0.611135       -16.6298
  54   2.0000      -0.605364       -16.4728
  55   2.0000      -0.598579       -16.2882
  56   2.0000      -0.597681       -16.2637
  57   2.0000      -0.579247       -15.7621
  58   2.0000      -0.571810       -15.5597
  59   2.0000      -0.570419       -15.5219
  60   2.0000      -0.562502       -15.3064
  61   2.0000      -0.538477       -14.6527
  62   2.0000      -0.537039       -14.6136
  63   2.0000      -0.524655       -14.2766
  64   2.0000      -0.523467       -14.2443
  65   2.0000      -0.512857       -13.9555
  66   2.0000      -0.500635       -13.6230
  67   2.0000      -0.498399       -13.5621
  68   2.0000      -0.484661       -13.1883
  69   2.0000      -0.463540       -12.6136
  70   2.0000      -0.455970       -12.4076
  71   2.0000      -0.445353       -12.1187
  72   2.0000      -0.353958        -9.6317
  73   2.0000      -0.348052        -9.4710
  74   2.0000      -0.327770        -8.9191
  75   2.0000      -0.319878        -8.7043
  76   2.0000      -0.315441        -8.5836
  77   0.0000       0.076524         2.0823
  78   0.0000       0.108476         2.9518
  79   0.0000       0.125169         3.4060
  80   0.0000       0.133215         3.6250
  81   0.0000       0.137289         3.7358

MULLIKEN ATOMIC CHARGES
-----------------------
   0 C :   -0.294642
   1 C :    0.042628
   2 O :   -0.352854
   3 C :    0.467311
   4 O :   -0.438278
   5 C :   -0.208552
   6 C :    0.147761
   7 C :   -0.275259
   8 N :   -0.119830
   9 C :    0.211018
  10 S :   -0.440255
  11 N :   -0.203042
  12 C :    0.047280
  13 C :    0.070977
  14 C :   -0.180378
  15 C :   -0.132062
  16 C :   -0.278234
  17 C :    0.315308
  18 O :   -0.356926
  19 C :   -0.269215
  20 H :    0.122723
  21 H :    0.094262
  22 H :    0.090478
  23 H :    0.094664
  24 H :    0.106340
  25 H :    0.132821
  26 H :    0.129535
  27 H :    0.095366
  28 H :    0.197158
  29 H :    0.194214
  30 H :    0.149697
  31 H :    0.146933
  32 H :    0.159236
  33 H :    0.129095
  34 H :    0.240505
  35 H :    0.164217
Sum of atomic charges:   -0.0000000

LOEWDIN ATOMIC CHARGES
----------------------
   0 C :    0.104878
   1 C :   -0.014044
   2 O :    0.305149
   3 C :   -0.411782
   4 O :    0.098642
   5 C :   -0.093487
   6 C :   -0.059095
   7 C :    0.131196
   8 N :    0.406491
   9 C :   -0.456679
  10 S :   -0.035712
  11 N :    0.396506
  12 C :   -0.052680
  13 C :   -0.038212
  14 C :    0.014025
  15 C :    0.038903
  16 C :   -0.001758
  17 C :   -0.189444
  18 O :    0.394985
  19 C :    0.031454
  20 H :   -0.025876
  21 H :   -0.027874
  22 H :   -0.030472
  23 H :   -0.027881
  24 H :   -0.025234
  25 H :   -0.004524
  26 H :   -0.004423
  27 H :   -0.023410
  28 H :   -0.057647
  29 H :   -0.064639
  30 H :   -0.011120
  31 H :   -0.030590
  32 H :   -0.021693
  33 H :   -0.035831
  34 H :   -0.154129
  35 H :   -0.023993

  Mayer bond orders larger than 0.100000
B(  0-C ,  1-C ) :   0.9695 B(  0-C , 20-H ) :   0.9727 B(  0-C , 21-H ) :   0.9774
B(  0-C , 22-H ) :   0.9761 B(  1-C ,  2-O ) :   0.8993 B(  1-C , 23-H ) :   0.9763
B(  1-C , 24-H ) :   0.9835 B(  2-O ,  3-C ) :   1.1616 B(  3-C ,  4-O ) :   1.9495
B(  3-C ,  5-C ) :   1.0642 B(  5-C ,  6-C ) :   1.6568 B(  5-C , 12-C ) :   0.9739
B(  6-C ,  7-C ) :   0.9675 B(  6-C ,  8-N ) :   1.1643 B(  7-C , 25-H ) :   0.9602
B(  7-C , 26-H ) :   0.9605 B(  7-C , 27-H ) :   0.9908 B(  8-N ,  9-C ) :   1.1823
B(  8-N , 28-H ) :   0.9480 B(  9-C , 10-S ) :   1.6073 B(  9-C , 11-N ) :   1.3051
B( 11-N , 12-C ) :   0.9871 B( 11-N , 29-H ) :   0.9517 B( 12-C , 13-C ) :   0.9373
B( 12-C , 30-H ) :   1.0027 B( 13-C , 14-C ) :   1.3555 B( 13-C , 19-C ) :   1.3826
B( 14-C , 15-C ) :   1.3929 B( 14-C , 31-H ) :   0.9721 B( 15-C , 16-C ) :   1.3644
B( 15-C , 32-H ) :   0.9710 B( 16-C , 17-C ) :   1.3318 B( 16-C , 33-H ) :   0.9853
B( 17-C , 18-O ) :   1.1097 B( 17-C , 19-C ) :   1.3738 B( 18-O , 34-H ) :   0.9801
B( 19-C , 35-H ) :   0.9583

MP2 TOTAL ENERGY:    -1274.348661415 Eh
FINAL SINGLE POINT ENERGY     -1274.348661415271

DIPOLE MOMENT
-------------
                                X             Y             Z
Electronic contribution:      9.87815       9.31769      10.09029
Nuclear contribution   :    -11.00897     -10.96710     -10.42466
                        -----------------------------------------
Total Dipole Moment    :     -1.13082      -1.64941      -0.33437
                        -----------------------------------------
Magnitude (a.u.)       :      2.02758
Magnitude (Debye)      :      5.15371

Rotational constants in cm-1:     0.010857     0.008863     0.006014
Rotational constants in MHz :   325.495040   265.716700   180.288397

                             ****ORCA TERMINATED NORMALLY****
TOTAL RUN TIME: 0 days 1 hours 44 minutes 49 seconds 492 msec
