                         Program Version 5.0.0 -  RELEASE  -
|  1> ! ri-mp2 cc-pvtz cc-pvtz/c TightSCF NoKeepInts
|  2>
|  3> %scf
|  4>   MaxCore 4096
|  5> end
|  6> *xyz  0  1
|  7>     C       15.0296967   14.1291705   15.6985514
|  8>     C       16.2038347   13.9998500   16.6917847
|  9>     O       17.1551592   15.0925655   16.6470051
| 10>     C       16.8310624   16.4194115   16.5198956
| 11>     O       15.9437735   16.8326523   15.7951349
| 12>     C       17.5921043   17.2831477   17.4903178
| 13>     C       17.4622701   18.6345656   17.5194148
| 14>     C       16.5830056   19.4927742   16.6347937
| 15>     N       18.2162124   19.3933205   18.4196809
| 16>     C       19.1846159   18.8940296   19.2485460
| 17>     S       20.0931808   19.8739866   20.2233090
| 18>     N       19.3668133   17.5352286   19.2275517
| 19>     C       18.5303520   16.5759029   18.4841593
| 20>     C       17.7677527   15.6934770   19.4686333
| 21>     C       18.1336810   14.3458882   19.6465873
| 22>     C       17.4288639   13.5261576   20.5440056
| 23>     C       16.3518446   14.0589695   21.2727295
| 24>     C       15.9897179   15.4024795   21.1038130
| 25>     O       14.9519653   15.9204184   21.8077355
| 26>     C       16.6922432   16.2154216   20.2090577
| 27>     H       14.3220474   14.9044822   16.0173367
| 28>     H       14.4771382   13.1839747   15.6387081
| 29>     H       15.3931406   14.3747151   14.6927081
| 30>     H       15.7897450   13.9292948   17.7064699
| 31>     H       16.7392941   13.0626655   16.4936624
| 32>     H       15.5250647   19.2419679   16.7849183
| 33>     H       16.8128331   19.3183914   15.5759327
| 34>     H       16.6995132   20.5661580   16.8246134
| 35>     H       18.0972264   20.3933660   18.4477173
| 36>     H       20.0624018   17.1934405   19.8780183
| 37>     H       19.2082430   15.9375174   17.9001557
| 38>     H       18.9643086   13.9309877   19.0817142
| 39>     H       17.7190644   12.4849624   20.6745687
| 40>     H       15.8053774   13.4306111   21.9684720
| 41>     H       14.6231762   15.2258170   22.3979557
| 42>     H       16.4002763   17.2542310   20.0983414
| 43> *
| 44>
| 45>                          ****END OF INPUT****

CARTESIAN COORDINATES (ANGSTROEM)
---------------------------------
  C     15.029697   14.129171   15.698551
  C     16.203835   13.999850   16.691785
  O     17.155159   15.092565   16.647005
  C     16.831062   16.419411   16.519896
  O     15.943774   16.832652   15.795135
  C     17.592104   17.283148   17.490318
  C     17.462270   18.634566   17.519415
  C     16.583006   19.492774   16.634794
  N     18.216212   19.393321   18.419681
  C     19.184616   18.894030   19.248546
  S     20.093181   19.873987   20.223309
  N     19.366813   17.535229   19.227552
  C     18.530352   16.575903   18.484159
  C     17.767753   15.693477   19.468633
  C     18.133681   14.345888   19.646587
  C     17.428864   13.526158   20.544006
  C     16.351845   14.058969   21.272730
  C     15.989718   15.402480   21.103813
  O     14.951965   15.920418   21.807735
  C     16.692243   16.215422   20.209058
  H     14.322047   14.904482   16.017337
  H     14.477138   13.183975   15.638708
  H     15.393141   14.374715   14.692708
  H     15.789745   13.929295   17.706470
  H     16.739294   13.062665   16.493662
  H     15.525065   19.241968   16.784918
  H     16.812833   19.318391   15.575933
  H     16.699513   20.566158   16.824613
  H     18.097226   20.393366   18.447717
  H     20.062402   17.193440   19.878018
  H     19.208243   15.937517   17.900156
  H     18.964309   13.930988   19.081714
  H     17.719064   12.484962   20.674569
  H     15.805377   13.430611   21.968472
  H     14.623176   15.225817   22.397956
  H     16.400276   17.254231   20.098341

 Total Charge           Charge          ....    0
 Multiplicity           Mult            ....    1
 Number of Electrons    NEL             ....  154
 Basis Dimension        Dim             ....  828

ORBITAL ENERGIES
----------------

  NO   OCC          E(Eh)            E(eV)
   0   2.0000     -91.888651     -2500.4173
   1   2.0000     -20.598799      -560.5218
   2   2.0000     -20.591966      -560.3359
   3   2.0000     -20.542604      -558.9927
   4   2.0000     -15.628727      -425.2793
   5   2.0000     -15.608036      -424.7163
   6   2.0000     -11.396411      -310.1121
   7   2.0000     -11.383707      -309.7664
   8   2.0000     -11.335401      -308.4520
   9   2.0000     -11.316317      -307.9327
  10   2.0000     -11.308787      -307.7277
  11   2.0000     -11.300115      -307.4918
  12   2.0000     -11.261581      -306.4432
  13   2.0000     -11.257871      -306.3422
  14   2.0000     -11.257611      -306.3352
  15   2.0000     -11.251893      -306.1796
  16   2.0000     -11.245233      -305.9983
  17   2.0000     -11.240328      -305.8649
  18   2.0000     -11.239950      -305.8546
  19   2.0000     -11.219369      -305.2946
  20   2.0000      -8.893721      -242.0104
  21   2.0000      -6.575297      -178.9229
  22   2.0000      -6.573291      -178.8683
  23   2.0000      -6.572705      -178.8524
  24   2.0000      -1.442573       -39.2544
  25   2.0000      -1.418448       -38.5979
  26   2.0000      -1.353721       -36.8366
  27   2.0000      -1.339853       -36.4592
  28   2.0000      -1.238475       -33.7006
  29   2.0000      -1.159305       -31.5463
  30   2.0000      -1.119801       -30.4713
  31   2.0000      -1.043543       -28.3963
  32   2.0000      -1.033612       -28.1260
  33   2.0000      -1.017269       -27.6813
  34   2.0000      -0.995340       -27.0846
  35   2.0000      -0.983604       -26.7652
  36   2.0000      -0.922919       -25.1139
  37   2.0000      -0.893322       -24.3085
  38   2.0000      -0.847529       -23.0624
  39   2.0000      -0.839434       -22.8422
  40   2.0000      -0.835885       -22.7456
  41   2.0000      -0.820267       -22.3206
  42   2.0000      -0.746752       -20.3201
  43   2.0000      -0.732040       -19.9198
  44   2.0000      -0.718023       -19.5384
  45   2.0000      -0.697372       -18.9765
  46   2.0000      -0.688243       -18.7280
  47   2.0000      -0.677290       -18.4300
  48   2.0000      -0.668153       -18.1814
  49   2.0000      -0.660694       -17.9784
  50   2.0000      -0.650624       -17.7044
  51   2.0000      -0.645433       -17.5631
  52   2.0000      -0.635836       -17.3020
  53   2.0000      -0.609020       -16.5723
  54   2.0000      -0.602716       -16.4007
  55   2.0000      -0.599845       -16.3226
  56   2.0000      -0.598063       -16.2741
  57   2.0000      -0.579816       -15.7776
  58   2.0000      -0.574789       -15.6408
  59   2.0000      -0.570594       -15.5267
  60   2.0000      -0.562361       -15.3026
  61   2.0000      -0.538883       -14.6637
  62   2.0000      -0.534428       -14.5425
  63   2.0000      -0.525977       -14.3126
  64   2.0000      -0.522498       -14.2179
  65   2.0000      -0.513294       -13.9674
  66   2.0000      -0.501589       -13.6489
  67   2.0000      -0.496721       -13.5165
  68   2.0000      -0.484903       -13.1949
  69   2.0000      -0.463287       -12.6067
  70   2.0000      -0.452583       -12.3154
  71   2.0000      -0.439473       -11.9587
  72   2.0000      -0.353752        -9.6261
  73   2.0000      -0.351333        -9.5603
  74   2.0000      -0.328410        -8.9365
  75   2.0000      -0.323637        -8.8066
  76   2.0000      -0.316185        -8.6038
  77   0.0000       0.074783         2.0349
  78   0.0000       0.104434         2.8418
  79   0.0000       0.124408         3.3853
  80   0.0000       0.131681         3.5832
  81   0.0000       0.136930         3.7261

MULLIKEN ATOMIC CHARGES
-----------------------
   0 C :   -0.277632
   1 C :    0.040729
   2 O :   -0.380698
   3 C :    0.466245
   4 O :   -0.422524
   5 C :   -0.230328
   6 C :    0.157970
   7 C :   -0.270275
   8 N :   -0.122586
   9 C :    0.214076
  10 S :   -0.441354
  11 N :   -0.207582
  12 C :    0.073691
  13 C :    0.046795
  14 C :   -0.187799
  15 C :   -0.130223
  16 C :   -0.280767
  17 C :    0.313851
  18 O :   -0.355720
  19 C :   -0.262361
  20 H :    0.107744
  21 H :    0.093425
  22 H :    0.105644
  23 H :    0.098392
  24 H :    0.099569
  25 H :    0.131102
  26 H :    0.131127
  27 H :    0.095176
  28 H :    0.197270
  29 H :    0.195100
  30 H :    0.148912
  31 H :    0.151781
  32 H :    0.161702
  33 H :    0.131711
  34 H :    0.241101
  35 H :    0.166735
Sum of atomic charges:   -0.0000000

LOEWDIN ATOMIC CHARGES
----------------------
   0 C :    0.102804
   1 C :   -0.013303
   2 O :    0.290593
   3 C :   -0.412232
   4 O :    0.112699
   5 C :   -0.095915
   6 C :   -0.059121
   7 C :    0.130929
   8 N :    0.406572
   9 C :   -0.456105
  10 S :   -0.036326
  11 N :    0.396195
  12 C :   -0.052431
  13 C :   -0.037623
  14 C :    0.014364
  15 C :    0.039148
  16 C :   -0.003034
  17 C :   -0.189948
  18 O :    0.395886
  19 C :    0.030329
  20 H :   -0.027230
  21 H :   -0.029329
  22 H :   -0.024060
  23 H :   -0.029158
  24 H :   -0.024851
  25 H :   -0.005091
  26 H :   -0.003991
  27 H :   -0.023510
  28 H :   -0.057650
  29 H :   -0.064843
  30 H :   -0.010715
  31 H :   -0.029815
  32 H :   -0.020901
  33 H :   -0.035288
  34 H :   -0.153467
  35 H :   -0.023582

  Mayer bond orders larger than 0.100000
B(  0-C ,  1-C ) :   0.9832 B(  0-C , 20-H ) :   0.9731 B(  0-C , 21-H ) :   0.9748
B(  0-C , 22-H ) :   0.9753 B(  1-C ,  2-O ) :   0.8908 B(  1-C , 23-H ) :   0.9697
B(  1-C , 24-H ) :   0.9811 B(  2-O ,  3-C ) :   1.1113 B(  3-C ,  4-O ) :   1.9917
B(  3-C ,  5-C ) :   1.0716 B(  5-C ,  6-C ) :   1.6516 B(  5-C , 12-C ) :   0.9736
B(  6-C ,  7-C ) :   0.9662 B(  6-C ,  8-N ) :   1.1602 B(  7-C , 25-H ) :   0.9598
B(  7-C , 26-H ) :   0.9606 B(  7-C , 27-H ) :   0.9909 B(  8-N ,  9-C ) :   1.1842
B(  8-N , 28-H ) :   0.9477 B(  9-C , 10-S ) :   1.6047 B(  9-C , 11-N ) :   1.3072
B( 11-N , 12-C ) :   0.9801 B( 11-N , 29-H ) :   0.9514 B( 12-C , 13-C ) :   0.9353
B( 12-C , 30-H ) :   1.0016 B( 13-C , 14-C ) :   1.3540 B( 13-C , 19-C ) :   1.3830
B( 14-C , 15-C ) :   1.3917 B( 14-C , 31-H ) :   0.9730 B( 15-C , 16-C ) :   1.3616
B( 15-C , 32-H ) :   0.9707 B( 16-C , 17-C ) :   1.3307 B( 16-C , 33-H ) :   0.9847
B( 17-C , 18-O ) :   1.1120 B( 17-C , 19-C ) :   1.3702 B( 18-O , 34-H ) :   0.9795
B( 19-C , 35-H ) :   0.9580

MP2 TOTAL ENERGY:    -1274.337016460 Eh
FINAL SINGLE POINT ENERGY     -1274.337016460124

DIPOLE MOMENT
-------------
                                X             Y             Z
Electronic contribution:     10.22360       9.97220       8.26689
Nuclear contribution   :    -11.22074     -11.70325      -8.44806
                        -----------------------------------------
Total Dipole Moment    :     -0.99714      -1.73105      -0.18117
                        -----------------------------------------
Magnitude (a.u.)       :      2.00590
Magnitude (Debye)      :      5.09860

Rotational constants in cm-1:     0.012028     0.008679     0.006200
Rotational constants in MHz :   360.593686   260.201521   185.869452

                             ****ORCA TERMINATED NORMALLY****
TOTAL RUN TIME: 0 days 1 hours 42 minutes 44 seconds 218 msec
