                         Program Version 4.2.0 -  RELEASE  -
|  1> ! ri-mp2 cc-pvtz cc-pvtz/c TightSCF  NoKeepInts
|  2>
|  3> %scf
|  4>   MaxCore 4096
|  5> end
|  6> *xyz  0  1
|  7>     C       14.9161286   16.0359125   17.2671362
|  8>     C       15.6395224   14.8909545   16.5294008
|  9>     O       16.8555989   15.2531795   15.8259210
| 10>     C       18.0123516   15.7100253   16.4081287
| 11>     O       18.9896680   14.9840333   16.4111248
| 12>     C       17.9167798   16.8577360   17.3589379
| 13>     C       17.3630657   18.0457141   17.0159493
| 14>     C       16.7861579   18.4437796   15.6730516
| 15>     N       17.3955621   19.1128402   17.9164057
| 16>     C       18.0738071   19.1097292   19.1071642
| 17>     S       18.1272864   20.4454720   20.0803452
| 18>     N       18.7104294   17.9428468   19.4509952
| 19>     C       18.6176099   16.6695721   18.7089990
| 20>     C       17.9433477   15.5815359   19.5450153
| 21>     C       18.4061703   14.2540213   19.4779810
| 22>     C       17.7879887   13.2378403   20.2251308
| 23>     C       16.6957539   13.5490434   21.0518713
| 24>     C       16.2320698   14.8689379   21.1262572
| 25>     O       15.1724765   15.1724922   21.9171567
| 26>     C       16.8498297   15.8784895   20.3813468
| 27>     H       15.4765901   16.4008219   18.1303867
| 28>     H       13.9546763   15.6721783   17.6499469
| 29>     H       14.6998814   16.8678723   16.5892498
| 30>     H       15.8723132   14.0990497   17.2545342
| 31>     H       14.9409116   14.4606680   15.8002421
| 32>     H       16.6916872   17.6008680   14.9801024
| 33>     H       17.4311600   19.1849951   15.1843740
| 34>     H       15.7897282   18.8882691   15.7843360
| 35>     H       16.9550296   19.9858619   17.6721862
| 36>     H       19.1913959   17.9655822   20.3413727
| 37>     H       19.6458215   16.3376191   18.5017887
| 38>     H       19.2462240   14.0056799   18.8325973
| 39>     H       18.1559635   12.2152748   20.1585451
| 40>     H       16.2143938   12.7668007   21.6295664
| 41>     H       14.9219542   14.3649923   22.3909785
| 42>     H       16.4676655   16.8913110   20.4554743
| 43> *
| 44>
| 45>                          ****END OF INPUT****

CARTESIAN COORDINATES (ANGSTROEM)
---------------------------------
  C     14.916129   16.035912   17.267136
  C     15.639522   14.890954   16.529401
  O     16.855599   15.253179   15.825921
  C     18.012352   15.710025   16.408129
  O     18.989668   14.984033   16.411125
  C     17.916780   16.857736   17.358938
  C     17.363066   18.045714   17.015949
  C     16.786158   18.443780   15.673052
  N     17.395562   19.112840   17.916406
  C     18.073807   19.109729   19.107164
  S     18.127286   20.445472   20.080345
  N     18.710429   17.942847   19.450995
  C     18.617610   16.669572   18.708999
  C     17.943348   15.581536   19.545015
  C     18.406170   14.254021   19.477981
  C     17.787989   13.237840   20.225131
  C     16.695754   13.549043   21.051871
  C     16.232070   14.868938   21.126257
  O     15.172477   15.172492   21.917157
  C     16.849830   15.878489   20.381347
  H     15.476590   16.400822   18.130387
  H     13.954676   15.672178   17.649947
  H     14.699881   16.867872   16.589250
  H     15.872313   14.099050   17.254534
  H     14.940912   14.460668   15.800242
  H     16.691687   17.600868   14.980102
  H     17.431160   19.184995   15.184374
  H     15.789728   18.888269   15.784336
  H     16.955030   19.985862   17.672186
  H     19.191396   17.965582   20.341373
  H     19.645821   16.337619   18.501789
  H     19.246224   14.005680   18.832597
  H     18.155963   12.215275   20.158545
  H     16.214394   12.766801   21.629566
  H     14.921954   14.364992   22.390978
  H     16.467665   16.891311   20.455474

 Total Charge           Charge          ....    0
 Multiplicity           Mult            ....    1
 Number of Electrons    NEL             ....  154
 Basis Dimension        Dim             ....  828

ORBITAL ENERGIES
----------------

  NO   OCC          E(Eh)            E(eV)
   0   2.0000     -91.890962     -2500.4802
   1   2.0000     -20.599255      -560.5342
   2   2.0000     -20.586521      -560.1877
   3   2.0000     -20.552855      -559.2716
   4   2.0000     -15.628751      -425.2799
   5   2.0000     -15.611526      -424.8112
   6   2.0000     -11.396963      -310.1271
   7   2.0000     -11.387245      -309.8627
   8   2.0000     -11.332410      -308.3706
   9   2.0000     -11.316145      -307.9280
  10   2.0000     -11.313842      -307.8653
  11   2.0000     -11.307704      -307.6983
  12   2.0000     -11.264158      -306.5133
  13   2.0000     -11.263709      -306.5011
  14   2.0000     -11.263193      -306.4871
  15   2.0000     -11.256114      -306.2944
  16   2.0000     -11.245592      -306.0081
  17   2.0000     -11.241884      -305.9072
  18   2.0000     -11.237857      -305.7976
  19   2.0000     -11.231970      -305.6375
  20   2.0000      -8.896049      -242.0738
  21   2.0000      -6.577632      -178.9865
  22   2.0000      -6.575614      -178.9315
  23   2.0000      -6.575031      -178.9157
  24   2.0000      -1.443937       -39.2915
  25   2.0000      -1.419071       -38.6149
  26   2.0000      -1.353797       -36.8387
  27   2.0000      -1.341425       -36.5020
  28   2.0000      -1.240585       -33.7580
  29   2.0000      -1.160249       -31.5720
  30   2.0000      -1.124410       -30.5967
  31   2.0000      -1.047478       -28.5033
  32   2.0000      -1.037089       -28.2206
  33   2.0000      -1.018401       -27.7121
  34   2.0000      -1.004470       -27.3330
  35   2.0000      -0.990136       -26.9430
  36   2.0000      -0.927585       -25.2409
  37   2.0000      -0.894763       -24.3477
  38   2.0000      -0.852485       -23.1973
  39   2.0000      -0.841567       -22.9002
  40   2.0000      -0.836231       -22.7550
  41   2.0000      -0.827988       -22.5307
  42   2.0000      -0.750752       -20.4290
  43   2.0000      -0.734706       -19.9924
  44   2.0000      -0.730109       -19.8673
  45   2.0000      -0.697423       -18.9779
  46   2.0000      -0.687789       -18.7157
  47   2.0000      -0.676816       -18.4171
  48   2.0000      -0.674224       -18.3466
  49   2.0000      -0.662878       -18.0378
  50   2.0000      -0.653990       -17.7960
  51   2.0000      -0.647952       -17.6317
  52   2.0000      -0.640566       -17.4307
  53   2.0000      -0.613024       -16.6812
  54   2.0000      -0.606536       -16.5047
  55   2.0000      -0.603229       -16.4147
  56   2.0000      -0.598003       -16.2725
  57   2.0000      -0.596145       -16.2219
  58   2.0000      -0.576513       -15.6877
  59   2.0000      -0.575707       -15.6658
  60   2.0000      -0.565299       -15.3826
  61   2.0000      -0.556146       -15.1335
  62   2.0000      -0.542795       -14.7702
  63   2.0000      -0.529879       -14.4187
  64   2.0000      -0.521599       -14.1934
  65   2.0000      -0.513851       -13.9826
  66   2.0000      -0.502351       -13.6697
  67   2.0000      -0.489529       -13.3208
  68   2.0000      -0.485916       -13.2224
  69   2.0000      -0.465701       -12.6724
  70   2.0000      -0.459508       -12.5039
  71   2.0000      -0.449134       -12.2216
  72   2.0000      -0.356273        -9.6947
  73   2.0000      -0.350622        -9.5409
  74   2.0000      -0.330407        -8.9908
  75   2.0000      -0.323981        -8.8160
  76   2.0000      -0.319523        -8.6947
  77   0.0000       0.079497         2.1632
  78   0.0000       0.104089         2.8324
  79   0.0000       0.118704         3.2301
  80   0.0000       0.127005         3.4560
  81   0.0000       0.129978         3.5369

MULLIKEN ATOMIC CHARGES
-----------------------
   0 C :   -0.339656
   1 C :    0.049751
   2 O :   -0.364681
   3 C :    0.428988
   4 O :   -0.378513
   5 C :   -0.216506
   6 C :    0.159058
   7 C :   -0.328473
   8 N :   -0.134297
   9 C :    0.200572
  10 S :   -0.438235
  11 N :   -0.223976
  12 C :    0.091008
  13 C :    0.024956
  14 C :   -0.216665
  15 C :   -0.135521
  16 C :   -0.277601
  17 C :    0.324199
  18 O :   -0.356317
  19 C :   -0.284154
  20 H :    0.118545
  21 H :    0.126727
  22 H :    0.097117
  23 H :    0.103818
  24 H :    0.118997
  25 H :    0.133217
  26 H :    0.145992
  27 H :    0.111597
  28 H :    0.197369
  29 H :    0.200511
  30 H :    0.165785
  31 H :    0.176066
  32 H :    0.165021
  33 H :    0.132387
  34 H :    0.241200
  35 H :    0.181714
Sum of atomic charges:   -0.0000000

LOEWDIN ATOMIC CHARGES
----------------------
   0 C :    0.104851
   1 C :   -0.011268
   2 O :    0.277215
   3 C :   -0.414838
   4 O :    0.132164
   5 C :   -0.086445
   6 C :   -0.085998
   7 C :    0.124167
   8 N :    0.404714
   9 C :   -0.457271
  10 S :   -0.035781
  11 N :    0.397662
  12 C :   -0.043683
  13 C :   -0.042926
  14 C :    0.020335
  15 C :    0.042264
  16 C :   -0.001662
  17 C :   -0.193746
  18 O :    0.395184
  19 C :    0.026858
  20 H :   -0.036479
  21 H :   -0.020131
  22 H :   -0.032066
  23 H :   -0.026736
  24 H :   -0.019085
  25 H :   -0.011839
  26 H :   -0.009471
  27 H :   -0.018819
  28 H :   -0.056476
  29 H :   -0.063690
  30 H :   -0.002818
  31 H :   -0.022232
  32 H :   -0.018771
  33 H :   -0.034838
  34 H :   -0.153250
  35 H :   -0.025095

  Mayer bond orders larger than 0.100000
B(  0-C ,  1-C ) :   0.9598 B(  0-C , 20-H ) :   0.9678 B(  0-C , 21-H ) :   0.9777
B(  0-C , 22-H ) :   0.9773 B(  1-C ,  2-O ) :   0.8993 B(  1-C , 23-H ) :   0.9762
B(  1-C , 24-H ) :   0.9823 B(  2-O ,  3-C ) :   1.1321 B(  3-C ,  4-O ) :   2.0814
B(  3-C ,  5-C ) :   0.9593 B(  5-C ,  6-C ) :   1.6615 B(  5-C , 12-C ) :   0.9511
B(  6-C ,  7-C ) :   0.9512 B(  6-C ,  8-N ) :   1.1256 B(  7-C , 25-H ) :   0.9742
B(  7-C , 26-H ) :   0.9658 B(  7-C , 27-H ) :   0.9689 B(  8-N ,  9-C ) :   1.1918
B(  8-N , 28-H ) :   0.9510 B(  9-C , 10-S ) :   1.6124 B(  9-C , 11-N ) :   1.2880
B( 11-N , 12-C ) :   0.9875 B( 11-N , 29-H ) :   0.9491 B( 12-C , 13-C ) :   0.9458
B( 12-C , 30-H ) :   0.9975 B( 13-C , 14-C ) :   1.3882 B( 13-C , 19-C ) :   1.3391
B( 14-C , 15-C ) :   1.4020 B( 14-C , 31-H ) :   0.9580 B( 15-C , 16-C ) :   1.3586
B( 15-C , 32-H ) :   0.9697 B( 16-C , 17-C ) :   1.3319 B( 16-C , 33-H ) :   0.9845
B( 17-C , 18-O ) :   1.1110 B( 17-C , 19-C ) :   1.3657 B( 18-O , 34-H ) :   0.9795
B( 19-C , 35-H ) :   0.9546

MP2 TOTAL ENERGY:    -1274.323661476 Eh
FINAL SINGLE POINT ENERGY     -1274.323661476143

DIPOLE MOMENT
-------------
                                X             Y             Z
Electronic contribution:      9.61254       5.74904       6.04716
Nuclear contribution   :    -11.03696      -6.93146      -6.48467
                        -----------------------------------------
Total Dipole Moment    :     -1.42442      -1.18241      -0.43751
                        -----------------------------------------
Magnitude (a.u.)       :      1.90224
Magnitude (Debye)      :      4.83510

Rotational constants in cm-1:     0.011962     0.009523     0.006892
Rotational constants in MHz :   358.615946   285.490806   206.619971

                             ****ORCA TERMINATED NORMALLY****
TOTAL RUN TIME: 0 days 1 hours 55 minutes 47 seconds 532 msec
