                         Program Version 5.0.0 -  RELEASE  -
|  1> ! ri-mp2 cc-pvtz cc-pvtz/c TightSCF NoKeepInts
|  2>
|  3> %scf
|  4>   MaxCore 4096
|  5> end
|  6> *xyz  0  1
|  7>     C       15.5029986   13.6054808   15.5236363
|  8>     C       15.7028544   14.4389127   16.8005280
|  9>     O       16.8290491   15.3071238   16.5817186
| 10>     C       16.6158365   16.6549012   16.5412756
| 11>     O       15.6450753   17.1270342   15.9748818
| 12>     C       17.4690501   17.4095132   17.5242544
| 13>     C       17.3818809   18.7556050   17.6771028
| 14>     C       16.4627447   19.7048703   16.9382967
| 15>     N       18.2288800   19.4163683   18.5717923
| 16>     C       19.2576096   18.8275097   19.2571148
| 17>     S       20.2801136   19.7001583   20.2208575
| 18>     N       19.4022325   17.4730246   19.0984894
| 19>     C       18.4658238   16.5982788   18.3699746
| 20>     C       17.7669361   15.6679766   19.3574444
| 21>     C       18.1209794   14.3071756   19.4229730
| 22>     C       17.4763097   13.4432131   20.3241079
| 23>     C       16.4722856   13.9445126   21.1699531
| 24>     C       16.1230525   15.3007431   21.1132656
| 25>     O       15.1557059   15.7882618   21.9300773
| 26>     C       16.7654249   16.1578684   20.2145373
| 27>     H       15.2776833   14.2588425   14.6710840
| 28>     H       14.6690559   12.9042622   15.6478769
| 29>     H       16.4070336   13.0296232   15.2903834
| 30>     H       14.7900625   15.0052718   17.0323550
| 31>     H       15.9110737   13.7693233   17.6448836
| 32>     H       15.4130502   19.4784549   17.1654436
| 33>     H       16.5914482   19.6021874   15.8532688
| 34>     H       16.6380849   20.7568541   17.1921410
| 35>     H       18.1392698   20.4119136   18.6982563
| 36>     H       20.1480499   17.0623854   19.6452708
| 37>     H       19.0605801   15.9842285   17.6789604
| 38>     H       18.8944325   13.9162455   18.7670620
| 39>     H       17.7563503   12.3919147   20.3663583
| 40>     H       15.9725024   13.2816452   21.8687907
| 41>     H       14.8679500   15.0647489   22.5069489
| 42>     H       16.4855296   17.2055669   20.1926347
| 43> *
| 44>
| 45>                          ****END OF INPUT****

CARTESIAN COORDINATES (ANGSTROEM)
---------------------------------
  C     15.502999   13.605481   15.523636
  C     15.702854   14.438913   16.800528
  O     16.829049   15.307124   16.581719
  C     16.615837   16.654901   16.541276
  O     15.645075   17.127034   15.974882
  C     17.469050   17.409513   17.524254
  C     17.381881   18.755605   17.677103
  C     16.462745   19.704870   16.938297
  N     18.228880   19.416368   18.571792
  C     19.257610   18.827510   19.257115
  S     20.280114   19.700158   20.220857
  N     19.402232   17.473025   19.098489
  C     18.465824   16.598279   18.369975
  C     17.766936   15.667977   19.357444
  C     18.120979   14.307176   19.422973
  C     17.476310   13.443213   20.324108
  C     16.472286   13.944513   21.169953
  C     16.123053   15.300743   21.113266
  O     15.155706   15.788262   21.930077
  C     16.765425   16.157868   20.214537
  H     15.277683   14.258842   14.671084
  H     14.669056   12.904262   15.647877
  H     16.407034   13.029623   15.290383
  H     14.790062   15.005272   17.032355
  H     15.911074   13.769323   17.644884
  H     15.413050   19.478455   17.165444
  H     16.591448   19.602187   15.853269
  H     16.638085   20.756854   17.192141
  H     18.139270   20.411914   18.698256
  H     20.148050   17.062385   19.645271
  H     19.060580   15.984229   17.678960
  H     18.894432   13.916245   18.767062
  H     17.756350   12.391915   20.366358
  H     15.972502   13.281645   21.868791
  H     14.867950   15.064749   22.506949
  H     16.485530   17.205567   20.192635

 Total Charge           Charge          ....    0
 Multiplicity           Mult            ....    1
 Number of Electrons    NEL             ....  154
 Basis Dimension        Dim             ....  828

ORBITAL ENERGIES
----------------

  NO   OCC          E(Eh)            E(eV)
   0   2.0000     -91.889686     -2500.4455
   1   2.0000     -20.599440      -560.5393
   2   2.0000     -20.590901      -560.3069
   3   2.0000     -20.544747      -559.0510
   4   2.0000     -15.629996      -425.3138
   5   2.0000     -15.609157      -424.7467
   6   2.0000     -11.394282      -310.0542
   7   2.0000     -11.384800      -309.7962
   8   2.0000     -11.336622      -308.4852
   9   2.0000     -11.317069      -307.9531
  10   2.0000     -11.310469      -307.7735
  11   2.0000     -11.293546      -307.3130
  12   2.0000     -11.262439      -306.4665
  13   2.0000     -11.259233      -306.3793
  14   2.0000     -11.258411      -306.3569
  15   2.0000     -11.252973      -306.2090
  16   2.0000     -11.245934      -306.0174
  17   2.0000     -11.241036      -305.8841
  18   2.0000     -11.240747      -305.8763
  19   2.0000     -11.221729      -305.3588
  20   2.0000      -8.894743      -242.0383
  21   2.0000      -6.576316      -178.9507
  22   2.0000      -6.574313      -178.8961
  23   2.0000      -6.573724      -178.8801
  24   2.0000      -1.449981       -39.4560
  25   2.0000      -1.419080       -38.6151
  26   2.0000      -1.353567       -36.8324
  27   2.0000      -1.341010       -36.4907
  28   2.0000      -1.239627       -33.7320
  29   2.0000      -1.160201       -31.5707
  30   2.0000      -1.121175       -30.5087
  31   2.0000      -1.044579       -28.4245
  32   2.0000      -1.034561       -28.1518
  33   2.0000      -1.018119       -27.7044
  34   2.0000      -0.996358       -27.1123
  35   2.0000      -0.984810       -26.7980
  36   2.0000      -0.924083       -25.1456
  37   2.0000      -0.884402       -24.0658
  38   2.0000      -0.848317       -23.0839
  39   2.0000      -0.840146       -22.8615
  40   2.0000      -0.836576       -22.7644
  41   2.0000      -0.822853       -22.3910
  42   2.0000      -0.760370       -20.6907
  43   2.0000      -0.734388       -19.9837
  44   2.0000      -0.724055       -19.7025
  45   2.0000      -0.698306       -19.0019
  46   2.0000      -0.689457       -18.7611
  47   2.0000      -0.679050       -18.4779
  48   2.0000      -0.671945       -18.2846
  49   2.0000      -0.654755       -17.8168
  50   2.0000      -0.647697       -17.6247
  51   2.0000      -0.643877       -17.5208
  52   2.0000      -0.628854       -17.1120
  53   2.0000      -0.613922       -16.7057
  54   2.0000      -0.610035       -16.5999
  55   2.0000      -0.601739       -16.3741
  56   2.0000      -0.600259       -16.3339
  57   2.0000      -0.580547       -15.7975
  58   2.0000      -0.572548       -15.5798
  59   2.0000      -0.567889       -15.4530
  60   2.0000      -0.565367       -15.3844
  61   2.0000      -0.539383       -14.6774
  62   2.0000      -0.533809       -14.5257
  63   2.0000      -0.527597       -14.3567
  64   2.0000      -0.517654       -14.0861
  65   2.0000      -0.514621       -14.0036
  66   2.0000      -0.502864       -13.6836
  67   2.0000      -0.496420       -13.5083
  68   2.0000      -0.488539       -13.2938
  69   2.0000      -0.464182       -12.6310
  70   2.0000      -0.453685       -12.3454
  71   2.0000      -0.447577       -12.1792
  72   2.0000      -0.355009        -9.6603
  73   2.0000      -0.352240        -9.5849
  74   2.0000      -0.329379        -8.9629
  75   2.0000      -0.324422        -8.8280
  76   2.0000      -0.317156        -8.6303
  77   0.0000       0.072656         1.9771
  78   0.0000       0.103323         2.8116
  79   0.0000       0.124036         3.3752
  80   0.0000       0.130795         3.5591
  81   0.0000       0.135215         3.6794

MULLIKEN ATOMIC CHARGES
-----------------------
   0 C :   -0.265653
   1 C :    0.033355
   2 O :   -0.373764
   3 C :    0.465903
   4 O :   -0.420594
   5 C :   -0.248292
   6 C :    0.161279
   7 C :   -0.269992
   8 N :   -0.123522
   9 C :    0.214124
  10 S :   -0.439722
  11 N :   -0.207626
  12 C :    0.071819
  13 C :    0.054785
  14 C :   -0.198644
  15 C :   -0.131036
  16 C :   -0.278101
  17 C :    0.312358
  18 O :   -0.355503
  19 C :   -0.257434
  20 H :    0.106355
  21 H :    0.087982
  22 H :    0.090399
  23 H :    0.099779
  24 H :    0.115151
  25 H :    0.132019
  26 H :    0.130653
  27 H :    0.095479
  28 H :    0.197675
  29 H :    0.195257
  30 H :    0.149772
  31 H :    0.151500
  32 H :    0.163754
  33 H :    0.132203
  34 H :    0.241288
  35 H :    0.166994
Sum of atomic charges:    0.0000000

LOEWDIN ATOMIC CHARGES
----------------------
   0 C :    0.104953
   1 C :   -0.015491
   2 O :    0.301548
   3 C :   -0.417701
   4 O :    0.104888
   5 C :   -0.097006
   6 C :   -0.058782
   7 C :    0.131607
   8 N :    0.406859
   9 C :   -0.455758
  10 S :   -0.034936
  11 N :    0.396125
  12 C :   -0.052309
  13 C :   -0.036987
  14 C :    0.013609
  15 C :    0.039214
  16 C :   -0.002587
  17 C :   -0.189307
  18 O :    0.396002
  19 C :    0.031196
  20 H :   -0.023650
  21 H :   -0.028650
  22 H :   -0.029261
  23 H :   -0.028471
  24 H :   -0.028892
  25 H :   -0.004719
  26 H :   -0.003836
  27 H :   -0.023184
  28 H :   -0.057408
  29 H :   -0.064835
  30 H :   -0.009758
  31 H :   -0.029679
  32 H :   -0.020657
  33 H :   -0.035110
  34 H :   -0.153234
  35 H :   -0.023792

  Mayer bond orders larger than 0.100000
B(  0-C ,  1-C ) :   0.9828 B(  0-C , 20-H ) :   0.9781 B(  0-C , 21-H ) :   0.9772
B(  0-C , 22-H ) :   0.9787 B(  1-C ,  2-O ) :   0.8723 B(  1-C , 23-H ) :   0.9716
B(  1-C , 24-H ) :   0.9715 B(  2-O ,  3-C ) :   1.1263 B(  3-C ,  4-O ) :   1.9887
B(  3-C ,  5-C ) :   1.0687 B(  5-C ,  6-C ) :   1.6486 B(  5-C , 12-C ) :   0.9703
B(  6-C ,  7-C ) :   0.9665 B(  6-C ,  8-N ) :   1.1611 B(  7-C , 25-H ) :   0.9595
B(  7-C , 26-H ) :   0.9609 B(  7-C , 27-H ) :   0.9904 B(  8-N ,  9-C ) :   1.1831
B(  8-N , 28-H ) :   0.9476 B(  9-C , 10-S ) :   1.6060 B(  9-C , 11-N ) :   1.3070
B( 11-N , 12-C ) :   0.9771 B( 11-N , 29-H ) :   0.9517 B( 12-C , 13-C ) :   0.9378
B( 12-C , 30-H ) :   1.0020 B( 13-C , 14-C ) :   1.3506 B( 13-C , 19-C ) :   1.3796
B( 14-C , 15-C ) :   1.3904 B( 14-C , 31-H ) :   0.9735 B( 15-C , 16-C ) :   1.3604
B( 15-C , 32-H ) :   0.9701 B( 16-C , 17-C ) :   1.3307 B( 16-C , 33-H ) :   0.9844
B( 17-C , 18-O ) :   1.1125 B( 17-C , 19-C ) :   1.3717 B( 18-O , 34-H ) :   0.9793
B( 19-C , 35-H ) :   0.9579

MP2 TOTAL ENERGY:    -1274.339741424 Eh
FINAL SINGLE POINT ENERGY     -1274.339741423747

DIPOLE MOMENT
-------------
                                X             Y             Z
Electronic contribution:      9.75829      10.48814       8.32158
Nuclear contribution   :    -10.76691     -12.05182      -8.43196
                        -----------------------------------------
Total Dipole Moment    :     -1.00862      -1.56368      -0.11038
                        -----------------------------------------
Magnitude (a.u.)       :      1.86403
Magnitude (Debye)      :      4.73798

Rotational constants in cm-1:     0.012109     0.008553     0.006198
Rotational constants in MHz :   363.008023   256.403896   185.808247

                             ****ORCA TERMINATED NORMALLY****
TOTAL RUN TIME: 0 days 2 hours 4 minutes 5 seconds 871 msec
