                         Program Version 4.2.0 -  RELEASE  -
|  1> ! ri-mp2 cc-pvtz cc-pvtz/c TightSCF  NoKeepInts
|  2>
|  3> %scf
|  4>   MaxCore 4096
|  5> end
|  6> *xyz  0  1
|  7>     C       15.1696367   13.9182963   15.5327392
|  8>     C       15.8723635   14.2515826   16.8643790
|  9>     O       16.9607423   15.1662375   16.6313829
| 10>     C       16.7143273   16.5071796   16.5241218
| 11>     O       15.7339788   16.9412460   15.9451552
| 12>     C       17.5352375   17.3182372   17.4904984
| 13>     C       17.4293099   18.6690314   17.5773783
| 14>     C       16.5222665   19.5723592   16.7691058
| 15>     N       18.2439117   19.3814268   18.4625382
| 16>     C       19.2586044   18.8381499   19.2040449
| 17>     S       20.2434989   19.7676282   20.1537288
| 18>     N       19.4218156   17.4795106   19.1147284
| 19>     C       18.5167047   16.5603170   18.4015612
| 20>     C       17.7969549   15.6695323   19.4105787
| 21>     C       18.1445041   14.3110744   19.5342808
| 22>     C       17.4778110   13.4832276   20.4530965
| 23>     C       16.4580549   14.0186726   21.2582198
| 24>     C       16.1147945   15.3727533   21.1433665
| 25>     O       15.1319114   15.8930864   21.9204164
| 26>     C       16.7789456   16.1937407   20.2269267
| 27>     H       14.6418121   14.7903030   15.1284050
| 28>     H       14.4319480   13.1205408   15.6803376
| 29>     H       15.8973126   13.5777804   14.7859254
| 30>     H       15.1570876   14.6736594   17.5836062
| 31>     H       16.2732228   13.3238029   17.2921921
| 32>     H       15.4690625   19.3562207   16.9900474
| 33>     H       16.6705651   19.4084729   15.6941831
| 34>     H       16.6914848   20.6375575   16.9654496
| 35>     H       18.1396620   20.3806046   18.5392611
| 36>     H       20.1555969   17.1040999   19.7016298
| 37>     H       19.1386497   15.9220073   17.7581723
| 38>     H       18.9302795   13.8938441   18.9100065
| 39>     H       17.7532442   12.4335416   20.5408373
| 40>     H       15.9412968   13.3839049   21.9706618
| 41>     H       14.8279806   15.1919887   22.5163138
| 42>     H       16.5024204   17.2403816   20.1587235
| 43> *
| 44>
| 45>                          ****END OF INPUT****

CARTESIAN COORDINATES (ANGSTROEM)
---------------------------------
  C     15.169637   13.918296   15.532739
  C     15.872364   14.251583   16.864379
  O     16.960742   15.166237   16.631383
  C     16.714327   16.507180   16.524122
  O     15.733979   16.941246   15.945155
  C     17.535238   17.318237   17.490498
  C     17.429310   18.669031   17.577378
  C     16.522267   19.572359   16.769106
  N     18.243912   19.381427   18.462538
  C     19.258604   18.838150   19.204045
  S     20.243499   19.767628   20.153729
  N     19.421816   17.479511   19.114728
  C     18.516705   16.560317   18.401561
  C     17.796955   15.669532   19.410579
  C     18.144504   14.311074   19.534281
  C     17.477811   13.483228   20.453097
  C     16.458055   14.018673   21.258220
  C     16.114794   15.372753   21.143366
  O     15.131911   15.893086   21.920416
  C     16.778946   16.193741   20.226927
  H     14.641812   14.790303   15.128405
  H     14.431948   13.120541   15.680338
  H     15.897313   13.577780   14.785925
  H     15.157088   14.673659   17.583606
  H     16.273223   13.323803   17.292192
  H     15.469062   19.356221   16.990047
  H     16.670565   19.408473   15.694183
  H     16.691485   20.637557   16.965450
  H     18.139662   20.380605   18.539261
  H     20.155597   17.104100   19.701630
  H     19.138650   15.922007   17.758172
  H     18.930280   13.893844   18.910007
  H     17.753244   12.433542   20.540837
  H     15.941297   13.383905   21.970662
  H     14.827981   15.191989   22.516314
  H     16.502420   17.240382   20.158723

 Total Charge           Charge          ....    0
 Multiplicity           Mult            ....    1
 Number of Electrons    NEL             ....  154
 Basis Dimension        Dim             ....  828

ORBITAL ENERGIES
----------------

  NO   OCC          E(Eh)            E(eV)
   0   2.0000     -91.889384     -2500.4373
   1   2.0000     -20.598997      -560.5272
   2   2.0000     -20.590704      -560.3015
   3   2.0000     -20.545756      -559.0785
   4   2.0000     -15.629639      -425.3041
   5   2.0000     -15.608803      -424.7371
   6   2.0000     -11.395468      -310.0864
   7   2.0000     -11.384471      -309.7872
   8   2.0000     -11.336145      -308.4722
   9   2.0000     -11.316483      -307.9372
  10   2.0000     -11.310025      -307.7614
  11   2.0000     -11.296974      -307.4063
  12   2.0000     -11.261977      -306.4540
  13   2.0000     -11.259072      -306.3749
  14   2.0000     -11.257892      -306.3428
  15   2.0000     -11.252892      -306.2068
  16   2.0000     -11.245414      -306.0033
  17   2.0000     -11.240534      -305.8705
  18   2.0000     -11.240312      -305.8644
  19   2.0000     -11.216939      -305.2284
  20   2.0000      -8.894446      -242.0302
  21   2.0000      -6.576020      -178.9426
  22   2.0000      -6.574015      -178.8880
  23   2.0000      -6.573428      -178.8721
  24   2.0000      -1.448651       -39.4198
  25   2.0000      -1.418656       -38.6036
  26   2.0000      -1.354725       -36.8639
  27   2.0000      -1.340686       -36.4819
  28   2.0000      -1.239266       -33.7222
  29   2.0000      -1.159668       -31.5562
  30   2.0000      -1.120675       -30.4951
  31   2.0000      -1.044094       -28.4113
  32   2.0000      -1.032366       -28.0921
  33   2.0000      -1.017597       -27.6902
  34   2.0000      -0.995670       -27.0936
  35   2.0000      -0.984210       -26.7817
  36   2.0000      -0.923676       -25.1345
  37   2.0000      -0.887447       -24.1487
  38   2.0000      -0.848186       -23.0803
  39   2.0000      -0.839895       -22.8547
  40   2.0000      -0.836198       -22.7541
  41   2.0000      -0.822611       -22.3844
  42   2.0000      -0.754722       -20.5370
  43   2.0000      -0.733333       -19.9550
  44   2.0000      -0.721957       -19.6454
  45   2.0000      -0.697828       -18.9889
  46   2.0000      -0.689426       -18.7602
  47   2.0000      -0.680271       -18.5111
  48   2.0000      -0.670403       -18.2426
  49   2.0000      -0.655690       -17.8422
  50   2.0000      -0.648076       -17.6350
  51   2.0000      -0.646412       -17.5898
  52   2.0000      -0.633878       -17.2487
  53   2.0000      -0.609501       -16.5854
  54   2.0000      -0.603472       -16.4213
  55   2.0000      -0.600174       -16.3316
  56   2.0000      -0.596730       -16.2378
  57   2.0000      -0.582154       -15.8412
  58   2.0000      -0.575271       -15.6539
  59   2.0000      -0.571093       -15.5402
  60   2.0000      -0.564529       -15.3616
  61   2.0000      -0.539130       -14.6705
  62   2.0000      -0.534988       -14.5578
  63   2.0000      -0.526828       -14.3357
  64   2.0000      -0.516458       -14.0535
  65   2.0000      -0.512786       -13.9536
  66   2.0000      -0.502164       -13.6646
  67   2.0000      -0.498305       -13.5596
  68   2.0000      -0.486959       -13.2508
  69   2.0000      -0.463800       -12.6206
  70   2.0000      -0.455589       -12.3972
  71   2.0000      -0.442545       -12.0423
  72   2.0000      -0.354604        -9.6493
  73   2.0000      -0.351695        -9.5701
  74   2.0000      -0.329021        -8.9531
  75   2.0000      -0.323851        -8.8124
  76   2.0000      -0.316777        -8.6199
  77   0.0000       0.072730         1.9791
  78   0.0000       0.103337         2.8120
  79   0.0000       0.124079         3.3764
  80   0.0000       0.131074         3.5667
  81   0.0000       0.136403         3.7117

MULLIKEN ATOMIC CHARGES
-----------------------
   0 C :   -0.279930
   1 C :    0.038866
   2 O :   -0.374784
   3 C :    0.464128
   4 O :   -0.421685
   5 C :   -0.230362
   6 C :    0.157884
   7 C :   -0.271283
   8 N :   -0.122464
   9 C :    0.213969
  10 S :   -0.440126
  11 N :   -0.207137
  12 C :    0.068900
  13 C :    0.055754
  14 C :   -0.196071
  15 C :   -0.125777
  16 C :   -0.281358
  17 C :    0.314949
  18 O :   -0.355921
  19 C :   -0.264594
  20 H :    0.121540
  21 H :    0.089428
  22 H :    0.090851
  23 H :    0.095293
  24 H :    0.106536
  25 H :    0.132270
  26 H :    0.129692
  27 H :    0.095652
  28 H :    0.197376
  29 H :    0.194968
  30 H :    0.149768
  31 H :    0.150233
  32 H :    0.163453
  33 H :    0.131839
  34 H :    0.241251
  35 H :    0.166891
Sum of atomic charges:   -0.0000000

LOEWDIN ATOMIC CHARGES
----------------------
   0 C :    0.104976
   1 C :   -0.016481
   2 O :    0.295238
   3 C :   -0.414196
   4 O :    0.111844
   5 C :   -0.096206
   6 C :   -0.059149
   7 C :    0.131177
   8 N :    0.406709
   9 C :   -0.456036
  10 S :   -0.035315
  11 N :    0.396122
  12 C :   -0.052276
  13 C :   -0.037162
  14 C :    0.014896
  15 C :    0.039702
  16 C :   -0.002496
  17 C :   -0.189947
  18 O :    0.395897
  19 C :    0.030707
  20 H :   -0.026715
  21 H :   -0.030423
  22 H :   -0.028830
  23 H :   -0.029054
  24 H :   -0.025527
  25 H :   -0.004809
  26 H :   -0.004154
  27 H :   -0.023189
  28 H :   -0.057487
  29 H :   -0.064815
  30 H :   -0.009910
  31 H :   -0.029815
  32 H :   -0.020851
  33 H :   -0.035222
  34 H :   -0.153368
  35 H :   -0.023835

  Mayer bond orders larger than 0.100000
B(  0-C ,  1-C ) :   0.9824 B(  0-C , 20-H ) :   0.9727 B(  0-C , 21-H ) :   0.9783
B(  0-C , 22-H ) :   0.9764 B(  1-C ,  2-O ) :   0.8818 B(  1-C , 23-H ) :   0.9694
B(  1-C , 24-H ) :   0.9793 B(  2-O ,  3-C ) :   1.1141 B(  3-C ,  4-O ) :   1.9789
B(  3-C ,  5-C ) :   1.0679 B(  5-C ,  6-C ) :   1.6498 B(  5-C , 12-C ) :   0.9716
B(  6-C ,  7-C ) :   0.9665 B(  6-C ,  8-N ) :   1.1614 B(  7-C , 25-H ) :   0.9592
B(  7-C , 26-H ) :   0.9614 B(  7-C , 27-H ) :   0.9908 B(  8-N ,  9-C ) :   1.1829
B(  8-N , 28-H ) :   0.9478 B(  9-C , 10-S ) :   1.6059 B(  9-C , 11-N ) :   1.3069
B( 11-N , 12-C ) :   0.9779 B( 11-N , 29-H ) :   0.9517 B( 12-C , 13-C ) :   0.9373
B( 12-C , 30-H ) :   1.0018 B( 13-C , 14-C ) :   1.3481 B( 13-C , 19-C ) :   1.3817
B( 14-C , 15-C ) :   1.3887 B( 14-C , 31-H ) :   0.9745 B( 15-C , 16-C ) :   1.3639
B( 15-C , 32-H ) :   0.9699 B( 16-C , 17-C ) :   1.3304 B( 16-C , 33-H ) :   0.9844
B( 17-C , 18-O ) :   1.1119 B( 17-C , 19-C ) :   1.3707 B( 18-O , 34-H ) :   0.9793
B( 19-C , 35-H ) :   0.9581

MP2 TOTAL ENERGY:    -1274.338127089 Eh
FINAL SINGLE POINT ENERGY     -1274.338127089454

DIPOLE MOMENT
-------------
                                X             Y             Z
Electronic contribution:     10.37858      10.01613       8.23961
Nuclear contribution   :    -11.37136     -11.60420      -8.36269
                        -----------------------------------------
Total Dipole Moment    :     -0.99277      -1.58807      -0.12308
                        -----------------------------------------
Magnitude (a.u.)       :      1.87689
Magnitude (Debye)      :      4.77067

Rotational constants in cm-1:     0.012060     0.008673     0.006199
Rotational constants in MHz :   361.555451   260.005421   185.838660

                             ****ORCA TERMINATED NORMALLY****
TOTAL RUN TIME: 0 days 1 hours 42 minutes 8 seconds 600 msec
