                         Program Version 5.0.0 -  RELEASE  -
|  1> ! ri-mp2 cc-pvtz cc-pvtz/c TightSCF NoKeepInts
|  2>
|  3> %scf
|  4>   MaxCore 4096
|  5> end
|  6> *xyz  0  1
|  7>     C       15.0116232   14.0742498   16.7534919
|  8>     C       15.4464590   15.5464088   16.6636826
|  9>     O       16.6472077   15.5970973   15.8694834
| 10>     C       17.8493396   15.7001490   16.5077813
| 11>     O       18.5783669   14.7302194   16.6096798
| 12>     C       18.0011299   16.9098951   17.3795299
| 13>     C       17.5252911   18.1370914   17.0548219
| 14>     C       16.8217657   18.5402737   15.7759491
| 15>     N       17.7422990   19.2159704   17.9164366
| 16>     C       18.5268103   19.1732451   19.0395022
| 17>     S       18.8099413   20.5217120   19.9536032
| 18>     N       19.0614064   17.9525745   19.3698695
| 19>     C       18.7482453   16.6783787   18.6941485
| 20>     C       17.9376270   15.7607416   19.6057910
| 21>     C       18.3098297   14.4141906   19.7717939
| 22>     C       17.5503425   13.5552433   20.5834548
| 23>     C       16.4057970   14.0452348   21.2347655
| 24>     C       16.0286207   15.3844402   21.0689277
| 25>     O       14.9164298   15.8581069   21.6846812
| 26>     C       16.7864181   16.2371974   20.2602070
| 27>     H       15.7776619   13.4785740   17.2670529
| 28>     H       14.8603364   13.6520288   15.7521829
| 29>     H       14.0734970   13.9815344   17.3137706
| 30>     H       14.6535850   16.1184975   16.1652727
| 31>     H       15.5910879   15.9612120   17.6698036
| 32>     H       17.1884216   17.9614902   14.9186513
| 33>     H       16.9881490   19.5970923   15.5325170
| 34>     H       15.7400483   18.3807054   15.8537718
| 35>     H       17.3644642   20.1221743   17.6886602
| 36>     H       19.6158677   17.9448603   20.2166701
| 37>     H       19.7002757   16.1802955   18.4584253
| 38>     H       19.1823593   14.0262483   19.2506833
| 39>     H       17.8466423   12.5138593   20.6975310
| 40>     H       15.8145622   13.3837838   21.8594064
| 41>     H       14.5698934   15.1470869   22.2449846
| 42>     H       16.4751978   17.2701370   20.1470154
| 43> *
| 44>
| 45>                          ****END OF INPUT****

CARTESIAN COORDINATES (ANGSTROEM)
---------------------------------
  C     15.011623   14.074250   16.753492
  C     15.446459   15.546409   16.663683
  O     16.647208   15.597097   15.869483
  C     17.849340   15.700149   16.507781
  O     18.578367   14.730219   16.609680
  C     18.001130   16.909895   17.379530
  C     17.525291   18.137091   17.054822
  C     16.821766   18.540274   15.775949
  N     17.742299   19.215970   17.916437
  C     18.526810   19.173245   19.039502
  S     18.809941   20.521712   19.953603
  N     19.061406   17.952574   19.369870
  C     18.748245   16.678379   18.694148
  C     17.937627   15.760742   19.605791
  C     18.309830   14.414191   19.771794
  C     17.550342   13.555243   20.583455
  C     16.405797   14.045235   21.234766
  C     16.028621   15.384440   21.068928
  O     14.916430   15.858107   21.684681
  C     16.786418   16.237197   20.260207
  H     15.777662   13.478574   17.267053
  H     14.860336   13.652029   15.752183
  H     14.073497   13.981534   17.313771
  H     14.653585   16.118498   16.165273
  H     15.591088   15.961212   17.669804
  H     17.188422   17.961490   14.918651
  H     16.988149   19.597092   15.532517
  H     15.740048   18.380705   15.853772
  H     17.364464   20.122174   17.688660
  H     19.615868   17.944860   20.216670
  H     19.700276   16.180295   18.458425
  H     19.182359   14.026248   19.250683
  H     17.846642   12.513859   20.697531
  H     15.814562   13.383784   21.859406
  H     14.569893   15.147087   22.244985
  H     16.475198   17.270137   20.147015

 Total Charge           Charge          ....    0
 Multiplicity           Mult            ....    1
 Number of Electrons    NEL             ....  154
 Basis Dimension        Dim             ....  828

ORBITAL ENERGIES
----------------

  NO   OCC          E(Eh)            E(eV)
   0   2.0000     -91.891214     -2500.4871
   1   2.0000     -20.598690      -560.5189
   2   2.0000     -20.588075      -560.2300
   3   2.0000     -20.554259      -559.3098
   4   2.0000     -15.630757      -425.3345
   5   2.0000     -15.610837      -424.7925
   6   2.0000     -11.395134      -310.0774
   7   2.0000     -11.386997      -309.8559
   8   2.0000     -11.336358      -308.4780
   9   2.0000     -11.315230      -307.9031
  10   2.0000     -11.311031      -307.7888
  11   2.0000     -11.302908      -307.5678
  12   2.0000     -11.264729      -306.5289
  13   2.0000     -11.262115      -306.4577
  14   2.0000     -11.261010      -306.4277
  15   2.0000     -11.254921      -306.2620
  16   2.0000     -11.244531      -305.9793
  17   2.0000     -11.240931      -305.8813
  18   2.0000     -11.237326      -305.7832
  19   2.0000     -11.224614      -305.4373
  20   2.0000      -8.896288      -242.0803
  21   2.0000      -6.577863      -178.9928
  22   2.0000      -6.575853      -178.9381
  23   2.0000      -6.575266      -178.9221
  24   2.0000      -1.450233       -39.4628
  25   2.0000      -1.418509       -38.5996
  26   2.0000      -1.359306       -36.9886
  27   2.0000      -1.342155       -36.5219
  28   2.0000      -1.240434       -33.7539
  29   2.0000      -1.159520       -31.5521
  30   2.0000      -1.124116       -30.5888
  31   2.0000      -1.047034       -28.4912
  32   2.0000      -1.033495       -28.1228
  33   2.0000      -1.017031       -27.6748
  34   2.0000      -1.003254       -27.2999
  35   2.0000      -0.988421       -26.8963
  36   2.0000      -0.926511       -25.2116
  37   2.0000      -0.881617       -23.9900
  38   2.0000      -0.854351       -23.2481
  39   2.0000      -0.842491       -22.9254
  40   2.0000      -0.835359       -22.7313
  41   2.0000      -0.833613       -22.6838
  42   2.0000      -0.751717       -20.4553
  43   2.0000      -0.736589       -20.0436
  44   2.0000      -0.730662       -19.8823
  45   2.0000      -0.696925       -18.9643
  46   2.0000      -0.687836       -18.7170
  47   2.0000      -0.678952       -18.4752
  48   2.0000      -0.676978       -18.4215
  49   2.0000      -0.664874       -18.0921
  50   2.0000      -0.653122       -17.7724
  51   2.0000      -0.649095       -17.6628
  52   2.0000      -0.640514       -17.4293
  53   2.0000      -0.608922       -16.5696
  54   2.0000      -0.607199       -16.5227
  55   2.0000      -0.602653       -16.3990
  56   2.0000      -0.594189       -16.1687
  57   2.0000      -0.579953       -15.7813
  58   2.0000      -0.579117       -15.7586
  59   2.0000      -0.573383       -15.6025
  60   2.0000      -0.563139       -15.3238
  61   2.0000      -0.556477       -15.1425
  62   2.0000      -0.541399       -14.7322
  63   2.0000      -0.524955       -14.2848
  64   2.0000      -0.516591       -14.0572
  65   2.0000      -0.514096       -13.9893
  66   2.0000      -0.502227       -13.6663
  67   2.0000      -0.497257       -13.5311
  68   2.0000      -0.486121       -13.2280
  69   2.0000      -0.469703       -12.7813
  70   2.0000      -0.458638       -12.4802
  71   2.0000      -0.449214       -12.2237
  72   2.0000      -0.357537        -9.7291
  73   2.0000      -0.350745        -9.5443
  74   2.0000      -0.330511        -8.9937
  75   2.0000      -0.322522        -8.7763
  76   2.0000      -0.318952        -8.6791
  77   0.0000       0.072010         1.9595
  78   0.0000       0.103684         2.8214
  79   0.0000       0.118404         3.2219
  80   0.0000       0.129470         3.5230
  81   0.0000       0.135498         3.6871

MULLIKEN ATOMIC CHARGES
-----------------------
   0 C :   -0.253955
   1 C :    0.003539
   2 O :   -0.357840
   3 C :    0.460528
   4 O :   -0.386311
   5 C :   -0.244972
   6 C :    0.162150
   7 C :   -0.298773
   8 N :   -0.126827
   9 C :    0.198067
  10 S :   -0.436530
  11 N :   -0.204918
  12 C :    0.064315
  13 C :    0.043133
  14 C :   -0.178961
  15 C :   -0.133559
  16 C :   -0.277435
  17 C :    0.322621
  18 O :   -0.358958
  19 C :   -0.305112
  20 H :    0.108345
  21 H :    0.099947
  22 H :    0.087342
  23 H :    0.105279
  24 H :    0.107398
  25 H :    0.136516
  26 H :    0.115329
  27 H :    0.120326
  28 H :    0.197469
  29 H :    0.195544
  30 H :    0.159096
  31 H :    0.164084
  32 H :    0.163650
  33 H :    0.131785
  34 H :    0.241496
  35 H :    0.176193
Sum of atomic charges:   -0.0000000

LOEWDIN ATOMIC CHARGES
----------------------
   0 C :    0.109346
   1 C :   -0.021940
   2 O :    0.294393
   3 C :   -0.420433
   4 O :    0.130368
   5 C :   -0.094406
   6 C :   -0.078859
   7 C :    0.128339
   8 N :    0.404053
   9 C :   -0.457982
  10 S :   -0.034054
  11 N :    0.397101
  12 C :   -0.045962
  13 C :   -0.043089
  14 C :    0.022383
  15 C :    0.043877
  16 C :   -0.000760
  17 C :   -0.194818
  18 O :    0.393903
  19 C :    0.026309
  20 H :   -0.022392
  21 H :   -0.025027
  22 H :   -0.028079
  23 H :   -0.031050
  24 H :   -0.034851
  25 H :   -0.005896
  26 H :   -0.016204
  27 H :   -0.013889
  28 H :   -0.057961
  29 H :   -0.063642
  30 H :   -0.003411
  31 H :   -0.022891
  32 H :   -0.019289
  33 H :   -0.034977
  34 H :   -0.153186
  35 H :   -0.025028

  Mayer bond orders larger than 0.100000
B(  0-C ,  1-C ) :   0.9891 B(  0-C , 20-H ) :   0.9737 B(  0-C , 21-H ) :   0.9782
B(  0-C , 22-H ) :   0.9763 B(  1-C ,  2-O ) :   0.8876 B(  1-C , 23-H ) :   0.9800
B(  1-C , 24-H ) :   0.9589 B(  2-O ,  3-C ) :   1.1310 B(  3-C ,  4-O ) :   2.0663
B(  3-C ,  5-C ) :   0.9708 B(  5-C ,  6-C ) :   1.6665 B(  5-C , 12-C ) :   0.9597
B(  6-C ,  7-C ) :   0.9479 B(  6-C ,  8-N ) :   1.1381 B(  7-C , 25-H ) :   0.9695
B(  7-C , 26-H ) :   0.9841 B(  7-C , 27-H ) :   0.9649 B(  8-N ,  9-C ) :   1.1840
B(  8-N , 28-H ) :   0.9499 B(  9-C , 10-S ) :   1.6151 B(  9-C , 11-N ) :   1.2964
B( 11-N , 12-C ) :   0.9951 B( 11-N , 29-H ) :   0.9512 B( 12-C , 13-C ) :   0.9426
B( 12-C , 30-H ) :   0.9986 B( 13-C , 14-C ) :   1.3849 B( 13-C , 19-C ) :   1.3455
B( 14-C , 15-C ) :   1.3958 B( 14-C , 31-H ) :   0.9606 B( 15-C , 16-C ) :   1.3631
B( 15-C , 32-H ) :   0.9700 B( 16-C , 17-C ) :   1.3312 B( 16-C , 33-H ) :   0.9844
B( 17-C , 18-O ) :   1.1112 B( 17-C , 19-C ) :   1.3656 B( 18-O , 34-H ) :   0.9795
B( 19-C , 35-H ) :   0.9584

MP2 TOTAL ENERGY:    -1274.331881938 Eh
FINAL SINGLE POINT ENERGY     -1274.331881937650

DIPOLE MOMENT
-------------
                                X             Y             Z
Electronic contribution:     10.52247       9.22781       6.45693
Nuclear contribution   :    -11.98270     -10.16148      -6.82450
                        -----------------------------------------
Total Dipole Moment    :     -1.46023      -0.93367      -0.36757
                        -----------------------------------------
Magnitude (a.u.)       :      1.77176
Magnitude (Debye)      :      4.50345

Rotational constants in cm-1:     0.012114     0.009244     0.006707
Rotational constants in MHz :   363.176534   277.132897   201.067560

                             ****ORCA TERMINATED NORMALLY****
TOTAL RUN TIME: 0 days 1 hours 39 minutes 56 seconds 203 msec
