                         Program Version 4.2.0 -  RELEASE  -
|  1> ! ri-mp2 cc-pvtz cc-pvtz/c TightSCF  NoKeepInts
|  2>
|  3> %scf
|  4>   MaxCore 4096
|  5> end
|  6> *xyz  0  1
|  7>     C       15.7427832   14.2356607   14.4258899
|  8>     C       15.0851582   14.8021275   15.6998184
|  9>     O       15.8980414   15.8757402   16.2098696
| 10>     C       17.0080482   15.6017131   16.9583971
| 11>     O       17.4115863   14.4640576   17.1390574
| 12>     C       17.5818603   16.7830271   17.6897482
| 13>     C       17.2948132   18.0855903   17.4257427
| 14>     C       16.3677626   18.6453066   16.3659055
| 15>     N       17.9478002   19.0979039   18.1373924
| 16>     C       18.9941047   18.9015615   18.9993432
| 17>     S       19.8001101   20.1671159   19.6953416
| 18>     N       19.3382443   17.5986987   19.2540935
| 19>     C       18.5697840   16.4224826   18.8058492
| 20>     C       17.8530856   15.7718798   19.9864619
| 21>     C       18.0399081   14.4058395   20.2679379
| 22>     C       17.3821068   13.8007997   21.3519848
| 23>     C       16.5289710   14.5676871   22.1635283
| 24>     C       16.3370146   15.9276433   21.8847321
| 25>     O       15.5091862   16.6695618   22.6629932
| 26>     C       16.9927659   16.5269277   20.8047518
| 27>     H       15.8992337   15.0286235   13.6843291
| 28>     H       15.1038432   13.4663677   13.9757378
| 29>     H       16.7131638   13.7768834   14.6532983
| 30>     H       14.0921519   15.1921833   15.4423916
| 31>     H       14.9561543   14.0129793   16.4535733
| 32>     H       15.3240283   18.3954795   16.5939386
| 33>     H       16.6080447   18.2296206   15.3794059
| 34>     H       16.4323962   19.7366501   16.2789063
| 35>     H       17.7095597   20.0612837   17.9641502
| 36>     H       20.0919659   17.4789702   19.9185154
| 37>     H       19.2865275   15.6957771   18.3967124
| 38>     H       18.6857189   13.8063650   19.6308988
| 39>     H       17.5304977   12.7417013   21.5545974
| 40>     H       16.0174726   14.1039995   23.0003238
| 41>     H       15.1805905   16.0921462   23.3682007
| 42>     H       16.8325161   17.5816449   20.6101817
| 43> *
| 44>
| 45>                          ****END OF INPUT****

CARTESIAN COORDINATES (ANGSTROEM)
---------------------------------
  C     15.742783   14.235661   14.425890
  C     15.085158   14.802127   15.699818
  O     15.898041   15.875740   16.209870
  C     17.008048   15.601713   16.958397
  O     17.411586   14.464058   17.139057
  C     17.581860   16.783027   17.689748
  C     17.294813   18.085590   17.425743
  C     16.367763   18.645307   16.365906
  N     17.947800   19.097904   18.137392
  C     18.994105   18.901561   18.999343
  S     19.800110   20.167116   19.695342
  N     19.338244   17.598699   19.254093
  C     18.569784   16.422483   18.805849
  C     17.853086   15.771880   19.986462
  C     18.039908   14.405839   20.267938
  C     17.382107   13.800800   21.351985
  C     16.528971   14.567687   22.163528
  C     16.337015   15.927643   21.884732
  O     15.509186   16.669562   22.662993
  C     16.992766   16.526928   20.804752
  H     15.899234   15.028624   13.684329
  H     15.103843   13.466368   13.975738
  H     16.713164   13.776883   14.653298
  H     14.092152   15.192183   15.442392
  H     14.956154   14.012979   16.453573
  H     15.324028   18.395479   16.593939
  H     16.608045   18.229621   15.379406
  H     16.432396   19.736650   16.278906
  H     17.709560   20.061284   17.964150
  H     20.091966   17.478970   19.918515
  H     19.286527   15.695777   18.396712
  H     18.685719   13.806365   19.630899
  H     17.530498   12.741701   21.554597
  H     16.017473   14.104000   23.000324
  H     15.180590   16.092146   23.368201
  H     16.832516   17.581645   20.610182

 Total Charge           Charge          ....    0
 Multiplicity           Mult            ....    1
 Number of Electrons    NEL             ....  154
 Basis Dimension        Dim             ....  828

ORBITAL ENERGIES
----------------

  NO   OCC          E(Eh)            E(eV)
   0   2.0000     -91.887994     -2500.3994
   1   2.0000     -20.604125      -560.6667
   2   2.0000     -20.590864      -560.3059
   3   2.0000     -20.545835      -559.0806
   4   2.0000     -15.628414      -425.2708
   5   2.0000     -15.606536      -424.6754
   6   2.0000     -11.397033      -310.1290
   7   2.0000     -11.382799      -309.7417
   8   2.0000     -11.336678      -308.4867
   9   2.0000     -11.306674      -307.6702
  10   2.0000     -11.305238      -307.6312
  11   2.0000     -11.301086      -307.5182
  12   2.0000     -11.260779      -306.4214
  13   2.0000     -11.258788      -306.3672
  14   2.0000     -11.252709      -306.2018
  15   2.0000     -11.246835      -306.0420
  16   2.0000     -11.236479      -305.7601
  17   2.0000     -11.232631      -305.6554
  18   2.0000     -11.229609      -305.5732
  19   2.0000     -11.226399      -305.4859
  20   2.0000      -8.893055      -241.9923
  21   2.0000      -6.574632      -178.9048
  22   2.0000      -6.572626      -178.8502
  23   2.0000      -6.572040      -178.8343
  24   2.0000      -1.454104       -39.5682
  25   2.0000      -1.410596       -38.3843
  26   2.0000      -1.357626       -36.9429
  27   2.0000      -1.339338       -36.4452
  28   2.0000      -1.236852       -33.6565
  29   2.0000      -1.151441       -31.3323
  30   2.0000      -1.119245       -30.4562
  31   2.0000      -1.041963       -28.3533
  32   2.0000      -1.034590       -28.1526
  33   2.0000      -1.008737       -27.4491
  34   2.0000      -0.996967       -27.1288
  35   2.0000      -0.982520       -26.7357
  36   2.0000      -0.920975       -25.0610
  37   2.0000      -0.893364       -24.3097
  38   2.0000      -0.847573       -23.0636
  39   2.0000      -0.834918       -22.7193
  40   2.0000      -0.827093       -22.5063
  41   2.0000      -0.817111       -22.2347
  42   2.0000      -0.754571       -20.5329
  43   2.0000      -0.734782       -19.9944
  44   2.0000      -0.724382       -19.7114
  45   2.0000      -0.690205       -18.7814
  46   2.0000      -0.684961       -18.6387
  47   2.0000      -0.679747       -18.4969
  48   2.0000      -0.671254       -18.2658
  49   2.0000      -0.658941       -17.9307
  50   2.0000      -0.646583       -17.5944
  51   2.0000      -0.641670       -17.4607
  52   2.0000      -0.630083       -17.1454
  53   2.0000      -0.612664       -16.6714
  54   2.0000      -0.599761       -16.3203
  55   2.0000      -0.598795       -16.2940
  56   2.0000      -0.594084       -16.1659
  57   2.0000      -0.585134       -15.9223
  58   2.0000      -0.572396       -15.5757
  59   2.0000      -0.565499       -15.3880
  60   2.0000      -0.560352       -15.2480
  61   2.0000      -0.545657       -14.8481
  62   2.0000      -0.534865       -14.5544
  63   2.0000      -0.527211       -14.3462
  64   2.0000      -0.516425       -14.0526
  65   2.0000      -0.510173       -13.8825
  66   2.0000      -0.499905       -13.6031
  67   2.0000      -0.494984       -13.4692
  68   2.0000      -0.480014       -13.0618
  69   2.0000      -0.463153       -12.6030
  70   2.0000      -0.456617       -12.4252
  71   2.0000      -0.454915       -12.3789
  72   2.0000      -0.354213        -9.6386
  73   2.0000      -0.343319        -9.3422
  74   2.0000      -0.327082        -8.9003
  75   2.0000      -0.315385        -8.5821
  76   2.0000      -0.313055        -8.5187
  77   0.0000       0.076173         2.0728
  78   0.0000       0.114241         3.1086
  79   0.0000       0.121427         3.3042
  80   0.0000       0.136540         3.7154
  81   0.0000       0.140971         3.8360

MULLIKEN ATOMIC CHARGES
-----------------------
   0 C :   -0.294036
   1 C :    0.034719
   2 O :   -0.344755
   3 C :    0.447422
   4 O :   -0.437813
   5 C :   -0.168673
   6 C :    0.146011
   7 C :   -0.284660
   8 N :   -0.120471
   9 C :    0.200988
  10 S :   -0.439184
  11 N :   -0.196055
  12 C :    0.032620
  13 C :    0.058080
  14 C :   -0.160519
  15 C :   -0.134023
  16 C :   -0.278740
  17 C :    0.311685
  18 O :   -0.359156
  19 C :   -0.271696
  20 H :    0.090472
  21 H :    0.095715
  22 H :    0.117966
  23 H :    0.106389
  24 H :    0.104849
  25 H :    0.128949
  26 H :    0.125673
  27 H :    0.101581
  28 H :    0.196667
  29 H :    0.193352
  30 H :    0.153171
  31 H :    0.152896
  32 H :    0.158704
  33 H :    0.127734
  34 H :    0.239932
  35 H :    0.164205
Sum of atomic charges:   -0.0000000

LOEWDIN ATOMIC CHARGES
----------------------
   0 C :    0.104450
   1 C :   -0.016040
   2 O :    0.305538
   3 C :   -0.413058
   4 O :    0.102745
   5 C :   -0.090384
   6 C :   -0.064846
   7 C :    0.124915
   8 N :    0.404910
   9 C :   -0.459096
  10 S :   -0.035890
  11 N :    0.397944
  12 C :   -0.046504
  13 C :   -0.038743
  14 C :    0.022052
  15 C :    0.040791
  16 C :   -0.002254
  17 C :   -0.192421
  18 O :    0.393003
  19 C :    0.028649
  20 H :   -0.030889
  21 H :   -0.026933
  22 H :   -0.024499
  23 H :   -0.026004
  24 H :   -0.026434
  25 H :   -0.009200
  26 H :   -0.009111
  27 H :   -0.021181
  28 H :   -0.059197
  29 H :   -0.063614
  30 H :   -0.005206
  31 H :   -0.025477
  32 H :   -0.021358
  33 H :   -0.036477
  34 H :   -0.154995
  35 H :   -0.025185

  Mayer bond orders larger than 0.100000
B(  0-C ,  1-C ) :   0.9652 B(  0-C , 20-H ) :   0.9773 B(  0-C , 21-H ) :   0.9766
B(  0-C , 22-H ) :   0.9739 B(  1-C ,  2-O ) :   0.8994 B(  1-C , 23-H ) :   0.9849
B(  1-C , 24-H ) :   0.9760 B(  2-O ,  3-C ) :   1.1583 B(  3-C ,  4-O ) :   1.9484
B(  3-C ,  5-C ) :   1.0743 B(  5-C ,  6-C ) :   1.6441 B(  5-C , 12-C ) :   0.9665
B(  6-C ,  7-C ) :   0.9553 B(  6-C ,  8-N ) :   1.1517 B(  7-C , 25-H ) :   0.9634
B(  7-C , 26-H ) :   0.9656 B(  7-C , 27-H ) :   0.9914 B(  8-N ,  9-C ) :   1.1773
B(  8-N , 28-H ) :   0.9487 B(  9-C , 10-S ) :   1.6109 B(  9-C , 11-N ) :   1.3045
B( 11-N , 12-C ) :   0.9938 B( 11-N , 29-H ) :   0.9519 B( 12-C , 13-C ) :   0.9473
B( 12-C , 30-H ) :   1.0003 B( 13-C , 14-C ) :   1.3747 B( 13-C , 19-C ) :   1.3699
B( 14-C , 15-C ) :   1.3945 B( 14-C , 31-H ) :   0.9653 B( 15-C , 16-C ) :   1.3625
B( 15-C , 32-H ) :   0.9715 B( 16-C , 17-C ) :   1.3315 B( 16-C , 33-H ) :   0.9861
B( 17-C , 18-O ) :   1.1079 B( 17-C , 19-C ) :   1.3794 B( 18-O , 34-H ) :   0.9807
B( 19-C , 35-H ) :   0.9584

MP2 TOTAL ENERGY:    -1274.348289915 Eh
FINAL SINGLE POINT ENERGY     -1274.348289914758

DIPOLE MOMENT
-------------
                                X             Y             Z
Electronic contribution:      9.61565       9.26432      12.21667
Nuclear contribution   :    -11.29054     -10.37619     -13.12654
                        -----------------------------------------
Total Dipole Moment    :     -1.67488      -1.11187      -0.90987
                        -----------------------------------------
Magnitude (a.u.)       :      2.20666
Magnitude (Debye)      :      5.60888

Rotational constants in cm-1:     0.010561     0.008764     0.005733
Rotational constants in MHz :   316.604181   262.723164   171.868543

                             ****ORCA TERMINATED NORMALLY****
TOTAL RUN TIME: 0 days 1 hours 37 minutes 14 seconds 881 msec
