                         Program Version 5.0.0 -  RELEASE  -
|  1> ! ri-mp2 cc-pvtz cc-pvtz/c TightSCF NoKeepInts
|  2>
|  3> %scf
|  4>   MaxCore 4096
|  5> end
|  6> *xyz  0  1
|  7>     C       15.3288863   13.7985158   15.9952358
|  8>     C       15.4624190   15.1208187   15.2062269
|  9>     O       16.3717020   16.0920058   15.7853383
| 10>     C       17.3592678   15.8294624   16.6961566
| 11>     O       17.9118486   14.7468549   16.7934777
| 12>     C       17.7319386   16.9922832   17.5749242
| 13>     C       17.3184980   18.2774239   17.4080092
| 14>     C       16.4152677   18.8436651   16.3309807
| 15>     N       17.7881933   19.2748776   18.2697258
| 16>     C       18.7667127   19.1026543   19.2123728
| 17>     S       19.3543783   20.3681010   20.1006387
| 18>     N       19.2320029   17.8240497   19.3814523
| 19>     C       18.6512379   16.6263689   18.7469259
| 20>     C       17.9104572   15.7799793   19.7794123
| 21>     C       18.2242502   14.4178086   19.9411568
| 22>     C       17.5420832   13.6321362   20.8851860
| 23>     C       16.5361007   14.2126024   21.6761254
| 24>     C       16.2176223   15.5679362   21.5159072
| 25>     O       15.2421240   16.1298699   22.2735416
| 26>     C       16.8978386   16.3471761   20.5748399
| 27>     H       16.2163477   13.1660488   15.8692246
| 28>     H       14.4676112   13.2264194   15.6300663
| 29>     H       15.1785678   13.9889556   17.0655034
| 30>     H       15.8020447   14.8787582   14.1907673
| 31>     H       14.4714903   15.5835411   15.1140493
| 32>     H       15.4044136   18.4256973   16.4140238
| 33>     H       16.8024496   18.6028311   15.3330252
| 34>     H       16.3224383   19.9351216   16.3848563
| 35>     H       17.4595760   20.2209634   18.1614837
| 36>     H       19.9311314   17.7165004   20.1049887
| 37>     H       19.4834626   16.0295175   18.3462576
| 38>     H       18.9896511   13.9621173   19.3175049
| 39>     H       17.7905588   12.5781393   20.9954103
| 40>     H       16.0055206   13.6090537   22.4048924
| 41>     H       14.9216454   15.4490954   22.8839535
| 42>     H       16.6372616   17.3946499   20.4703587
| 43> *
| 44>
| 45>                          ****END OF INPUT****

CARTESIAN COORDINATES (ANGSTROEM)
---------------------------------
  C     15.328886   13.798516   15.995236
  C     15.462419   15.120819   15.206227
  O     16.371702   16.092006   15.785338
  C     17.359268   15.829462   16.696157
  O     17.911849   14.746855   16.793478
  C     17.731939   16.992283   17.574924
  C     17.318498   18.277424   17.408009
  C     16.415268   18.843665   16.330981
  N     17.788193   19.274878   18.269726
  C     18.766713   19.102654   19.212373
  S     19.354378   20.368101   20.100639
  N     19.232003   17.824050   19.381452
  C     18.651238   16.626369   18.746926
  C     17.910457   15.779979   19.779412
  C     18.224250   14.417809   19.941157
  C     17.542083   13.632136   20.885186
  C     16.536101   14.212602   21.676125
  C     16.217622   15.567936   21.515907
  O     15.242124   16.129870   22.273542
  C     16.897839   16.347176   20.574840
  H     16.216348   13.166049   15.869225
  H     14.467611   13.226419   15.630066
  H     15.178568   13.988956   17.065503
  H     15.802045   14.878758   14.190767
  H     14.471490   15.583541   15.114049
  H     15.404414   18.425697   16.414024
  H     16.802450   18.602831   15.333025
  H     16.322438   19.935122   16.384856
  H     17.459576   20.220963   18.161484
  H     19.931131   17.716500   20.104989
  H     19.483463   16.029518   18.346258
  H     18.989651   13.962117   19.317505
  H     17.790559   12.578139   20.995410
  H     16.005521   13.609054   22.404892
  H     14.921645   15.449095   22.883953
  H     16.637262   17.394650   20.470359

 Total Charge           Charge          ....    0
 Multiplicity           Mult            ....    1
 Number of Electrons    NEL             ....  154
 Basis Dimension        Dim             ....  828

ORBITAL ENERGIES
----------------

  NO   OCC          E(Eh)            E(eV)
   0   2.0000     -91.887643     -2500.3899
   1   2.0000     -20.598975      -560.5266
   2   2.0000     -20.591691      -560.3284
   3   2.0000     -20.543989      -559.0304
   4   2.0000     -15.627929      -425.2576
   5   2.0000     -15.606186      -424.6659
   6   2.0000     -11.397660      -310.1461
   7   2.0000     -11.382330      -309.7289
   8   2.0000     -11.336213      -308.4740
   9   2.0000     -11.307484      -307.6923
  10   2.0000     -11.306761      -307.6726
  11   2.0000     -11.304498      -307.6110
  12   2.0000     -11.260016      -306.4006
  13   2.0000     -11.258191      -306.3509
  14   2.0000     -11.253222      -306.2157
  15   2.0000     -11.247568      -306.0619
  16   2.0000     -11.237277      -305.7819
  17   2.0000     -11.233357      -305.6752
  18   2.0000     -11.230129      -305.5873
  19   2.0000     -11.226269      -305.4823
  20   2.0000      -8.892710      -241.9829
  21   2.0000      -6.574289      -178.8955
  22   2.0000      -6.572282      -178.8409
  23   2.0000      -6.571696      -178.8250
  24   2.0000      -1.446478       -39.3607
  25   2.0000      -1.411437       -38.4072
  26   2.0000      -1.355790       -36.8929
  27   2.0000      -1.338929       -36.4341
  28   2.0000      -1.236498       -33.6468
  29   2.0000      -1.151843       -31.3432
  30   2.0000      -1.118353       -30.4319
  31   2.0000      -1.041647       -28.3447
  32   2.0000      -1.034278       -28.1441
  33   2.0000      -1.009347       -27.4657
  34   2.0000      -0.996993       -27.1296
  35   2.0000      -0.982264       -26.7288
  36   2.0000      -0.921191       -25.0669
  37   2.0000      -0.897751       -24.4290
  38   2.0000      -0.847738       -23.0681
  39   2.0000      -0.835531       -22.7359
  40   2.0000      -0.827762       -22.5246
  41   2.0000      -0.816888       -22.2286
  42   2.0000      -0.743273       -20.2255
  43   2.0000      -0.728595       -19.8261
  44   2.0000      -0.724292       -19.7090
  45   2.0000      -0.689834       -18.7713
  46   2.0000      -0.684362       -18.6224
  47   2.0000      -0.677261       -18.4292
  48   2.0000      -0.672649       -18.3037
  49   2.0000      -0.662371       -18.0240
  50   2.0000      -0.648565       -17.6483
  51   2.0000      -0.643680       -17.5154
  52   2.0000      -0.633165       -17.2293
  53   2.0000      -0.614025       -16.7085
  54   2.0000      -0.600448       -16.3390
  55   2.0000      -0.599293       -16.3076
  56   2.0000      -0.595174       -16.1955
  57   2.0000      -0.577853       -15.7242
  58   2.0000      -0.573283       -15.5998
  59   2.0000      -0.565850       -15.3976
  60   2.0000      -0.556797       -15.1512
  61   2.0000      -0.542153       -14.7527
  62   2.0000      -0.538326       -14.6486
  63   2.0000      -0.524562       -14.2741
  64   2.0000      -0.516348       -14.0505
  65   2.0000      -0.510971       -13.9042
  66   2.0000      -0.501124       -13.6363
  67   2.0000      -0.495026       -13.4703
  68   2.0000      -0.478600       -13.0234
  69   2.0000      -0.462912       -12.5965
  70   2.0000      -0.454698       -12.3730
  71   2.0000      -0.448257       -12.1977
  72   2.0000      -0.353525        -9.6199
  73   2.0000      -0.343905        -9.3581
  74   2.0000      -0.326805        -8.8928
  75   2.0000      -0.315394        -8.5823
  76   2.0000      -0.313457        -8.5296
  77   0.0000       0.075869         2.0645
  78   0.0000       0.112990         3.0746
  79   0.0000       0.121900         3.3171
  80   0.0000       0.135876         3.6974
  81   0.0000       0.139894         3.8067

MULLIKEN ATOMIC CHARGES
-----------------------
   0 C :   -0.303347
   1 C :    0.051114
   2 O :   -0.356216
   3 C :    0.450939
   4 O :   -0.426911
   5 C :   -0.178083
   6 C :    0.143546
   7 C :   -0.281914
   8 N :   -0.121414
   9 C :    0.201073
  10 S :   -0.439795
  11 N :   -0.197825
  12 C :    0.039062
  13 C :    0.056839
  14 C :   -0.164075
  15 C :   -0.134163
  16 C :   -0.279713
  17 C :    0.311889
  18 O :   -0.359079
  19 C :   -0.275365
  20 H :    0.125100
  21 H :    0.097233
  22 H :    0.104311
  23 H :    0.094768
  24 H :    0.094725
  25 H :    0.124249
  26 H :    0.128952
  27 H :    0.102076
  28 H :    0.196573
  29 H :    0.193762
  30 H :    0.154520
  31 H :    0.154568
  32 H :    0.159246
  33 H :    0.128244
  34 H :    0.240046
  35 H :    0.165066
Sum of atomic charges:    0.0000000

LOEWDIN ATOMIC CHARGES
----------------------
   0 C :    0.104495
   1 C :   -0.008750
   2 O :    0.294108
   3 C :   -0.415386
   4 O :    0.111234
   5 C :   -0.091280
   6 C :   -0.064448
   7 C :    0.124597
   8 N :    0.404831
   9 C :   -0.459362
  10 S :   -0.036453
  11 N :    0.398101
  12 C :   -0.046782
  13 C :   -0.039134
  14 C :    0.022061
  15 C :    0.040349
  16 C :   -0.002746
  17 C :   -0.193038
  18 O :    0.392923
  19 C :    0.027913
  20 H :   -0.023884
  21 H :   -0.027136
  22 H :   -0.025205
  23 H :   -0.028602
  24 H :   -0.027516
  25 H :   -0.010236
  26 H :   -0.007812
  27 H :   -0.021534
  28 H :   -0.059424
  29 H :   -0.063635
  30 H :   -0.005440
  31 H :   -0.025125
  32 H :   -0.021263
  33 H :   -0.036442
  34 H :   -0.154918
  35 H :   -0.025062

  Mayer bond orders larger than 0.100000
B(  0-C ,  1-C ) :   0.9684 B(  0-C , 20-H ) :   0.9718 B(  0-C , 21-H ) :   0.9742
B(  0-C , 22-H ) :   0.9741 B(  1-C ,  2-O ) :   0.9015 B(  1-C , 23-H ) :   0.9812
B(  1-C , 24-H ) :   0.9811 B(  2-O ,  3-C ) :   1.1532 B(  3-C ,  4-O ) :   1.9808
B(  3-C ,  5-C ) :   1.0459 B(  5-C ,  6-C ) :   1.6477 B(  5-C , 12-C ) :   0.9652
B(  6-C ,  7-C ) :   0.9552 B(  6-C ,  8-N ) :   1.1493 B(  7-C , 25-H ) :   0.9651
B(  7-C , 26-H ) :   0.9640 B(  7-C , 27-H ) :   0.9922 B(  8-N ,  9-C ) :   1.1784
B(  8-N , 28-H ) :   0.9486 B(  9-C , 10-S ) :   1.6101 B(  9-C , 11-N ) :   1.3051
B( 11-N , 12-C ) :   0.9914 B( 11-N , 29-H ) :   0.9520 B( 12-C , 13-C ) :   0.9454
B( 12-C , 30-H ) :   1.0006 B( 13-C , 14-C ) :   1.3754 B( 13-C , 19-C ) :   1.3688
B( 14-C , 15-C ) :   1.3946 B( 14-C , 31-H ) :   0.9644 B( 15-C , 16-C ) :   1.3619
B( 15-C , 32-H ) :   0.9714 B( 16-C , 17-C ) :   1.3317 B( 16-C , 33-H ) :   0.9859
B( 17-C , 18-O ) :   1.1081 B( 17-C , 19-C ) :   1.3783 B( 18-O , 34-H ) :   0.9806
B( 19-C , 35-H ) :   0.9583

MP2 TOTAL ENERGY:    -1274.338760519 Eh
FINAL SINGLE POINT ENERGY     -1274.338760518819

DIPOLE MOMENT
-------------
                                X             Y             Z
Electronic contribution:     10.16383      10.33988       9.63759
Nuclear contribution   :    -11.79862     -11.57313     -10.68161
                        -----------------------------------------
Total Dipole Moment    :     -1.63480      -1.23325      -1.04402
                        -----------------------------------------
Magnitude (a.u.)       :      2.29857
Magnitude (Debye)      :      5.84251

Rotational constants in cm-1:     0.010777     0.009126     0.005985
Rotational constants in MHz :   323.087955   273.583612   179.440227

                             ****ORCA TERMINATED NORMALLY****
TOTAL RUN TIME: 0 days 1 hours 58 minutes 27 seconds 180 msec
