                         Program Version 4.2.0 -  RELEASE  -
|  1> ! ri-mp2 cc-pvtz cc-pvtz/c TightSCF  NoKeepInts
|  2>
|  3> %scf
|  4>   MaxCore 4096
|  5> end
|  6> *xyz  0  1
|  7>     C       15.4245414   13.7354554   17.0848838
|  8>     C       16.4522079   14.0980955   15.9973315
|  9>     O       17.3113173   15.1275535   16.5203512
| 10>     C       16.9655816   16.4419936   16.3662723
| 11>     O       16.1386779   16.8070305   15.5476435
| 12>     C       17.5968878   17.3351420   17.3987487
| 13>     C       17.4005156   18.6782917   17.4162570
| 14>     C       16.5555801   19.4946083   16.4615615
| 15>     N       18.0415702   19.4686911   18.3747313
| 16>     C       18.9662681   19.0129417   19.2756483
| 17>     S       19.7498341   20.0319203   20.3167472
| 18>     N       19.2157579   17.6645637   19.2673318
| 19>     C       18.4822844   16.6686306   18.4655479
| 20>     C       17.6891649   15.7540017   19.3947014
| 21>     C       18.1523302   14.4545417   19.6743521
| 22>     C       17.4319991   13.6079065   20.5338458
| 23>     C       16.2381372   14.0638528   21.1183464
| 24>     C       15.7768257   15.3590953   20.8461178
| 25>     O       14.6257258   15.8029244   21.4107648
| 26>     C       16.4977932   16.2008746   19.9937373
| 27>     H       15.9280654   13.3915504   17.9961515
| 28>     H       14.7618679   12.9345192   16.7359811
| 29>     H       14.8053620   14.6049492   17.3394309
| 30>     H       17.0526673   13.2079198   15.7706876
| 31>     H       15.9512761   14.4120586   15.0713213
| 32>     H       15.5046791   19.1823999   16.5147779
| 33>     H       16.8887325   19.3457246   15.4265786
| 34>     H       16.5922311   20.5705937   16.6682597
| 35>     H       17.8723838   20.4616671   18.3941921
| 36>     H       19.8737069   17.3537218   19.9703020
| 37>     H       19.2293936   16.0587676   17.9383392
| 38>     H       19.0726721   14.0979750   19.2197918
| 39>     H       17.7982164   12.6043273   20.7431772
| 40>     H       15.6775088   13.4135744   21.7817560
| 41>     H       14.2965839   15.1009097   21.9918866
| 42>     H       16.1286529   17.2032267   19.8064450
| 43> *
| 44>
| 45>                          ****END OF INPUT****

CARTESIAN COORDINATES (ANGSTROEM)
---------------------------------
  C     15.424541   13.735455   17.084884
  C     16.452208   14.098095   15.997331
  O     17.311317   15.127553   16.520351
  C     16.965582   16.441994   16.366272
  O     16.138678   16.807030   15.547643
  C     17.596888   17.335142   17.398749
  C     17.400516   18.678292   17.416257
  C     16.555580   19.494608   16.461561
  N     18.041570   19.468691   18.374731
  C     18.966268   19.012942   19.275648
  S     19.749834   20.031920   20.316747
  N     19.215758   17.664564   19.267332
  C     18.482284   16.668631   18.465548
  C     17.689165   15.754002   19.394701
  C     18.152330   14.454542   19.674352
  C     17.431999   13.607906   20.533846
  C     16.238137   14.063853   21.118346
  C     15.776826   15.359095   20.846118
  O     14.625726   15.802924   21.410765
  C     16.497793   16.200875   19.993737
  H     15.928065   13.391550   17.996151
  H     14.761868   12.934519   16.735981
  H     14.805362   14.604949   17.339431
  H     17.052667   13.207920   15.770688
  H     15.951276   14.412059   15.071321
  H     15.504679   19.182400   16.514778
  H     16.888732   19.345725   15.426579
  H     16.592231   20.570594   16.668260
  H     17.872384   20.461667   18.394192
  H     19.873707   17.353722   19.970302
  H     19.229394   16.058768   17.938339
  H     19.072672   14.097975   19.219792
  H     17.798216   12.604327   20.743177
  H     15.677509   13.413574   21.781756
  H     14.296584   15.100910   21.991887
  H     16.128653   17.203227   19.806445

 Total Charge           Charge          ....    0
 Multiplicity           Mult            ....    1
 Number of Electrons    NEL             ....  154
 Basis Dimension        Dim             ....  828

ORBITAL ENERGIES
----------------

  NO   OCC          E(Eh)            E(eV)
   0   2.0000     -91.888906     -2500.4242
   1   2.0000     -20.599341      -560.5366
   2   2.0000     -20.598030      -560.5009
   3   2.0000     -20.541494      -558.9625
   4   2.0000     -15.629227      -425.2929
   5   2.0000     -15.608421      -424.7267
   6   2.0000     -11.394870      -310.0702
   7   2.0000     -11.384076      -309.7765
   8   2.0000     -11.336412      -308.4795
   9   2.0000     -11.315289      -307.9047
  10   2.0000     -11.309388      -307.7441
  11   2.0000     -11.293856      -307.3214
  12   2.0000     -11.261010      -306.4277
  13   2.0000     -11.259180      -306.3779
  14   2.0000     -11.256594      -306.3075
  15   2.0000     -11.252260      -306.1896
  16   2.0000     -11.244165      -305.9693
  17   2.0000     -11.239138      -305.8325
  18   2.0000     -11.239025      -305.8294
  19   2.0000     -11.221136      -305.3426
  20   2.0000      -8.893966      -242.0171
  21   2.0000      -6.575541      -178.9296
  22   2.0000      -6.573536      -178.8750
  23   2.0000      -6.572950      -178.8591
  24   2.0000      -1.450284       -39.4642
  25   2.0000      -1.417668       -38.5767
  26   2.0000      -1.353920       -36.8420
  27   2.0000      -1.340276       -36.4708
  28   2.0000      -1.238871       -33.7114
  29   2.0000      -1.158689       -31.5295
  30   2.0000      -1.120735       -30.4967
  31   2.0000      -1.043401       -28.3924
  32   2.0000      -1.034740       -28.1567
  33   2.0000      -1.016377       -27.6570
  34   2.0000      -0.995785       -27.0967
  35   2.0000      -0.984345       -26.7854
  36   2.0000      -0.923092       -25.1186
  37   2.0000      -0.891918       -24.2703
  38   2.0000      -0.847339       -23.0573
  39   2.0000      -0.838646       -22.8207
  40   2.0000      -0.834804       -22.7162
  41   2.0000      -0.814484       -22.1632
  42   2.0000      -0.758124       -20.6296
  43   2.0000      -0.733235       -19.9523
  44   2.0000      -0.723123       -19.6772
  45   2.0000      -0.697015       -18.9667
  46   2.0000      -0.688727       -18.7412
  47   2.0000      -0.678787       -18.4707
  48   2.0000      -0.670226       -18.2378
  49   2.0000      -0.663349       -18.0506
  50   2.0000      -0.648382       -17.6434
  51   2.0000      -0.642214       -17.4755
  52   2.0000      -0.633247       -17.2315
  53   2.0000      -0.608722       -16.5642
  54   2.0000      -0.604012       -16.4360
  55   2.0000      -0.600302       -16.3350
  56   2.0000      -0.599380       -16.3100
  57   2.0000      -0.578676       -15.7466
  58   2.0000      -0.570867       -15.5341
  59   2.0000      -0.566948       -15.4274
  60   2.0000      -0.559422       -15.2227
  61   2.0000      -0.544741       -14.8232
  62   2.0000      -0.534513       -14.5448
  63   2.0000      -0.529798       -14.4165
  64   2.0000      -0.526341       -14.3225
  65   2.0000      -0.513204       -13.9650
  66   2.0000      -0.502159       -13.6644
  67   2.0000      -0.498599       -13.5676
  68   2.0000      -0.480407       -13.0725
  69   2.0000      -0.463925       -12.6240
  70   2.0000      -0.453139       -12.3305
  71   2.0000      -0.446904       -12.1609
  72   2.0000      -0.354500        -9.6464
  73   2.0000      -0.350824        -9.5464
  74   2.0000      -0.328504        -8.9390
  75   2.0000      -0.322763        -8.7828
  76   2.0000      -0.316558        -8.6140
  77   0.0000       0.076370         2.0781
  78   0.0000       0.104888         2.8542
  79   0.0000       0.124162         3.3786
  80   0.0000       0.132217         3.5978
  81   0.0000       0.137034         3.7289

MULLIKEN ATOMIC CHARGES
-----------------------
   0 C :   -0.301190
   1 C :    0.020188
   2 O :   -0.357729
   3 C :    0.461441
   4 O :   -0.432684
   5 C :   -0.240452
   6 C :    0.157527
   7 C :   -0.270936
   8 N :   -0.122387
   9 C :    0.215722
  10 S :   -0.441294
  11 N :   -0.209104
  12 C :    0.068867
  13 C :    0.072373
  14 C :   -0.193115
  15 C :   -0.139422
  16 C :   -0.275946
  17 C :    0.315721
  18 O :   -0.357258
  19 C :   -0.261770
  20 H :    0.103990
  21 H :    0.105047
  22 H :    0.105452
  23 H :    0.106471
  24 H :    0.121133
  25 H :    0.131597
  26 H :    0.131303
  27 H :    0.095212
  28 H :    0.197148
  29 H :    0.195588
  30 H :    0.148945
  31 H :    0.147984
  32 H :    0.162424
  33 H :    0.131225
  34 H :    0.241160
  35 H :    0.166767
Sum of atomic charges:   -0.0000000

LOEWDIN ATOMIC CHARGES
----------------------
   0 C :    0.104461
   1 C :   -0.016214
   2 O :    0.306415
   3 C :   -0.415031
   4 O :    0.096278
   5 C :   -0.094938
   6 C :   -0.058927
   7 C :    0.131498
   8 N :    0.406915
   9 C :   -0.455169
  10 S :   -0.035922
  11 N :    0.396292
  12 C :   -0.051942
  13 C :   -0.036452
  14 C :    0.011790
  15 C :    0.040103
  16 C :   -0.002157
  17 C :   -0.188642
  18 O :    0.395985
  19 C :    0.032085
  20 H :   -0.026692
  21 H :   -0.027607
  22 H :   -0.026400
  23 H :   -0.027026
  24 H :   -0.028546
  25 H :   -0.004747
  26 H :   -0.003800
  27 H :   -0.023381
  28 H :   -0.057512
  29 H :   -0.064935
  30 H :   -0.010597
  31 H :   -0.030440
  32 H :   -0.021080
  33 H :   -0.035488
  34 H :   -0.153510
  35 H :   -0.024665

  Mayer bond orders larger than 0.100000
B(  0-C ,  1-C ) :   0.9634 B(  0-C , 20-H ) :   0.9717 B(  0-C , 21-H ) :   0.9779
B(  0-C , 22-H ) :   0.9761 B(  1-C ,  2-O ) :   0.8887 B(  1-C , 23-H ) :   0.9851
B(  1-C , 24-H ) :   0.9774 B(  2-O ,  3-C ) :   1.1651 B(  3-C ,  4-O ) :   1.9748
B(  3-C ,  5-C ) :   1.0558 B(  5-C ,  6-C ) :   1.6526 B(  5-C , 12-C ) :   0.9737
B(  6-C ,  7-C ) :   0.9667 B(  6-C ,  8-N ) :   1.1656 B(  7-C , 25-H ) :   0.9601
B(  7-C , 26-H ) :   0.9603 B(  7-C , 27-H ) :   0.9904 B(  8-N ,  9-C ) :   1.1837
B(  8-N , 28-H ) :   0.9478 B(  9-C , 10-S ) :   1.6031 B(  9-C , 11-N ) :   1.3084
B( 11-N , 12-C ) :   0.9759 B( 11-N , 29-H ) :   0.9515 B( 12-C , 13-C ) :   0.9391
B( 12-C , 30-H ) :   1.0019 B( 13-C , 14-C ) :   1.3516 B( 13-C , 19-C ) :   1.3779
B( 14-C , 15-C ) :   1.3906 B( 14-C , 31-H ) :   0.9736 B( 15-C , 16-C ) :   1.3590
B( 15-C , 32-H ) :   0.9715 B( 16-C , 17-C ) :   1.3316 B( 16-C , 33-H ) :   0.9850
B( 17-C , 18-O ) :   1.1106 B( 17-C , 19-C ) :   1.3697 B( 18-O , 34-H ) :   0.9795
B( 19-C , 35-H ) :   0.9581

MP2 TOTAL ENERGY:    -1274.351051012 Eh
FINAL SINGLE POINT ENERGY     -1274.351051012034

DIPOLE MOMENT
-------------
                                X             Y             Z
Electronic contribution:      8.80591      10.86032       6.27611
Nuclear contribution   :     -9.63381     -12.60506      -6.61328
                        -----------------------------------------
Total Dipole Moment    :     -0.82791      -1.74473      -0.33717
                        -----------------------------------------
Magnitude (a.u.)       :      1.96041
Magnitude (Debye)      :      4.98296

Rotational constants in cm-1:     0.012567     0.008690     0.006368
Rotational constants in MHz :   376.735035   260.527163   190.897881

                             ****ORCA TERMINATED NORMALLY****
TOTAL RUN TIME: 0 days 1 hours 47 minutes 22 seconds 868 msec
