                         Program Version 4.2.0 -  RELEASE  -
|  1> ! ri-mp2 cc-pvtz cc-pvtz/c TightSCF  NoKeepInts
|  2>
|  3> %scf
|  4>   MaxCore 4096
|  5> end
|  6> *xyz  0  1
|  7>     C       15.1000124   15.6837597   17.2102464
|  8>     C       15.9593661   14.4446854   16.8720560
|  9>     O       17.3545622   14.6900258   16.5455315
| 10>     C       17.8964032   15.8966476   16.1979989
| 11>     O       17.9801217   16.1763706   15.0163872
| 12>     C       17.8569231   16.9456780   17.2734415
| 13>     C       17.4898358   18.2276288   17.0227990
| 14>     C       16.9307191   18.7865959   15.7315095
| 15>     N       17.6528513   19.2073386   18.0052709
| 16>     C       18.3394596   19.0302749   19.1763671
| 17>     S       18.5914895   20.2718596   20.2390158
| 18>     N       18.8147021   17.7673171   19.4236517
| 19>     C       18.5055779   16.5670722   18.6219780
| 20>     C       17.7476454   15.5497852   19.4757576
| 21>     C       18.1317206   14.1948598   19.4651986
| 22>     C       17.4627970   13.2516101   20.2629485
| 23>     C       16.4066916   13.6660037   21.0913717
| 24>     C       16.0332845   15.0160019   21.1230332
| 25>     O       15.0160826   15.4208375   21.9239202
| 26>     C       16.7022838   15.9526815   20.3289836
| 27>     H       15.4527548   16.2224476   18.0904496
| 28>     H       14.0698488   15.3701953   17.4183940
| 29>     H       15.0625125   16.3744907   16.3607918
| 30>     H       15.9105275   13.7374099   17.7100280
| 31>     H       15.4958164   13.9460446   16.0108860
| 32>     H       17.7379041   18.9399004   15.0036459
| 33>     H       16.4149537   19.7436293   15.8727297
| 34>     H       16.2138910   18.0953395   15.2735361
| 35>     H       17.3329962   20.1464506   17.8288747
| 36>     H       19.2996133   17.6650035   20.3064022
| 37>     H       19.4723638   16.1061184   18.3746029
| 38>     H       18.9458102   13.8674190   18.8232380
| 39>     H       17.7645366   12.2056804   20.2377459
| 40>     H       15.8866210   12.9410590   21.7091428
| 41>     H       14.7174592   14.6505964   22.4306802
| 42>     H       16.3968614   16.9931817   20.3753854
| 43> *
| 44>
| 45>                          ****END OF INPUT****

CARTESIAN COORDINATES (ANGSTROEM)
---------------------------------
  C     15.100012   15.683760   17.210246
  C     15.959366   14.444685   16.872056
  O     17.354562   14.690026   16.545531
  C     17.896403   15.896648   16.197999
  O     17.980122   16.176371   15.016387
  C     17.856923   16.945678   17.273442
  C     17.489836   18.227629   17.022799
  C     16.930719   18.786596   15.731509
  N     17.652851   19.207339   18.005271
  C     18.339460   19.030275   19.176367
  S     18.591490   20.271860   20.239016
  N     18.814702   17.767317   19.423652
  C     18.505578   16.567072   18.621978
  C     17.747645   15.549785   19.475758
  C     18.131721   14.194860   19.465199
  C     17.462797   13.251610   20.262949
  C     16.406692   13.666004   21.091372
  C     16.033285   15.016002   21.123033
  O     15.016083   15.420837   21.923920
  C     16.702284   15.952681   20.328984
  H     15.452755   16.222448   18.090450
  H     14.069849   15.370195   17.418394
  H     15.062513   16.374491   16.360792
  H     15.910528   13.737410   17.710028
  H     15.495816   13.946045   16.010886
  H     17.737904   18.939900   15.003646
  H     16.414954   19.743629   15.872730
  H     16.213891   18.095340   15.273536
  H     17.332996   20.146451   17.828875
  H     19.299613   17.665003   20.306402
  H     19.472364   16.106118   18.374603
  H     18.945810   13.867419   18.823238
  H     17.764537   12.205680   20.237746
  H     15.886621   12.941059   21.709143
  H     14.717459   14.650596   22.430680
  H     16.396861   16.993182   20.375385

 Total Charge           Charge          ....    0
 Multiplicity           Mult            ....    1
 Number of Electrons    NEL             ....  154
 Basis Dimension        Dim             ....  828

ORBITAL ENERGIES
----------------

  NO   OCC          E(Eh)            E(eV)
   0   2.0000     -91.891196     -2500.4866
   1   2.0000     -20.601023      -560.5823
   2   2.0000     -20.577000      -559.9286
   3   2.0000     -20.554831      -559.3254
   4   2.0000     -15.629074      -425.2887
   5   2.0000     -15.611320      -424.8056
   6   2.0000     -11.395277      -310.0813
   7   2.0000     -11.386296      -309.8369
   8   2.0000     -11.333441      -308.3986
   9   2.0000     -11.318501      -307.9921
  10   2.0000     -11.316745      -307.9443
  11   2.0000     -11.303902      -307.5948
  12   2.0000     -11.265837      -306.5590
  13   2.0000     -11.260974      -306.4267
  14   2.0000     -11.259169      -306.3776
  15   2.0000     -11.255444      -306.2762
  16   2.0000     -11.248478      -306.0866
  17   2.0000     -11.244266      -305.9720
  18   2.0000     -11.242761      -305.9311
  19   2.0000     -11.231049      -305.6124
  20   2.0000      -8.896264      -242.0797
  21   2.0000      -6.577841      -178.9922
  22   2.0000      -6.575831      -178.9375
  23   2.0000      -6.575244      -178.9215
  24   2.0000      -1.442995       -39.2659
  25   2.0000      -1.420868       -38.6638
  26   2.0000      -1.350260       -36.7424
  27   2.0000      -1.341504       -36.5042
  28   2.0000      -1.241171       -33.7740
  29   2.0000      -1.161688       -31.6111
  30   2.0000      -1.121637       -30.5213
  31   2.0000      -1.046846       -28.4861
  32   2.0000      -1.034295       -28.1446
  33   2.0000      -1.020463       -27.7682
  34   2.0000      -1.002392       -27.2765
  35   2.0000      -0.988254       -26.8918
  36   2.0000      -0.926689       -25.2165
  37   2.0000      -0.898392       -24.4465
  38   2.0000      -0.850360       -23.1395
  39   2.0000      -0.842743       -22.9322
  40   2.0000      -0.839291       -22.8383
  41   2.0000      -0.823061       -22.3966
  42   2.0000      -0.746989       -20.3266
  43   2.0000      -0.735839       -20.0232
  44   2.0000      -0.723443       -19.6859
  45   2.0000      -0.699550       -19.0357
  46   2.0000      -0.689397       -18.7594
  47   2.0000      -0.674435       -18.3523
  48   2.0000      -0.672668       -18.3042
  49   2.0000      -0.661975       -18.0133
  50   2.0000      -0.654679       -17.8147
  51   2.0000      -0.647154       -17.6100
  52   2.0000      -0.639482       -17.4012
  53   2.0000      -0.622865       -16.9490
  54   2.0000      -0.610835       -16.6217
  55   2.0000      -0.603890       -16.4327
  56   2.0000      -0.602292       -16.3892
  57   2.0000      -0.580650       -15.8003
  58   2.0000      -0.575615       -15.6633
  59   2.0000      -0.566624       -15.4186
  60   2.0000      -0.557006       -15.1569
  61   2.0000      -0.553764       -15.0687
  62   2.0000      -0.542401       -14.7595
  63   2.0000      -0.528909       -14.3923
  64   2.0000      -0.525379       -14.2963
  65   2.0000      -0.515592       -14.0300
  66   2.0000      -0.504312       -13.7230
  67   2.0000      -0.493575       -13.4309
  68   2.0000      -0.479273       -13.0417
  69   2.0000      -0.470514       -12.8033
  70   2.0000      -0.452043       -12.3007
  71   2.0000      -0.446549       -12.1512
  72   2.0000      -0.358228        -9.7479
  73   2.0000      -0.348978        -9.4962
  74   2.0000      -0.330550        -8.9947
  75   2.0000      -0.325928        -8.8689
  76   2.0000      -0.319645        -8.6980
  77   0.0000       0.073316         1.9950
  78   0.0000       0.100729         2.7410
  79   0.0000       0.116858         3.1799
  80   0.0000       0.127174         3.4606
  81   0.0000       0.130902         3.5620

MULLIKEN ATOMIC CHARGES
-----------------------
   0 C :   -0.345172
   1 C :    0.040110
   2 O :   -0.377243
   3 C :    0.437131
   4 O :   -0.371032
   5 C :   -0.255961
   6 C :    0.174486
   7 C :   -0.281854
   8 N :   -0.127673
   9 C :    0.200711
  10 S :   -0.436101
  11 N :   -0.215299
  12 C :    0.073097
  13 C :    0.042111
  14 C :   -0.201317
  15 C :   -0.141440
  16 C :   -0.275793
  17 C :    0.322272
  18 O :   -0.354940
  19 C :   -0.268881
  20 H :    0.117137
  21 H :    0.125537
  22 H :    0.103240
  23 H :    0.113969
  24 H :    0.123529
  25 H :    0.143074
  26 H :    0.095102
  27 H :    0.123806
  28 H :    0.197452
  29 H :    0.198677
  30 H :    0.153615
  31 H :    0.147830
  32 H :    0.165671
  33 H :    0.133842
  34 H :    0.241199
  35 H :    0.179106
Sum of atomic charges:   -0.0000000

LOEWDIN ATOMIC CHARGES
----------------------
   0 C :    0.105559
   1 C :   -0.007834
   2 O :    0.276958
   3 C :   -0.423520
   4 O :    0.136777
   5 C :   -0.092679
   6 C :   -0.069627
   7 C :    0.129395
   8 N :    0.406203
   9 C :   -0.458816
  10 S :   -0.034134
  11 N :    0.396703
  12 C :   -0.051422
  13 C :   -0.041169
  14 C :    0.021005
  15 C :    0.039685
  16 C :   -0.001960
  17 C :   -0.193322
  18 O :    0.396351
  19 C :    0.030689
  20 H :   -0.037090
  21 H :   -0.019863
  22 H :   -0.031389
  23 H :   -0.024687
  24 H :   -0.025551
  25 H :   -0.003189
  26 H :   -0.021982
  27 H :   -0.012423
  28 H :   -0.057641
  29 H :   -0.064061
  30 H :   -0.009097
  31 H :   -0.027593
  32 H :   -0.019722
  33 H :   -0.034394
  34 H :   -0.152996
  35 H :   -0.023165

  Mayer bond orders larger than 0.100000
B(  0-C ,  1-C ) :   0.9626 B(  0-C , 20-H ) :   0.9681 B(  0-C , 21-H ) :   0.9758
B(  0-C , 22-H ) :   0.9739 B(  1-C ,  2-O ) :   0.8843 B(  1-C , 23-H ) :   0.9733
B(  1-C , 24-H ) :   0.9842 B(  2-O ,  3-C ) :   1.1274 B(  3-C ,  4-O ) :   2.0809
B(  3-C ,  5-C ) :   0.9718 B(  5-C ,  6-C ) :   1.6798 B(  5-C , 12-C ) :   0.9581
B(  6-C ,  7-C ) :   0.9591 B(  6-C ,  8-N ) :   1.1400 B(  7-C , 25-H ) :   0.9573
B(  7-C , 26-H ) :   0.9855 B(  7-C , 27-H ) :   0.9698 B(  8-N ,  9-C ) :   1.1905
B(  8-N , 28-H ) :   0.9495 B(  9-C , 10-S ) :   1.6144 B(  9-C , 11-N ) :   1.2878
B( 11-N , 12-C ) :   0.9893 B( 11-N , 29-H ) :   0.9488 B( 12-C , 13-C ) :   0.9399
B( 12-C , 30-H ) :   1.0094 B( 13-C , 14-C ) :   1.3595 B( 13-C , 19-C ) :   1.3481
B( 14-C , 15-C ) :   1.4021 B( 14-C , 31-H ) :   0.9741 B( 15-C , 16-C ) :   1.3533
B( 15-C , 32-H ) :   0.9702 B( 16-C , 17-C ) :   1.3322 B( 16-C , 33-H ) :   0.9840
B( 17-C , 18-O ) :   1.1119 B( 17-C , 19-C ) :   1.3642 B( 18-O , 34-H ) :   0.9792
B( 19-C , 35-H ) :   0.9576

MP2 TOTAL ENERGY:    -1274.310916868 Eh
FINAL SINGLE POINT ENERGY     -1274.310916867523

DIPOLE MOMENT
-------------
                                X             Y             Z
Electronic contribution:      9.47222       6.41219       5.90946
Nuclear contribution   :    -10.65653      -7.96376      -5.82344
                        -----------------------------------------
Total Dipole Moment    :     -1.18432      -1.55157       0.08602
                        -----------------------------------------
Magnitude (a.u.)       :      1.95381
Magnitude (Debye)      :      4.96618

Rotational constants in cm-1:     0.012182     0.009678     0.006532
Rotational constants in MHz :   365.195668   290.142237   195.811709

                             ****ORCA TERMINATED NORMALLY****
TOTAL RUN TIME: 0 days 2 hours 24 minutes 45 seconds 508 msec
