                         Program Version 4.2.0 -  RELEASE  -
|  1> ! ri-mp2 cc-pvtz cc-pvtz/c TightSCF  NoKeepInts
|  2>
|  3> %scf
|  4>   MaxCore 4096
|  5> end
|  6> *xyz  0  1
|  7>     C       15.2666847   14.4044910   14.3639165
|  8>     C       15.1774846   14.6495329   15.8797558
|  9>     O       16.0710564   15.7334909   16.1959332
| 10>     C       17.1741047   15.5136085   16.9705264
| 11>     O       17.5994992   14.3931273   17.2000933
| 12>     C       17.6946924   16.7316967   17.6806192
| 13>     C       17.3866012   18.0169713   17.3617724
| 14>     C       16.4869594   18.5165730   16.2495362
| 15>     N       17.9881892   19.0686593   18.0614103
| 16>     C       19.0050242   18.9275317   18.9682859
| 17>     S       19.7523778   20.2355027   19.6511707
| 18>     N       19.3708936   17.6429926   19.2797245
| 19>     C       18.6504502   16.4329184   18.8419021
| 20>     C       17.9080672   15.7999541   20.0161680
| 21>     C       18.1217025   14.4495560   20.3492631
| 22>     C       17.4401658   13.8607701   21.4275831
| 23>     C       16.5359639   14.6282956   22.1811768
| 24>     C       16.3172667   15.9725544   21.8507228
| 25>     O       15.4402277   16.7147760   22.5727450
| 26>     C       16.9967159   16.5556459   20.7765418
| 27>     H       15.0121531   15.3147238   13.8070363
| 28>     H       14.5737063   13.6100680   14.0613165
| 29>     H       16.2823296   14.0976419   14.0837244
| 30>     H       14.1503694   14.9355401   16.1402179
| 31>     H       15.4213267   13.7300549   16.4293356
| 32>     H       16.7656812   18.0635067   15.2899091
| 33>     H       16.5390072   19.6041167   16.1179303
| 34>     H       15.4400229   18.2597667   16.4537290
| 35>     H       17.7336783   20.0194157   17.8465052
| 36>     H       20.1015418   17.5646656   19.9753709
| 37>     H       19.4002973   15.7136912   18.4817694
| 38>     H       18.8076939   13.8489576   19.7568187
| 39>     H       17.6101275   12.8134574   21.6705674
| 40>     H       16.0061512   14.1770594   23.0133853
| 41>     H       15.1036716   16.1520795   23.2860743
| 42>     H       16.8151152   17.5986065   20.5414627
| 43> *
| 44>
| 45>                          ****END OF INPUT****

CARTESIAN COORDINATES (ANGSTROEM)
---------------------------------
  C     15.266685   14.404491   14.363916
  C     15.177485   14.649533   15.879756
  O     16.071056   15.733491   16.195933
  C     17.174105   15.513609   16.970526
  O     17.599499   14.393127   17.200093
  C     17.694692   16.731697   17.680619
  C     17.386601   18.016971   17.361772
  C     16.486959   18.516573   16.249536
  N     17.988189   19.068659   18.061410
  C     19.005024   18.927532   18.968286
  S     19.752378   20.235503   19.651171
  N     19.370894   17.642993   19.279724
  C     18.650450   16.432918   18.841902
  C     17.908067   15.799954   20.016168
  C     18.121702   14.449556   20.349263
  C     17.440166   13.860770   21.427583
  C     16.535964   14.628296   22.181177
  C     16.317267   15.972554   21.850723
  O     15.440228   16.714776   22.572745
  C     16.996716   16.555646   20.776542
  H     15.012153   15.314724   13.807036
  H     14.573706   13.610068   14.061316
  H     16.282330   14.097642   14.083724
  H     14.150369   14.935540   16.140218
  H     15.421327   13.730055   16.429336
  H     16.765681   18.063507   15.289909
  H     16.539007   19.604117   16.117930
  H     15.440023   18.259767   16.453729
  H     17.733678   20.019416   17.846505
  H     20.101542   17.564666   19.975371
  H     19.400297   15.713691   18.481769
  H     18.807694   13.848958   19.756819
  H     17.610128   12.813457   21.670567
  H     16.006151   14.177059   23.013385
  H     15.103672   16.152079   23.286074
  H     16.815115   17.598606   20.541463

 Total Charge           Charge          ....    0
 Multiplicity           Mult            ....    1
 Number of Electrons    NEL             ....  154
 Basis Dimension        Dim             ....  828

ORBITAL ENERGIES
----------------

  NO   OCC          E(Eh)            E(eV)
   0   2.0000     -91.888013     -2500.3999
   1   2.0000     -20.602867      -560.6325
   2   2.0000     -20.591235      -560.3160
   3   2.0000     -20.545846      -559.0809
   4   2.0000     -15.628445      -425.2716
   5   2.0000     -15.606569      -424.6763
   6   2.0000     -11.396715      -310.1204
   7   2.0000     -11.382852      -309.7432
   8   2.0000     -11.336578      -308.4840
   9   2.0000     -11.307034      -307.6800
  10   2.0000     -11.305306      -307.6330
  11   2.0000     -11.299177      -307.4662
  12   2.0000     -11.260662      -306.4182
  13   2.0000     -11.258997      -306.3729
  14   2.0000     -11.253002      -306.2098
  15   2.0000     -11.247175      -306.0512
  16   2.0000     -11.236824      -305.7695
  17   2.0000     -11.232967      -305.6646
  18   2.0000     -11.230270      -305.5912
  19   2.0000     -11.229926      -305.5818
  20   2.0000      -8.893076      -241.9929
  21   2.0000      -6.574653      -178.9054
  22   2.0000      -6.572646      -178.8508
  23   2.0000      -6.572060      -178.8349
  24   2.0000      -1.453777       -39.5593
  25   2.0000      -1.410967       -38.3944
  26   2.0000      -1.357511       -36.9397
  27   2.0000      -1.339347       -36.4455
  28   2.0000      -1.236889       -33.6575
  29   2.0000      -1.151716       -31.3398
  30   2.0000      -1.119358       -30.4593
  31   2.0000      -1.043454       -28.3938
  32   2.0000      -1.036034       -28.1919
  33   2.0000      -1.009069       -27.4582
  34   2.0000      -0.997351       -27.1393
  35   2.0000      -0.982836       -26.7443
  36   2.0000      -0.920949       -25.0603
  37   2.0000      -0.890310       -24.2266
  38   2.0000      -0.847388       -23.0586
  39   2.0000      -0.834943       -22.7200
  40   2.0000      -0.827401       -22.5147
  41   2.0000      -0.818113       -22.2620
  42   2.0000      -0.759848       -20.6765
  43   2.0000      -0.735790       -20.0219
  44   2.0000      -0.724623       -19.7180
  45   2.0000      -0.690129       -18.7794
  46   2.0000      -0.684831       -18.6352
  47   2.0000      -0.679951       -18.5024
  48   2.0000      -0.672410       -18.2972
  49   2.0000      -0.654822       -17.8186
  50   2.0000      -0.648053       -17.6344
  51   2.0000      -0.641901       -17.4670
  52   2.0000      -0.629409       -17.1271
  53   2.0000      -0.614477       -16.7208
  54   2.0000      -0.600214       -16.3326
  55   2.0000      -0.599337       -16.3088
  56   2.0000      -0.594529       -16.1780
  57   2.0000      -0.583069       -15.8661
  58   2.0000      -0.572763       -15.5857
  59   2.0000      -0.563924       -15.3452
  60   2.0000      -0.561247       -15.2723
  61   2.0000      -0.545368       -14.8402
  62   2.0000      -0.535084       -14.5604
  63   2.0000      -0.531504       -14.4630
  64   2.0000      -0.516790       -14.0626
  65   2.0000      -0.509473       -13.8635
  66   2.0000      -0.500313       -13.6142
  67   2.0000      -0.495135       -13.4733
  68   2.0000      -0.480496       -13.0750
  69   2.0000      -0.462770       -12.5926
  70   2.0000      -0.458448       -12.4750
  71   2.0000      -0.454284       -12.3617
  72   2.0000      -0.354216        -9.6387
  73   2.0000      -0.343607        -9.3500
  74   2.0000      -0.327120        -8.9014
  75   2.0000      -0.315486        -8.5848
  76   2.0000      -0.313384        -8.5276
  77   0.0000       0.075825         2.0633
  78   0.0000       0.113557         3.0900
  79   0.0000       0.121167         3.2971
  80   0.0000       0.136039         3.7018
  81   0.0000       0.139844         3.8054

MULLIKEN ATOMIC CHARGES
-----------------------
   0 C :   -0.271600
   1 C :    0.025118
   2 O :   -0.347625
   3 C :    0.453357
   4 O :   -0.431335
   5 C :   -0.180648
   6 C :    0.144252
   7 C :   -0.285041
   8 N :   -0.121601
   9 C :    0.200985
  10 S :   -0.439247
  11 N :   -0.196792
  12 C :    0.034893
  13 C :    0.057112
  14 C :   -0.161121
  15 C :   -0.134026
  16 C :   -0.278836
  17 C :    0.311549
  18 O :   -0.359173
  19 C :   -0.272034
  20 H :    0.090322
  21 H :    0.094075
  22 H :    0.102446
  23 H :    0.101796
  24 H :    0.118034
  25 H :    0.126823
  26 H :    0.102482
  27 H :    0.127555
  28 H :    0.196720
  29 H :    0.193597
  30 H :    0.153569
  31 H :    0.153329
  32 H :    0.158886
  33 H :    0.127845
  34 H :    0.239993
  35 H :    0.164336
Sum of atomic charges:   -0.0000000

LOEWDIN ATOMIC CHARGES
----------------------
   0 C :    0.103957
   1 C :   -0.012556
   2 O :    0.307295
   3 C :   -0.414394
   4 O :    0.102494
   5 C :   -0.091065
   6 C :   -0.065466
   7 C :    0.124851
   8 N :    0.404871
   9 C :   -0.459018
  10 S :   -0.035957
  11 N :    0.397909
  12 C :   -0.046501
  13 C :   -0.038835
  14 C :    0.022096
  15 C :    0.040791
  16 C :   -0.002318
  17 C :   -0.192562
  18 O :    0.392959
  19 C :    0.028474
  20 H :   -0.029801
  21 H :   -0.026056
  22 H :   -0.024589
  23 H :   -0.029466
  24 H :   -0.026616
  25 H :   -0.008740
  26 H :   -0.021054
  27 H :   -0.009580
  28 H :   -0.059187
  29 H :   -0.063636
  30 H :   -0.005078
  31 H :   -0.025345
  32 H :   -0.021309
  33 H :   -0.036457
  34 H :   -0.154952
  35 H :   -0.025158

  Mayer bond orders larger than 0.100000
B(  0-C ,  1-C ) :   0.9703 B(  0-C , 20-H ) :   0.9791 B(  0-C , 21-H ) :   0.9759
B(  0-C , 22-H ) :   0.9783 B(  1-C ,  2-O ) :   0.8847 B(  1-C , 23-H ) :   0.9825
B(  1-C , 24-H ) :   0.9726 B(  2-O ,  3-C ) :   1.1576 B(  3-C ,  4-O ) :   1.9764
B(  3-C ,  5-C ) :   1.0567 B(  5-C ,  6-C ) :   1.6479 B(  5-C , 12-C ) :   0.9650
B(  6-C ,  7-C ) :   0.9544 B(  6-C ,  8-N ) :   1.1487 B(  7-C , 25-H ) :   0.9660
B(  7-C , 26-H ) :   0.9914 B(  7-C , 27-H ) :   0.9638 B(  8-N ,  9-C ) :   1.1782
B(  8-N , 28-H ) :   0.9488 B(  9-C , 10-S ) :   1.6108 B(  9-C , 11-N ) :   1.3045
B( 11-N , 12-C ) :   0.9925 B( 11-N , 29-H ) :   0.9520 B( 12-C , 13-C ) :   0.9480
B( 12-C , 30-H ) :   1.0001 B( 13-C , 14-C ) :   1.3757 B( 13-C , 19-C ) :   1.3693
B( 14-C , 15-C ) :   1.3946 B( 14-C , 31-H ) :   0.9650 B( 15-C , 16-C ) :   1.3626
B( 15-C , 32-H ) :   0.9715 B( 16-C , 17-C ) :   1.3315 B( 16-C , 33-H ) :   0.9861
B( 17-C , 18-O ) :   1.1079 B( 17-C , 19-C ) :   1.3792 B( 18-O , 34-H ) :   0.9807
B( 19-C , 35-H ) :   0.9586

MP2 TOTAL ENERGY:    -1274.346150116 Eh
FINAL SINGLE POINT ENERGY     -1274.346150116419

DIPOLE MOMENT
-------------
                                X             Y             Z
Electronic contribution:     10.67287       9.09990      12.14339
Nuclear contribution   :    -12.35698     -10.26374     -12.99141
                        -----------------------------------------
Total Dipole Moment    :     -1.68411      -1.16385      -0.84803
                        -----------------------------------------
Magnitude (a.u.)       :      2.21583
Magnitude (Debye)      :      5.63220

Rotational constants in cm-1:     0.010516     0.008722     0.005715
Rotational constants in MHz :   315.246934   261.473410   171.332959

                             ****ORCA TERMINATED NORMALLY****
TOTAL RUN TIME: 0 days 1 hours 39 minutes 41 seconds 398 msec
