                         Program Version 4.2.0 -  RELEASE  -
|  1> ! ri-mp2 cc-pvtz cc-pvtz/c TightSCF  NoKeepInts
|  2>
|  3> %scf
|  4>   MaxCore 4096
|  5> end
|  6> *xyz  0  1
|  7>     C       15.1312050   13.8903683   15.8805968
|  8>     C       15.9953021   14.5222646   16.9855962
|  9>     O       17.0849946   15.2174322   16.3521248
| 10>     C       16.9898666   16.5735876   16.2415868
| 11>     O       16.1944988   17.0614508   15.4592902
| 12>     C       17.5872115   17.3228760   17.4045493
| 13>     C       17.3813640   18.6524675   17.5946142
| 14>     C       16.5044671   19.5763457   16.7763197
| 15>     N       18.0602515   19.3267783   18.6145648
| 16>     C       19.0967388   18.8006975   19.3388182
| 17>     S       19.9729487   19.7112915   20.4058382
| 18>     N       19.3822283   17.4773660   19.1189415
| 19>     C       18.5312712   16.5542924   18.3471020
| 20>     C       17.7986472   15.6355237   19.3192583
| 21>     C       18.2539262   14.3194544   19.5250691
| 22>     C       17.5874635   13.4636430   20.4180667
| 23>     C       16.4610979   13.9293386   21.1173807
| 24>     C       16.0138387   15.2436636   20.9265341
| 25>     O       14.9286192   15.6978474   21.6018416
| 26>     C       16.6776177   16.0926562   20.0356937
| 27>     H       14.7043631   14.6663548   15.2322931
| 28>     H       14.3051588   13.3166814   16.3176301
| 29>     H       15.7309233   13.2137189   15.2593809
| 30>     H       15.3918338   15.1979410   17.6072833
| 31>     H       16.3875635   13.7211508   17.6241571
| 32>     H       15.4676072   19.2166887   16.7666406
| 33>     H       16.8476297   19.6111646   15.7343359
| 34>     H       16.4928279   20.6050792   17.1550190
| 35>     H       17.8715431   20.3032149   18.7765704
| 36>     H       20.1364572   17.1105328   19.6850253
| 37>     H       19.1919148   15.9369360   17.7217611
| 38>     H       19.1249619   13.9561025   18.9857328
| 39>     H       17.9457689   12.4463839   20.5683637
| 40>     H       15.9440427   13.2724050   21.8094180
| 41>     H       14.6502462   14.9989392   22.2130765
| 42>     H       16.3205994   17.1093610   19.9135252
| 43> *
| 44>
| 45>                          ****END OF INPUT****

CARTESIAN COORDINATES (ANGSTROEM)
---------------------------------
  C     15.131205   13.890368   15.880597
  C     15.995302   14.522265   16.985596
  O     17.084995   15.217432   16.352125
  C     16.989867   16.573588   16.241587
  O     16.194499   17.061451   15.459290
  C     17.587211   17.322876   17.404549
  C     17.381364   18.652468   17.594614
  C     16.504467   19.576346   16.776320
  N     18.060251   19.326778   18.614565
  C     19.096739   18.800697   19.338818
  S     19.972949   19.711292   20.405838
  N     19.382228   17.477366   19.118941
  C     18.531271   16.554292   18.347102
  C     17.798647   15.635524   19.319258
  C     18.253926   14.319454   19.525069
  C     17.587463   13.463643   20.418067
  C     16.461098   13.929339   21.117381
  C     16.013839   15.243664   20.926534
  O     14.928619   15.697847   21.601842
  C     16.677618   16.092656   20.035694
  H     14.704363   14.666355   15.232293
  H     14.305159   13.316681   16.317630
  H     15.730923   13.213719   15.259381
  H     15.391834   15.197941   17.607283
  H     16.387563   13.721151   17.624157
  H     15.467607   19.216689   16.766641
  H     16.847630   19.611165   15.734336
  H     16.492828   20.605079   17.155019
  H     17.871543   20.303215   18.776570
  H     20.136457   17.110533   19.685025
  H     19.191915   15.936936   17.721761
  H     19.124962   13.956103   18.985733
  H     17.945769   12.446384   20.568364
  H     15.944043   13.272405   21.809418
  H     14.650246   14.998939   22.213076
  H     16.320599   17.109361   19.913525

 Total Charge           Charge          ....    0
 Multiplicity           Mult            ....    1
 Number of Electrons    NEL             ....  154
 Basis Dimension        Dim             ....  828

ORBITAL ENERGIES
----------------

  NO   OCC          E(Eh)            E(eV)
   0   2.0000     -91.891242     -2500.4878
   1   2.0000     -20.602515      -560.6229
   2   2.0000     -20.580368      -560.0203
   3   2.0000     -20.548368      -559.1495
   4   2.0000     -15.632025      -425.3690
   5   2.0000     -15.610257      -424.7767
   6   2.0000     -11.393532      -310.0338
   7   2.0000     -11.385903      -309.8262
   8   2.0000     -11.338750      -308.5431
   9   2.0000     -11.320162      -308.0373
  10   2.0000     -11.312542      -307.8299
  11   2.0000     -11.294171      -307.3300
  12   2.0000     -11.264841      -306.5319
  13   2.0000     -11.261491      -306.4408
  14   2.0000     -11.260348      -306.4096
  15   2.0000     -11.254218      -306.2428
  16   2.0000     -11.249194      -306.1061
  17   2.0000     -11.243760      -305.9583
  18   2.0000     -11.243627      -305.9546
  19   2.0000     -11.216689      -305.2216
  20   2.0000      -8.896271      -242.0799
  21   2.0000      -6.577837      -178.9920
  22   2.0000      -6.575842      -178.9377
  23   2.0000      -6.575246      -178.9216
  24   2.0000      -1.448057       -39.4036
  25   2.0000      -1.422185       -38.6996
  26   2.0000      -1.352768       -36.8107
  27   2.0000      -1.343083       -36.5471
  28   2.0000      -1.241453       -33.7817
  29   2.0000      -1.162945       -31.6454
  30   2.0000      -1.122014       -30.5315
  31   2.0000      -1.046837       -28.4859
  32   2.0000      -1.029934       -28.0259
  33   2.0000      -1.021350       -27.7923
  34   2.0000      -0.998195       -27.1623
  35   2.0000      -0.986222       -26.8365
  36   2.0000      -0.926202       -25.2032
  37   2.0000      -0.879413       -23.9300
  38   2.0000      -0.850551       -23.1447
  39   2.0000      -0.843867       -22.9628
  40   2.0000      -0.839321       -22.8391
  41   2.0000      -0.829581       -22.5740
  42   2.0000      -0.757253       -20.6059
  43   2.0000      -0.736190       -20.0328
  44   2.0000      -0.721698       -19.6384
  45   2.0000      -0.701684       -19.0938
  46   2.0000      -0.692396       -18.8410
  47   2.0000      -0.678908       -18.4740
  48   2.0000      -0.670204       -18.2372
  49   2.0000      -0.660167       -17.9641
  50   2.0000      -0.649549       -17.6751
  51   2.0000      -0.648096       -17.6356
  52   2.0000      -0.638574       -17.3765
  53   2.0000      -0.613434       -16.6924
  54   2.0000      -0.606419       -16.5015
  55   2.0000      -0.602307       -16.3896
  56   2.0000      -0.588275       -16.0078
  57   2.0000      -0.583910       -15.8890
  58   2.0000      -0.577128       -15.7044
  59   2.0000      -0.572152       -15.5691
  60   2.0000      -0.565925       -15.3996
  61   2.0000      -0.540334       -14.7032
  62   2.0000      -0.536089       -14.5877
  63   2.0000      -0.530218       -14.4280
  64   2.0000      -0.517513       -14.0822
  65   2.0000      -0.509841       -13.8735
  66   2.0000      -0.505509       -13.7556
  67   2.0000      -0.497589       -13.5401
  68   2.0000      -0.487616       -13.2687
  69   2.0000      -0.464704       -12.6452
  70   2.0000      -0.452643       -12.3170
  71   2.0000      -0.442642       -12.0449
  72   2.0000      -0.358238        -9.7482
  73   2.0000      -0.355187        -9.6651
  74   2.0000      -0.331352        -9.0166
  75   2.0000      -0.327112        -8.9012
  76   2.0000      -0.318432        -8.6650
  77   0.0000       0.068549         1.8653
  78   0.0000       0.099622         2.7109
  79   0.0000       0.121272         3.3000
  80   0.0000       0.127696         3.4748
  81   0.0000       0.131475         3.5776

MULLIKEN ATOMIC CHARGES
-----------------------
   0 C :   -0.261375
   1 C :    0.020180
   2 O :   -0.387207
   3 C :    0.497726
   4 O :   -0.407875
   5 C :   -0.275343
   6 C :    0.159210
   7 C :   -0.269594
   8 N :   -0.123405
   9 C :    0.214736
  10 S :   -0.437099
  11 N :   -0.203795
  12 C :    0.052924
  13 C :    0.071114
  14 C :   -0.203443
  15 C :   -0.129463
  16 C :   -0.274006
  17 C :    0.317321
  18 O :   -0.356227
  19 C :   -0.268936
  20 H :    0.110840
  21 H :    0.084795
  22 H :    0.092652
  23 H :    0.096235
  24 H :    0.116456
  25 H :    0.129181
  26 H :    0.134559
  27 H :    0.095184
  28 H :    0.198384
  29 H :    0.193486
  30 H :    0.150547
  31 H :    0.149963
  32 H :    0.165513
  33 H :    0.133593
  34 H :    0.242309
  35 H :    0.170859
Sum of atomic charges:   -0.0000000

LOEWDIN ATOMIC CHARGES
----------------------
   0 C :    0.105668
   1 C :   -0.020531
   2 O :    0.286568
   3 C :   -0.421624
   4 O :    0.120559
   5 C :   -0.099469
   6 C :   -0.057376
   7 C :    0.131067
   8 N :    0.407479
   9 C :   -0.455969
  10 S :   -0.032561
  11 N :    0.396109
  12 C :   -0.052955
  13 C :   -0.035953
  14 C :    0.013483
  15 C :    0.041594
  16 C :   -0.000991
  17 C :   -0.190293
  18 O :    0.396362
  19 C :    0.032030
  20 H :   -0.024668
  21 H :   -0.030744
  22 H :   -0.027686
  23 H :   -0.031367
  24 H :   -0.026243
  25 H :   -0.005395
  26 H :   -0.002953
  27 H :   -0.023130
  28 H :   -0.057214
  29 H :   -0.065486
  30 H :   -0.007104
  31 H :   -0.029522
  32 H :   -0.019725
  33 H :   -0.034198
  34 H :   -0.152292
  35 H :   -0.025468

  Mayer bond orders larger than 0.100000
B(  0-C ,  1-C ) :   0.9846 B(  0-C , 20-H ) :   0.9750 B(  0-C , 21-H ) :   0.9779
B(  0-C , 22-H ) :   0.9797 B(  1-C ,  2-O ) :   0.8674 B(  1-C , 23-H ) :   0.9683
B(  1-C , 24-H ) :   0.9739 B(  2-O ,  3-C ) :   1.0918 B(  3-C ,  4-O ) :   2.0055
B(  3-C ,  5-C ) :   1.0742 B(  5-C ,  6-C ) :   1.6452 B(  5-C , 12-C ) :   0.9697
B(  6-C ,  7-C ) :   0.9698 B(  6-C ,  8-N ) :   1.1601 B(  7-C , 25-H ) :   0.9617
B(  7-C , 26-H ) :   0.9577 B(  7-C , 27-H ) :   0.9896 B(  8-N ,  9-C ) :   1.1795
B(  8-N , 28-H ) :   0.9477 B(  9-C , 10-S ) :   1.6098 B(  9-C , 11-N ) :   1.3054
B( 11-N , 12-C ) :   0.9657 B( 11-N , 29-H ) :   0.9531 B( 12-C , 13-C ) :   0.9512
B( 12-C , 30-H ) :   1.0012 B( 13-C , 14-C ) :   1.3481 B( 13-C , 19-C ) :   1.3597
B( 14-C , 15-C ) :   1.3883 B( 14-C , 31-H ) :   0.9761 B( 15-C , 16-C ) :   1.3643
B( 15-C , 32-H ) :   0.9688 B( 16-C , 17-C ) :   1.3297 B( 16-C , 33-H ) :   0.9836
B( 17-C , 18-O ) :   1.1144 B( 17-C , 19-C ) :   1.3685 B( 18-O , 34-H ) :   0.9787
B( 19-C , 35-H ) :   0.9582

MP2 TOTAL ENERGY:    -1274.328860925 Eh
FINAL SINGLE POINT ENERGY     -1274.328860924866

DIPOLE MOMENT
-------------
                                X             Y             Z
Electronic contribution:     10.33373       9.70587       6.96801
Nuclear contribution   :    -11.29817     -11.16749      -6.70244
                        -----------------------------------------
Total Dipole Moment    :     -0.96443      -1.46162       0.26557
                        -----------------------------------------
Magnitude (a.u.)       :      1.77116
Magnitude (Debye)      :      4.50193

Rotational constants in cm-1:     0.012040     0.009024     0.006368
Rotational constants in MHz :   360.940236   270.520402   190.912150

                             ****ORCA TERMINATED NORMALLY****
TOTAL RUN TIME: 0 days 1 hours 44 minutes 31 seconds 96 msec
