                         Program Version 5.0.0 -  RELEASE  -
|  1> ! ri-mp2 cc-pvtz cc-pvtz/c TightSCF NoKeepInts
|  2>
|  3> %scf
|  4>   MaxCore 4096
|  5> end
|  6> *xyz  0  1
|  7>     C       15.0328445   15.2812097   17.5916998
|  8>     C       15.6681227   15.3218467   16.1913268
|  9>     O       17.0392199   14.8838496   16.2563316
| 10>     C       18.1481084   15.6629008   16.4828863
| 11>     O       19.2407969   15.1281658   16.4470697
| 12>     C       17.9454662   16.8499095   17.3669554
| 13>     C       17.4402518   18.0194520   16.9098982
| 14>     C       17.0254688   18.3462194   15.4911375
| 15>     N       17.3790521   19.1300312   17.7542279
| 16>     C       17.9373544   19.1908478   19.0039893
| 17>     S       17.8887835   20.5730045   19.9102525
| 18>     N       18.5459676   18.0491048   19.4629372
| 19>     C       18.5337835   16.7398947   18.7791303
| 20>     C       17.8404311   15.6666749   19.6186757
| 21>     C       18.2799482   14.3314487   19.5460144
| 22>     C       17.6558787   13.3259028   20.3024345
| 23>     C       16.5819412   13.6555364   21.1456851
| 24>     C       16.1413991   14.9829453   21.2260753
| 25>     O       15.0986982   15.3036216   22.0326017
| 26>     C       16.7644900   15.9825538   20.4719492
| 27>     H       15.3353690   14.3756027   18.1333959
| 28>     H       13.9387952   15.2843496   17.5164773
| 29>     H       15.3260696   16.1574378   18.1790422
| 30>     H       15.1231405   14.6042747   15.5641628
| 31>     H       15.5493088   16.3023509   15.7263916
| 32>     H       17.2665756   17.5396119   14.7880318
| 33>     H       17.5532215   19.2389117   15.1308824
| 34>     H       15.9489919   18.5476092   15.4276897
| 35>     H       16.9597358   19.9861792   17.4268891
| 36>     H       18.9426415   18.1199474   20.3915515
| 37>     H       19.5827850   16.4280051   18.6655469
| 38>     H       19.1060677   14.0687456   18.8883741
| 39>     H       18.0044875   12.2971424   20.2290835
| 40>     H       16.0956942   12.8812985   21.7298394
| 41>     H       14.8309827   14.4957317   22.4960685
| 42>     H       16.3951271   16.9996813   20.5492953
| 43> *
| 44>
| 45>                          ****END OF INPUT****

CARTESIAN COORDINATES (ANGSTROEM)
---------------------------------
  C     15.032844   15.281210   17.591700
  C     15.668123   15.321847   16.191327
  O     17.039220   14.883850   16.256332
  C     18.148108   15.662901   16.482886
  O     19.240797   15.128166   16.447070
  C     17.945466   16.849909   17.366955
  C     17.440252   18.019452   16.909898
  C     17.025469   18.346219   15.491137
  N     17.379052   19.130031   17.754228
  C     17.937354   19.190848   19.003989
  S     17.888783   20.573004   19.910252
  N     18.545968   18.049105   19.462937
  C     18.533783   16.739895   18.779130
  C     17.840431   15.666675   19.618676
  C     18.279948   14.331449   19.546014
  C     17.655879   13.325903   20.302435
  C     16.581941   13.655536   21.145685
  C     16.141399   14.982945   21.226075
  O     15.098698   15.303622   22.032602
  C     16.764490   15.982554   20.471949
  H     15.335369   14.375603   18.133396
  H     13.938795   15.284350   17.516477
  H     15.326070   16.157438   18.179042
  H     15.123140   14.604275   15.564163
  H     15.549309   16.302351   15.726392
  H     17.266576   17.539612   14.788032
  H     17.553221   19.238912   15.130882
  H     15.948992   18.547609   15.427690
  H     16.959736   19.986179   17.426889
  H     18.942642   18.119947   20.391551
  H     19.582785   16.428005   18.665547
  H     19.106068   14.068746   18.888374
  H     18.004487   12.297142   20.229084
  H     16.095694   12.881298   21.729839
  H     14.830983   14.495732   22.496068
  H     16.395127   16.999681   20.549295

 Total Charge           Charge          ....    0
 Multiplicity           Mult            ....    1
 Number of Electrons    NEL             ....  154
 Basis Dimension        Dim             ....  828

ORBITAL ENERGIES
----------------

  NO   OCC          E(Eh)            E(eV)
   0   2.0000     -91.889662     -2500.4448
   1   2.0000     -20.601651      -560.5994
   2   2.0000     -20.596978      -560.4723
   3   2.0000     -20.553267      -559.2828
   4   2.0000     -15.626092      -425.2076
   5   2.0000     -15.611350      -424.8064
   6   2.0000     -11.400280      -310.2174
   7   2.0000     -11.386362      -309.8387
   8   2.0000     -11.328706      -308.2698
   9   2.0000     -11.316078      -307.9261
  10   2.0000     -11.313473      -307.8553
  11   2.0000     -11.306193      -307.6572
  12   2.0000     -11.272784      -306.7480
  13   2.0000     -11.268274      -306.6253
  14   2.0000     -11.262027      -306.4553
  15   2.0000     -11.253981      -306.2364
  16   2.0000     -11.243191      -305.9428
  17   2.0000     -11.238903      -305.8261
  18   2.0000     -11.235703      -305.7390
  19   2.0000     -11.226683      -305.4936
  20   2.0000      -8.894783      -242.0393
  21   2.0000      -6.576377      -178.9523
  22   2.0000      -6.574344      -178.8970
  23   2.0000      -6.573773      -178.8815
  24   2.0000      -1.450303       -39.4647
  25   2.0000      -1.416803       -38.5532
  26   2.0000      -1.360749       -37.0279
  27   2.0000      -1.340259       -36.4703
  28   2.0000      -1.239959       -33.7410
  29   2.0000      -1.158411       -31.5220
  30   2.0000      -1.125151       -30.6169
  31   2.0000      -1.047832       -28.5130
  32   2.0000      -1.038730       -28.2653
  33   2.0000      -1.016940       -27.6723
  34   2.0000      -1.005437       -27.3593
  35   2.0000      -0.989633       -26.9293
  36   2.0000      -0.927640       -25.2424
  37   2.0000      -0.892528       -24.2869
  38   2.0000      -0.854828       -23.2610
  39   2.0000      -0.840321       -22.8663
  40   2.0000      -0.833735       -22.6871
  41   2.0000      -0.831653       -22.6304
  42   2.0000      -0.753620       -20.5071
  43   2.0000      -0.739973       -20.1357
  44   2.0000      -0.730174       -19.8691
  45   2.0000      -0.695088       -18.9143
  46   2.0000      -0.687903       -18.7188
  47   2.0000      -0.681241       -18.5375
  48   2.0000      -0.675752       -18.3882
  49   2.0000      -0.664209       -18.0740
  50   2.0000      -0.652442       -17.7539
  51   2.0000      -0.639776       -17.4092
  52   2.0000      -0.638608       -17.3774
  53   2.0000      -0.619748       -16.8642
  54   2.0000      -0.611862       -16.6496
  55   2.0000      -0.605832       -16.4855
  56   2.0000      -0.601278       -16.3616
  57   2.0000      -0.590798       -16.0764
  58   2.0000      -0.579211       -15.7611
  59   2.0000      -0.572060       -15.5666
  60   2.0000      -0.565358       -15.3842
  61   2.0000      -0.557447       -15.1689
  62   2.0000      -0.537959       -14.6386
  63   2.0000      -0.531833       -14.4719
  64   2.0000      -0.516909       -14.0658
  65   2.0000      -0.512221       -13.9382
  66   2.0000      -0.504822       -13.7369
  67   2.0000      -0.501031       -13.6338
  68   2.0000      -0.484339       -13.1795
  69   2.0000      -0.465701       -12.6724
  70   2.0000      -0.454774       -12.3750
  71   2.0000      -0.450952       -12.2710
  72   2.0000      -0.357751        -9.7349
  73   2.0000      -0.347550        -9.4573
  74   2.0000      -0.329409        -8.9637
  75   2.0000      -0.322188        -8.7672
  76   2.0000      -0.318432        -8.6650
  77   0.0000       0.088858         2.4180
  78   0.0000       0.105068         2.8590
  79   0.0000       0.110639         3.0106
  80   0.0000       0.129113         3.5133
  81   0.0000       0.131221         3.5707

MULLIKEN ATOMIC CHARGES
-----------------------
   0 C :   -0.306106
   1 C :    0.003221
   2 O :   -0.312427
   3 C :    0.401915
   4 O :   -0.377944
   5 C :   -0.196723
   6 C :    0.140577
   7 C :   -0.329763
   8 N :   -0.138575
   9 C :    0.208991
  10 S :   -0.442793
  11 N :   -0.233663
  12 C :    0.099914
  13 C :    0.026306
  14 C :   -0.209049
  15 C :   -0.136399
  16 C :   -0.280423
  17 C :    0.327053
  18 O :   -0.358554
  19 C :   -0.282028
  20 H :    0.122758
  21 H :    0.110587
  22 H :    0.103788
  23 H :    0.127990
  24 H :    0.088948
  25 H :    0.120265
  26 H :    0.142116
  27 H :    0.121358
  28 H :    0.195187
  29 H :    0.204308
  30 H :    0.168755
  31 H :    0.172638
  32 H :    0.163904
  33 H :    0.131695
  34 H :    0.241005
  35 H :    0.181171
Sum of atomic charges:   -0.0000000

LOEWDIN ATOMIC CHARGES
----------------------
   0 C :    0.104960
   1 C :   -0.024284
   2 O :    0.311952
   3 C :   -0.417588
   4 O :    0.128665
   5 C :   -0.075360
   6 C :   -0.107824
   7 C :    0.120024
   8 N :    0.400955
   9 C :   -0.457155
  10 S :   -0.039132
  11 N :    0.398541
  12 C :   -0.040920
  13 C :   -0.040679
  14 C :    0.022317
  15 C :    0.043461
  16 C :   -0.002072
  17 C :   -0.193090
  18 O :    0.395424
  19 C :    0.028051
  20 H :   -0.018059
  21 H :   -0.026549
  22 H :   -0.034830
  23 H :   -0.021180
  24 H :   -0.039539
  25 H :   -0.010580
  26 H :   -0.008320
  27 H :   -0.017953
  28 H :   -0.058359
  29 H :   -0.063442
  30 H :   -0.001623
  31 H :   -0.022096
  32 H :   -0.018711
  33 H :   -0.035183
  34 H :   -0.153628
  35 H :   -0.026193

  Mayer bond orders larger than 0.100000
B(  0-C ,  1-C ) :   0.9581 B(  0-C , 20-H ) :   0.9694 B(  0-C , 21-H ) :   0.9770
B(  0-C , 22-H ) :   0.9720 B(  1-C ,  2-O ) :   0.9126 B(  1-C , 23-H ) :   0.9867
B(  1-C , 24-H ) :   0.9746 B(  2-O ,  3-C ) :   1.1471 B(  3-C ,  4-O ) :   2.0825
B(  3-C ,  5-C ) :   0.9209 B(  5-C ,  6-C ) :   1.7051 B(  5-C , 12-C ) :   0.9446
B(  6-C ,  7-C ) :   0.9411 B(  6-C ,  8-N ) :   1.1051 B(  7-C , 25-H ) :   0.9830
B(  7-C , 26-H ) :   0.9685 B(  7-C , 27-H ) :   0.9678 B(  8-N ,  9-C ) :   1.2005
B(  8-N , 28-H ) :   0.9536 B(  9-C , 10-S ) :   1.6052 B(  9-C , 11-N ) :   1.2873
B( 11-N , 12-C ) :   0.9835 B( 11-N , 29-H ) :   0.9462 B( 12-C , 13-C ) :   0.9564
B( 12-C , 30-H ) :   0.9943 B( 13-C , 14-C ) :   1.3872 B( 13-C , 19-C ) :   1.3342
B( 14-C , 15-C ) :   1.4049 B( 14-C , 31-H ) :   0.9596 B( 15-C , 16-C ) :   1.3551
B( 15-C , 32-H ) :   0.9699 B( 16-C , 17-C ) :   1.3332 B( 16-C , 33-H ) :   0.9851
B( 17-C , 18-O ) :   1.1077 B( 17-C , 19-C ) :   1.3639 B( 18-O , 34-H ) :   0.9796
B( 19-C , 35-H ) :   0.9566

MP2 TOTAL ENERGY:    -1274.323824456 Eh
FINAL SINGLE POINT ENERGY     -1274.323824455674

DIPOLE MOMENT
-------------
                                X             Y             Z
Electronic contribution:      8.92283       6.56206       6.32630
Nuclear contribution   :    -10.37859      -7.63377      -7.17204
                        -----------------------------------------
Total Dipole Moment    :     -1.45575      -1.07170      -0.84574
                        -----------------------------------------
Magnitude (a.u.)       :      1.99576
Magnitude (Debye)      :      5.07281

Rotational constants in cm-1:     0.012113     0.009476     0.006777
Rotational constants in MHz :   363.124243   284.084434   203.179942

                             ****ORCA TERMINATED NORMALLY****
TOTAL RUN TIME: 0 days 1 hours 59 minutes 47 seconds 111 msec
