                         Program Version 4.2.0 -  RELEASE  -
|  1> ! ri-mp2 cc-pvtz cc-pvtz/c TightSCF  NoKeepInts
|  2>
|  3> %scf
|  4>   MaxCore 4096
|  5> end
|  6> *xyz  0  1
|  7>     C       14.9502105   15.2276273   17.1138065
|  8>     C       15.7956643   14.7970525   15.9004689
|  9>     O       16.7784279   15.8081890   15.6070583
| 10>     C       17.9131946   15.8559475   16.3635222
| 11>     O       18.5922064   14.8547583   16.5153640
| 12>     C       17.9080871   16.9570887   17.3843831
| 13>     C       17.3044789   18.1588353   17.1978733
| 14>     C       16.5525547   18.6360707   15.9722636
| 15>     N       17.4342794   19.1584223   18.1674255
| 16>     C       18.2966194   19.1049389   19.2311189
| 17>     S       18.5106033   20.3931320   20.2458535
| 18>     N       18.9726200   17.9240900   19.4104853
| 19>     C       18.6949047   16.6775396   18.6709615
| 20>     C       17.9659491   15.6724054   19.5611262
| 21>     C       18.3905845   14.3317496   19.6124584
| 22>     C       17.7211049   13.3965075   20.4190415
| 23>     C       16.6156374   13.8036126   21.1846180
| 24>     C       16.1879221   15.1370598   21.1373942
| 25>     O       15.1147393   15.5315993   21.8677411
| 26>     C       16.8560519   16.0656362   20.3330931
| 27>     H       15.5582898   15.2515808   18.0241363
| 28>     H       14.1327185   14.5155047   17.2792379
| 29>     H       14.5110695   16.2197997   16.9576905
| 30>     H       16.2735126   13.8257613   16.0899951
| 31>     H       15.1332983   14.6820114   15.0329395
| 32>     H       15.5528756   18.1882310   15.9280985
| 33>     H       17.0849913   18.3592759   15.0536573
| 34>     H       16.4302078   19.7258847   15.9524223
| 35>     H       16.9487044   20.0334177   18.0499944
| 36>     H       19.5834181   17.9004964   20.2170166
| 37>     H       19.6626458   16.2401299   18.3852344
| 38>     H       19.2364088   14.0095983   19.0092573
| 39>     H       18.0579628   12.3616400   20.4436815
| 40>     H       16.0943908   13.0840561   21.8072023
| 41>     H       14.8264583   14.7710223   22.3944119
| 42>     H       16.5042074   17.0913275   20.3129673
| 43> *
| 44>
| 45>                          ****END OF INPUT****

CARTESIAN COORDINATES (ANGSTROEM)
---------------------------------
  C     14.950211   15.227627   17.113806
  C     15.795664   14.797052   15.900469
  O     16.778428   15.808189   15.607058
  C     17.913195   15.855947   16.363522
  O     18.592206   14.854758   16.515364
  C     17.908087   16.957089   17.384383
  C     17.304479   18.158835   17.197873
  C     16.552555   18.636071   15.972264
  N     17.434279   19.158422   18.167426
  C     18.296619   19.104939   19.231119
  S     18.510603   20.393132   20.245853
  N     18.972620   17.924090   19.410485
  C     18.694905   16.677540   18.670962
  C     17.965949   15.672405   19.561126
  C     18.390584   14.331750   19.612458
  C     17.721105   13.396508   20.419041
  C     16.615637   13.803613   21.184618
  C     16.187922   15.137060   21.137394
  O     15.114739   15.531599   21.867741
  C     16.856052   16.065636   20.333093
  H     15.558290   15.251581   18.024136
  H     14.132718   14.515505   17.279238
  H     14.511069   16.219800   16.957690
  H     16.273513   13.825761   16.089995
  H     15.133298   14.682011   15.032939
  H     15.552876   18.188231   15.928098
  H     17.084991   18.359276   15.053657
  H     16.430208   19.725885   15.952422
  H     16.948704   20.033418   18.049994
  H     19.583418   17.900496   20.217017
  H     19.662646   16.240130   18.385234
  H     19.236409   14.009598   19.009257
  H     18.057963   12.361640   20.443682
  H     16.094391   13.084056   21.807202
  H     14.826458   14.771022   22.394412
  H     16.504207   17.091327   20.312967

 Total Charge           Charge          ....    0
 Multiplicity           Mult            ....    1
 Number of Electrons    NEL             ....  154
 Basis Dimension        Dim             ....  828

ORBITAL ENERGIES
----------------

  NO   OCC          E(Eh)            E(eV)
   0   2.0000     -91.890109     -2500.4570
   1   2.0000     -20.595131      -560.4220
   2   2.0000     -20.585704      -560.1655
   3   2.0000     -20.553590      -559.2916
   4   2.0000     -15.630173      -425.3186
   5   2.0000     -15.608724      -424.7350
   6   2.0000     -11.395477      -310.0867
   7   2.0000     -11.385080      -309.8038
   8   2.0000     -11.336289      -308.4761
   9   2.0000     -11.311506      -307.8017
  10   2.0000     -11.308972      -307.7328
  11   2.0000     -11.300472      -307.5015
  12   2.0000     -11.261503      -306.4411
  13   2.0000     -11.260663      -306.4182
  14   2.0000     -11.257836      -306.3413
  15   2.0000     -11.251845      -306.1783
  16   2.0000     -11.241362      -305.8930
  17   2.0000     -11.237101      -305.7771
  18   2.0000     -11.233884      -305.6895
  19   2.0000     -11.226857      -305.4983
  20   2.0000      -8.895160      -242.0496
  21   2.0000      -6.576734      -178.9620
  22   2.0000      -6.574729      -178.9075
  23   2.0000      -6.574139      -178.8914
  24   2.0000      -1.451744       -39.5040
  25   2.0000      -1.414962       -38.5031
  26   2.0000      -1.355896       -36.8958
  27   2.0000      -1.341131       -36.4940
  28   2.0000      -1.238779       -33.7089
  29   2.0000      -1.155676       -31.4475
  30   2.0000      -1.121406       -30.5150
  31   2.0000      -1.044030       -28.4095
  32   2.0000      -1.032930       -28.1075
  33   2.0000      -1.013557       -27.5803
  34   2.0000      -1.000200       -27.2168
  35   2.0000      -0.986646       -26.8480
  36   2.0000      -0.924043       -25.1445
  37   2.0000      -0.891801       -24.2671
  38   2.0000      -0.849006       -23.1026
  39   2.0000      -0.838848       -22.8262
  40   2.0000      -0.831761       -22.6334
  41   2.0000      -0.818071       -22.2608
  42   2.0000      -0.753924       -20.5153
  43   2.0000      -0.735333       -20.0094
  44   2.0000      -0.727893       -19.8070
  45   2.0000      -0.693992       -18.8845
  46   2.0000      -0.686771       -18.6880
  47   2.0000      -0.676700       -18.4139
  48   2.0000      -0.674682       -18.3590
  49   2.0000      -0.660707       -17.9788
  50   2.0000      -0.653527       -17.7834
  51   2.0000      -0.646105       -17.5814
  52   2.0000      -0.637502       -17.3473
  53   2.0000      -0.608125       -16.5479
  54   2.0000      -0.602645       -16.3988
  55   2.0000      -0.599711       -16.3190
  56   2.0000      -0.596999       -16.2452
  57   2.0000      -0.583631       -15.8814
  58   2.0000      -0.575042       -15.6477
  59   2.0000      -0.562693       -15.3117
  60   2.0000      -0.561919       -15.2906
  61   2.0000      -0.551240       -15.0000
  62   2.0000      -0.545251       -14.8370
  63   2.0000      -0.523862       -14.2550
  64   2.0000      -0.520044       -14.1511
  65   2.0000      -0.512805       -13.9541
  66   2.0000      -0.499707       -13.5977
  67   2.0000      -0.494346       -13.4518
  68   2.0000      -0.481254       -13.0956
  69   2.0000      -0.463805       -12.6208
  70   2.0000      -0.458796       -12.4845
  71   2.0000      -0.450585       -12.2610
  72   2.0000      -0.355966        -9.6863
  73   2.0000      -0.346963        -9.4413
  74   2.0000      -0.329233        -8.9589
  75   2.0000      -0.319619        -8.6973
  76   2.0000      -0.316870        -8.6225
  77   0.0000       0.069514         1.8916
  78   0.0000       0.107462         2.9242
  79   0.0000       0.120076         3.2674
  80   0.0000       0.133088         3.6215
  81   0.0000       0.135983         3.7003

MULLIKEN ATOMIC CHARGES
-----------------------
   0 C :   -0.318496
   1 C :    0.039120
   2 O :   -0.377135
   3 C :    0.476853
   4 O :   -0.406497
   5 C :   -0.211688
   6 C :    0.152594
   7 C :   -0.284412
   8 N :   -0.123866
   9 C :    0.189534
  10 S :   -0.435436
  11 N :   -0.201176
  12 C :    0.051755
  13 C :    0.034460
  14 C :   -0.175332
  15 C :   -0.140107
  16 C :   -0.274158
  17 C :    0.317143
  18 O :   -0.359770
  19 C :   -0.274795
  20 H :    0.122104
  21 H :    0.112911
  22 H :    0.092817
  23 H :    0.110831
  24 H :    0.108035
  25 H :    0.122450
  26 H :    0.128014
  27 H :    0.105561
  28 H :    0.197552
  29 H :    0.194257
  30 H :    0.158496
  31 H :    0.165013
  32 H :    0.161647
  33 H :    0.131002
  34 H :    0.240407
  35 H :    0.170308
Sum of atomic charges:   -0.0000000

LOEWDIN ATOMIC CHARGES
----------------------
   0 C :    0.105713
   1 C :   -0.017243
   2 O :    0.288016
   3 C :   -0.415323
   4 O :    0.123584
   5 C :   -0.093652
   6 C :   -0.068723
   7 C :    0.126302
   8 N :    0.405645
   9 C :   -0.459766
  10 S :   -0.034084
  11 N :    0.397247
  12 C :   -0.045036
  13 C :   -0.041838
  14 C :    0.020294
  15 C :    0.041227
  16 C :   -0.002259
  17 C :   -0.194184
  18 O :    0.394587
  19 C :    0.028322
  20 H :   -0.027517
  21 H :   -0.023913
  22 H :   -0.032284
  23 H :   -0.026178
  24 H :   -0.024265
  25 H :   -0.013493
  26 H :   -0.006864
  27 H :   -0.019625
  28 H :   -0.058642
  29 H :   -0.064000
  30 H :   -0.003271
  31 H :   -0.023869
  32 H :   -0.020151
  33 H :   -0.035650
  34 H :   -0.154188
  35 H :   -0.024921

  Mayer bond orders larger than 0.100000
B(  0-C ,  1-C ) :   0.9626 B(  0-C , 20-H ) :   0.9668 B(  0-C , 21-H ) :   0.9794
B(  0-C , 22-H ) :   0.9773 B(  1-C ,  2-O ) :   0.8911 B(  1-C , 23-H ) :   0.9773
B(  1-C , 24-H ) :   0.9846 B(  2-O ,  3-C ) :   1.0965 B(  3-C ,  4-O ) :   2.0116
B(  3-C ,  5-C ) :   1.0327 B(  5-C ,  6-C ) :   1.6594 B(  5-C , 12-C ) :   0.9578
B(  6-C ,  7-C ) :   0.9549 B(  6-C ,  8-N ) :   1.1375 B(  7-C , 25-H ) :   0.9638
B(  7-C , 26-H ) :   0.9678 B(  7-C , 27-H ) :   0.9892 B(  8-N ,  9-C ) :   1.1802
B(  8-N , 28-H ) :   0.9493 B(  9-C , 10-S ) :   1.6162 B(  9-C , 11-N ) :   1.2986
B( 11-N , 12-C ) :   0.9857 B( 11-N , 29-H ) :   0.9520 B( 12-C , 13-C ) :   0.9478
B( 12-C , 30-H ) :   0.9984 B( 13-C , 14-C ) :   1.3846 B( 13-C , 19-C ) :   1.3544
B( 14-C , 15-C ) :   1.3968 B( 14-C , 31-H ) :   0.9597 B( 15-C , 16-C ) :   1.3627
B( 15-C , 32-H ) :   0.9709 B( 16-C , 17-C ) :   1.3308 B( 16-C , 33-H ) :   0.9847
B( 17-C , 18-O ) :   1.1100 B( 17-C , 19-C ) :   1.3738 B( 18-O , 34-H ) :   0.9802
B( 19-C , 35-H ) :   0.9602

MP2 TOTAL ENERGY:    -1274.329691718 Eh
FINAL SINGLE POINT ENERGY     -1274.329691718195

DIPOLE MOMENT
-------------
                                X             Y             Z
Electronic contribution:     10.14146       7.94810       6.55000
Nuclear contribution   :    -11.46787      -9.20608      -7.27770
                        -----------------------------------------
Total Dipole Moment    :     -1.32641      -1.25798      -0.72770
                        -----------------------------------------
Magnitude (a.u.)       :      1.96760
Magnitude (Debye)      :      5.00124

Rotational constants in cm-1:     0.011385     0.009801     0.006756
Rotational constants in MHz :   341.312807   293.829348   202.539201

                             ****ORCA TERMINATED NORMALLY****
TOTAL RUN TIME: 0 days 1 hours 54 minutes 42 seconds 726 msec
