                         Program Version 4.2.0 -  RELEASE  -
|  1> ! ri-mp2 cc-pvtz cc-pvtz/c TightSCF  NoKeepInts
|  2>
|  3> %scf
|  4>   MaxCore 4096
|  5> end
|  6> *xyz  0  1
|  7>     C       15.2983458   14.5311034   16.9351030
|  8>     C       16.7396274   14.1544536   16.5320839
|  9>     O       17.2807708   15.1467089   15.6423516
| 10>     C       17.2862430   16.5089572   15.8174988
| 11>     O       17.1240798   17.2006480   14.8297735
| 12>     C       17.5638316   17.1086220   17.1806638
| 13>     C       17.2837481   18.4179832   17.4254228
| 14>     C       16.4850480   19.3718638   16.5627947
| 15>     N       17.8298605   19.0509200   18.5484230
| 16>     C       18.9087986   18.5632009   19.2401375
| 17>     S       19.7338576   19.4720219   20.3488057
| 18>     N       19.2839405   17.2788264   18.9331755
| 19>     C       18.4024626   16.3373155   18.2206392
| 20>     C       17.5964363   15.5932293   19.2889651
| 21>     C       18.1024602   14.3925071   19.8252769
| 22>     C       17.3966948   13.6941939   20.8190641
| 23>     C       16.1791250   14.2065720   21.2962623
| 24>     C       15.6832829   15.4136596   20.7870805
| 25>     O       14.5125534   15.9180363   21.2509814
| 26>     C       16.3870277   16.1053405   19.7965761
| 27>     H       15.2461062   15.5095409   17.4228054
| 28>     H       14.8900264   13.7861852   17.6290517
| 29>     H       14.6512056   14.5605822   16.0494195
| 30>     H       17.3738903   14.0066953   17.4048708
| 31>     H       16.7142622   13.1916812   16.0053237
| 32>     H       15.5972158   18.8770558   16.1492817
| 33>     H       17.0894679   19.7193069   15.7146553
| 34>     H       16.1382346   20.2532642   17.1147842
| 35>     H       17.5794035   20.0052701   18.7530164
| 36>     H       20.0775863   16.9351578   19.4579489
| 37>     H       19.0364706   15.6172460   17.6843607
| 38>     H       19.0500571   13.9970552   19.4687495
| 39>     H       17.7968339   12.7651262   21.2222073
| 40>     H       15.6311793   13.6727266   22.0660489
| 41>     H       14.2140874   15.3456229   21.9741787
| 42>     H       15.9827782   17.0433200   19.4362181
| 43> *
| 44>
| 45>                          ****END OF INPUT****

CARTESIAN COORDINATES (ANGSTROEM)
---------------------------------
  C     15.298346   14.531103   16.935103
  C     16.739627   14.154454   16.532084
  O     17.280771   15.146709   15.642352
  C     17.286243   16.508957   15.817499
  O     17.124080   17.200648   14.829773
  C     17.563832   17.108622   17.180664
  C     17.283748   18.417983   17.425423
  C     16.485048   19.371864   16.562795
  N     17.829860   19.050920   18.548423
  C     18.908799   18.563201   19.240137
  S     19.733858   19.472022   20.348806
  N     19.283940   17.278826   18.933176
  C     18.402463   16.337315   18.220639
  C     17.596436   15.593229   19.288965
  C     18.102460   14.392507   19.825277
  C     17.396695   13.694194   20.819064
  C     16.179125   14.206572   21.296262
  C     15.683283   15.413660   20.787080
  O     14.512553   15.918036   21.250981
  C     16.387028   16.105341   19.796576
  H     15.246106   15.509541   17.422805
  H     14.890026   13.786185   17.629052
  H     14.651206   14.560582   16.049419
  H     17.373890   14.006695   17.404871
  H     16.714262   13.191681   16.005324
  H     15.597216   18.877056   16.149282
  H     17.089468   19.719307   15.714655
  H     16.138235   20.253264   17.114784
  H     17.579403   20.005270   18.753016
  H     20.077586   16.935158   19.457949
  H     19.036471   15.617246   17.684361
  H     19.050057   13.997055   19.468750
  H     17.796834   12.765126   21.222207
  H     15.631179   13.672727   22.066049
  H     14.214087   15.345623   21.974179
  H     15.982778   17.043320   19.436218

 Total Charge           Charge          ....    0
 Multiplicity           Mult            ....    1
 Number of Electrons    NEL             ....  154
 Basis Dimension        Dim             ....  828

ORBITAL ENERGIES
----------------

  NO   OCC          E(Eh)            E(eV)
   0   2.0000     -91.892778     -2500.5296
   1   2.0000     -20.604799      -560.6851
   2   2.0000     -20.590501      -560.2960
   3   2.0000     -20.538913      -558.8922
   4   2.0000     -15.632698      -425.3873
   5   2.0000     -15.611771      -424.8179
   6   2.0000     -11.394648      -310.0641
   7   2.0000     -11.386570      -309.8443
   8   2.0000     -11.337908      -308.5202
   9   2.0000     -11.322330      -308.0963
  10   2.0000     -11.320159      -308.0372
  11   2.0000     -11.300750      -307.5090
  12   2.0000     -11.270502      -306.6859
  13   2.0000     -11.264636      -306.5263
  14   2.0000     -11.262945      -306.4803
  15   2.0000     -11.253344      -306.2191
  16   2.0000     -11.250490      -306.1414
  17   2.0000     -11.247587      -306.0624
  18   2.0000     -11.246110      -306.0222
  19   2.0000     -11.229379      -305.5669
  20   2.0000      -8.897719      -242.1192
  21   2.0000      -6.579267      -179.0310
  22   2.0000      -6.577294      -178.9773
  23   2.0000      -6.576684      -178.9607
  24   2.0000      -1.441109       -39.2146
  25   2.0000      -1.424350       -38.7585
  26   2.0000      -1.350709       -36.7547
  27   2.0000      -1.344791       -36.5936
  28   2.0000      -1.243335       -33.8329
  29   2.0000      -1.165311       -31.7097
  30   2.0000      -1.122000       -30.5312
  31   2.0000      -1.049001       -28.5448
  32   2.0000      -1.032957       -28.1082
  33   2.0000      -1.024528       -27.8788
  34   2.0000      -1.002020       -27.2664
  35   2.0000      -0.987616       -26.8744
  36   2.0000      -0.928473       -25.2650
  37   2.0000      -0.896896       -24.4058
  38   2.0000      -0.851354       -23.1665
  39   2.0000      -0.850655       -23.1475
  40   2.0000      -0.842144       -22.9159
  41   2.0000      -0.827063       -22.5055
  42   2.0000      -0.754173       -20.5221
  43   2.0000      -0.738709       -20.1013
  44   2.0000      -0.714717       -19.4484
  45   2.0000      -0.704598       -19.1731
  46   2.0000      -0.695875       -18.9357
  47   2.0000      -0.678121       -18.4526
  48   2.0000      -0.672273       -18.2935
  49   2.0000      -0.661428       -17.9984
  50   2.0000      -0.654099       -17.7990
  51   2.0000      -0.652561       -17.7571
  52   2.0000      -0.637271       -17.3410
  53   2.0000      -0.623637       -16.9700
  54   2.0000      -0.616150       -16.7663
  55   2.0000      -0.606635       -16.5074
  56   2.0000      -0.602036       -16.3822
  57   2.0000      -0.585225       -15.9248
  58   2.0000      -0.574618       -15.6362
  59   2.0000      -0.566880       -15.4256
  60   2.0000      -0.552829       -15.0432
  61   2.0000      -0.543768       -14.7967
  62   2.0000      -0.538922       -14.6648
  63   2.0000      -0.538725       -14.6594
  64   2.0000      -0.533995       -14.5307
  65   2.0000      -0.517793       -14.0899
  66   2.0000      -0.510872       -13.9015
  67   2.0000      -0.496094       -13.4994
  68   2.0000      -0.483602       -13.1595
  69   2.0000      -0.465441       -12.6653
  70   2.0000      -0.448614       -12.2074
  71   2.0000      -0.442544       -12.0422
  72   2.0000      -0.363797        -9.8994
  73   2.0000      -0.357246        -9.7212
  74   2.0000      -0.333447        -9.0736
  75   2.0000      -0.328284        -8.9331
  76   2.0000      -0.318661        -8.6712
  77   0.0000       0.071602         1.9484
  78   0.0000       0.103075         2.8048
  79   0.0000       0.117270         3.1911
  80   0.0000       0.122126         3.3232
  81   0.0000       0.129076         3.5123

MULLIKEN ATOMIC CHARGES
-----------------------
   0 C :   -0.311255
   1 C :    0.025762
   2 O :   -0.329198
   3 C :    0.451509
   4 O :   -0.386937
   5 C :   -0.238434
   6 C :    0.117307
   7 C :   -0.272418
   8 N :   -0.121329
   9 C :    0.214725
  10 S :   -0.433126
  11 N :   -0.201154
  12 C :    0.034016
  13 C :    0.075392
  14 C :   -0.227198
  15 C :   -0.127723
  16 C :   -0.277074
  17 C :    0.327130
  18 O :   -0.357181
  19 C :   -0.278635
  20 H :    0.098534
  21 H :    0.106225
  22 H :    0.122226
  23 H :    0.081705
  24 H :    0.125268
  25 H :    0.123997
  26 H :    0.144279
  27 H :    0.093215
  28 H :    0.199638
  29 H :    0.188494
  30 H :    0.161577
  31 H :    0.154971
  32 H :    0.162980
  33 H :    0.133302
  34 H :    0.243160
  35 H :    0.176251
Sum of atomic charges:   -0.0000000

LOEWDIN ATOMIC CHARGES
----------------------
   0 C :    0.107424
   1 C :   -0.023227
   2 O :    0.298928
   3 C :   -0.422087
   4 O :    0.118382
   5 C :   -0.096856
   6 C :   -0.060308
   7 C :    0.128580
   8 N :    0.409416
   9 C :   -0.453354
  10 S :   -0.028489
  11 N :    0.395846
  12 C :   -0.054120
  13 C :   -0.037491
  14 C :    0.005329
  15 C :    0.043100
  16 C :   -0.000266
  17 C :   -0.187712
  18 O :    0.396787
  19 C :    0.032990
  20 H :   -0.034996
  21 H :   -0.022422
  22 H :   -0.023980
  23 H :   -0.046552
  24 H :   -0.019192
  25 H :   -0.006811
  26 H :   -0.001522
  27 H :   -0.023049
  28 H :   -0.056802
  29 H :   -0.068151
  30 H :   -0.004571
  31 H :   -0.031541
  32 H :   -0.018758
  33 H :   -0.033972
  34 H :   -0.151467
  35 H :   -0.029088

  Mayer bond orders larger than 0.100000
B(  0-C ,  1-C ) :   0.9626 B(  0-C , 20-H ) :   0.9705 B(  0-C , 21-H ) :   0.9740
B(  0-C , 22-H ) :   0.9767 B(  1-C ,  2-O ) :   0.9088 B(  1-C , 23-H ) :   0.9707
B(  1-C , 24-H ) :   0.9809 B(  2-O ,  3-C ) :   1.1705 B(  3-C ,  4-O ) :   2.0653
B(  3-C ,  5-C ) :   0.9811 B(  5-C ,  6-C ) :   1.6520 B(  5-C , 12-C ) :   0.9677
B(  6-C ,  7-C ) :   0.9814 B(  6-C ,  8-N ) :   1.1410 B(  7-C , 25-H ) :   0.9685
B(  7-C , 26-H ) :   0.9521 B(  7-C , 27-H ) :   0.9840 B(  8-N ,  9-C ) :   1.1827
B(  8-N , 28-H ) :   0.9497 B(  9-C , 10-S ) :   1.6202 B(  9-C , 11-N ) :   1.2912
B( 11-N , 12-C ) :   0.9533 B( 11-N , 29-H ) :   0.9545 B( 12-C , 13-C ) :   0.9611
B( 12-C , 30-H ) :   0.9969 B( 13-C , 14-C ) :   1.3316 B( 13-C , 19-C ) :   1.3653
B( 14-C , 15-C ) :   1.4051 B( 14-C , 31-H ) :   0.9755 B( 15-C , 16-C ) :   1.3648
B( 15-C , 32-H ) :   0.9695 B( 16-C , 17-C ) :   1.3335 B( 16-C , 33-H ) :   0.9835
B( 17-C , 18-O ) :   1.1177 B( 17-C , 19-C ) :   1.3642 B( 18-O , 34-H ) :   0.9785
B( 19-C , 35-H ) :   0.9496

MP2 TOTAL ENERGY:    -1274.330389191 Eh
FINAL SINGLE POINT ENERGY     -1274.330389191323

DIPOLE MOMENT
-------------
                                X             Y             Z
Electronic contribution:      9.08784       8.29878       3.90026
Nuclear contribution   :    -10.31243     -10.01542      -3.01275
                        -----------------------------------------
Total Dipole Moment    :     -1.22459      -1.71664       0.88751
                        -----------------------------------------
Magnitude (a.u.)       :      2.28782
Magnitude (Debye)      :      5.81518

Rotational constants in cm-1:     0.011112     0.010090     0.006801
Rotational constants in MHz :   333.114654   302.486480   203.875385

                             ****ORCA TERMINATED NORMALLY****
TOTAL RUN TIME: 0 days 1 hours 58 minutes 11 seconds 153 msec
