                         Program Version 4.2.0 -  RELEASE  -
|  1> ! ri-mp2 cc-pvtz cc-pvtz/c TightSCF  NoKeepInts
|  2>
|  3> %scf
|  4>   MaxCore 4096
|  5> end
|  6> *xyz  0  1
|  7>     C       15.5137429   13.4201652   16.7618052
|  8>     C       16.5007304   14.1291441   15.8179259
|  9>     O       17.1749925   15.1437292   16.5834347
| 10>     C       16.7915390   16.4536713   16.4881813
| 11>     O       15.9582361   16.8378578   15.6849857
| 12>     C       17.5240956   17.3416500   17.4559015
| 13>     C       17.3793226   18.6912020   17.4600961
| 14>     C       16.5070390   19.5226276   16.5439408
| 15>     N       18.1065112   19.4718966   18.3635803
| 16>     C       19.0570026   18.9940803   19.2255723
| 17>     S       19.9334411   19.9982003   20.2051687
| 18>     N       19.2481198   17.6360802   19.2347483
| 19>     C       18.4403629   16.6575801   18.4840122
| 20>     C       17.6522588   15.7848584   19.4567715
| 21>     C       17.9702935   14.4223577   19.6107097
| 22>     C       17.2432792   13.6145071   20.5012280
| 23>     C       16.1909079   14.1737361   21.2459310
| 24>     C       15.8748642   15.5313485   21.0988262
| 25>     O       14.8602912   16.0744951   21.8176161
| 26>     C       16.6006498   16.3329915   20.2124553
| 27>     H       16.0382225   13.0020838   17.6299403
| 28>     H       15.0014894   12.6024179   16.2408193
| 29>     H       14.7545715   14.1248164   17.1242688
| 30>     H       17.2361400   13.3970019   15.4608415
| 31>     H       15.9799126   14.5399509   14.9423074
| 32>     H       15.4519302   19.2431817   16.6596086
| 33>     H       16.7770589   19.3523057   15.4939932
| 34>     H       16.5870705   20.5990968   16.7352284
| 35>     H       17.9798264   20.4713542   18.3710285
| 36>     H       19.9271006   17.3101717   19.9104528
| 37>     H       19.1397871   16.0155811   17.9303701
| 38>     H       18.7788091   13.9859768   19.0305153
| 39>     H       17.4951236   12.5612132   20.6111490
| 40>     H       15.6261606   13.5540319   21.9345781
| 41>     H       14.5013601   15.3778039   22.3872903
| 42>     H       16.3447567   17.3828330   20.1187176
| 43> *
| 44>
| 45>                          ****END OF INPUT****

CARTESIAN COORDINATES (ANGSTROEM)
---------------------------------
  C     15.513743   13.420165   16.761805
  C     16.500730   14.129144   15.817926
  O     17.174992   15.143729   16.583435
  C     16.791539   16.453671   16.488181
  O     15.958236   16.837858   15.684986
  C     17.524096   17.341650   17.455901
  C     17.379323   18.691202   17.460096
  C     16.507039   19.522628   16.543941
  N     18.106511   19.471897   18.363580
  C     19.057003   18.994080   19.225572
  S     19.933441   19.998200   20.205169
  N     19.248120   17.636080   19.234748
  C     18.440363   16.657580   18.484012
  C     17.652259   15.784858   19.456771
  C     17.970294   14.422358   19.610710
  C     17.243279   13.614507   20.501228
  C     16.190908   14.173736   21.245931
  C     15.874864   15.531349   21.098826
  O     14.860291   16.074495   21.817616
  C     16.600650   16.332991   20.212455
  H     16.038222   13.002084   17.629940
  H     15.001489   12.602418   16.240819
  H     14.754572   14.124816   17.124269
  H     17.236140   13.397002   15.460842
  H     15.979913   14.539951   14.942307
  H     15.451930   19.243182   16.659609
  H     16.777059   19.352306   15.493993
  H     16.587070   20.599097   16.735228
  H     17.979826   20.471354   18.371028
  H     19.927101   17.310172   19.910453
  H     19.139787   16.015581   17.930370
  H     18.778809   13.985977   19.030515
  H     17.495124   12.561213   20.611149
  H     15.626161   13.554032   21.934578
  H     14.501360   15.377804   22.387290
  H     16.344757   17.382833   20.118718

 Total Charge           Charge          ....    0
 Multiplicity           Mult            ....    1
 Number of Electrons    NEL             ....  154
 Basis Dimension        Dim             ....  828

ORBITAL ENERGIES
----------------

  NO   OCC          E(Eh)            E(eV)
   0   2.0000     -91.888600     -2500.4159
   1   2.0000     -20.602061      -560.6106
   2   2.0000     -20.596353      -560.4553
   3   2.0000     -20.541258      -558.9561
   4   2.0000     -15.628764      -425.2803
   5   2.0000     -15.608057      -424.7168
   6   2.0000     -11.395501      -310.0874
   7   2.0000     -11.383767      -309.7681
   8   2.0000     -11.335814      -308.4632
   9   2.0000     -11.313535      -307.8569
  10   2.0000     -11.308609      -307.7229
  11   2.0000     -11.295106      -307.3555
  12   2.0000     -11.259307      -306.3813
  13   2.0000     -11.258866      -306.3693
  14   2.0000     -11.254801      -306.2587
  15   2.0000     -11.251810      -306.1773
  16   2.0000     -11.242952      -305.9363
  17   2.0000     -11.238317      -305.8102
  18   2.0000     -11.237812      -305.7964
  19   2.0000     -11.224020      -305.4211
  20   2.0000      -8.893665      -242.0089
  21   2.0000      -6.575240      -178.9214
  22   2.0000      -6.573235      -178.8668
  23   2.0000      -6.572649      -178.8509
  24   2.0000      -1.451110       -39.4867
  25   2.0000      -1.416018       -38.5318
  26   2.0000      -1.354860       -36.8676
  27   2.0000      -1.339768       -36.4569
  28   2.0000      -1.238280       -33.6953
  29   2.0000      -1.157461       -31.4961
  30   2.0000      -1.120284       -30.4845
  31   2.0000      -1.042746       -28.3745
  32   2.0000      -1.037176       -28.2230
  33   2.0000      -1.014917       -27.6173
  34   2.0000      -0.995157       -27.0796
  35   2.0000      -0.984012       -26.7763
  36   2.0000      -0.922285       -25.0967
  37   2.0000      -0.891819       -24.2676
  38   2.0000      -0.846665       -23.0389
  39   2.0000      -0.837367       -22.7859
  40   2.0000      -0.833766       -22.6879
  41   2.0000      -0.815593       -22.1934
  42   2.0000      -0.760956       -20.7067
  43   2.0000      -0.732192       -19.9240
  44   2.0000      -0.722748       -19.6670
  45   2.0000      -0.695710       -18.9312
  46   2.0000      -0.688508       -18.7353
  47   2.0000      -0.679697       -18.4955
  48   2.0000      -0.670320       -18.2403
  49   2.0000      -0.661165       -17.9912
  50   2.0000      -0.647367       -17.6157
  51   2.0000      -0.641716       -17.4620
  52   2.0000      -0.631799       -17.1921
  53   2.0000      -0.607045       -16.5185
  54   2.0000      -0.605850       -16.4860
  55   2.0000      -0.599087       -16.3020
  56   2.0000      -0.598525       -16.2867
  57   2.0000      -0.577618       -15.7178
  58   2.0000      -0.570439       -15.5224
  59   2.0000      -0.567229       -15.4351
  60   2.0000      -0.561790       -15.2871
  61   2.0000      -0.544786       -14.8244
  62   2.0000      -0.534608       -14.5474
  63   2.0000      -0.530677       -14.4405
  64   2.0000      -0.524847       -14.2818
  65   2.0000      -0.513093       -13.9620
  66   2.0000      -0.501008       -13.6331
  67   2.0000      -0.498598       -13.5675
  68   2.0000      -0.483015       -13.1435
  69   2.0000      -0.463494       -12.6123
  70   2.0000      -0.453098       -12.3294
  71   2.0000      -0.449062       -12.2196
  72   2.0000      -0.354079        -9.6350
  73   2.0000      -0.349364        -9.5067
  74   2.0000      -0.327998        -8.9253
  75   2.0000      -0.320904        -8.7323
  76   2.0000      -0.315900        -8.5961
  77   0.0000       0.077008         2.0955
  78   0.0000       0.106204         2.8900
  79   0.0000       0.124822         3.3966
  80   0.0000       0.132877         3.6158
  81   0.0000       0.138480         3.7682

MULLIKEN ATOMIC CHARGES
-----------------------
   0 C :   -0.280006
   1 C :    0.014193
   2 O :   -0.349539
   3 C :    0.471199
   4 O :   -0.436770
   5 C :   -0.229646
   6 C :    0.151773
   7 C :   -0.273660
   8 N :   -0.120457
   9 C :    0.212185
  10 S :   -0.440711
  11 N :   -0.205469
  12 C :    0.057176
  13 C :    0.073302
  14 C :   -0.194969
  15 C :   -0.131403
  16 C :   -0.278201
  17 C :    0.316690
  18 O :   -0.356661
  19 C :   -0.268923
  20 H :    0.094882
  21 H :    0.098305
  22 H :    0.102873
  23 H :    0.102855
  24 H :    0.122575
  25 H :    0.131963
  26 H :    0.130881
  27 H :    0.094923
  28 H :    0.197075
  29 H :    0.195000
  30 H :    0.149532
  31 H :    0.149220
  32 H :    0.163594
  33 H :    0.130303
  34 H :    0.240681
  35 H :    0.165237
Sum of atomic charges:    0.0000000

LOEWDIN ATOMIC CHARGES
----------------------
   0 C :    0.104796
   1 C :   -0.015240
   2 O :    0.310629
   3 C :   -0.413642
   4 O :    0.094103
   5 C :   -0.094223
   6 C :   -0.059301
   7 C :    0.131468
   8 N :    0.406543
   9 C :   -0.456202
  10 S :   -0.035971
  11 N :    0.396492
  12 C :   -0.052437
  13 C :   -0.038815
  14 C :    0.014571
  15 C :    0.039917
  16 C :   -0.001429
  17 C :   -0.189251
  18 O :    0.395275
  19 C :    0.031884
  20 H :   -0.028530
  21 H :   -0.027721
  22 H :   -0.024783
  23 H :   -0.028476
  24 H :   -0.028306
  25 H :   -0.004548
  26 H :   -0.004016
  27 H :   -0.023474
  28 H :   -0.057598
  29 H :   -0.064574
  30 H :   -0.011556
  31 H :   -0.030616
  32 H :   -0.021790
  33 H :   -0.035507
  34 H :   -0.153944
  35 H :   -0.023730

  Mayer bond orders larger than 0.100000
B(  0-C ,  1-C ) :   0.9674 B(  0-C , 20-H ) :   0.9731 B(  0-C , 21-H ) :   0.9768
B(  0-C , 22-H ) :   0.9779 B(  1-C ,  2-O ) :   0.8908 B(  1-C , 23-H ) :   0.9849
B(  1-C , 24-H ) :   0.9758 B(  2-O ,  3-C ) :   1.1759 B(  3-C ,  4-O ) :   1.9664
B(  3-C ,  5-C ) :   1.0568 B(  5-C ,  6-C ) :   1.6549 B(  5-C , 12-C ) :   0.9719
B(  6-C ,  7-C ) :   0.9670 B(  6-C ,  8-N ) :   1.1662 B(  7-C , 25-H ) :   0.9605
B(  7-C , 26-H ) :   0.9603 B(  7-C , 27-H ) :   0.9903 B(  8-N ,  9-C ) :   1.1833
B(  8-N , 28-H ) :   0.9479 B(  9-C , 10-S ) :   1.6061 B(  9-C , 11-N ) :   1.3059
B( 11-N , 12-C ) :   0.9866 B( 11-N , 29-H ) :   0.9515 B( 12-C , 13-C ) :   0.9364
B( 12-C , 30-H ) :   1.0025 B( 13-C , 14-C ) :   1.3516 B( 13-C , 19-C ) :   1.3817
B( 14-C , 15-C ) :   1.3883 B( 14-C , 31-H ) :   0.9719 B( 15-C , 16-C ) :   1.3616
B( 15-C , 32-H ) :   0.9701 B( 16-C , 17-C ) :   1.3312 B( 16-C , 33-H ) :   0.9850
B( 17-C , 18-O ) :   1.1100 B( 17-C , 19-C ) :   1.3715 B( 18-O , 34-H ) :   0.9798
B( 19-C , 35-H ) :   0.9583

MP2 TOTAL ENERGY:    -1274.351628557 Eh
FINAL SINGLE POINT ENERGY     -1274.351628556669

DIPOLE MOMENT
-------------
                                X             Y             Z
Electronic contribution:      8.67930      11.49852       7.31559
Nuclear contribution   :     -9.54353     -13.26533      -7.79152
                        -----------------------------------------
Total Dipole Moment    :     -0.86423      -1.76681      -0.47593
                        -----------------------------------------
Magnitude (a.u.)       :      2.02362
Magnitude (Debye)      :      5.14363

Rotational constants in cm-1:     0.012153     0.008600     0.006210
Rotational constants in MHz :   364.326647   257.831116   186.170201

                             ****ORCA TERMINATED NORMALLY****
TOTAL RUN TIME: 0 days 1 hours 41 minutes 57 seconds 114 msec
