                         Program Version 5.0.0 -  RELEASE  -
|  1> ! ri-mp2 cc-pvtz cc-pvtz/c TightSCF NoKeepInts
|  2>
|  3> %scf
|  4>   MaxCore 4096
|  5> end
|  6> *xyz  0  1
|  7>     C       14.2651393   15.7422131   16.3765439
|  8>     C       15.5221880   15.1999246   17.0798931
|  9>     O       16.6239042   15.2095733   16.1457880
| 10>     C       17.8679853   15.6866839   16.4733504
| 11>     O       18.8463853   14.9825705   16.3043477
| 12>     C       17.9114890   16.8592624   17.3990795
| 13>     C       17.3072343   18.0387708   17.1250355
| 14>     C       16.5720009   18.4224149   15.8600516
| 15>     N       17.4406030   19.1097915   18.0115229
| 16>     C       18.2433889   19.1086048   19.1225428
| 17>     S       18.3981230   20.4449522   20.0838329
| 18>     N       18.9125052   17.9415342   19.3985381
| 19>     C       18.7502955   16.6712499   18.6636922
| 20>     C       18.1449503   15.5871175   19.5513188
| 21>     C       18.6475158   14.2739415   19.5031490
| 22>     C       18.0804364   13.2597275   20.2924226
| 23>     C       16.9983550   13.5589450   21.1372707
| 24>     C       16.4907572   14.8640104   21.1850479
| 25>     O       15.4368118   15.1538729   21.9883818
| 26>     C       17.0563820   15.8716556   20.3972927
| 27>     H       13.3885852   15.6274768   17.0259441
| 28>     H       14.0746901   15.1873755   15.4491540
| 29>     H       14.3626703   16.8028632   16.1309958
| 30>     H       15.7190541   15.8061354   17.9715841
| 31>     H       15.3445693   14.1695448   17.4152092
| 32>     H       16.4632205   17.5848649   15.1614016
| 33>     H       17.1183799   19.2089809   15.3241174
| 34>     H       15.5695786   18.8063313   16.0840682
| 35>     H       16.9749215   19.9820781   17.8155170
| 36>     H       19.4836211   17.9644169   20.2340442
| 37>     H       19.7513762   16.3372783   18.3526117
| 38>     H       19.4734612   14.0348431   18.8361629
| 39>     H       18.4771506   12.2469993   20.2416443
| 40>     H       16.5560616   12.7774167   21.7464090
| 41>     H       15.2298730   14.3548946   22.4968095
| 42>     H       16.6433366   16.8736838   20.4492249
| 43> *
| 44>
| 45>                          ****END OF INPUT****

CARTESIAN COORDINATES (ANGSTROEM)
---------------------------------
  C     14.265139   15.742213   16.376544
  C     15.522188   15.199925   17.079893
  O     16.623904   15.209573   16.145788
  C     17.867985   15.686684   16.473350
  O     18.846385   14.982570   16.304348
  C     17.911489   16.859262   17.399079
  C     17.307234   18.038771   17.125035
  C     16.572001   18.422415   15.860052
  N     17.440603   19.109792   18.011523
  C     18.243389   19.108605   19.122543
  S     18.398123   20.444952   20.083833
  N     18.912505   17.941534   19.398538
  C     18.750296   16.671250   18.663692
  C     18.144950   15.587117   19.551319
  C     18.647516   14.273941   19.503149
  C     18.080436   13.259728   20.292423
  C     16.998355   13.558945   21.137271
  C     16.490757   14.864010   21.185048
  O     15.436812   15.153873   21.988382
  C     17.056382   15.871656   20.397293
  H     13.388585   15.627477   17.025944
  H     14.074690   15.187375   15.449154
  H     14.362670   16.802863   16.130996
  H     15.719054   15.806135   17.971584
  H     15.344569   14.169545   17.415209
  H     16.463220   17.584865   15.161402
  H     17.118380   19.208981   15.324117
  H     15.569579   18.806331   16.084068
  H     16.974922   19.982078   17.815517
  H     19.483621   17.964417   20.234044
  H     19.751376   16.337278   18.352612
  H     19.473461   14.034843   18.836163
  H     18.477151   12.246999   20.241644
  H     16.556062   12.777417   21.746409
  H     15.229873   14.354895   22.496810
  H     16.643337   16.873684   20.449225

 Total Charge           Charge          ....    0
 Multiplicity           Mult            ....    1
 Number of Electrons    NEL             ....  154
 Basis Dimension        Dim             ....  828

ORBITAL ENERGIES
----------------

  NO   OCC          E(Eh)            E(eV)
   0   2.0000     -91.890829     -2500.4766
   1   2.0000     -20.600223      -560.5606
   2   2.0000     -20.593727      -560.3838
   3   2.0000     -20.552776      -559.2695
   4   2.0000     -15.628259      -425.2666
   5   2.0000     -15.611871      -424.8206
   6   2.0000     -11.397297      -310.1362
   7   2.0000     -11.387365      -309.8659
   8   2.0000     -11.332101      -308.3621
   9   2.0000     -11.317151      -307.9553
  10   2.0000     -11.314414      -307.8808
  11   2.0000     -11.302113      -307.5461
  12   2.0000     -11.266341      -306.5727
  13   2.0000     -11.265189      -306.5414
  14   2.0000     -11.263704      -306.5010
  15   2.0000     -11.257103      -306.3213
  16   2.0000     -11.246450      -306.0315
  17   2.0000     -11.242529      -305.9248
  18   2.0000     -11.239305      -305.8370
  19   2.0000     -11.234715      -305.7121
  20   2.0000      -8.895929      -242.0705
  21   2.0000      -6.577513      -178.9832
  22   2.0000      -6.575492      -178.9282
  23   2.0000      -6.574913      -178.9125
  24   2.0000      -1.447106       -39.3778
  25   2.0000      -1.420038       -38.6412
  26   2.0000      -1.358400       -36.9639
  27   2.0000      -1.341467       -36.5032
  28   2.0000      -1.240800       -33.7639
  29   2.0000      -1.161590       -31.6085
  30   2.0000      -1.125751       -30.6332
  31   2.0000      -1.048860       -28.5409
  32   2.0000      -1.039193       -28.2779
  33   2.0000      -1.019166       -27.7329
  34   2.0000      -1.005249       -27.3542
  35   2.0000      -0.989928       -26.9373
  36   2.0000      -0.927991       -25.2519
  37   2.0000      -0.885247       -24.0888
  38   2.0000      -0.853713       -23.2307
  39   2.0000      -0.842812       -22.9341
  40   2.0000      -0.837228       -22.7821
  41   2.0000      -0.836100       -22.7514
  42   2.0000      -0.757280       -20.6066
  43   2.0000      -0.737728       -20.0746
  44   2.0000      -0.732427       -19.9304
  45   2.0000      -0.698125       -18.9969
  46   2.0000      -0.688534       -18.7360
  47   2.0000      -0.681597       -18.5472
  48   2.0000      -0.676732       -18.4148
  49   2.0000      -0.663809       -18.0632
  50   2.0000      -0.653690       -17.7878
  51   2.0000      -0.640319       -17.4240
  52   2.0000      -0.633134       -17.2284
  53   2.0000      -0.622811       -16.9476
  54   2.0000      -0.610218       -16.6049
  55   2.0000      -0.607840       -16.5402
  56   2.0000      -0.603866       -16.4320
  57   2.0000      -0.585719       -15.9382
  58   2.0000      -0.577997       -15.7281
  59   2.0000      -0.570366       -15.5204
  60   2.0000      -0.565015       -15.3748
  61   2.0000      -0.558112       -15.1870
  62   2.0000      -0.541582       -14.7372
  63   2.0000      -0.532022       -14.4771
  64   2.0000      -0.523665       -14.2497
  65   2.0000      -0.516335       -14.0502
  66   2.0000      -0.502899       -13.6846
  67   2.0000      -0.496508       -13.5107
  68   2.0000      -0.487712       -13.2713
  69   2.0000      -0.469812       -12.7842
  70   2.0000      -0.458811       -12.4849
  71   2.0000      -0.449239       -12.2244
  72   2.0000      -0.357929        -9.7397
  73   2.0000      -0.352080        -9.5806
  74   2.0000      -0.330378        -8.9901
  75   2.0000      -0.324887        -8.8406
  76   2.0000      -0.319661        -8.6984
  77   0.0000       0.080859         2.2003
  78   0.0000       0.103329         2.8117
  79   0.0000       0.116554         3.1716
  80   0.0000       0.128865         3.5066
  81   0.0000       0.130321         3.5462

MULLIKEN ATOMIC CHARGES
-----------------------
   0 C :   -0.278003
   1 C :    0.018789
   2 O :   -0.340326
   3 C :    0.422819
   4 O :   -0.377755
   5 C :   -0.214652
   6 C :    0.162314
   7 C :   -0.346900
   8 N :   -0.133818
   9 C :    0.199607
  10 S :   -0.439077
  11 N :   -0.214358
  12 C :    0.076707
  13 C :    0.020823
  14 C :   -0.194405
  15 C :   -0.132943
  16 C :   -0.275625
  17 C :    0.319437
  18 O :   -0.356807
  19 C :   -0.286538
  20 H :    0.101859
  21 H :    0.108949
  22 H :    0.088626
  23 H :    0.099121
  24 H :    0.124409
  25 H :    0.132922
  26 H :    0.151134
  27 H :    0.115568
  28 H :    0.197106
  29 H :    0.198501
  30 H :    0.164080
  31 H :    0.170159
  32 H :    0.164279
  33 H :    0.132566
  34 H :    0.241640
  35 H :    0.179792
Sum of atomic charges:   -0.0000000

LOEWDIN ATOMIC CHARGES
----------------------
   0 C :    0.107207
   1 C :   -0.013997
   2 O :    0.294125
   3 C :   -0.415301
   4 O :    0.129089
   5 C :   -0.085204
   6 C :   -0.094044
   7 C :    0.124140
   8 N :    0.402887
   9 C :   -0.456964
  10 S :   -0.036288
  11 N :    0.397195
  12 C :   -0.044573
  13 C :   -0.044154
  14 C :    0.021810
  15 C :    0.045075
  16 C :   -0.000313
  17 C :   -0.194218
  18 O :    0.394750
  19 C :    0.026322
  20 H :   -0.023110
  21 H :   -0.023968
  22 H :   -0.034507
  23 H :   -0.038525
  24 H :   -0.024198
  25 H :   -0.010270
  26 H :   -0.008889
  27 H :   -0.018711
  28 H :   -0.056996
  29 H :   -0.063566
  30 H :   -0.002486
  31 H :   -0.021745
  32 H :   -0.018407
  33 H :   -0.034568
  34 H :   -0.152855
  35 H :   -0.024743

  Mayer bond orders larger than 0.100000
B(  0-C ,  1-C ) :   0.9769 B(  0-C , 20-H ) :   0.9771 B(  0-C , 21-H ) :   0.9778
B(  0-C , 22-H ) :   0.9783 B(  1-C ,  2-O ) :   0.8994 B(  1-C , 23-H ) :   0.9585
B(  1-C , 24-H ) :   0.9821 B(  2-O ,  3-C ) :   1.1602 B(  3-C ,  4-O ) :   2.0931
B(  3-C ,  5-C ) :   0.9329 B(  5-C ,  6-C ) :   1.6763 B(  5-C , 12-C ) :   0.9567
B(  6-C ,  7-C ) :   0.9456 B(  6-C ,  8-N ) :   1.1213 B(  7-C , 25-H ) :   0.9780
B(  7-C , 26-H ) :   0.9645 B(  7-C , 27-H ) :   0.9693 B(  8-N ,  9-C ) :   1.1928
B(  8-N , 28-H ) :   0.9515 B(  9-C , 10-S ) :   1.6133 B(  9-C , 11-N ) :   1.2896
B( 11-N , 12-C ) :   0.9954 B( 11-N , 29-H ) :   0.9494 B( 12-C , 13-C ) :   0.9422
B( 12-C , 30-H ) :   0.9984 B( 13-C , 14-C ) :   1.3891 B( 13-C , 19-C ) :   1.3416
B( 14-C , 15-C ) :   1.3975 B( 14-C , 31-H ) :   0.9596 B( 15-C , 16-C ) :   1.3633
B( 15-C , 32-H ) :   0.9698 B( 16-C , 17-C ) :   1.3294 B( 16-C , 33-H ) :   0.9843
B( 17-C , 18-O ) :   1.1120 B( 17-C , 19-C ) :   1.3669 B( 18-O , 34-H ) :   0.9793
B( 19-C , 35-H ) :   0.9570

MP2 TOTAL ENERGY:    -1274.330979684 Eh
FINAL SINGLE POINT ENERGY     -1274.330979684125

DIPOLE MOMENT
-------------
                                X             Y             Z
Electronic contribution:     11.43283       5.74904       7.24258
Nuclear contribution   :    -12.86854      -6.83211      -7.48036
                        -----------------------------------------
Total Dipole Moment    :     -1.43571      -1.08307      -0.23778
                        -----------------------------------------
Magnitude (a.u.)       :      1.81407
Magnitude (Debye)      :      4.61099

Rotational constants in cm-1:     0.011382     0.009323     0.006864
Rotational constants in MHz :   341.217374   279.503917   205.777084

                             ****ORCA TERMINATED NORMALLY****
TOTAL RUN TIME: 0 days 2 hours 23 minutes 24 seconds 375 msec
