                         Program Version 4.2.0 -  RELEASE  -
|  1> ! ri-mp2 cc-pvtz cc-pvtz/c TightSCF  NoKeepInts
|  2>
|  3> %scf
|  4>   MaxCore 4096
|  5> end
|  6> *xyz  0  1
|  7>     C       14.8819794   14.1413428   15.9899486
|  8>     C       16.3893236   13.8894883   16.2155334
|  9>     O       17.1451547   15.0383906   16.6769805
| 10>     C       16.7754212   16.3568924   16.5855173
| 11>     O       15.9631562   16.7762716   15.7803363
| 12>     C       17.5864215   17.2341223   17.5009551
| 13>     C       17.5008203   18.5890825   17.4803851
| 14>     C       16.6284294   19.4414891   16.5835214
| 15>     N       18.2960995   19.3558841   18.3372827
| 16>     C       19.2539838   18.8554223   19.1776644
| 17>     S       20.2068225   19.8404775   20.1038433
| 18>     N       19.3846665   17.4909516   19.2131250
| 19>     C       18.5123613   16.5331859   18.5095163
| 20>     C       17.7258674   15.7094570   19.5252606
| 21>     C       17.9874637   14.3356988   19.6856535
| 22>     C       17.2611926   13.5735158   20.6161471
| 23>     C       16.2670891   14.1902308   21.3948768
| 24>     C       16.0074795   15.5590548   21.2411880
| 25>     O       15.0492755   16.1575875   21.9925683
| 26>     C       16.7318257   16.3149170   20.3143361
| 27>     H       14.4363824   14.6613560   16.8473114
| 28>     H       14.3550890   13.1881536   15.8627595
| 29>     H       14.7066079   14.7341834   15.0837479
| 30>     H       16.5088819   13.0807481   16.9479519
| 31>     H       16.8216812   13.5369288   15.2702107
| 32>     H       16.8570916   19.2493116   15.5274816
| 33>     H       16.7529980   20.5164841   16.7583956
| 34>     H       15.5684499   19.2018314   16.7371822
| 35>     H       18.2146578   20.3599639   18.3245304
| 36>     H       20.0720759   17.1500319   19.8726798
| 37>     H       19.1669567   15.8552964   17.9439470
| 38>     H       18.7527793   13.8559742   19.0815075
| 39>     H       17.4696994   12.5114077   20.7322150
| 40>     H       15.7037697   13.6061473   22.1151636
| 41>     H       14.6843912   15.4864109   22.5885262
| 42>     H       16.5206546   17.3743080   20.2157497
| 43> *
| 44>
| 45>                          ****END OF INPUT****

CARTESIAN COORDINATES (ANGSTROEM)
---------------------------------
  C     14.881979   14.141343   15.989949
  C     16.389324   13.889488   16.215533
  O     17.145155   15.038391   16.676980
  C     16.775421   16.356892   16.585517
  O     15.963156   16.776272   15.780336
  C     17.586421   17.234122   17.500955
  C     17.500820   18.589082   17.480385
  C     16.628429   19.441489   16.583521
  N     18.296100   19.355884   18.337283
  C     19.253984   18.855422   19.177664
  S     20.206822   19.840477   20.103843
  N     19.384667   17.490952   19.213125
  C     18.512361   16.533186   18.509516
  C     17.725867   15.709457   19.525261
  C     17.987464   14.335699   19.685654
  C     17.261193   13.573516   20.616147
  C     16.267089   14.190231   21.394877
  C     16.007479   15.559055   21.241188
  O     15.049276   16.157588   21.992568
  C     16.731826   16.314917   20.314336
  H     14.436382   14.661356   16.847311
  H     14.355089   13.188154   15.862759
  H     14.706608   14.734183   15.083748
  H     16.508882   13.080748   16.947952
  H     16.821681   13.536929   15.270211
  H     16.857092   19.249312   15.527482
  H     16.752998   20.516484   16.758396
  H     15.568450   19.201831   16.737182
  H     18.214658   20.359964   18.324530
  H     20.072076   17.150032   19.872680
  H     19.166957   15.855296   17.943947
  H     18.752779   13.855974   19.081508
  H     17.469699   12.511408   20.732215
  H     15.703770   13.606147   22.115164
  H     14.684391   15.486411   22.588526
  H     16.520655   17.374308   20.215750

 Total Charge           Charge          ....    0
 Multiplicity           Mult            ....    1
 Number of Electrons    NEL             ....  154
 Basis Dimension        Dim             ....  828

ORBITAL ENERGIES
----------------

  NO   OCC          E(Eh)            E(eV)
   0   2.0000     -91.887919     -2500.3974
   1   2.0000     -20.597570      -560.4884
   2   2.0000     -20.596699      -560.4647
   3   2.0000     -20.540204      -558.9274
   4   2.0000     -15.627893      -425.2566
   5   2.0000     -15.607245      -424.6947
   6   2.0000     -11.396861      -310.1244
   7   2.0000     -11.382987      -309.7468
   8   2.0000     -11.334764      -308.4346
   9   2.0000     -11.313867      -307.8660
  10   2.0000     -11.307478      -307.6921
  11   2.0000     -11.302502      -307.5567
  12   2.0000     -11.259604      -306.3894
  13   2.0000     -11.257918      -306.3435
  14   2.0000     -11.255432      -306.2759
  15   2.0000     -11.251100      -306.1580
  16   2.0000     -11.243131      -305.9411
  17   2.0000     -11.238407      -305.8126
  18   2.0000     -11.238306      -305.8099
  19   2.0000     -11.223360      -305.4032
  20   2.0000      -8.892994      -241.9907
  21   2.0000      -6.574573      -178.9032
  22   2.0000      -6.572565      -178.8486
  23   2.0000      -6.571981      -178.8327
  24   2.0000      -1.443331       -39.2750
  25   2.0000      -1.416350       -38.5408
  26   2.0000      -1.353425       -36.8286
  27   2.0000      -1.339000       -36.4360
  28   2.0000      -1.237542       -33.6752
  29   2.0000      -1.157447       -31.4957
  30   2.0000      -1.119142       -30.4534
  31   2.0000      -1.042187       -28.3593
  32   2.0000      -1.035933       -28.1892
  33   2.0000      -1.015110       -27.6225
  34   2.0000      -0.994754       -27.0686
  35   2.0000      -0.983067       -26.7506
  36   2.0000      -0.921726       -25.0814
  37   2.0000      -0.898351       -24.4454
  38   2.0000      -0.846487       -23.0341
  39   2.0000      -0.837672       -22.7942
  40   2.0000      -0.834074       -22.6963
  41   2.0000      -0.817567       -22.2471
  42   2.0000      -0.744624       -20.2622
  43   2.0000      -0.730760       -19.8850
  44   2.0000      -0.719180       -19.5699
  45   2.0000      -0.695564       -18.9273
  46   2.0000      -0.687318       -18.7029
  47   2.0000      -0.675115       -18.3708
  48   2.0000      -0.670913       -18.2565
  49   2.0000      -0.658932       -17.9304
  50   2.0000      -0.651329       -17.7236
  51   2.0000      -0.642689       -17.4885
  52   2.0000      -0.635230       -17.2855
  53   2.0000      -0.609549       -16.5867
  54   2.0000      -0.606485       -16.5033
  55   2.0000      -0.599973       -16.3261
  56   2.0000      -0.598190       -16.2776
  57   2.0000      -0.577330       -15.7099
  58   2.0000      -0.571480       -15.5508
  59   2.0000      -0.569884       -15.5073
  60   2.0000      -0.559902       -15.2357
  61   2.0000      -0.540081       -14.6964
  62   2.0000      -0.535526       -14.5724
  63   2.0000      -0.525333       -14.2950
  64   2.0000      -0.520800       -14.1717
  65   2.0000      -0.512913       -13.9571
  66   2.0000      -0.501740       -13.6530
  67   2.0000      -0.498741       -13.5714
  68   2.0000      -0.485488       -13.2108
  69   2.0000      -0.462840       -12.5945
  70   2.0000      -0.452858       -12.3229
  71   2.0000      -0.440621       -11.9899
  72   2.0000      -0.352951        -9.6043
  73   2.0000      -0.349286        -9.5046
  74   2.0000      -0.327464        -8.9107
  75   2.0000      -0.321464        -8.7475
  76   2.0000      -0.315249        -8.5784
  77   0.0000       0.077560         2.1105
  78   0.0000       0.105814         2.8793
  79   0.0000       0.125352         3.4110
  80   0.0000       0.133024         3.6198
  81   0.0000       0.137988         3.7549

MULLIKEN ATOMIC CHARGES
-----------------------
   0 C :   -0.300940
   1 C :    0.051240
   2 O :   -0.362900
   3 C :    0.464919
   4 O :   -0.429997
   5 C :   -0.219631
   6 C :    0.151742
   7 C :   -0.272404
   8 N :   -0.120330
   9 C :    0.212269
  10 S :   -0.441919
  11 N :   -0.205679
  12 C :    0.060684
  13 C :    0.064765
  14 C :   -0.191129
  15 C :   -0.130133
  16 C :   -0.279313
  17 C :    0.317017
  18 O :   -0.356534
  19 C :   -0.271544
  20 H :    0.101766
  21 H :    0.095893
  22 H :    0.123373
  23 H :    0.096396
  24 H :    0.095636
  25 H :    0.131553
  26 H :    0.094769
  27 H :    0.130383
  28 H :    0.196895
  29 H :    0.194980
  30 H :    0.149627
  31 H :    0.151699
  32 H :    0.160867
  33 H :    0.129932
  34 H :    0.240722
  35 H :    0.165326
Sum of atomic charges:   -0.0000000

LOEWDIN ATOMIC CHARGES
----------------------
   0 C :    0.103650
   1 C :   -0.008695
   2 O :    0.296854
   3 C :   -0.413487
   4 O :    0.105103
   5 C :   -0.093720
   6 C :   -0.059504
   7 C :    0.130828
   8 N :    0.406348
   9 C :   -0.456537
  10 S :   -0.036957
  11 N :    0.396467
  12 C :   -0.052698
  13 C :   -0.038422
  14 C :    0.014679
  15 C :    0.038405
  16 C :   -0.001895
  17 C :   -0.189731
  18 O :    0.395227
  19 C :    0.031090
  20 H :   -0.026097
  21 H :   -0.027692
  22 H :   -0.024924
  23 H :   -0.027438
  24 H :   -0.028911
  25 H :   -0.004054
  26 H :   -0.023700
  27 H :   -0.005083
  28 H :   -0.057781
  29 H :   -0.064701
  30 H :   -0.011777
  31 H :   -0.030155
  32 H :   -0.021534
  33 H :   -0.035626
  34 H :   -0.153907
  35 H :   -0.023625

  Mayer bond orders larger than 0.100000
B(  0-C ,  1-C ) :   0.9708 B(  0-C , 20-H ) :   0.9759 B(  0-C , 21-H ) :   0.9747
B(  0-C , 22-H ) :   0.9721 B(  1-C ,  2-O ) :   0.9006 B(  1-C , 23-H ) :   0.9786
B(  1-C , 24-H ) :   0.9816 B(  2-O ,  3-C ) :   1.1579 B(  3-C ,  4-O ) :   1.9753
B(  3-C ,  5-C ) :   1.0532 B(  5-C ,  6-C ) :   1.6549 B(  5-C , 12-C ) :   0.9725
B(  6-C ,  7-C ) :   0.9671 B(  6-C ,  8-N ) :   1.1629 B(  7-C , 25-H ) :   0.9601
B(  7-C , 26-H ) :   0.9906 B(  7-C , 27-H ) :   0.9609 B(  8-N ,  9-C ) :   1.1845
B(  8-N , 28-H ) :   0.9479 B(  9-C , 10-S ) :   1.6051 B(  9-C , 11-N ) :   1.3062
B( 11-N , 12-C ) :   0.9867 B( 11-N , 29-H ) :   0.9515 B( 12-C , 13-C ) :   0.9351
B( 12-C , 30-H ) :   1.0028 B( 13-C , 14-C ) :   1.3545 B( 13-C , 19-C ) :   1.3816
B( 14-C , 15-C ) :   1.3895 B( 14-C , 31-H ) :   0.9710 B( 15-C , 16-C ) :   1.3642
B( 15-C , 32-H ) :   0.9705 B( 16-C , 17-C ) :   1.3316 B( 16-C , 33-H ) :   0.9850
B( 17-C , 18-O ) :   1.1099 B( 17-C , 19-C ) :   1.3705 B( 18-O , 34-H ) :   0.9798
B( 19-C , 35-H ) :   0.9586

MP2 TOTAL ENERGY:    -1274.340627834 Eh
FINAL SINGLE POINT ENERGY     -1274.340627833774

DIPOLE MOMENT
-------------
                                X             Y             Z
Electronic contribution:     10.37554       9.98016       8.40257
Nuclear contribution   :    -11.44124     -11.78022      -8.75908
                        -----------------------------------------
Total Dipole Moment    :     -1.06570      -1.80006      -0.35651
                        -----------------------------------------
Magnitude (a.u.)       :      2.12204
Magnitude (Debye)      :      5.39379

Rotational constants in cm-1:     0.011739     0.008670     0.006149
Rotational constants in MHz :   351.913520   259.923716   184.329281

                             ****ORCA TERMINATED NORMALLY****
TOTAL RUN TIME: 0 days 1 hours 45 minutes 27 seconds 370 msec
