                         Program Version 5.0.0 -  RELEASE  -
|  1> ! ri-mp2 cc-pvtz cc-pvtz/c TightSCF NoKeepInts
|  2>
|  3> %scf
|  4>   MaxCore 4096
|  5> end
|  6> *xyz  0  1
|  7>     C       15.6946136   13.9848179   14.7402832
|  8>     C       15.0476931   14.9028811   15.8008825
|  9>     O       15.9499387   15.9529881   16.2102892
| 10>     C       17.1307863   15.6983569   16.8530783
| 11>     O       17.5647662   14.5707959   17.0195884
| 12>     C       17.6492452   16.8653377   17.6450930
| 13>     C       17.3382195   18.1667310   17.4064959
| 14>     C       16.4468514   18.7293136   16.3180339
| 15>     N       17.9334005   19.1746876   18.1725406
| 16>     C       18.9499999   18.9803297   19.0698936
| 17>     S       19.6908956   20.2454055   19.8356592
| 18>     N       19.3220183   17.6800943   19.2986243
| 19>     C       18.6072731   16.4968215   18.7843340
| 20>     C       17.8683133   15.7867876   19.9159661
| 21>     C       18.0885931   14.4189910   20.1625078
| 22>     C       17.4102985   13.7594698   21.2012000
| 23>     C       16.5026325   14.4730901   22.0021136
| 24>     C       16.2772272   15.8345470   21.7577469
| 25>     O       15.3967815   16.5249914   22.5255749
| 26>     C       16.9535330   16.4881150   20.7228859
| 27>     H       16.1665076   14.5784034   13.9477458
| 28>     H       14.9322612   13.3461281   14.2782846
| 29>     H       16.4516107   13.3242416   15.1790156
| 30>     H       14.1452594   15.3587213   15.3739387
| 31>     H       14.7441469   14.3051393   16.6709630
| 32>     H       15.3932667   18.5060816   16.5275605
| 33>     H       16.6978230   18.2927412   15.3433201
| 34>     H       16.5402613   19.8172096   16.2149399
| 35>     H       17.6737682   20.1358970   18.0189878
| 36>     H       20.0522427   17.5608611   19.9888534
| 37>     H       19.3600881   15.8055019   18.3787461
| 38>     H       18.7769809   13.8606597   19.5327320
| 39>     H       17.5852998   12.6996337   21.3768940
| 40>     H       15.9752457   13.9672528   22.8038880
| 41>     H       15.0626185   15.9160728   23.2010326
| 42>     H       16.7665387   17.5429022   20.5543067
| 43> *
| 44>
| 45>                          ****END OF INPUT****

CARTESIAN COORDINATES (ANGSTROEM)
---------------------------------
  C     15.694614   13.984818   14.740283
  C     15.047693   14.902881   15.800882
  O     15.949939   15.952988   16.210289
  C     17.130786   15.698357   16.853078
  O     17.564766   14.570796   17.019588
  C     17.649245   16.865338   17.645093
  C     17.338219   18.166731   17.406496
  C     16.446851   18.729314   16.318034
  N     17.933400   19.174688   18.172541
  C     18.950000   18.980330   19.069894
  S     19.690896   20.245406   19.835659
  N     19.322018   17.680094   19.298624
  C     18.607273   16.496821   18.784334
  C     17.868313   15.786788   19.915966
  C     18.088593   14.418991   20.162508
  C     17.410298   13.759470   21.201200
  C     16.502633   14.473090   22.002114
  C     16.277227   15.834547   21.757747
  O     15.396781   16.524991   22.525575
  C     16.953533   16.488115   20.722886
  H     16.166508   14.578403   13.947746
  H     14.932261   13.346128   14.278285
  H     16.451611   13.324242   15.179016
  H     14.145259   15.358721   15.373939
  H     14.744147   14.305139   16.670963
  H     15.393267   18.506082   16.527560
  H     16.697823   18.292741   15.343320
  H     16.540261   19.817210   16.214940
  H     17.673768   20.135897   18.018988
  H     20.052243   17.560861   19.988853
  H     19.360088   15.805502   18.378746
  H     18.776981   13.860660   19.532732
  H     17.585300   12.699634   21.376894
  H     15.975246   13.967253   22.803888
  H     15.062618   15.916073   23.201033
  H     16.766539   17.542902   20.554307

 Total Charge           Charge          ....    0
 Multiplicity           Mult            ....    1
 Number of Electrons    NEL             ....  154
 Basis Dimension        Dim             ....  828

ORBITAL ENERGIES
----------------

  NO   OCC          E(Eh)            E(eV)
   0   2.0000     -91.887481     -2500.3855
   1   2.0000     -20.601791      -560.6032
   2   2.0000     -20.591158      -560.3139
   3   2.0000     -20.546946      -559.1108
   4   2.0000     -15.627473      -425.2452
   5   2.0000     -15.606236      -424.6673
   6   2.0000     -11.397498      -310.1417
   7   2.0000     -11.382405      -309.7310
   8   2.0000     -11.334723      -308.4335
   9   2.0000     -11.306997      -307.6790
  10   2.0000     -11.305372      -307.6348
  11   2.0000     -11.303341      -307.5795
  12   2.0000     -11.259960      -306.3991
  13   2.0000     -11.258352      -306.3553
  14   2.0000     -11.252976      -306.2091
  15   2.0000     -11.247231      -306.0527
  16   2.0000     -11.236828      -305.7696
  17   2.0000     -11.232853      -305.6615
  18   2.0000     -11.229997      -305.5837
  19   2.0000     -11.223765      -305.4142
  20   2.0000      -8.892552      -241.9786
  21   2.0000      -6.574131      -178.8912
  22   2.0000      -6.572123      -178.8365
  23   2.0000      -6.571539      -178.8207
  24   2.0000      -1.451496       -39.4972
  25   2.0000      -1.410890       -38.3923
  26   2.0000      -1.357913       -36.9507
  27   2.0000      -1.338593       -36.4250
  28   2.0000      -1.236313       -33.6418
  29   2.0000      -1.151556       -31.3354
  30   2.0000      -1.118851       -30.4455
  31   2.0000      -1.041577       -28.3427
  32   2.0000      -1.033714       -28.1288
  33   2.0000      -1.008937       -27.4546
  34   2.0000      -0.996458       -27.1150
  35   2.0000      -0.981992       -26.7213
  36   2.0000      -0.920885       -25.0586
  37   2.0000      -0.894191       -24.3322
  38   2.0000      -0.847233       -23.0544
  39   2.0000      -0.835150       -22.7256
  40   2.0000      -0.827416       -22.5151
  41   2.0000      -0.817651       -22.2494
  42   2.0000      -0.749337       -20.3905
  43   2.0000      -0.732165       -19.9232
  44   2.0000      -0.724433       -19.7128
  45   2.0000      -0.690458       -18.7883
  46   2.0000      -0.684518       -18.6267
  47   2.0000      -0.679510       -18.4904
  48   2.0000      -0.670476       -18.2446
  49   2.0000      -0.662467       -18.0266
  50   2.0000      -0.645450       -17.5636
  51   2.0000      -0.641258       -17.4495
  52   2.0000      -0.632221       -17.2036
  53   2.0000      -0.608175       -16.5493
  54   2.0000      -0.599421       -16.3111
  55   2.0000      -0.598742       -16.2926
  56   2.0000      -0.594272       -16.1710
  57   2.0000      -0.586239       -15.9524
  58   2.0000      -0.572422       -15.5764
  59   2.0000      -0.567365       -15.4388
  60   2.0000      -0.559688       -15.2299
  61   2.0000      -0.544796       -14.8246
  62   2.0000      -0.535818       -14.5803
  63   2.0000      -0.521168       -14.1817
  64   2.0000      -0.516636       -14.0584
  65   2.0000      -0.510917       -13.9028
  66   2.0000      -0.501433       -13.6447
  67   2.0000      -0.495034       -13.4706
  68   2.0000      -0.479573       -13.0498
  69   2.0000      -0.461333       -12.5535
  70   2.0000      -0.457516       -12.4497
  71   2.0000      -0.451113       -12.2754
  72   2.0000      -0.353408        -9.6167
  73   2.0000      -0.343433        -9.3453
  74   2.0000      -0.326648        -8.8885
  75   2.0000      -0.315048        -8.5729
  76   2.0000      -0.313330        -8.5261
  77   0.0000       0.076850         2.0912
  78   0.0000       0.113476         3.0878
  79   0.0000       0.121415         3.3039
  80   0.0000       0.136396         3.7115
  81   0.0000       0.141000         3.8368

MULLIKEN ATOMIC CHARGES
-----------------------
   0 C :   -0.305550
   1 C :    0.046182
   2 O :   -0.349222
   3 C :    0.440040
   4 O :   -0.432311
   5 C :   -0.151486
   6 C :    0.140034
   7 C :   -0.285704
   8 N :   -0.121408
   9 C :    0.201541
  10 S :   -0.440335
  11 N :   -0.196618
  12 C :    0.034160
  13 C :    0.056595
  14 C :   -0.161699
  15 C :   -0.134225
  16 C :   -0.279088
  17 C :    0.311403
  18 O :   -0.358992
  19 C :   -0.270350
  20 H :    0.090234
  21 H :    0.096072
  22 H :    0.129054
  23 H :    0.103040
  24 H :    0.096516
  25 H :    0.128638
  26 H :    0.123727
  27 H :    0.101894
  28 H :    0.196674
  29 H :    0.193235
  30 H :    0.153661
  31 H :    0.153188
  32 H :    0.158825
  33 H :    0.127869
  34 H :    0.239905
  35 H :    0.164500
Sum of atomic charges:   -0.0000000

LOEWDIN ATOMIC CHARGES
----------------------
   0 C :    0.104185
   1 C :   -0.012743
   2 O :    0.299180
   3 C :   -0.411952
   4 O :    0.110534
   5 C :   -0.089963
   6 C :   -0.067338
   7 C :    0.124764
   8 N :    0.404509
   9 C :   -0.458839
  10 S :   -0.036795
  11 N :    0.397721
  12 C :   -0.046140
  13 C :   -0.038662
  14 C :    0.021533
  15 C :    0.040586
  16 C :   -0.002412
  17 C :   -0.192435
  18 O :    0.393065
  19 C :    0.028995
  20 H :   -0.030011
  21 H :   -0.028405
  22 H :   -0.025907
  23 H :   -0.024875
  24 H :   -0.027254
  25 H :   -0.009455
  26 H :   -0.009332
  27 H :   -0.020941
  28 H :   -0.059235
  29 H :   -0.063784
  30 H :   -0.005206
  31 H :   -0.025546
  32 H :   -0.021382
  33 H :   -0.036483
  34 H :   -0.155012
  35 H :   -0.024963

  Mayer bond orders larger than 0.100000
B(  0-C ,  1-C ) :   0.9675 B(  0-C , 20-H ) :   0.9757 B(  0-C , 21-H ) :   0.9776
B(  0-C , 22-H ) :   0.9709 B(  1-C ,  2-O ) :   0.9073 B(  1-C , 23-H ) :   0.9845
B(  1-C , 24-H ) :   0.9785 B(  2-O ,  3-C ) :   1.1469 B(  3-C ,  4-O ) :   1.9586
B(  3-C ,  5-C ) :   1.0575 B(  5-C ,  6-C ) :   1.6486 B(  5-C , 12-C ) :   0.9650
B(  6-C ,  7-C ) :   0.9551 B(  6-C ,  8-N ) :   1.1464 B(  7-C , 25-H ) :   0.9627
B(  7-C , 26-H ) :   0.9671 B(  7-C , 27-H ) :   0.9913 B(  8-N ,  9-C ) :   1.1796
B(  8-N , 28-H ) :   0.9492 B(  9-C , 10-S ) :   1.6099 B(  9-C , 11-N ) :   1.3033
B( 11-N , 12-C ) :   0.9940 B( 11-N , 29-H ) :   0.9520 B( 12-C , 13-C ) :   0.9470
B( 12-C , 30-H ) :   0.9996 B( 13-C , 14-C ) :   1.3754 B( 13-C , 19-C ) :   1.3703
B( 14-C , 15-C ) :   1.3947 B( 14-C , 31-H ) :   0.9652 B( 15-C , 16-C ) :   1.3628
B( 15-C , 32-H ) :   0.9715 B( 16-C , 17-C ) :   1.3313 B( 16-C , 33-H ) :   0.9861
B( 17-C , 18-O ) :   1.1080 B( 17-C , 19-C ) :   1.3792 B( 18-O , 34-H ) :   0.9807
B( 19-C , 35-H ) :   0.9584

MP2 TOTAL ENERGY:    -1274.342097870 Eh
FINAL SINGLE POINT ENERGY     -1274.342097870483

DIPOLE MOMENT
-------------
                                X             Y             Z
Electronic contribution:      9.74062       9.89101      11.56523
Nuclear contribution   :    -11.39991     -11.05848     -12.50315
                        -----------------------------------------
Total Dipole Moment    :     -1.65929      -1.16747      -0.93793
                        -----------------------------------------
Magnitude (a.u.)       :      2.23516
Magnitude (Debye)      :      5.68131

Rotational constants in cm-1:     0.010612     0.008886     0.005825
Rotational constants in MHz :   318.133812   266.404893   174.641386

                             ****ORCA TERMINATED NORMALLY****
TOTAL RUN TIME: 0 days 1 hours 52 minutes 5 seconds 276 msec
