                         Program Version 4.2.0 -  RELEASE  -
|  1> ! ri-mp2 cc-pvtz cc-pvtz/c TightSCF  NoKeepInts
|  2>
|  3> %scf
|  4>   MaxCore 4096
|  5> end
|  6> *xyz  0  1
|  7>     C       15.6953914   13.9844006   14.7402649
|  8>     C       15.0481895   14.9023717   15.8007721
|  9>     O       15.9501809   15.9526840   16.2102123
| 10>     C       17.1310283   15.6983256   16.8531098
| 11>     O       17.5652313   14.5708624   17.0197000
| 12>     C       17.6491758   16.8654462   17.6451225
| 13>     C       17.3378975   18.1667650   17.4064480
| 14>     C       16.4465046   18.7291180   16.3178878
| 15>     N       17.9328003   19.1748762   18.1725050
| 16>     C       18.9493615   18.9807666   19.0699550
| 17>     S       19.6899229   20.2460278   19.8357378
| 18>     N       19.3216338   17.6806184   19.2987680
| 19>     C       18.6071838   16.4971752   18.7844596
| 20>     C       17.8682771   15.7870266   19.9160543
| 21>     C       18.0888287   14.4192870   20.1626689
| 22>     C       17.4105840   13.7596609   21.2013271
| 23>     C       16.5026943   14.4731177   22.0021327
| 24>     C       16.2770185   15.8345167   21.7576929
| 25>     O       15.3963566   16.5248023   22.5254158
| 26>     C       16.9532756   16.4881894   20.7228661
| 27>     H       16.1672334   14.5780522   13.9477460
| 28>     H       14.9332107   13.3455364   14.2782240
| 29>     H       16.4524854   13.3239965   15.1790896
| 30>     H       14.1456969   15.3580062   15.3737333
| 31>     H       14.7446943   14.3046019   16.6708512
| 32>     H       15.3929481   18.5056798   16.5273369
| 33>     H       16.6976461   18.2925547   15.3432136
| 34>     H       16.5397012   19.8170286   16.2147541
| 35>     H       17.6729788   20.1360250   18.0188930
| 36>     H       20.0518218   17.5615655   19.9890668
| 37>     H       19.3601802   15.8060001   18.3789619
| 38>     H       18.7773917   13.8610788   19.5329755
| 39>     H       17.5857974   12.6998692   21.3770780
| 40>     H       15.9753453   13.9671988   22.8038803
| 41>     H       15.0622622   15.9158378   23.2008658
| 42>     H       16.7660700   17.5429300   20.5542292
| 43> *
| 44>
| 45>                          ****END OF INPUT****

CARTESIAN COORDINATES (ANGSTROEM)
---------------------------------
  C     15.695391   13.984401   14.740265
  C     15.048189   14.902372   15.800772
  O     15.950181   15.952684   16.210212
  C     17.131028   15.698326   16.853110
  O     17.565231   14.570862   17.019700
  C     17.649176   16.865446   17.645122
  C     17.337898   18.166765   17.406448
  C     16.446505   18.729118   16.317888
  N     17.932800   19.174876   18.172505
  C     18.949361   18.980767   19.069955
  S     19.689923   20.246028   19.835738
  N     19.321634   17.680618   19.298768
  C     18.607184   16.497175   18.784460
  C     17.868277   15.787027   19.916054
  C     18.088829   14.419287   20.162669
  C     17.410584   13.759661   21.201327
  C     16.502694   14.473118   22.002133
  C     16.277019   15.834517   21.757693
  O     15.396357   16.524802   22.525416
  C     16.953276   16.488189   20.722866
  H     16.167233   14.578052   13.947746
  H     14.933211   13.345536   14.278224
  H     16.452485   13.323996   15.179090
  H     14.145697   15.358006   15.373733
  H     14.744694   14.304602   16.670851
  H     15.392948   18.505680   16.527337
  H     16.697646   18.292555   15.343214
  H     16.539701   19.817029   16.214754
  H     17.672979   20.136025   18.018893
  H     20.051822   17.561565   19.989067
  H     19.360180   15.806000   18.378962
  H     18.777392   13.861079   19.532975
  H     17.585797   12.699869   21.377078
  H     15.975345   13.967199   22.803880
  H     15.062262   15.915838   23.200866
  H     16.766070   17.542930   20.554229

 Total Charge           Charge          ....    0
 Multiplicity           Mult            ....    1
 Number of Electrons    NEL             ....  154
 Basis Dimension        Dim             ....  828

ORBITAL ENERGIES
----------------

  NO   OCC          E(Eh)            E(eV)
   0   2.0000     -91.887481     -2500.3855
   1   2.0000     -20.601790      -560.6032
   2   2.0000     -20.591158      -560.3139
   3   2.0000     -20.546946      -559.1108
   4   2.0000     -15.627473      -425.2452
   5   2.0000     -15.606236      -424.6673
   6   2.0000     -11.397498      -310.1417
   7   2.0000     -11.382405      -309.7310
   8   2.0000     -11.334723      -308.4335
   9   2.0000     -11.306997      -307.6790
  10   2.0000     -11.305372      -307.6348
  11   2.0000     -11.303341      -307.5795
  12   2.0000     -11.259960      -306.3991
  13   2.0000     -11.258352      -306.3553
  14   2.0000     -11.252976      -306.2091
  15   2.0000     -11.247231      -306.0527
  16   2.0000     -11.236828      -305.7696
  17   2.0000     -11.232853      -305.6615
  18   2.0000     -11.229997      -305.5837
  19   2.0000     -11.223765      -305.4142
  20   2.0000      -8.892552      -241.9786
  21   2.0000      -6.574131      -178.8912
  22   2.0000      -6.572123      -178.8365
  23   2.0000      -6.571539      -178.8207
  24   2.0000      -1.451496       -39.4972
  25   2.0000      -1.410890       -38.3923
  26   2.0000      -1.357913       -36.9507
  27   2.0000      -1.338593       -36.4250
  28   2.0000      -1.236313       -33.6418
  29   2.0000      -1.151556       -31.3354
  30   2.0000      -1.118851       -30.4455
  31   2.0000      -1.041577       -28.3427
  32   2.0000      -1.033714       -28.1288
  33   2.0000      -1.008937       -27.4546
  34   2.0000      -0.996458       -27.1150
  35   2.0000      -0.981992       -26.7213
  36   2.0000      -0.920885       -25.0586
  37   2.0000      -0.894191       -24.3322
  38   2.0000      -0.847233       -23.0544
  39   2.0000      -0.835150       -22.7256
  40   2.0000      -0.827416       -22.5151
  41   2.0000      -0.817651       -22.2494
  42   2.0000      -0.749336       -20.3905
  43   2.0000      -0.732165       -19.9232
  44   2.0000      -0.724433       -19.7128
  45   2.0000      -0.690458       -18.7883
  46   2.0000      -0.684518       -18.6267
  47   2.0000      -0.679510       -18.4904
  48   2.0000      -0.670476       -18.2446
  49   2.0000      -0.662467       -18.0266
  50   2.0000      -0.645450       -17.5636
  51   2.0000      -0.641258       -17.4495
  52   2.0000      -0.632221       -17.2036
  53   2.0000      -0.608175       -16.5493
  54   2.0000      -0.599421       -16.3111
  55   2.0000      -0.598742       -16.2926
  56   2.0000      -0.594272       -16.1710
  57   2.0000      -0.586239       -15.9524
  58   2.0000      -0.572422       -15.5764
  59   2.0000      -0.567365       -15.4388
  60   2.0000      -0.559688       -15.2299
  61   2.0000      -0.544795       -14.8246
  62   2.0000      -0.535818       -14.5803
  63   2.0000      -0.521168       -14.1817
  64   2.0000      -0.516636       -14.0584
  65   2.0000      -0.510917       -13.9028
  66   2.0000      -0.501433       -13.6447
  67   2.0000      -0.495034       -13.4706
  68   2.0000      -0.479573       -13.0498
  69   2.0000      -0.461333       -12.5535
  70   2.0000      -0.457516       -12.4497
  71   2.0000      -0.451113       -12.2754
  72   2.0000      -0.353408        -9.6167
  73   2.0000      -0.343433        -9.3453
  74   2.0000      -0.326648        -8.8885
  75   2.0000      -0.315048        -8.5729
  76   2.0000      -0.313330        -8.5262
  77   0.0000       0.076851         2.0912
  78   0.0000       0.113476         3.0878
  79   0.0000       0.121415         3.3039
  80   0.0000       0.136396         3.7115
  81   0.0000       0.141000         3.8368

MULLIKEN ATOMIC CHARGES
-----------------------
   0 C :   -0.305550
   1 C :    0.046183
   2 O :   -0.349222
   3 C :    0.440039
   4 O :   -0.432310
   5 C :   -0.151488
   6 C :    0.140035
   7 C :   -0.285704
   8 N :   -0.121408
   9 C :    0.201542
  10 S :   -0.440336
  11 N :   -0.196618
  12 C :    0.034161
  13 C :    0.056594
  14 C :   -0.161699
  15 C :   -0.134224
  16 C :   -0.279088
  17 C :    0.311404
  18 O :   -0.358991
  19 C :   -0.270351
  20 H :    0.090234
  21 H :    0.096072
  22 H :    0.129054
  23 H :    0.103040
  24 H :    0.096516
  25 H :    0.128638
  26 H :    0.123726
  27 H :    0.101894
  28 H :    0.196674
  29 H :    0.193235
  30 H :    0.153661
  31 H :    0.153188
  32 H :    0.158825
  33 H :    0.127869
  34 H :    0.239905
  35 H :    0.164500
Sum of atomic charges:   -0.0000000

LOEWDIN ATOMIC CHARGES
----------------------
   0 C :    0.104185
   1 C :   -0.012744
   2 O :    0.299180
   3 C :   -0.411952
   4 O :    0.110534
   5 C :   -0.089963
   6 C :   -0.067339
   7 C :    0.124764
   8 N :    0.404509
   9 C :   -0.458839
  10 S :   -0.036795
  11 N :    0.397721
  12 C :   -0.046140
  13 C :   -0.038662
  14 C :    0.021533
  15 C :    0.040586
  16 C :   -0.002412
  17 C :   -0.192435
  18 O :    0.393065
  19 C :    0.028995
  20 H :   -0.030011
  21 H :   -0.028405
  22 H :   -0.025907
  23 H :   -0.024875
  24 H :   -0.027254
  25 H :   -0.009455
  26 H :   -0.009332
  27 H :   -0.020941
  28 H :   -0.059235
  29 H :   -0.063784
  30 H :   -0.005206
  31 H :   -0.025546
  32 H :   -0.021382
  33 H :   -0.036483
  34 H :   -0.155012
  35 H :   -0.024963

  Mayer bond orders larger than 0.100000
B(  0-C ,  1-C ) :   0.9675 B(  0-C , 20-H ) :   0.9757 B(  0-C , 21-H ) :   0.9776
B(  0-C , 22-H ) :   0.9709 B(  1-C ,  2-O ) :   0.9073 B(  1-C , 23-H ) :   0.9845
B(  1-C , 24-H ) :   0.9785 B(  2-O ,  3-C ) :   1.1469 B(  3-C ,  4-O ) :   1.9586
B(  3-C ,  5-C ) :   1.0575 B(  5-C ,  6-C ) :   1.6486 B(  5-C , 12-C ) :   0.9650
B(  6-C ,  7-C ) :   0.9551 B(  6-C ,  8-N ) :   1.1464 B(  7-C , 25-H ) :   0.9627
B(  7-C , 26-H ) :   0.9671 B(  7-C , 27-H ) :   0.9913 B(  8-N ,  9-C ) :   1.1796
B(  8-N , 28-H ) :   0.9492 B(  9-C , 10-S ) :   1.6099 B(  9-C , 11-N ) :   1.3033
B( 11-N , 12-C ) :   0.9940 B( 11-N , 29-H ) :   0.9520 B( 12-C , 13-C ) :   0.9470
B( 12-C , 30-H ) :   0.9996 B( 13-C , 14-C ) :   1.3754 B( 13-C , 19-C ) :   1.3703
B( 14-C , 15-C ) :   1.3947 B( 14-C , 31-H ) :   0.9652 B( 15-C , 16-C ) :   1.3628
B( 15-C , 32-H ) :   0.9715 B( 16-C , 17-C ) :   1.3313 B( 16-C , 33-H ) :   0.9861
B( 17-C , 18-O ) :   1.1080 B( 17-C , 19-C ) :   1.3792 B( 18-O , 34-H ) :   0.9807
B( 19-C , 35-H ) :   0.9584

MP2 TOTAL ENERGY:    -1274.342097793 Eh
FINAL SINGLE POINT ENERGY     -1274.342097793145

DIPOLE MOMENT
-------------
                                X             Y             Z
Electronic contribution:      9.73755       9.89351      11.56567
Nuclear contribution   :    -11.39651     -11.06136     -12.50369
                        -----------------------------------------
Total Dipole Moment    :     -1.65896      -1.16785      -0.93802
                        -----------------------------------------
Magnitude (a.u.)       :      2.23516
Magnitude (Debye)      :      5.68131

Rotational constants in cm-1:     0.010612     0.008886     0.005825
Rotational constants in MHz :   318.133791   266.405075   174.641513

                             ****ORCA TERMINATED NORMALLY****
TOTAL RUN TIME: 0 days 1 hours 36 minutes 14 seconds 624 msec
