                         Program Version 4.2.0 -  RELEASE  -
|  1> ! ri-mp2 cc-pvtz cc-pvtz/c TightSCF  NoKeepInts
|  2>
|  3> %scf
|  4>   MaxCore 4096
|  5> end
|  6> *xyz  0  1
|  7>     C       14.7814054   16.1790008   17.1364296
|  8>     C       15.6450531   14.9102789   16.9993077
|  9>     O       16.7932106   15.0547607   16.1282944
| 10>     C       17.9517561   15.7476474   16.3901753
| 11>     O       19.0212860   15.2277708   16.1320466
| 12>     C       17.8871898   16.8728828   17.3638035
| 13>     C       17.3687988   18.0735963   17.0202482
| 14>     C       16.7750271   18.4565105   15.6817477
| 15>     N       17.4326606   19.1421159   17.9167061
| 16>     C       18.0888939   19.1109845   19.1197964
| 17>     S       18.1528901   20.4344508   20.1089294
| 18>     N       18.6906378   17.9253418   19.4651999
| 19>     C       18.6150004   16.6690027   18.6922307
| 20>     C       17.9730935   15.5486014   19.5028628
| 21>     C       18.4830522   14.2401404   19.4170103
| 22>     C       17.8856432   13.1902798   20.1339920
| 23>     C       16.7662501   13.4492410   20.9429893
| 24>     C       16.2516884   14.7498731   21.0277112
| 25>     O       15.1619326   15.0006187   21.7954950
| 26>     C       16.8469495   15.7931570   20.3114389
| 27>     H       15.2023725   16.8847307   17.8591841
| 28>     H       13.7870095   15.9056339   17.5103238
| 29>     H       14.6439824   16.6708729   16.1669474
| 30>     H       15.9559439   14.5550478   17.9889806
| 31>     H       15.0090000   14.1245875   16.5714750
| 32>     H       16.6370301   17.5926795   15.0203583
| 33>     H       17.4330296   19.1606936   15.1568245
| 34>     H       15.7955874   18.9350947   15.8036312
| 35>     H       17.0195592   20.0279978   17.6704819
| 36>     H       19.1544397   17.9288776   20.3649736
| 37>     H       19.6454141   16.3634091   18.4567656
| 38>     H       19.3395409   14.0340469   18.7778267
| 39>     H       18.2888802   12.1817147   20.0566843
| 40>     H       16.3010966   12.6403131   21.4969597
| 41>     H       14.9361156   14.1797543   22.2590290
| 42>     H       16.4255790   16.7902909   20.3871393
| 43> *
| 44>
| 45>                          ****END OF INPUT****

CARTESIAN COORDINATES (ANGSTROEM)
---------------------------------
  C     14.781405   16.179001   17.136430
  C     15.645053   14.910279   16.999308
  O     16.793211   15.054761   16.128294
  C     17.951756   15.747647   16.390175
  O     19.021286   15.227771   16.132047
  C     17.887190   16.872883   17.363803
  C     17.368799   18.073596   17.020248
  C     16.775027   18.456511   15.681748
  N     17.432661   19.142116   17.916706
  C     18.088894   19.110984   19.119796
  S     18.152890   20.434451   20.108929
  N     18.690638   17.925342   19.465200
  C     18.615000   16.669003   18.692231
  C     17.973094   15.548601   19.502863
  C     18.483052   14.240140   19.417010
  C     17.885643   13.190280   20.133992
  C     16.766250   13.449241   20.942989
  C     16.251688   14.749873   21.027711
  O     15.161933   15.000619   21.795495
  C     16.846950   15.793157   20.311439
  H     15.202372   16.884731   17.859184
  H     13.787009   15.905634   17.510324
  H     14.643982   16.670873   16.166947
  H     15.955944   14.555048   17.988981
  H     15.009000   14.124588   16.571475
  H     16.637030   17.592679   15.020358
  H     17.433030   19.160694   15.156824
  H     15.795587   18.935095   15.803631
  H     17.019559   20.027998   17.670482
  H     19.154440   17.928878   20.364974
  H     19.645414   16.363409   18.456766
  H     19.339541   14.034047   18.777827
  H     18.288880   12.181715   20.056684
  H     16.301097   12.640313   21.496960
  H     14.936116   14.179754   22.259029
  H     16.425579   16.790291   20.387139

 Total Charge           Charge          ....    0
 Multiplicity           Mult            ....    1
 Number of Electrons    NEL             ....  154
 Basis Dimension        Dim             ....  828

ORBITAL ENERGIES
----------------

  NO   OCC          E(Eh)            E(eV)
   0   2.0000     -91.890271     -2500.4614
   1   2.0000     -20.602955      -560.6349
   2   2.0000     -20.591530      -560.3240
   3   2.0000     -20.551995      -559.2482
   4   2.0000     -15.626572      -425.2206
   5   2.0000     -15.612364      -424.8340
   6   2.0000     -11.397401      -310.1390
   7   2.0000     -11.387128      -309.8595
   8   2.0000     -11.327275      -308.2308
   9   2.0000     -11.320669      -308.0511
  10   2.0000     -11.316385      -307.9345
  11   2.0000     -11.303122      -307.5736
  12   2.0000     -11.267030      -306.5915
  13   2.0000     -11.265693      -306.5551
  14   2.0000     -11.262055      -306.4561
  15   2.0000     -11.261078      -306.4295
  16   2.0000     -11.250019      -306.1286
  17   2.0000     -11.245259      -305.9991
  18   2.0000     -11.242922      -305.9355
  19   2.0000     -11.233311      -305.6739
  20   2.0000      -8.895380      -242.0556
  21   2.0000      -6.576967      -178.9684
  22   2.0000      -6.574942      -178.9133
  23   2.0000      -6.574366      -178.8976
  24   2.0000      -1.443392       -39.2767
  25   2.0000      -1.422776       -38.7157
  26   2.0000      -1.355118       -36.8746
  27   2.0000      -1.340182       -36.4682
  28   2.0000      -1.240410       -33.7533
  29   2.0000      -1.164675       -31.6924
  30   2.0000      -1.126188       -30.6451
  31   2.0000      -1.050863       -28.5954
  32   2.0000      -1.037333       -28.2273
  33   2.0000      -1.022282       -27.8177
  34   2.0000      -1.005451       -27.3597
  35   2.0000      -0.990656       -26.9571
  36   2.0000      -0.929052       -25.2808
  37   2.0000      -0.894324       -24.3358
  38   2.0000      -0.852814       -23.2062
  39   2.0000      -0.843012       -22.9395
  40   2.0000      -0.840271       -22.8649
  41   2.0000      -0.832247       -22.6466
  42   2.0000      -0.751973       -20.4622
  43   2.0000      -0.736135       -20.0313
  44   2.0000      -0.729923       -19.8622
  45   2.0000      -0.700664       -19.0660
  46   2.0000      -0.690173       -18.7806
  47   2.0000      -0.678729       -18.4692
  48   2.0000      -0.675817       -18.3899
  49   2.0000      -0.663247       -18.0479
  50   2.0000      -0.655545       -17.8383
  51   2.0000      -0.642825       -17.4922
  52   2.0000      -0.640765       -17.4361
  53   2.0000      -0.615041       -16.7361
  54   2.0000      -0.609038       -16.5728
  55   2.0000      -0.608075       -16.5466
  56   2.0000      -0.605122       -16.4662
  57   2.0000      -0.588541       -16.0150
  58   2.0000      -0.583585       -15.8802
  59   2.0000      -0.578938       -15.7537
  60   2.0000      -0.567405       -15.4399
  61   2.0000      -0.556548       -15.1444
  62   2.0000      -0.539004       -14.6670
  63   2.0000      -0.532756       -14.4970
  64   2.0000      -0.523973       -14.2580
  65   2.0000      -0.515037       -14.0149
  66   2.0000      -0.504356       -13.7242
  67   2.0000      -0.495885       -13.4937
  68   2.0000      -0.490560       -13.3488
  69   2.0000      -0.463927       -12.6241
  70   2.0000      -0.455364       -12.3911
  71   2.0000      -0.448329       -12.1997
  72   2.0000      -0.355674        -9.6784
  73   2.0000      -0.355239        -9.6665
  74   2.0000      -0.330314        -8.9883
  75   2.0000      -0.328624        -8.9423
  76   2.0000      -0.318887        -8.6774
  77   0.0000       0.087673         2.3857
  78   0.0000       0.101099         2.7511
  79   0.0000       0.117833         3.2064
  80   0.0000       0.124565         3.3896
  81   0.0000       0.128001         3.4831

MULLIKEN ATOMIC CHARGES
-----------------------
   0 C :   -0.334528
   1 C :    0.036817
   2 O :   -0.340659
   3 C :    0.394922
   4 O :   -0.373395
   5 C :   -0.168712
   6 C :    0.119398
   7 C :   -0.331014
   8 N :   -0.133823
   9 C :    0.206493
  10 S :   -0.441064
  11 N :   -0.220948
  12 C :    0.084991
  13 C :   -0.001179
  14 C :   -0.198313
  15 C :   -0.133441
  16 C :   -0.274644
  17 C :    0.313204
  18 O :   -0.356542
  19 C :   -0.265086
  20 H :    0.107766
  21 H :    0.123871
  22 H :    0.106947
  23 H :    0.103973
  24 H :    0.126350
  25 H :    0.123486
  26 H :    0.150526
  27 H :    0.116990
  28 H :    0.197089
  29 H :    0.200364
  30 H :    0.165630
  31 H :    0.171025
  32 H :    0.165440
  33 H :    0.134228
  34 H :    0.242085
  35 H :    0.181753
Sum of atomic charges:   -0.0000000

LOEWDIN ATOMIC CHARGES
----------------------
   0 C :    0.102977
   1 C :   -0.013012
   2 O :    0.287349
   3 C :   -0.416481
   4 O :    0.129581
   5 C :   -0.082714
   6 C :   -0.099533
   7 C :    0.125152
   8 N :    0.402740
   9 C :   -0.455697
  10 S :   -0.037694
  11 N :    0.397653
  12 C :   -0.044804
  13 C :   -0.045487
  14 C :    0.019945
  15 C :    0.045280
  16 C :   -0.000504
  17 C :   -0.194241
  18 O :    0.396469
  19 C :    0.027609
  20 H :   -0.035227
  21 H :   -0.021185
  22 H :   -0.029462
  23 H :   -0.030298
  24 H :   -0.019272
  25 H :   -0.010206
  26 H :   -0.008576
  27 H :   -0.016904
  28 H :   -0.057341
  29 H :   -0.064018
  30 H :   -0.002653
  31 H :   -0.021366
  32 H :   -0.017622
  33 H :   -0.033859
  34 H :   -0.152386
  35 H :   -0.024213

  Mayer bond orders larger than 0.100000
B(  0-C ,  1-C ) :   0.9551 B(  0-C , 20-H ) :   0.9730 B(  0-C , 21-H ) :   0.9786
B(  0-C , 22-H ) :   0.9745 B(  1-C ,  2-O ) :   0.9011 B(  1-C , 23-H ) :   0.9691
B(  1-C , 24-H ) :   0.9851 B(  2-O ,  3-C ) :   1.1668 B(  3-C ,  4-O ) :   2.1073
B(  3-C ,  5-C ) :   0.9113 B(  5-C ,  6-C ) :   1.7064 B(  5-C , 12-C ) :   0.9480
B(  6-C ,  7-C ) :   0.9523 B(  6-C ,  8-N ) :   1.1059 B(  7-C , 25-H ) :   0.9790
B(  7-C , 26-H ) :   0.9657 B(  7-C , 27-H ) :   0.9684 B(  8-N ,  9-C ) :   1.1977
B(  8-N , 28-H ) :   0.9516 B(  9-C , 10-S ) :   1.6114 B(  9-C , 11-N ) :   1.2841
B( 11-N , 12-C ) :   0.9963 B( 11-N , 29-H ) :   0.9479 B( 12-C , 13-C ) :   0.9410
B( 12-C , 30-H ) :   0.9975 B( 13-C , 14-C ) :   1.3918 B( 13-C , 19-C ) :   1.3428
B( 14-C , 15-C ) :   1.3969 B( 14-C , 31-H ) :   0.9609 B( 15-C , 16-C ) :   1.3609
B( 15-C , 32-H ) :   0.9697 B( 16-C , 17-C ) :   1.3288 B( 16-C , 33-H ) :   0.9840
B( 17-C , 18-O ) :   1.1134 B( 17-C , 19-C ) :   1.3676 B( 18-O , 34-H ) :   0.9786
B( 19-C , 35-H ) :   0.9541

MP2 TOTAL ENERGY:    -1274.325675448 Eh
FINAL SINGLE POINT ENERGY     -1274.325675448167

DIPOLE MOMENT
-------------
                                X             Y             Z
Electronic contribution:      9.73494       5.22370       6.01185
Nuclear contribution   :    -11.17948      -6.49387      -6.20902
                        -----------------------------------------
Total Dipole Moment    :     -1.44454      -1.27018      -0.19717
                        -----------------------------------------
Magnitude (a.u.)       :      1.93363
Magnitude (Debye)      :      4.91490

Rotational constants in cm-1:     0.012364     0.009303     0.006979
Rotational constants in MHz :   370.664060   278.887459   209.232410

                             ****ORCA TERMINATED NORMALLY****
TOTAL RUN TIME: 0 days 1 hours 57 minutes 59 seconds 797 msec
