                         Program Version 5.0.0 -  RELEASE  -
|  1> ! ri-mp2 cc-pvtz cc-pvtz/c TightSCF NoKeepInts
|  2>
|  3> %scf
|  4>   MaxCore 4096
|  5> end
|  6> *xyz  0  1
|  7>     C       15.0259473   14.1307876   15.5995361
|  8>     C       16.4110796   13.8890027   16.2368403
|  9>     O       17.1163304   15.0676484   16.7096542
| 10>     C       16.7273713   16.3827145   16.6248411
| 11>     O       15.8835453   16.8007820   15.8525488
| 12>     C       17.5256258   17.2619704   17.5505674
| 13>     C       17.4057940   18.6147177   17.5583198
| 14>     C       16.5015799   19.4633442   16.6896911
| 15>     N       18.1938288   19.3846316   18.4191954
| 16>     C       19.1812512   18.8933683   19.2302276
| 17>     S       20.1262498   19.8847076   20.1577438
| 18>     N       19.3490935   17.5325898   19.2340305
| 19>     C       18.4844387   16.5665023   18.5324412
| 20>     C       17.7354684   15.7120897   19.5512910
| 21>     C       18.0337597   14.3435559   19.6913300
| 22>     C       17.3435098   13.5533542   20.6258737
| 23>     C       16.3488506   14.1365959   21.4292950
| 24>     C       16.0528950   15.5001892   21.2960242
| 25>     O       15.0943837   16.0665276   22.0715993
| 26>     C       16.7414187   16.2839520   20.3650499
| 27>     H       14.3656344   14.6778342   16.2842493
| 28>     H       14.5453914   13.1736276   15.3644754
| 29>     H       15.1140786   14.6950075   14.6626114
| 30>     H       16.2834090   13.2051766   17.0860569
| 31>     H       17.0437710   13.3724596   15.5037130
| 32>     H       15.4495212   19.1978446   16.8549492
| 33>     H       16.7181299   19.2947257   15.6271120
| 34>     H       16.6054591   20.5376301   16.8815946
| 35>     H       18.0852988   20.3861711   18.4291092
| 36>     H       20.0585934   17.1969926   19.8725675
| 37>     H       19.1428315   15.9107313   17.9456399
| 38>     H       18.7999411   13.8897785   19.0685388
| 39>     H       17.5803890   12.4956046   20.7262754
| 40>     H       15.8133850   13.5308907   22.1529634
| 41>     H       14.7561350   15.3796646   22.6653701
| 42>     H       16.5026102   17.3388290   20.2826735
| 43> *
| 44>
| 45>                          ****END OF INPUT****

CARTESIAN COORDINATES (ANGSTROEM)
---------------------------------
  C     15.025947   14.130788   15.599536
  C     16.411080   13.889003   16.236840
  O     17.116330   15.067648   16.709654
  C     16.727371   16.382714   16.624841
  O     15.883545   16.800782   15.852549
  C     17.525626   17.261970   17.550567
  C     17.405794   18.614718   17.558320
  C     16.501580   19.463344   16.689691
  N     18.193829   19.384632   18.419195
  C     19.181251   18.893368   19.230228
  S     20.126250   19.884708   20.157744
  N     19.349093   17.532590   19.234030
  C     18.484439   16.566502   18.532441
  C     17.735468   15.712090   19.551291
  C     18.033760   14.343556   19.691330
  C     17.343510   13.553354   20.625874
  C     16.348851   14.136596   21.429295
  C     16.052895   15.500189   21.296024
  O     15.094384   16.066528   22.071599
  C     16.741419   16.283952   20.365050
  H     14.365634   14.677834   16.284249
  H     14.545391   13.173628   15.364475
  H     15.114079   14.695007   14.662611
  H     16.283409   13.205177   17.086057
  H     17.043771   13.372460   15.503713
  H     15.449521   19.197845   16.854949
  H     16.718130   19.294726   15.627112
  H     16.605459   20.537630   16.881595
  H     18.085299   20.386171   18.429109
  H     20.058593   17.196993   19.872567
  H     19.142831   15.910731   17.945640
  H     18.799941   13.889778   19.068539
  H     17.580389   12.495605   20.726275
  H     15.813385   13.530891   22.152963
  H     14.756135   15.379665   22.665370
  H     16.502610   17.338829   20.282673

 Total Charge           Charge          ....    0
 Multiplicity           Mult            ....    1
 Number of Electrons    NEL             ....  154
 Basis Dimension        Dim             ....  828

ORBITAL ENERGIES
----------------

  NO   OCC          E(Eh)            E(eV)
   0   2.0000     -91.887733     -2500.3923
   1   2.0000     -20.597892      -560.4971
   2   2.0000     -20.596330      -560.4546
   3   2.0000     -20.539740      -558.9147
   4   2.0000     -15.627700      -425.2513
   5   2.0000     -15.606995      -424.6879
   6   2.0000     -11.397773      -310.1492
   7   2.0000     -11.382743      -309.7402
   8   2.0000     -11.334549      -308.4288
   9   2.0000     -11.313455      -307.8548
  10   2.0000     -11.307239      -307.6856
  11   2.0000     -11.303060      -307.5719
  12   2.0000     -11.259226      -306.3791
  13   2.0000     -11.257737      -306.3386
  14   2.0000     -11.255076      -306.2662
  15   2.0000     -11.250910      -306.1528
  16   2.0000     -11.242731      -305.9303
  17   2.0000     -11.237968      -305.8006
  18   2.0000     -11.237917      -305.7993
  19   2.0000     -11.222968      -305.3925
  20   2.0000      -8.892809      -241.9856
  21   2.0000      -6.574388      -178.8982
  22   2.0000      -6.572380      -178.8436
  23   2.0000      -6.571796      -178.8277
  24   2.0000      -1.441951       -39.2375
  25   2.0000      -1.415973       -38.5306
  26   2.0000      -1.353754       -36.8375
  27   2.0000      -1.338833       -36.4315
  28   2.0000      -1.237341       -33.6698
  29   2.0000      -1.157016       -31.4840
  30   2.0000      -1.118752       -30.4428
  31   2.0000      -1.041864       -28.3506
  32   2.0000      -1.036345       -28.2004
  33   2.0000      -1.014719       -27.6119
  34   2.0000      -0.994494       -27.0615
  35   2.0000      -0.982727       -26.7414
  36   2.0000      -0.921445       -25.0738
  37   2.0000      -0.898211       -24.4416
  38   2.0000      -0.846318       -23.0295
  39   2.0000      -0.837418       -22.7873
  40   2.0000      -0.833687       -22.6858
  41   2.0000      -0.817859       -22.2551
  42   2.0000      -0.743919       -20.2431
  43   2.0000      -0.730018       -19.8648
  44   2.0000      -0.717688       -19.5293
  45   2.0000      -0.695235       -18.9183
  46   2.0000      -0.686935       -18.6924
  47   2.0000      -0.673792       -18.3348
  48   2.0000      -0.670356       -18.2413
  49   2.0000      -0.661776       -18.0078
  50   2.0000      -0.650597       -17.7036
  51   2.0000      -0.643259       -17.5040
  52   2.0000      -0.635115       -17.2823
  53   2.0000      -0.606595       -16.5063
  54   2.0000      -0.602861       -16.4047
  55   2.0000      -0.599721       -16.3192
  56   2.0000      -0.597821       -16.2675
  57   2.0000      -0.577956       -15.7270
  58   2.0000      -0.574797       -15.6410
  59   2.0000      -0.569830       -15.5059
  60   2.0000      -0.560604       -15.2548
  61   2.0000      -0.539113       -14.6700
  62   2.0000      -0.535199       -14.5635
  63   2.0000      -0.525351       -14.2955
  64   2.0000      -0.522473       -14.2172
  65   2.0000      -0.512376       -13.9425
  66   2.0000      -0.501251       -13.6397
  67   2.0000      -0.498118       -13.5545
  68   2.0000      -0.484850       -13.1934
  69   2.0000      -0.462571       -12.5872
  70   2.0000      -0.450956       -12.2711
  71   2.0000      -0.440076       -11.9751
  72   2.0000      -0.352769        -9.5993
  73   2.0000      -0.348927        -9.4948
  74   2.0000      -0.327264        -8.9053
  75   2.0000      -0.321108        -8.7378
  76   2.0000      -0.315027        -8.5723
  77   0.0000       0.077889         2.1195
  78   0.0000       0.106508         2.8982
  79   0.0000       0.125497         3.4149
  80   0.0000       0.133288         3.6269
  81   0.0000       0.138190         3.7603

MULLIKEN ATOMIC CHARGES
-----------------------
   0 C :   -0.291440
   1 C :    0.053067
   2 O :   -0.364561
   3 C :    0.457722
   4 O :   -0.429546
   5 C :   -0.206825
   6 C :    0.149738
   7 C :   -0.272364
   8 N :   -0.120537
   9 C :    0.212416
  10 S :   -0.442159
  11 N :   -0.205199
  12 C :    0.056595
  13 C :    0.068248
  14 C :   -0.190995
  15 C :   -0.130606
  16 C :   -0.279896
  17 C :    0.316635
  18 O :   -0.356610
  19 C :   -0.270379
  20 H :    0.104875
  21 H :    0.096696
  22 H :    0.116615
  23 H :    0.092996
  24 H :    0.090656
  25 H :    0.130653
  26 H :    0.131163
  27 H :    0.094730
  28 H :    0.197012
  29 H :    0.194701
  30 H :    0.149214
  31 H :    0.150722
  32 H :    0.161019
  33 H :    0.129832
  34 H :    0.240639
  35 H :    0.165174
Sum of atomic charges:    0.0000000

LOEWDIN ATOMIC CHARGES
----------------------
   0 C :    0.102658
   1 C :   -0.008360
   2 O :    0.295580
   3 C :   -0.412368
   4 O :    0.106753
   5 C :   -0.093511
   6 C :   -0.059470
   7 C :    0.130583
   8 N :    0.406310
   9 C :   -0.456675
  10 S :   -0.037144
  11 N :    0.396457
  12 C :   -0.052882
  13 C :   -0.038117
  14 C :    0.014535
  15 C :    0.038265
  16 C :   -0.002152
  17 C :   -0.189537
  18 O :    0.395186
  19 C :    0.031277
  20 H :   -0.025530
  21 H :   -0.027698
  22 H :   -0.024819
  23 H :   -0.028196
  24 H :   -0.028486
  25 H :   -0.005114
  26 H :   -0.004225
  27 H :   -0.023761
  28 H :   -0.057819
  29 H :   -0.064752
  30 H :   -0.011816
  31 H :   -0.030223
  32 H :   -0.021569
  33 H :   -0.035715
  34 H :   -0.153978
  35 H :   -0.023688

  Mayer bond orders larger than 0.100000
B(  0-C ,  1-C ) :   0.9812 B(  0-C , 20-H ) :   0.9750 B(  0-C , 21-H ) :   0.9731
B(  0-C , 22-H ) :   0.9729 B(  1-C ,  2-O ) :   0.9002 B(  1-C , 23-H ) :   0.9748
B(  1-C , 24-H ) :   0.9795 B(  2-O ,  3-C ) :   1.1492 B(  3-C ,  4-O ) :   1.9782
B(  3-C ,  5-C ) :   1.0589 B(  5-C ,  6-C ) :   1.6554 B(  5-C , 12-C ) :   0.9752
B(  6-C ,  7-C ) :   0.9672 B(  6-C ,  8-N ) :   1.1613 B(  7-C , 25-H ) :   0.9607
B(  7-C , 26-H ) :   0.9601 B(  7-C , 27-H ) :   0.9909 B(  8-N ,  9-C ) :   1.1844
B(  8-N , 28-H ) :   0.9479 B(  9-C , 10-S ) :   1.6048 B(  9-C , 11-N ) :   1.3063
B( 11-N , 12-C ) :   0.9854 B( 11-N , 29-H ) :   0.9515 B( 12-C , 13-C ) :   0.9361
B( 12-C , 30-H ) :   1.0029 B( 13-C , 14-C ) :   1.3524 B( 13-C , 19-C ) :   1.3828
B( 14-C , 15-C ) :   1.3898 B( 14-C , 31-H ) :   0.9717 B( 15-C , 16-C ) :   1.3639
B( 15-C , 32-H ) :   0.9704 B( 16-C , 17-C ) :   1.3314 B( 16-C , 33-H ) :   0.9851
B( 17-C , 18-O ) :   1.1098 B( 17-C , 19-C ) :   1.3712 B( 18-O , 34-H ) :   0.9799
B( 19-C , 35-H ) :   0.9585

MP2 TOTAL ENERGY:    -1274.338871968 Eh
FINAL SINGLE POINT ENERGY     -1274.338871967629

DIPOLE MOMENT
-------------
                                X             Y             Z
Electronic contribution:      9.91357      10.12786       9.20749
Nuclear contribution   :    -10.92063     -11.95556      -9.61548
                        -----------------------------------------
Total Dipole Moment    :     -1.00706      -1.82770      -0.40799
                        -----------------------------------------
Magnitude (a.u.)       :      2.12629
Magnitude (Debye)      :      5.40460

Rotational constants in cm-1:     0.011510     0.008682     0.006089
Rotational constants in MHz :   345.055135   260.275971   182.545648

                             ****ORCA TERMINATED NORMALLY****
TOTAL RUN TIME: 0 days 1 hours 57 minutes 36 seconds 278 msec
