                         Program Version 5.0.0 -  RELEASE  -
|  1> ! ri-mp2 cc-pvtz cc-pvtz/c TightSCF NoKeepInts
|  2>
|  3> %scf
|  4>   MaxCore 4096
|  5> end
|  6> *xyz  0  1
|  7>     C       14.2469454   15.5902412   16.1642605
|  8>     C       15.3999905   15.4527994   17.1736312
|  9>     O       16.5845292   15.0869793   16.4344172
| 10>     C       17.8166943   15.6887452   16.5265478
| 11>     O       18.8106854   15.0565779   16.2210768
| 12>     C       17.9252760   16.8649636   17.4390698
| 13>     C       17.3496046   18.0573623   17.1644315
| 14>     C       16.5447782   18.4131898   15.9343925
| 15>     N       17.5247402   19.1318466   18.0388090
| 16>     C       18.3268881   19.1083202   19.1505841
| 17>     S       18.5138505   20.4394898   20.1133028
| 18>     N       18.9610558   17.9220106   19.4306500
| 19>     C       18.7829180   16.6598453   18.6847437
| 20>     C       18.1757405   15.5711828   19.5633683
| 21>     C       18.6936327   14.2638030   19.5271048
| 22>     C       18.1196668   13.2446564   20.3050862
| 23>     C       17.0143301   13.5330409   21.1234213
| 24>     C       16.4899559   14.8320228   21.1555909
| 25>     O       15.4122546   15.1106997   21.9309668
| 26>     C       17.0631905   15.8449986   20.3804417
| 27>     H       13.3151665   15.8556184   16.6784953
| 28>     H       14.0866275   14.6416316   15.6362796
| 29>     H       14.4614769   16.3638142   15.4182742
| 30>     H       15.5023176   16.3873814   17.7338248
| 31>     H       15.1661272   14.6608092   17.8975467
| 32>     H       16.6131783   17.6419493   15.1572704
| 33>     H       16.9087013   19.3456568   15.4842978
| 34>     H       15.4852484   18.5492784   16.1828049
| 35>     H       17.0791772   20.0150340   17.8445146
| 36>     H       19.5284270   17.9289591   20.2690044
| 37>     H       19.7762590   16.3217589   18.3540213
| 38>     H       19.5347884   14.0327460   18.8767532
| 39>     H       18.5271402   12.2358280   20.2639091
| 40>     H       16.5657807   12.7470876   21.7221242
| 41>     H       15.2009581   14.3089588   22.4333263
| 42>     H       16.6388981   16.8427126   20.4196561
| 43> *
| 44>
| 45>                          ****END OF INPUT****

CARTESIAN COORDINATES (ANGSTROEM)
---------------------------------
  C     14.246945   15.590241   16.164261
  C     15.399990   15.452799   17.173631
  O     16.584529   15.086979   16.434417
  C     17.816694   15.688745   16.526548
  O     18.810685   15.056578   16.221077
  C     17.925276   16.864964   17.439070
  C     17.349605   18.057362   17.164431
  C     16.544778   18.413190   15.934392
  N     17.524740   19.131847   18.038809
  C     18.326888   19.108320   19.150584
  S     18.513851   20.439490   20.113303
  N     18.961056   17.922011   19.430650
  C     18.782918   16.659845   18.684744
  C     18.175740   15.571183   19.563368
  C     18.693633   14.263803   19.527105
  C     18.119667   13.244656   20.305086
  C     17.014330   13.533041   21.123421
  C     16.489956   14.832023   21.155591
  O     15.412255   15.110700   21.930967
  C     17.063191   15.844999   20.380442
  H     13.315166   15.855618   16.678495
  H     14.086628   14.641632   15.636280
  H     14.461477   16.363814   15.418274
  H     15.502318   16.387381   17.733825
  H     15.166127   14.660809   17.897547
  H     16.613178   17.641949   15.157270
  H     16.908701   19.345657   15.484298
  H     15.485248   18.549278   16.182805
  H     17.079177   20.015034   17.844515
  H     19.528427   17.928959   20.269004
  H     19.776259   16.321759   18.354021
  H     19.534788   14.032746   18.876753
  H     18.527140   12.235828   20.263909
  H     16.565781   12.747088   21.722124
  H     15.200958   14.308959   22.433326
  H     16.638898   16.842713   20.419656

 Total Charge           Charge          ....    0
 Multiplicity           Mult            ....    1
 Number of Electrons    NEL             ....  154
 Basis Dimension        Dim             ....  828

ORBITAL ENERGIES
----------------

  NO   OCC          E(Eh)            E(eV)
   0   2.0000     -91.890186     -2500.4591
   1   2.0000     -20.600923      -560.5796
   2   2.0000     -20.600248      -560.5613
   3   2.0000     -20.549807      -559.1887
   4   2.0000     -15.627243      -425.2389
   5   2.0000     -15.611943      -424.8226
   6   2.0000     -11.398262      -310.1625
   7   2.0000     -11.387111      -309.8590
   8   2.0000     -11.328717      -308.2700
   9   2.0000     -11.316835      -307.9467
  10   2.0000     -11.315119      -307.9000
  11   2.0000     -11.303910      -307.5950
  12   2.0000     -11.269899      -306.6695
  13   2.0000     -11.264720      -306.5286
  14   2.0000     -11.263458      -306.4943
  15   2.0000     -11.256785      -306.3127
  16   2.0000     -11.246273      -306.0266
  17   2.0000     -11.242488      -305.9236
  18   2.0000     -11.239583      -305.8446
  19   2.0000     -11.235521      -305.7341
  20   2.0000      -8.895302      -242.0535
  21   2.0000      -6.576890      -178.9663
  22   2.0000      -6.574864      -178.9111
  23   2.0000      -6.574289      -178.8955
  24   2.0000      -1.447169       -39.3795
  25   2.0000      -1.420045       -38.6414
  26   2.0000      -1.358723       -36.9727
  27   2.0000      -1.340487       -36.4765
  28   2.0000      -1.240231       -33.7484
  29   2.0000      -1.161739       -31.6125
  30   2.0000      -1.126322       -30.6488
  31   2.0000      -1.049613       -28.5614
  32   2.0000      -1.041709       -28.3463
  33   2.0000      -1.018984       -27.7280
  34   2.0000      -1.005516       -27.3615
  35   2.0000      -0.990004       -26.9394
  36   2.0000      -0.928205       -25.2578
  37   2.0000      -0.887091       -24.1390
  38   2.0000      -0.854464       -23.2511
  39   2.0000      -0.842274       -22.9194
  40   2.0000      -0.837243       -22.7826
  41   2.0000      -0.836553       -22.7638
  42   2.0000      -0.757362       -20.6089
  43   2.0000      -0.739072       -20.1112
  44   2.0000      -0.732338       -19.9279
  45   2.0000      -0.697884       -18.9904
  46   2.0000      -0.688580       -18.7372
  47   2.0000      -0.680650       -18.5214
  48   2.0000      -0.676912       -18.4197
  49   2.0000      -0.666901       -18.1473
  50   2.0000      -0.653180       -17.7739
  51   2.0000      -0.642707       -17.4890
  52   2.0000      -0.640274       -17.4227
  53   2.0000      -0.614832       -16.7304
  54   2.0000      -0.608598       -16.5608
  55   2.0000      -0.605221       -16.4689
  56   2.0000      -0.603373       -16.4186
  57   2.0000      -0.589003       -16.0276
  58   2.0000      -0.578907       -15.7528
  59   2.0000      -0.569622       -15.5002
  60   2.0000      -0.565316       -15.3830
  61   2.0000      -0.560318       -15.2470
  62   2.0000      -0.542068       -14.7504
  63   2.0000      -0.534524       -14.5451
  64   2.0000      -0.523745       -14.2518
  65   2.0000      -0.516470       -14.0539
  66   2.0000      -0.502803       -13.6820
  67   2.0000      -0.502122       -13.6634
  68   2.0000      -0.489095       -13.3089
  69   2.0000      -0.470934       -12.8148
  70   2.0000      -0.453837       -12.3495
  71   2.0000      -0.448553       -12.2057
  72   2.0000      -0.356900        -9.7117
  73   2.0000      -0.352185        -9.5834
  74   2.0000      -0.329867        -8.9761
  75   2.0000      -0.324650        -8.8342
  76   2.0000      -0.318474        -8.6661
  77   0.0000       0.085167         2.3175
  78   0.0000       0.104555         2.8451
  79   0.0000       0.113751         3.0953
  80   0.0000       0.128013         3.4834
  81   0.0000       0.131017         3.5652

MULLIKEN ATOMIC CHARGES
-----------------------
   0 C :   -0.267144
   1 C :    0.013216
   2 O :   -0.316356
   3 C :    0.394833
   4 O :   -0.381616
   5 C :   -0.181518
   6 C :    0.131030
   7 C :   -0.334759
   8 N :   -0.136895
   9 C :    0.205029
  10 S :   -0.440927
  11 N :   -0.211830
  12 C :    0.066652
  13 C :    0.031724
  14 C :   -0.190297
  15 C :   -0.128760
  16 C :   -0.277119
  17 C :    0.312882
  18 O :   -0.358499
  19 C :   -0.281530
  20 H :    0.093677
  21 H :    0.112134
  22 H :    0.087766
  23 H :    0.096578
  24 H :    0.130099
  25 H :    0.127026
  26 H :    0.142911
  27 H :    0.124733
  28 H :    0.196495
  29 H :    0.198107
  30 H :    0.163764
  31 H :    0.165765
  32 H :    0.163410
  33 H :    0.132667
  34 H :    0.241994
  35 H :    0.174759
Sum of atomic charges:    0.0000000

LOEWDIN ATOMIC CHARGES
----------------------
   0 C :    0.105018
   1 C :   -0.016888
   2 O :    0.308830
   3 C :   -0.417123
   4 O :    0.124584
   5 C :   -0.083064
   6 C :   -0.105166
   7 C :    0.125608
   8 N :    0.401069
   9 C :   -0.455662
  10 S :   -0.037706
  11 N :    0.397248
  12 C :   -0.044575
  13 C :   -0.043507
  14 C :    0.023551
  15 C :    0.046157
  16 C :   -0.000090
  17 C :   -0.194232
  18 O :    0.394158
  19 C :    0.028283
  20 H :   -0.025128
  21 H :   -0.022967
  22 H :   -0.033205
  23 H :   -0.040956
  24 H :   -0.023026
  25 H :   -0.008682
  26 H :   -0.009791
  27 H :   -0.015985
  28 H :   -0.058003
  29 H :   -0.063584
  30 H :   -0.002485
  31 H :   -0.021968
  32 H :   -0.018416
  33 H :   -0.034558
  34 H :   -0.152820
  35 H :   -0.024917

  Mayer bond orders larger than 0.100000
B(  0-C ,  1-C ) :   0.9719 B(  0-C , 20-H ) :   0.9755 B(  0-C , 21-H ) :   0.9793
B(  0-C , 22-H ) :   0.9782 B(  1-C ,  2-O ) :   0.9007 B(  1-C , 23-H ) :   0.9626
B(  1-C , 24-H ) :   0.9769 B(  2-O ,  3-C ) :   1.1865 B(  3-C ,  4-O ) :   2.0958
B(  3-C ,  5-C ) :   0.9271 B(  5-C ,  6-C ) :   1.6894 B(  5-C , 12-C ) :   0.9598
B(  6-C ,  7-C ) :   0.9432 B(  6-C ,  8-N ) :   1.1135 B(  7-C , 25-H ) :   0.9803
B(  7-C , 26-H ) :   0.9728 B(  7-C , 27-H ) :   0.9647 B(  8-N ,  9-C ) :   1.1945
B(  8-N , 28-H ) :   0.9520 B(  9-C , 10-S ) :   1.6117 B(  9-C , 11-N ) :   1.2877
B( 11-N , 12-C ) :   1.0001 B( 11-N , 29-H ) :   0.9490 B( 12-C , 13-C ) :   0.9447
B( 12-C , 30-H ) :   0.9969 B( 13-C , 14-C ) :   1.3862 B( 13-C , 19-C ) :   1.3464
B( 14-C , 15-C ) :   1.3958 B( 14-C , 31-H ) :   0.9618 B( 15-C , 16-C ) :   1.3649
B( 15-C , 32-H ) :   0.9701 B( 16-C , 17-C ) :   1.3280 B( 16-C , 33-H ) :   0.9842
B( 17-C , 18-O ) :   1.1098 B( 17-C , 19-C ) :   1.3718 B( 18-O , 34-H ) :   0.9789
B( 19-C , 35-H ) :   0.9580

MP2 TOTAL ENERGY:    -1274.331154228 Eh
FINAL SINGLE POINT ENERGY     -1274.331154228110

DIPOLE MOMENT
-------------
                                X             Y             Z
Electronic contribution:     11.78309       5.63759       7.82775
Nuclear contribution   :    -13.34656      -6.63757      -8.09122
                        -----------------------------------------
Total Dipole Moment    :     -1.56347      -0.99998      -0.26347
                        -----------------------------------------
Magnitude (a.u.)       :      1.87452
Magnitude (Debye)      :      4.76465

Rotational constants in cm-1:     0.011411     0.009242     0.006844
Rotational constants in MHz :   342.091242   277.082171   205.184628

                             ****ORCA TERMINATED NORMALLY****
TOTAL RUN TIME: 0 days 2 hours 17 minutes 16 seconds 883 msec
