                         Program Version 4.2.0 -  RELEASE  -
|  1> ! ri-mp2 cc-pvtz cc-pvtz/c TightSCF  NoKeepInts
|  2>
|  3> %scf
|  4>   MaxCore 4096
|  5> end
|  6> *xyz  0  1
|  7>     C       14.8180453   16.0659400   17.2613515
|  8>     C       15.7010338   14.8825689   16.8177911
|  9>     O       16.7720859   15.2644754   15.9228562
| 10>     C       17.9781293   15.7416278   16.3687677
| 11>     O       18.9420742   14.9981213   16.3470972
| 12>     C       17.9218556   16.8778880   17.3358918
| 13>     C       17.3468716   18.0640684   17.0263815
| 14>     C       16.6993677   18.4597207   15.7160742
| 15>     N       17.4002996   19.1209983   17.9376967
| 16>     C       18.1081574   19.1045437   19.1112599
| 17>     S       18.1780983   20.4262990   20.1023011
| 18>     N       18.7565972   17.9351086   19.4242122
| 19>     C       18.6564325   16.6737974   18.6630594
| 20>     C       17.9903006   15.5769767   19.4900692
| 21>     C       18.4992485   14.2654208   19.4634255
| 22>     C       17.8782746   13.2396653   20.1951395
| 23>     C       16.7359474   13.5256507   20.9615418
| 24>     C       16.2242991   14.8296766   20.9909282
| 25>     O       15.1144034   15.1075692   21.7196956
| 26>     C       16.8446493   15.8486923   20.2614494
| 27>     H       15.3102587   16.6911327   18.0116379
| 28>     H       13.8973182   15.6861694   17.7210285
| 29>     H       14.5294004   16.6825252   16.4024871
| 30>     H       16.1033613   14.3585157   17.6953402
| 31>     H       15.0588737   14.1694497   16.2849418
| 32>     H       16.6525570   17.6336964   14.9975210
| 33>     H       17.2652304   19.2674796   15.2349400
| 34>     H       15.6737706   18.8148143   15.8737303
| 35>     H       16.9472400   19.9940711   17.7174648
| 36>     H       19.2558861   17.9467869   20.3046487
| 37>     H       19.6802704   16.3462174   18.4292886
| 38>     H       19.3733464   14.0367939   18.8569577
| 39>     H       18.2810483   12.2286307   20.1611284
| 40>     H       16.2519383   12.7354873   21.5261925
| 41>     H       14.8725141   14.3017290   22.2009834
| 42>     H       16.4278149   16.8496916   20.2987194
| 43> *
| 44>
| 45>                          ****END OF INPUT****

CARTESIAN COORDINATES (ANGSTROEM)
---------------------------------
  C     14.818045   16.065940   17.261351
  C     15.701034   14.882569   16.817791
  O     16.772086   15.264475   15.922856
  C     17.978129   15.741628   16.368768
  O     18.942074   14.998121   16.347097
  C     17.921856   16.877888   17.335892
  C     17.346872   18.064068   17.026381
  C     16.699368   18.459721   15.716074
  N     17.400300   19.120998   17.937697
  C     18.108157   19.104544   19.111260
  S     18.178098   20.426299   20.102301
  N     18.756597   17.935109   19.424212
  C     18.656432   16.673797   18.663059
  C     17.990301   15.576977   19.490069
  C     18.499249   14.265421   19.463425
  C     17.878275   13.239665   20.195139
  C     16.735947   13.525651   20.961542
  C     16.224299   14.829677   20.990928
  O     15.114403   15.107569   21.719696
  C     16.844649   15.848692   20.261449
  H     15.310259   16.691133   18.011638
  H     13.897318   15.686169   17.721028
  H     14.529400   16.682525   16.402487
  H     16.103361   14.358516   17.695340
  H     15.058874   14.169450   16.284942
  H     16.652557   17.633696   14.997521
  H     17.265230   19.267480   15.234940
  H     15.673771   18.814814   15.873730
  H     16.947240   19.994071   17.717465
  H     19.255886   17.946787   20.304649
  H     19.680270   16.346217   18.429289
  H     19.373346   14.036794   18.856958
  H     18.281048   12.228631   20.161128
  H     16.251938   12.735487   21.526192
  H     14.872514   14.301729   22.200983
  H     16.427815   16.849692   20.298719

 Total Charge           Charge          ....    0
 Multiplicity           Mult            ....    1
 Number of Electrons    NEL             ....  154
 Basis Dimension        Dim             ....  828

ORBITAL ENERGIES
----------------

  NO   OCC          E(Eh)            E(eV)
   0   2.0000     -91.891008     -2500.4815
   1   2.0000     -20.600634      -560.5717
   2   2.0000     -20.582933      -560.0901
   3   2.0000     -20.555220      -559.3360
   4   2.0000     -15.628734      -425.2795
   5   2.0000     -15.611828      -424.8194
   6   2.0000     -11.395646      -310.0913
   7   2.0000     -11.387428      -309.8677
   8   2.0000     -11.331761      -308.3529
   9   2.0000     -11.317673      -307.9695
  10   2.0000     -11.314164      -307.8741
  11   2.0000     -11.303190      -307.5754
  12   2.0000     -11.264100      -306.5118
  13   2.0000     -11.264047      -306.5103
  14   2.0000     -11.262591      -306.4707
  15   2.0000     -11.257615      -306.3353
  16   2.0000     -11.247341      -306.0557
  17   2.0000     -11.243084      -305.9399
  18   2.0000     -11.239609      -305.8453
  19   2.0000     -11.230575      -305.5995
  20   2.0000      -8.896096      -242.0751
  21   2.0000      -6.577677      -178.9877
  22   2.0000      -6.575660      -178.9328
  23   2.0000      -6.575077      -178.9170
  24   2.0000      -1.445424       -39.3320
  25   2.0000      -1.420448       -38.6524
  26   2.0000      -1.354077       -36.8463
  27   2.0000      -1.341468       -36.5032
  28   2.0000      -1.240737       -33.7622
  29   2.0000      -1.161847       -31.6155
  30   2.0000      -1.124972       -30.6121
  31   2.0000      -1.048627       -28.5346
  32   2.0000      -1.034784       -28.1579
  33   2.0000      -1.019463       -27.7410
  34   2.0000      -1.004466       -27.3329
  35   2.0000      -0.990185       -26.9443
  36   2.0000      -0.927987       -25.2518
  37   2.0000      -0.890095       -24.2207
  38   2.0000      -0.852238       -23.1906
  39   2.0000      -0.842185       -22.9170
  40   2.0000      -0.837797       -22.7976
  41   2.0000      -0.829897       -22.5826
  42   2.0000      -0.752902       -20.4875
  43   2.0000      -0.735488       -20.0137
  44   2.0000      -0.730778       -19.8855
  45   2.0000      -0.698824       -19.0160
  46   2.0000      -0.688634       -18.7387
  47   2.0000      -0.678383       -18.4597
  48   2.0000      -0.674715       -18.3599
  49   2.0000      -0.662030       -18.0148
  50   2.0000      -0.654819       -17.8185
  51   2.0000      -0.644448       -17.5363
  52   2.0000      -0.640066       -17.4171
  53   2.0000      -0.612722       -16.6730
  54   2.0000      -0.608025       -16.5452
  55   2.0000      -0.604764       -16.4565
  56   2.0000      -0.599843       -16.3226
  57   2.0000      -0.591043       -16.0831
  58   2.0000      -0.578925       -15.7533
  59   2.0000      -0.576817       -15.6960
  60   2.0000      -0.565756       -15.3950
  61   2.0000      -0.555535       -15.1169
  62   2.0000      -0.541061       -14.7230
  63   2.0000      -0.528415       -14.3789
  64   2.0000      -0.521432       -14.1889
  65   2.0000      -0.513308       -13.9678
  66   2.0000      -0.503213       -13.6931
  67   2.0000      -0.492176       -13.3928
  68   2.0000      -0.487499       -13.2655
  69   2.0000      -0.465561       -12.6686
  70   2.0000      -0.457050       -12.4370
  71   2.0000      -0.449324       -12.2267
  72   2.0000      -0.356353        -9.6968
  73   2.0000      -0.352936        -9.6039
  74   2.0000      -0.330486        -8.9930
  75   2.0000      -0.325501        -8.8573
  76   2.0000      -0.319571        -8.6960
  77   0.0000       0.078843         2.1454
  78   0.0000       0.101923         2.7735
  79   0.0000       0.118312         3.2194
  80   0.0000       0.126981         3.4553
  81   0.0000       0.129675         3.5286

MULLIKEN ATOMIC CHARGES
-----------------------
   0 C :   -0.336573
   1 C :    0.038402
   2 O :   -0.364469
   3 C :    0.421179
   4 O :   -0.373970
   5 C :   -0.185545
   6 C :    0.127737
   7 C :   -0.329037
   8 N :   -0.129812
   9 C :    0.198937
  10 S :   -0.438106
  11 N :   -0.215962
  12 C :    0.076895
  13 C :    0.015479
  14 C :   -0.194672
  15 C :   -0.133325
  16 C :   -0.278494
  17 C :    0.319558
  18 O :   -0.357399
  19 C :   -0.281569
  20 H :    0.109327
  21 H :    0.125291
  22 H :    0.106200
  23 H :    0.105681
  24 H :    0.125164
  25 H :    0.132788
  26 H :    0.145320
  27 H :    0.116269
  28 H :    0.197763
  29 H :    0.198385
  30 H :    0.164645
  31 H :    0.170911
  32 H :    0.164525
  33 H :    0.133323
  34 H :    0.241677
  35 H :    0.183475
Sum of atomic charges:   -0.0000000

LOEWDIN ATOMIC CHARGES
----------------------
   0 C :    0.103380
   1 C :   -0.011052
   2 O :    0.276216
   3 C :   -0.416749
   4 O :    0.136138
   5 C :   -0.087006
   6 C :   -0.088539
   7 C :    0.125634
   8 N :    0.404214
   9 C :   -0.457092
  10 S :   -0.035633
  11 N :    0.397446
  12 C :   -0.044218
  13 C :   -0.044555
  14 C :    0.020276
  15 C :    0.042694
  16 C :   -0.001260
  17 C :   -0.194353
  18 O :    0.395475
  19 C :    0.028590
  20 H :   -0.037129
  21 H :   -0.021230
  22 H :   -0.030419
  23 H :   -0.027132
  24 H :   -0.019798
  25 H :   -0.010615
  26 H :   -0.010343
  27 H :   -0.017234
  28 H :   -0.056319
  29 H :   -0.063682
  30 H :   -0.003099
  31 H :   -0.022023
  32 H :   -0.018543
  33 H :   -0.034379
  34 H :   -0.152888
  35 H :   -0.024770

  Mayer bond orders larger than 0.100000
B(  0-C ,  1-C ) :   0.9596 B(  0-C , 20-H ) :   0.9706 B(  0-C , 21-H ) :   0.9781
B(  0-C , 22-H ) :   0.9761 B(  1-C ,  2-O ) :   0.8933 B(  1-C , 23-H ) :   0.9716
B(  1-C , 24-H ) :   0.9842 B(  2-O ,  3-C ) :   1.1270 B(  3-C ,  4-O ) :   2.0890
B(  3-C ,  5-C ) :   0.9463 B(  5-C ,  6-C ) :   1.6740 B(  5-C , 12-C ) :   0.9536
B(  6-C ,  7-C ) :   0.9535 B(  6-C ,  8-N ) :   1.1217 B(  7-C , 25-H ) :   0.9749
B(  7-C , 26-H ) :   0.9672 B(  7-C , 27-H ) :   0.9667 B(  8-N ,  9-C ) :   1.1904
B(  8-N , 28-H ) :   0.9512 B(  9-C , 10-S ) :   1.6149 B(  9-C , 11-N ) :   1.2877
B( 11-N , 12-C ) :   0.9927 B( 11-N , 29-H ) :   0.9498 B( 12-C , 13-C ) :   0.9409
B( 12-C , 30-H ) :   0.9985 B( 13-C , 14-C ) :   1.3882 B( 13-C , 19-C ) :   1.3428
B( 14-C , 15-C ) :   1.3998 B( 14-C , 31-H ) :   0.9598 B( 15-C , 16-C ) :   1.3597
B( 15-C , 32-H ) :   0.9702 B( 16-C , 17-C ) :   1.3309 B( 16-C , 33-H ) :   0.9841
B( 17-C , 18-O ) :   1.1115 B( 17-C , 19-C ) :   1.3676 B( 18-O , 34-H ) :   0.9792
B( 19-C , 35-H ) :   0.9512

MP2 TOTAL ENERGY:    -1274.322859963 Eh
FINAL SINGLE POINT ENERGY     -1274.322859962944

DIPOLE MOMENT
-------------
                                X             Y             Z
Electronic contribution:      9.84581       5.66610       5.60068
Nuclear contribution   :    -11.17193      -6.85048      -5.93261
                        -----------------------------------------
Total Dipole Moment    :     -1.32612      -1.18438      -0.33193
                        -----------------------------------------
Magnitude (a.u.)       :      1.80874
Magnitude (Debye)      :      4.59745

Rotational constants in cm-1:     0.012314     0.009438     0.007069
Rotational constants in MHz :   369.159436   282.929968   211.920910

                             ****ORCA TERMINATED NORMALLY****
TOTAL RUN TIME: 0 days 1 hours 59 minutes 38 seconds 680 msec
