                         Program Version 4.2.0 -  RELEASE  -
|  1> ! ri-mp2 cc-pvtz cc-pvtz/c TightSCF  NoKeepInts
|  2>
|  3> %scf
|  4>   MaxCore 4096
|  5> end
|  6> *xyz  0  1
|  7>     C       15.1049513   14.2170935   16.9542388
|  8>     C       16.4414691   13.9799244   16.2160857
|  9>     O       17.3928599   15.0236797   16.5110099
| 10>     C       17.0668622   16.3424872   16.3548280
| 11>     O       16.2755522   16.7172534   15.5062278
| 12>     C       17.7061616   17.2298842   17.3867966
| 13>     C       17.5543998   18.5785763   17.3808268
| 14>     C       16.7569016   19.4067141   16.3961926
| 15>     N       18.2037113   19.3614302   18.3401056
| 16>     C       19.0987282   18.8885613   19.2622850
| 17>     S       19.8991643   19.8962062   20.3014372
| 18>     N       19.3014275   17.5321993   19.2788834
| 19>     C       18.5429471   16.5499390   18.4829259
| 20>     C       17.6831682   15.6933122   19.4078945
| 21>     C       17.9756994   14.3288818   19.5926523
| 22>     C       17.1830341   13.5359520   20.4394951
| 23>     C       16.0907790   14.1123723   21.1100846
| 24>     C       15.8001301   15.4720664   20.9329736
| 25>     O       14.7460789   16.0313799   21.5785704
| 26>     C       16.5902702   16.2584129   20.0889624
| 27>     H       15.2742403   14.3635646   18.0278630
| 28>     H       14.4462473   13.3491583   16.8314703
| 29>     H       14.5737050   15.0927371   16.5621105
| 30>     H       16.8608700   13.0127949   16.5212112
| 31>     H       16.2547745   13.9426352   15.1344223
| 32>     H       17.1084332   19.2325854   15.3712392
| 33>     H       16.8223053   20.4838794   16.5890898
| 34>     H       15.6959559   19.1275251   16.4294820
| 35>     H       18.0687589   20.3598550   18.3411812
| 36>     H       19.9394669   17.2099508   19.9950385
| 37>     H       19.2749690   15.8978352   17.9860008
| 38>     H       18.8167698   13.8798293   19.0711923
| 39>     H       17.4162586   12.4811878   20.5743920
| 40>     H       15.4759222   13.5043461   21.7655433
| 41>     H       14.3515875   15.3477208   22.1406010
| 42>     H       16.3524396   17.3100685   19.9706864
| 43> *
| 44>
| 45>                          ****END OF INPUT****

CARTESIAN COORDINATES (ANGSTROEM)
---------------------------------
  C     15.104951   14.217094   16.954239
  C     16.441469   13.979924   16.216086
  O     17.392860   15.023680   16.511010
  C     17.066862   16.342487   16.354828
  O     16.275552   16.717253   15.506228
  C     17.706162   17.229884   17.386797
  C     17.554400   18.578576   17.380827
  C     16.756902   19.406714   16.396193
  N     18.203711   19.361430   18.340106
  C     19.098728   18.888561   19.262285
  S     19.899164   19.896206   20.301437
  N     19.301427   17.532199   19.278883
  C     18.542947   16.549939   18.482926
  C     17.683168   15.693312   19.407894
  C     17.975699   14.328882   19.592652
  C     17.183034   13.535952   20.439495
  C     16.090779   14.112372   21.110085
  C     15.800130   15.472066   20.932974
  O     14.746079   16.031380   21.578570
  C     16.590270   16.258413   20.088962
  H     15.274240   14.363565   18.027863
  H     14.446247   13.349158   16.831470
  H     14.573705   15.092737   16.562110
  H     16.860870   13.012795   16.521211
  H     16.254774   13.942635   15.134422
  H     17.108433   19.232585   15.371239
  H     16.822305   20.483879   16.589090
  H     15.695956   19.127525   16.429482
  H     18.068759   20.359855   18.341181
  H     19.939467   17.209951   19.995038
  H     19.274969   15.897835   17.986001
  H     18.816770   13.879829   19.071192
  H     17.416259   12.481188   20.574392
  H     15.475922   13.504346   21.765543
  H     14.351587   15.347721   22.140601
  H     16.352440   17.310068   19.970686

 Total Charge           Charge          ....    0
 Multiplicity           Mult            ....    1
 Number of Electrons    NEL             ....  154
 Basis Dimension        Dim             ....  828

ORBITAL ENERGIES
----------------

  NO   OCC          E(Eh)            E(eV)
   0   2.0000     -91.889374     -2500.4370
   1   2.0000     -20.598423      -560.5116
   2   2.0000     -20.594955      -560.4172
   3   2.0000     -20.541802      -558.9708
   4   2.0000     -15.629622      -425.3036
   5   2.0000     -15.608746      -424.7356
   6   2.0000     -11.394556      -310.0616
   7   2.0000     -11.384481      -309.7875
   8   2.0000     -11.336434      -308.4800
   9   2.0000     -11.315949      -307.9226
  10   2.0000     -11.309555      -307.7486
  11   2.0000     -11.298119      -307.4374
  12   2.0000     -11.261391      -306.4380
  13   2.0000     -11.258970      -306.3722
  14   2.0000     -11.257423      -306.3301
  15   2.0000     -11.252395      -306.1932
  16   2.0000     -11.245245      -305.9987
  17   2.0000     -11.240318      -305.8646
  18   2.0000     -11.240031      -305.8568
  19   2.0000     -11.220820      -305.3340
  20   2.0000      -8.894430      -242.0297
  21   2.0000      -6.576003      -178.9421
  22   2.0000      -6.574000      -178.8876
  23   2.0000      -6.573411      -178.8716
  24   2.0000      -1.447837       -39.3976
  25   2.0000      -1.418138       -38.5895
  26   2.0000      -1.352668       -36.8080
  27   2.0000      -1.340566       -36.4787
  28   2.0000      -1.239084       -33.7172
  29   2.0000      -1.159509       -31.5519
  30   2.0000      -1.121011       -30.5043
  31   2.0000      -1.043913       -28.4063
  32   2.0000      -1.033041       -28.1105
  33   2.0000      -1.017153       -27.6781
  34   2.0000      -0.996115       -27.1057
  35   2.0000      -0.984911       -26.8008
  36   2.0000      -0.923463       -25.1287
  37   2.0000      -0.896009       -24.3817
  38   2.0000      -0.847631       -23.0652
  39   2.0000      -0.839533       -22.8449
  40   2.0000      -0.835905       -22.7461
  41   2.0000      -0.815981       -22.2040
  42   2.0000      -0.749696       -20.4003
  43   2.0000      -0.733649       -19.9636
  44   2.0000      -0.723145       -19.6778
  45   2.0000      -0.697488       -18.9796
  46   2.0000      -0.689547       -18.7635
  47   2.0000      -0.676389       -18.4055
  48   2.0000      -0.670692       -18.2505
  49   2.0000      -0.661975       -18.0132
  50   2.0000      -0.649689       -17.6789
  51   2.0000      -0.641458       -17.4550
  52   2.0000      -0.633892       -17.2491
  53   2.0000      -0.616302       -16.7704
  54   2.0000      -0.608734       -16.5645
  55   2.0000      -0.601663       -16.3721
  56   2.0000      -0.599747       -16.3200
  57   2.0000      -0.579030       -15.7562
  58   2.0000      -0.571101       -15.5404
  59   2.0000      -0.566876       -15.4255
  60   2.0000      -0.555052       -15.1037
  61   2.0000      -0.543736       -14.7958
  62   2.0000      -0.533748       -14.5240
  63   2.0000      -0.526863       -14.3367
  64   2.0000      -0.526147       -14.3172
  65   2.0000      -0.513850       -13.9826
  66   2.0000      -0.502386       -13.6706
  67   2.0000      -0.500898       -13.6301
  68   2.0000      -0.480534       -13.0760
  69   2.0000      -0.465216       -12.6592
  70   2.0000      -0.453613       -12.3434
  71   2.0000      -0.444597       -12.0981
  72   2.0000      -0.354907        -9.6575
  73   2.0000      -0.351342        -9.5605
  74   2.0000      -0.328896        -8.9497
  75   2.0000      -0.323753        -8.8098
  76   2.0000      -0.316705        -8.6180
  77   0.0000       0.074367         2.0236
  78   0.0000       0.104829         2.8525
  79   0.0000       0.124300         3.3824
  80   0.0000       0.131267         3.5720
  81   0.0000       0.137078         3.7301

MULLIKEN ATOMIC CHARGES
-----------------------
   0 C :   -0.324147
   1 C :    0.028400
   2 O :   -0.372971
   3 C :    0.474655
   4 O :   -0.432496
   5 C :   -0.233918
   6 C :    0.154834
   7 C :   -0.271811
   8 N :   -0.122042
   9 C :    0.211189
  10 S :   -0.439178
  11 N :   -0.205006
  12 C :    0.062434
  13 C :    0.038311
  14 C :   -0.179232
  15 C :   -0.134912
  16 C :   -0.274426
  17 C :    0.305634
  18 O :   -0.358561
  19 C :   -0.248200
  20 H :    0.111078
  21 H :    0.101689
  22 H :    0.121012
  23 H :    0.112938
  24 H :    0.118472
  25 H :    0.131956
  26 H :    0.095399
  27 H :    0.131631
  28 H :    0.197665
  29 H :    0.194553
  30 H :    0.151416
  31 H :    0.153828
  32 H :    0.161057
  33 H :    0.131431
  34 H :    0.240955
  35 H :    0.166364
Sum of atomic charges:   -0.0000000

LOEWDIN ATOMIC CHARGES
----------------------
   0 C :    0.105384
   1 C :   -0.015600
   2 O :    0.298582
   3 C :   -0.415329
   4 O :    0.100012
   5 C :   -0.095159
   6 C :   -0.058482
   7 C :    0.131764
   8 N :    0.406713
   9 C :   -0.456389
  10 S :   -0.034889
  11 N :    0.396588
  12 C :   -0.051841
  13 C :   -0.039702
  14 C :    0.014660
  15 C :    0.039071
  16 C :   -0.002248
  17 C :   -0.190849
  18 O :    0.396287
  19 C :    0.031300
  20 H :   -0.026617
  21 H :   -0.026642
  22 H :   -0.026674
  23 H :   -0.025096
  24 H :   -0.028211
  25 H :   -0.003563
  26 H :   -0.023348
  27 H :   -0.004821
  28 H :   -0.057480
  29 H :   -0.064619
  30 H :   -0.010089
  31 H :   -0.029483
  32 H :   -0.020970
  33 H :   -0.035219
  34 H :   -0.153476
  35 H :   -0.023565

  Mayer bond orders larger than 0.100000
B(  0-C ,  1-C ) :   0.9561 B(  0-C , 20-H ) :   0.9690 B(  0-C , 21-H ) :   0.9783
B(  0-C , 22-H ) :   0.9741 B(  1-C ,  2-O ) :   0.8881 B(  1-C , 23-H ) :   0.9833
B(  1-C , 24-H ) :   0.9853 B(  2-O ,  3-C ) :   1.1475 B(  3-C ,  4-O ) :   1.9781
B(  3-C ,  5-C ) :   1.0610 B(  5-C ,  6-C ) :   1.6536 B(  5-C , 12-C ) :   0.9706
B(  6-C ,  7-C ) :   0.9660 B(  6-C ,  8-N ) :   1.1637 B(  7-C , 25-H ) :   0.9601
B(  7-C , 26-H ) :   0.9902 B(  7-C , 27-H ) :   0.9606 B(  8-N ,  9-C ) :   1.1825
B(  8-N , 28-H ) :   0.9478 B(  9-C , 10-S ) :   1.6083 B(  9-C , 11-N ) :   1.3053
B( 11-N , 12-C ) :   0.9856 B( 11-N , 29-H ) :   0.9519 B( 12-C , 13-C ) :   0.9351
B( 12-C , 30-H ) :   1.0019 B( 13-C , 14-C ) :   1.3583 B( 13-C , 19-C ) :   1.3862
B( 14-C , 15-C ) :   1.3882 B( 14-C , 31-H ) :   0.9708 B( 15-C , 16-C ) :   1.3607
B( 15-C , 32-H ) :   0.9713 B( 16-C , 17-C ) :   1.3320 B( 16-C , 33-H ) :   0.9850
B( 17-C , 18-O ) :   1.1117 B( 17-C , 19-C ) :   1.3714 B( 18-O , 34-H ) :   0.9796
B( 19-C , 35-H ) :   0.9574

MP2 TOTAL ENERGY:    -1274.347749497 Eh
FINAL SINGLE POINT ENERGY     -1274.347749497362

DIPOLE MOMENT
-------------
                                X             Y             Z
Electronic contribution:      9.95205       9.74961       6.46334
Nuclear contribution   :    -10.93552     -11.46415      -6.70365
                        -----------------------------------------
Total Dipole Moment    :     -0.98346      -1.71455      -0.24031
                        -----------------------------------------
Magnitude (a.u.)       :      1.99114
Magnitude (Debye)      :      5.06107

Rotational constants in cm-1:     0.012504     0.008861     0.006429
Rotational constants in MHz :   374.852361   265.656060   192.744210

                             ****ORCA TERMINATED NORMALLY****
TOTAL RUN TIME: 0 days 1 hours 42 minutes 56 seconds 484 msec
