                         Program Version 4.2.0 -  RELEASE  -
|  1> ! ri-mp2 cc-pvtz cc-pvtz/c TightSCF  NoKeepInts
|  2>
|  3> %scf
|  4>   MaxCore 4096
|  5> end
|  6> *xyz  0  1
|  7>     C       15.9440612   13.4446894   17.4183467
|  8>     C       16.1187084   14.3461709   16.1865257
|  9>     O       17.3949115   15.0176248   16.2386262
| 10>     C       17.4065310   16.3626587   16.0019285
| 11>     O       16.8417735   16.7996790   15.0144143
| 12>     C       17.6875501   17.1960561   17.2230927
| 13>     C       17.4112764   18.5258431   17.2789334
| 14>     C       16.6852392   19.3647436   16.2487944
| 15>     N       17.8809365   19.2892075   18.3533063
| 16>     C       18.8385742   18.8660664   19.2375967
| 17>     S       19.5326846   19.8881537   20.3374149
| 18>     N       19.2098941   17.5484485   19.1423842
| 19>     C       18.4619673   16.5353195   18.3763084
| 20>     C       17.5853184   15.7568569   19.3509852
| 21>     C       18.0295029   14.5205103   19.8575530
| 22>     C       17.2637166   13.8166197   20.8024867
| 23>     C       16.0471467   14.3569980   21.2527739
| 24>     C       15.6078829   15.5940402   20.7617225
| 25>     O       14.4366785   16.1215019   21.1983421
| 26>     C       16.3709310   16.2917010   19.8200972
| 27>     H       16.8606808   12.8789364   17.6254439
| 28>     H       15.1301495   12.7288131   17.2524237
| 29>     H       15.6842384   14.0379617   18.2993054
| 30>     H       16.0740874   13.7378628   15.2737664
| 31>     H       15.2884019   15.0654393   16.1506018
| 32>     H       15.7045218   18.9300168   16.0175949
| 33>     H       17.2554938   19.4027760   15.3117624
| 34>     H       16.5170818   20.3968495   16.5778770
| 35>     H       17.6311855   20.2630694   18.4192104
| 36>     H       19.9024552   17.2564617   19.8195980
| 37>     H       19.1898878   15.8387158   17.9366345
| 38>     H       18.9743642   14.1040457   19.5187555
| 39>     H       17.6156047   12.8603143   21.1858359
| 40>     H       15.4534524   13.8183018   21.9840619
| 41>     H       14.0909410   15.5334439   21.8867869
| 42>     H       16.0191687   17.2561029   19.4727084
| 43> *
| 44>
| 45>                          ****END OF INPUT****

CARTESIAN COORDINATES (ANGSTROEM)
---------------------------------
  C     15.944061   13.444689   17.418347
  C     16.118708   14.346171   16.186526
  O     17.394911   15.017625   16.238626
  C     17.406531   16.362659   16.001929
  O     16.841773   16.799679   15.014414
  C     17.687550   17.196056   17.223093
  C     17.411276   18.525843   17.278933
  C     16.685239   19.364744   16.248794
  N     17.880937   19.289207   18.353306
  C     18.838574   18.866066   19.237597
  S     19.532685   19.888154   20.337415
  N     19.209894   17.548448   19.142384
  C     18.461967   16.535319   18.376308
  C     17.585318   15.756857   19.350985
  C     18.029503   14.520510   19.857553
  C     17.263717   13.816620   20.802487
  C     16.047147   14.356998   21.252774
  C     15.607883   15.594040   20.761723
  O     14.436678   16.121502   21.198342
  C     16.370931   16.291701   19.820097
  H     16.860681   12.878936   17.625444
  H     15.130149   12.728813   17.252424
  H     15.684238   14.037962   18.299305
  H     16.074087   13.737863   15.273766
  H     15.288402   15.065439   16.150602
  H     15.704522   18.930017   16.017595
  H     17.255494   19.402776   15.311762
  H     16.517082   20.396849   16.577877
  H     17.631186   20.263069   18.419210
  H     19.902455   17.256462   19.819598
  H     19.189888   15.838716   17.936634
  H     18.974364   14.104046   19.518756
  H     17.615605   12.860314   21.185836
  H     15.453452   13.818302   21.984062
  H     14.090941   15.533444   21.886787
  H     16.019169   17.256103   19.472708

 Total Charge           Charge          ....    0
 Multiplicity           Mult            ....    1
 Number of Electrons    NEL             ....  154
 Basis Dimension        Dim             ....  828

ORBITAL ENERGIES
----------------

  NO   OCC          E(Eh)            E(eV)
   0   2.0000     -91.890544     -2500.4688
   1   2.0000     -20.600710      -560.5738
   2   2.0000     -20.585877      -560.1702
   3   2.0000     -20.546148      -559.0891
   4   2.0000     -15.631455      -425.3535
   5   2.0000     -15.608719      -424.7348
   6   2.0000     -11.393005      -310.0194
   7   2.0000     -11.384808      -309.7964
   8   2.0000     -11.337898      -308.5199
   9   2.0000     -11.318114      -307.9815
  10   2.0000     -11.311233      -307.7943
  11   2.0000     -11.295272      -307.3600
  12   2.0000     -11.263127      -306.4853
  13   2.0000     -11.260450      -306.4124
  14   2.0000     -11.259041      -306.3741
  15   2.0000     -11.253447      -306.2219
  16   2.0000     -11.246729      -306.0390
  17   2.0000     -11.241473      -305.8960
  18   2.0000     -11.241089      -305.8856
  19   2.0000     -11.220385      -305.3222
  20   2.0000      -8.895546      -242.0601
  21   2.0000      -6.577108      -178.9722
  22   2.0000      -6.575120      -178.9181
  23   2.0000      -6.574522      -178.9018
  24   2.0000      -1.448898       -39.4265
  25   2.0000      -1.420365       -38.6501
  26   2.0000      -1.350685       -36.7540
  27   2.0000      -1.342339       -36.5269
  28   2.0000      -1.240359       -33.7519
  29   2.0000      -1.160516       -31.5793
  30   2.0000      -1.121022       -30.5046
  31   2.0000      -1.044733       -28.4286
  32   2.0000      -1.033218       -28.1153
  33   2.0000      -1.019075       -27.7304
  34   2.0000      -0.998239       -27.1635
  35   2.0000      -0.985313       -26.8117
  36   2.0000      -0.924814       -25.1655
  37   2.0000      -0.883805       -24.0496
  38   2.0000      -0.848543       -23.0900
  39   2.0000      -0.842145       -22.9159
  40   2.0000      -0.836396       -22.7595
  41   2.0000      -0.820864       -22.3368
  42   2.0000      -0.761246       -20.7145
  43   2.0000      -0.735016       -20.0008
  44   2.0000      -0.720697       -19.6112
  45   2.0000      -0.699587       -19.0367
  46   2.0000      -0.690206       -18.7815
  47   2.0000      -0.679051       -18.4779
  48   2.0000      -0.672183       -18.2910
  49   2.0000      -0.664257       -18.0753
  50   2.0000      -0.649209       -17.6659
  51   2.0000      -0.645995       -17.5784
  52   2.0000      -0.638375       -17.3711
  53   2.0000      -0.611820       -16.6485
  54   2.0000      -0.604355       -16.4453
  55   2.0000      -0.600581       -16.3426
  56   2.0000      -0.591802       -16.1037
  57   2.0000      -0.580700       -15.8016
  58   2.0000      -0.572894       -15.5892
  59   2.0000      -0.565766       -15.3953
  60   2.0000      -0.561188       -15.2707
  61   2.0000      -0.548591       -14.9279
  62   2.0000      -0.537895       -14.6369
  63   2.0000      -0.528818       -14.3899
  64   2.0000      -0.517317       -14.0769
  65   2.0000      -0.512695       -13.9511
  66   2.0000      -0.504451       -13.7268
  67   2.0000      -0.498285       -13.5590
  68   2.0000      -0.483843       -13.1660
  69   2.0000      -0.462088       -12.5741
  70   2.0000      -0.451489       -12.2856
  71   2.0000      -0.444136       -12.0855
  72   2.0000      -0.359158        -9.7732
  73   2.0000      -0.353515        -9.6196
  74   2.0000      -0.330341        -8.9890
  75   2.0000      -0.325197        -8.8491
  76   2.0000      -0.317073        -8.6280
  77   0.0000       0.068715         1.8698
  78   0.0000       0.103776         2.8239
  79   0.0000       0.120926         3.2906
  80   0.0000       0.127744         3.4761
  81   0.0000       0.132357         3.6016

MULLIKEN ATOMIC CHARGES
-----------------------
   0 C :   -0.295071
   1 C :    0.050071
   2 O :   -0.379281
   3 C :    0.479131
   4 O :   -0.410181
   5 C :   -0.245087
   6 C :    0.143344
   7 C :   -0.268913
   8 N :   -0.122818
   9 C :    0.215464
  10 S :   -0.437056
  11 N :   -0.201064
  12 C :    0.039836
  13 C :    0.075606
  14 C :   -0.208312
  15 C :   -0.119439
  16 C :   -0.273768
  17 C :    0.300831
  18 O :   -0.359648
  19 C :   -0.244011
  20 H :    0.098675
  21 H :    0.109448
  22 H :    0.105360
  23 H :    0.106944
  24 H :    0.089211
  25 H :    0.128178
  26 H :    0.136033
  27 H :    0.094413
  28 H :    0.198928
  29 H :    0.191030
  30 H :    0.148624
  31 H :    0.149257
  32 H :    0.161936
  33 H :    0.132357
  34 H :    0.241973
  35 H :    0.167999
Sum of atomic charges:   -0.0000000

LOEWDIN ATOMIC CHARGES
----------------------
   0 C :    0.105671
   1 C :   -0.012718
   2 O :    0.282780
   3 C :   -0.420293
   4 O :    0.115610
   5 C :   -0.097855
   6 C :   -0.057342
   7 C :    0.130186
   8 N :    0.407973
   9 C :   -0.454833
  10 S :   -0.032386
  11 N :    0.396009
  12 C :   -0.053955
  13 C :   -0.035086
  14 C :    0.015271
  15 C :    0.045361
  16 C :   -0.001264
  17 C :   -0.190808
  18 O :    0.396243
  19 C :    0.028439
  20 H :   -0.027788
  21 H :   -0.026087
  22 H :   -0.028257
  23 H :   -0.028601
  24 H :   -0.028369
  25 H :   -0.006059
  26 H :   -0.002874
  27 H :   -0.023239
  28 H :   -0.057619
  29 H :   -0.066690
  30 H :   -0.005828
  31 H :   -0.031008
  32 H :   -0.020139
  33 H :   -0.034774
  34 H :   -0.152691
  35 H :   -0.026979

  Mayer bond orders larger than 0.100000
B(  0-C ,  1-C ) :   0.9668 B(  0-C , 20-H ) :   0.9732 B(  0-C , 21-H ) :   0.9801
B(  0-C , 22-H ) :   0.9756 B(  1-C ,  2-O ) :   0.8881 B(  1-C , 23-H ) :   0.9905
B(  1-C , 24-H ) :   0.9723 B(  2-O ,  3-C ) :   1.1006 B(  3-C ,  4-O ) :   2.0042
B(  3-C ,  5-C ) :   1.0682 B(  5-C ,  6-C ) :   1.6462 B(  5-C , 12-C ) :   0.9743
B(  6-C ,  7-C ) :   0.9730 B(  6-C ,  8-N ) :   1.1506 B(  7-C , 25-H ) :   0.9641
B(  7-C , 26-H ) :   0.9563 B(  7-C , 27-H ) :   0.9885 B(  8-N ,  9-C ) :   1.1785
B(  8-N , 28-H ) :   0.9483 B(  9-C , 10-S ) :   1.6117 B(  9-C , 11-N ) :   1.3029
B( 11-N , 12-C ) :   0.9576 B( 11-N , 29-H ) :   0.9546 B( 12-C , 13-C ) :   0.9499
B( 12-C , 30-H ) :   1.0026 B( 13-C , 14-C ) :   1.3472 B( 13-C , 19-C ) :   1.3725
B( 14-C , 15-C ) :   1.3827 B( 14-C , 31-H ) :   0.9758 B( 15-C , 16-C ) :   1.3669
B( 15-C , 32-H ) :   0.9705 B( 16-C , 17-C ) :   1.3301 B( 16-C , 33-H ) :   0.9847
B( 17-C , 18-O ) :   1.1144 B( 17-C , 19-C ) :   1.3749 B( 18-O , 34-H ) :   0.9790
B( 19-C , 35-H ) :   0.9549

MP2 TOTAL ENERGY:    -1274.330114930 Eh
FINAL SINGLE POINT ENERGY     -1274.330114929949

DIPOLE MOMENT
-------------
                                X             Y             Z
Electronic contribution:      8.47547      10.71160       4.54595
Nuclear contribution   :     -9.56477     -12.21372      -4.37487
                        -----------------------------------------
Total Dipole Moment    :     -1.08930      -1.50211       0.17108
                        -----------------------------------------
Magnitude (a.u.)       :      1.86338
Magnitude (Debye)      :      4.73634

Rotational constants in cm-1:     0.011830     0.009434     0.006548
Rotational constants in MHz :   354.644675   282.814489   196.289395

                             ****ORCA TERMINATED NORMALLY****
TOTAL RUN TIME: 0 days 1 hours 52 minutes 41 seconds 894 msec
