                         Program Version 4.2.0 -  RELEASE  -
|  1> ! ri-mp2 cc-pvtz cc-pvtz/c TightSCF  NoKeepInts
|  2>
|  3> %scf
|  4>   MaxCore 4096
|  5> end
|  6> *xyz  0  1
|  7>     C       14.1683100   15.4296811   16.1814046
|  8>     C       15.4167772   15.4512182   17.0788061
|  9>     O       16.5608066   15.2423673   16.2243870
| 10>     C       17.8247845   15.6823211   16.5264443
| 11>     O       18.7832207   14.9606796   16.3213982
| 12>     C       17.9294546   16.8667312   17.4324741
| 13>     C       17.3353192   18.0536446   17.1659830
| 14>     C       16.5140411   18.4080735   15.9447635
| 15>     N       17.5115422   19.1304573   18.0376413
| 16>     C       18.3398017   19.1216328   19.1300671
| 17>     S       18.5347015   20.4594990   20.0818714
| 18>     N       18.9943792   17.9442836   19.3992000
| 19>     C       18.8036338   16.6748771   18.6694903
| 20>     C       18.1997080   15.6023068   19.5700481
| 21>     C       18.7366794   14.3022131   19.5814763
| 22>     C       18.1655544   13.2988322   20.3817844
| 23>     C       17.0441130   13.5957183   21.1748105
| 24>     C       16.5011149   14.8873472   21.1598463
| 25>     O       15.4085147   15.1739731   21.9111056
| 26>     C       17.0714291   15.8844018   20.3622519
| 27>     H       13.2602247   15.5670739   16.7810512
| 28>     H       14.0896566   14.4692690   15.6562980
| 29>     H       14.2114048   16.2291427   15.4318736
| 30>     H       15.4438934   16.4070978   17.6114406
| 31>     H       15.3626370   14.6504133   17.8286704
| 32>     H       16.6383451   17.6767741   15.1364513
| 33>     H       16.8151800   19.3806256   15.5351181
| 34>     H       15.4461724   18.4609582   16.1886276
| 35>     H       17.0502375   20.0072285   17.8512600
| 36>     H       19.5808013   17.9612119   20.2241782
| 37>     H       19.7917871   16.3281333   18.3323297
| 38>     H       19.5907920   14.0639144   18.9510041
| 39>     H       18.5880531   12.2953597   20.3776260
| 40>     H       16.5979815   12.8219186   21.7909196
| 41>     H       15.2021264   14.3855341   22.4360566
| 42>     H       16.6338215   16.8770861   20.3658411
| 43> *
| 44>
| 45>                          ****END OF INPUT****

CARTESIAN COORDINATES (ANGSTROEM)
---------------------------------
  C     14.168310   15.429681   16.181405
  C     15.416777   15.451218   17.078806
  O     16.560807   15.242367   16.224387
  C     17.824784   15.682321   16.526444
  O     18.783221   14.960680   16.321398
  C     17.929455   16.866731   17.432474
  C     17.335319   18.053645   17.165983
  C     16.514041   18.408073   15.944763
  N     17.511542   19.130457   18.037641
  C     18.339802   19.121633   19.130067
  S     18.534701   20.459499   20.081871
  N     18.994379   17.944284   19.399200
  C     18.803634   16.674877   18.669490
  C     18.199708   15.602307   19.570048
  C     18.736679   14.302213   19.581476
  C     18.165554   13.298832   20.381784
  C     17.044113   13.595718   21.174810
  C     16.501115   14.887347   21.159846
  O     15.408515   15.173973   21.911106
  C     17.071429   15.884402   20.362252
  H     13.260225   15.567074   16.781051
  H     14.089657   14.469269   15.656298
  H     14.211405   16.229143   15.431874
  H     15.443893   16.407098   17.611441
  H     15.362637   14.650413   17.828670
  H     16.638345   17.676774   15.136451
  H     16.815180   19.380626   15.535118
  H     15.446172   18.460958   16.188628
  H     17.050238   20.007229   17.851260
  H     19.580801   17.961212   20.224178
  H     19.791787   16.328133   18.332330
  H     19.590792   14.063914   18.951004
  H     18.588053   12.295360   20.377626
  H     16.597981   12.821919   21.790920
  H     15.202126   14.385534   22.436057
  H     16.633821   16.877086   20.365841

 Total Charge           Charge          ....    0
 Multiplicity           Mult            ....    1
 Number of Electrons    NEL             ....  154
 Basis Dimension        Dim             ....  828

ORBITAL ENERGIES
----------------

  NO   OCC          E(Eh)            E(eV)
   0   2.0000     -91.890691     -2500.4728
   1   2.0000     -20.599818      -560.5495
   2   2.0000     -20.598216      -560.5059
   3   2.0000     -20.550730      -559.2138
   4   2.0000     -15.628760      -425.2802
   5   2.0000     -15.611637      -424.8142
   6   2.0000     -11.396977      -310.1275
   7   2.0000     -11.387315      -309.8646
   8   2.0000     -11.331882      -308.3562
   9   2.0000     -11.316345      -307.9334
  10   2.0000     -11.313456      -307.8548
  11   2.0000     -11.303879      -307.5942
  12   2.0000     -11.268505      -306.6316
  13   2.0000     -11.264088      -306.5114
  14   2.0000     -11.262577      -306.4703
  15   2.0000     -11.256258      -306.2984
  16   2.0000     -11.245891      -306.0162
  17   2.0000     -11.242050      -305.9117
  18   2.0000     -11.239009      -305.8290
  19   2.0000     -11.235706      -305.7391
  20   2.0000      -8.895794      -242.0669
  21   2.0000      -6.577377      -178.9795
  22   2.0000      -6.575357      -178.9246
  23   2.0000      -6.574778      -178.9088
  24   2.0000      -1.447590       -39.3909
  25   2.0000      -1.419618       -38.6298
  26   2.0000      -1.359214       -36.9861
  27   2.0000      -1.341299       -36.4986
  28   2.0000      -1.240480       -33.7552
  29   2.0000      -1.161179       -31.5973
  30   2.0000      -1.125788       -30.6343
  31   2.0000      -1.048803       -28.5394
  32   2.0000      -1.041575       -28.3427
  33   2.0000      -1.018402       -27.7121
  34   2.0000      -1.005066       -27.3492
  35   2.0000      -0.989807       -26.9340
  36   2.0000      -0.927766       -25.2458
  37   2.0000      -0.882950       -24.0263
  38   2.0000      -0.854965       -23.2648
  39   2.0000      -0.842735       -22.9320
  40   2.0000      -0.836941       -22.7743
  41   2.0000      -0.836130       -22.7523
  42   2.0000      -0.758173       -20.6309
  43   2.0000      -0.740044       -20.1376
  44   2.0000      -0.732004       -19.9188
  45   2.0000      -0.697493       -18.9797
  46   2.0000      -0.688111       -18.7244
  47   2.0000      -0.682484       -18.5713
  48   2.0000      -0.676697       -18.4139
  49   2.0000      -0.664029       -18.0691
  50   2.0000      -0.652815       -17.7640
  51   2.0000      -0.644329       -17.5331
  52   2.0000      -0.640975       -17.4418
  53   2.0000      -0.614236       -16.7142
  54   2.0000      -0.608182       -16.5495
  55   2.0000      -0.605981       -16.4896
  56   2.0000      -0.603344       -16.4178
  57   2.0000      -0.586629       -15.9630
  58   2.0000      -0.578329       -15.7371
  59   2.0000      -0.568590       -15.4721
  60   2.0000      -0.562335       -15.3019
  61   2.0000      -0.558408       -15.1950
  62   2.0000      -0.541658       -14.7393
  63   2.0000      -0.532961       -14.5026
  64   2.0000      -0.524516       -14.2728
  65   2.0000      -0.516324       -14.0499
  66   2.0000      -0.502580       -13.6759
  67   2.0000      -0.500196       -13.6110
  68   2.0000      -0.489756       -13.3269
  69   2.0000      -0.470036       -12.7903
  70   2.0000      -0.458092       -12.4653
  71   2.0000      -0.449325       -12.2267
  72   2.0000      -0.357366        -9.7244
  73   2.0000      -0.351852        -9.5744
  74   2.0000      -0.330242        -8.9864
  75   2.0000      -0.324105        -8.8193
  76   2.0000      -0.318799        -8.6750
  77   0.0000       0.080021         2.1775
  78   0.0000       0.104322         2.8387
  79   0.0000       0.114986         3.1289
  80   0.0000       0.128768         3.5039
  81   0.0000       0.132891         3.6161

MULLIKEN ATOMIC CHARGES
-----------------------
   0 C :   -0.265412
   1 C :    0.011443
   2 O :   -0.326103
   3 C :    0.414556
   4 O :   -0.381757
   5 C :   -0.209130
   6 C :    0.141965
   7 C :   -0.326266
   8 N :   -0.134250
   9 C :    0.203259
  10 S :   -0.439413
  11 N :   -0.208367
  12 C :    0.063910
  13 C :    0.034350
  14 C :   -0.187255
  15 C :   -0.129632
  16 C :   -0.278158
  17 C :    0.314985
  18 O :   -0.358641
  19 C :   -0.284380
  20 H :    0.093278
  21 H :    0.110669
  22 H :    0.091056
  23 H :    0.095637
  24 H :    0.128510
  25 H :    0.134343
  26 H :    0.136780
  27 H :    0.121327
  28 H :    0.197087
  29 H :    0.196980
  30 H :    0.162406
  31 H :    0.165594
  32 H :    0.163332
  33 H :    0.132392
  34 H :    0.241928
  35 H :    0.172975
Sum of atomic charges:   -0.0000000

LOEWDIN ATOMIC CHARGES
----------------------
   0 C :    0.108122
   1 C :   -0.018533
   2 O :    0.301972
   3 C :   -0.416071
   4 O :    0.126219
   5 C :   -0.086708
   6 C :   -0.097138
   7 C :    0.126688
   8 N :    0.402061
   9 C :   -0.456329
  10 S :   -0.036349
  11 N :    0.397171
  12 C :   -0.045303
  13 C :   -0.044077
  14 C :    0.022780
  15 C :    0.045133
  16 C :   -0.000478
  17 C :   -0.194629
  18 O :    0.393955
  19 C :    0.028111
  20 H :   -0.024212
  21 H :   -0.022961
  22 H :   -0.031058
  23 H :   -0.040624
  24 H :   -0.025416
  25 H :   -0.007448
  26 H :   -0.011173
  27 H :   -0.016550
  28 H :   -0.057537
  29 H :   -0.063548
  30 H :   -0.002897
  31 H :   -0.022097
  32 H :   -0.018658
  33 H :   -0.034637
  34 H :   -0.152910
  35 H :   -0.024869

  Mayer bond orders larger than 0.100000
B(  0-C ,  1-C ) :   0.9752 B(  0-C , 20-H ) :   0.9759 B(  0-C , 21-H ) :   0.9792
B(  0-C , 22-H ) :   0.9785 B(  1-C ,  2-O ) :   0.8992 B(  1-C , 23-H ) :   0.9645
B(  1-C , 24-H ) :   0.9760 B(  2-O ,  3-C ) :   1.1769 B(  3-C ,  4-O ) :   2.0989
B(  3-C ,  5-C ) :   0.9351 B(  5-C ,  6-C ) :   1.6800 B(  5-C , 12-C ) :   0.9597
B(  6-C ,  7-C ) :   0.9437 B(  6-C ,  8-N ) :   1.1214 B(  7-C , 25-H ) :   0.9767
B(  7-C , 26-H ) :   0.9760 B(  7-C , 27-H ) :   0.9639 B(  8-N ,  9-C ) :   1.1901
B(  8-N , 28-H ) :   0.9513 B(  9-C , 10-S ) :   1.6130 B(  9-C , 11-N ) :   1.2908
B( 11-N , 12-C ) :   1.0011 B( 11-N , 29-H ) :   0.9499 B( 12-C , 13-C ) :   0.9431
B( 12-C , 30-H ) :   0.9975 B( 13-C , 14-C ) :   1.3858 B( 13-C , 19-C ) :   1.3505
B( 14-C , 15-C ) :   1.3949 B( 14-C , 31-H ) :   0.9613 B( 15-C , 16-C ) :   1.3648
B( 15-C , 32-H ) :   0.9702 B( 16-C , 17-C ) :   1.3278 B( 16-C , 33-H ) :   0.9844
B( 17-C , 18-O ) :   1.1102 B( 17-C , 19-C ) :   1.3717 B( 18-O , 34-H ) :   0.9790
B( 19-C , 35-H ) :   0.9582

MP2 TOTAL ENERGY:    -1274.334171286 Eh
FINAL SINGLE POINT ENERGY     -1274.334171285707

DIPOLE MOMENT
-------------
                                X             Y             Z
Electronic contribution:     11.97475       6.14095       7.60085
Nuclear contribution   :    -13.49127      -7.13163      -7.83958
                        -----------------------------------------
Total Dipole Moment    :     -1.51652      -0.99068      -0.23874
                        -----------------------------------------
Magnitude (a.u.)       :      1.82709
Magnitude (Debye)      :      4.64409

Rotational constants in cm-1:     0.011218     0.009268     0.006814
Rotational constants in MHz :   336.319382   277.835155   204.272225

                             ****ORCA TERMINATED NORMALLY****
TOTAL RUN TIME: 0 days 1 hours 48 minutes 18 seconds 795 msec
