                         Program Version 4.2.0 -  RELEASE  -
|  1> ! ri-mp2 cc-pvtz cc-pvtz/c TightSCF  NoKeepInts
|  2>
|  3> %scf
|  4>   MaxCore 4096
|  5> end
|  6> *xyz  0  1
|  7>     C       14.5998458   14.4134521   16.8283015
|  8>     C       15.5754453   15.5999189   16.7795255
|  9>     O       16.8326284   15.0886119   16.2962478
| 10>     C       18.0599612   15.6334723   16.5843785
| 11>     O       19.0550299   14.9359811   16.5175900
| 12>     C       18.0576561   16.8780327   17.4111992
| 13>     C       17.5557353   18.0536387   16.9675474
| 14>     C       16.9723859   18.3394832   15.6005678
| 15>     N       17.6323619   19.1905829   17.7747479
| 16>     C       18.2789255   19.2472248   18.9823599
| 17>     S       18.3708870   20.6505349   19.8517844
| 18>     N       18.8425495   18.0797909   19.4367952
| 19>     C       18.7242653   16.7619451   18.7808993
| 20>     C       17.9685512   15.7652456   19.6551300
| 21>     C       18.4137594   14.4342053   19.7520373
| 22>     C       17.7081704   13.4967592   20.5243657
| 23>     C       16.5436465   13.8913454   21.2043617
| 24>     C       16.0927236   15.2142619   21.1057069
| 25>     O       14.9603041   15.5954369   21.7481455
| 26>     C       16.7972653   16.1459247   20.3366850
| 27>     H       14.9778760   13.6336998   17.5019616
| 28>     H       14.4715957   13.9754598   15.8305368
| 29>     H       13.6171241   14.7353819   17.1935574
| 30>     H       15.1837874   16.3789951   16.1153944
| 31>     H       15.6700638   16.0042739   17.7952237
| 32>     H       17.0578966   17.4825419   14.9210376
| 33>     H       17.5012208   19.1730677   15.1206518
| 34>     H       15.9119612   18.6110024   15.6703450
| 35>     H       17.2410895   20.0619924   17.4524392
| 36>     H       19.2959650   18.1475977   20.3393879
| 37>     H       19.7421050   16.3748345   18.6239421
| 38>     H       19.3027910   14.1201341   19.2088310
| 39>     H       18.0611773   12.4686334   20.5855501
| 40>     H       15.9936659   13.1687943   21.7982570
| 41>     H       14.6509332   14.8365575   22.2658270
| 42>     H       16.4256497   17.1631853   20.2726810
| 43> *
| 44>
| 45>                          ****END OF INPUT****

CARTESIAN COORDINATES (ANGSTROEM)
---------------------------------
  C     14.599846   14.413452   16.828301
  C     15.575445   15.599919   16.779525
  O     16.832628   15.088612   16.296248
  C     18.059961   15.633472   16.584378
  O     19.055030   14.935981   16.517590
  C     18.057656   16.878033   17.411199
  C     17.555735   18.053639   16.967547
  C     16.972386   18.339483   15.600568
  N     17.632362   19.190583   17.774748
  C     18.278925   19.247225   18.982360
  S     18.370887   20.650535   19.851784
  N     18.842550   18.079791   19.436795
  C     18.724265   16.761945   18.780899
  C     17.968551   15.765246   19.655130
  C     18.413759   14.434205   19.752037
  C     17.708170   13.496759   20.524366
  C     16.543647   13.891345   21.204362
  C     16.092724   15.214262   21.105707
  O     14.960304   15.595437   21.748145
  C     16.797265   16.145925   20.336685
  H     14.977876   13.633700   17.501962
  H     14.471596   13.975460   15.830537
  H     13.617124   14.735382   17.193557
  H     15.183787   16.378995   16.115394
  H     15.670064   16.004274   17.795224
  H     17.057897   17.482542   14.921038
  H     17.501221   19.173068   15.120652
  H     15.911961   18.611002   15.670345
  H     17.241090   20.061992   17.452439
  H     19.295965   18.147598   20.339388
  H     19.742105   16.374834   18.623942
  H     19.302791   14.120134   19.208831
  H     18.061177   12.468633   20.585550
  H     15.993666   13.168794   21.798257
  H     14.650933   14.836557   22.265827
  H     16.425650   17.163185   20.272681

 Total Charge           Charge          ....    0
 Multiplicity           Mult            ....    1
 Number of Electrons    NEL             ....  154
 Basis Dimension        Dim             ....  828

ORBITAL ENERGIES
----------------

  NO   OCC          E(Eh)            E(eV)
   0   2.0000     -91.890457     -2500.4664
   1   2.0000     -20.601576      -560.5974
   2   2.0000     -20.600121      -560.5578
   3   2.0000     -20.549301      -559.1749
   4   2.0000     -15.627548      -425.2472
   5   2.0000     -15.611983      -424.8236
   6   2.0000     -11.397603      -310.1445
   7   2.0000     -11.387249      -309.8628
   8   2.0000     -11.330289      -308.3128
   9   2.0000     -11.317051      -307.9526
  10   2.0000     -11.315059      -307.8984
  11   2.0000     -11.303065      -307.5720
  12   2.0000     -11.270083      -306.6745
  13   2.0000     -11.265096      -306.5389
  14   2.0000     -11.263885      -306.5059
  15   2.0000     -11.256859      -306.3147
  16   2.0000     -11.246157      -306.0235
  17   2.0000     -11.242560      -305.9256
  18   2.0000     -11.239148      -305.8328
  19   2.0000     -11.231182      -305.6160
  20   2.0000      -8.895570      -242.0608
  21   2.0000      -6.577157      -178.9735
  22   2.0000      -6.575132      -178.9184
  23   2.0000      -6.574556      -178.9028
  24   2.0000      -1.448219       -39.4080
  25   2.0000      -1.419930       -38.6383
  26   2.0000      -1.359590       -36.9963
  27   2.0000      -1.340799       -36.4850
  28   2.0000      -1.240450       -33.7544
  29   2.0000      -1.161617       -31.6092
  30   2.0000      -1.125977       -30.6394
  31   2.0000      -1.049374       -28.5549
  32   2.0000      -1.039720       -28.2922
  33   2.0000      -1.019214       -27.7342
  34   2.0000      -1.005664       -27.3655
  35   2.0000      -0.989764       -26.9328
  36   2.0000      -0.928281       -25.2598
  37   2.0000      -0.880546       -23.9609
  38   2.0000      -0.856309       -23.3014
  39   2.0000      -0.842387       -22.9225
  40   2.0000      -0.837317       -22.7845
  41   2.0000      -0.836779       -22.7699
  42   2.0000      -0.756483       -20.5849
  43   2.0000      -0.740484       -20.1496
  44   2.0000      -0.731757       -19.9121
  45   2.0000      -0.698154       -18.9977
  46   2.0000      -0.688683       -18.7400
  47   2.0000      -0.681580       -18.5467
  48   2.0000      -0.677523       -18.4363
  49   2.0000      -0.661069       -17.9886
  50   2.0000      -0.658655       -17.9229
  51   2.0000      -0.650524       -17.7016
  52   2.0000      -0.640329       -17.4242
  53   2.0000      -0.612220       -16.6593
  54   2.0000      -0.608205       -16.5501
  55   2.0000      -0.603867       -16.4320
  56   2.0000      -0.595851       -16.2139
  57   2.0000      -0.582825       -15.8595
  58   2.0000      -0.577992       -15.7279
  59   2.0000      -0.571950       -15.5636
  60   2.0000      -0.563693       -15.3389
  61   2.0000      -0.558405       -15.1950
  62   2.0000      -0.551375       -15.0037
  63   2.0000      -0.527466       -14.3531
  64   2.0000      -0.517843       -14.0912
  65   2.0000      -0.516112       -14.0441
  66   2.0000      -0.503822       -13.7097
  67   2.0000      -0.502483       -13.6733
  68   2.0000      -0.489034       -13.3073
  69   2.0000      -0.471370       -12.8266
  70   2.0000      -0.453779       -12.3479
  71   2.0000      -0.450811       -12.2672
  72   2.0000      -0.357313        -9.7230
  73   2.0000      -0.352055        -9.5799
  74   2.0000      -0.330098        -8.9824
  75   2.0000      -0.324681        -8.8350
  76   2.0000      -0.319015        -8.6808
  77   0.0000       0.084288         2.2936
  78   0.0000       0.103978         2.8294
  79   0.0000       0.113438         3.0868
  80   0.0000       0.128063         3.4848
  81   0.0000       0.132798         3.6136

MULLIKEN ATOMIC CHARGES
-----------------------
   0 C :   -0.257280
   1 C :    0.012758
   2 O :   -0.305934
   3 C :    0.399589
   4 O :   -0.383873
   5 C :   -0.205479
   6 C :    0.157586
   7 C :   -0.333735
   8 N :   -0.138685
   9 C :    0.204002
  10 S :   -0.440237
  11 N :   -0.216359
  12 C :    0.078659
  13 C :    0.030372
  14 C :   -0.197475
  15 C :   -0.130601
  16 C :   -0.276216
  17 C :    0.324413
  18 O :   -0.357463
  19 C :   -0.298987
  20 H :    0.107934
  21 H :    0.102440
  22 H :    0.088061
  23 H :    0.090508
  24 H :    0.106954
  25 H :    0.128251
  26 H :    0.141426
  27 H :    0.121071
  28 H :    0.196616
  29 H :    0.199069
  30 H :    0.164845
  31 H :    0.168974
  32 H :    0.164173
  33 H :    0.132455
  34 H :    0.241685
  35 H :    0.180483
Sum of atomic charges:   -0.0000000

LOEWDIN ATOMIC CHARGES
----------------------
   0 C :    0.112313
   1 C :   -0.024308
   2 O :    0.308562
   3 C :   -0.416262
   4 O :    0.122418
   5 C :   -0.082803
   6 C :   -0.099790
   7 C :    0.123370
   8 N :    0.401682
   9 C :   -0.456198
  10 S :   -0.037219
  11 N :    0.397226
  12 C :   -0.044172
  13 C :   -0.043583
  14 C :    0.023249
  15 C :    0.045930
  16 C :    0.000022
  17 C :   -0.193966
  18 O :    0.394674
  19 C :    0.026078
  20 H :   -0.021919
  21 H :   -0.026036
  22 H :   -0.025306
  23 H :   -0.038155
  24 H :   -0.034915
  25 H :   -0.008077
  26 H :   -0.009462
  27 H :   -0.017774
  28 H :   -0.057570
  29 H :   -0.063571
  30 H :   -0.002209
  31 H :   -0.021561
  32 H :   -0.018322
  33 H :   -0.034615
  34 H :   -0.152878
  35 H :   -0.024853

  Mayer bond orders larger than 0.100000
B(  0-C ,  1-C ) :   0.9854 B(  0-C , 20-H ) :   0.9779 B(  0-C , 21-H ) :   0.9797
B(  0-C , 22-H ) :   0.9770 B(  1-C ,  2-O ) :   0.9104 B(  1-C , 23-H ) :   0.9733
B(  1-C , 24-H ) :   0.9578 B(  2-O ,  3-C ) :   1.1933 B(  3-C ,  4-O ) :   2.0899
B(  3-C ,  5-C ) :   0.9226 B(  5-C ,  6-C ) :   1.6802 B(  5-C , 12-C ) :   0.9563
B(  6-C ,  7-C ) :   0.9435 B(  6-C ,  8-N ) :   1.1198 B(  7-C , 25-H ) :   0.9805
B(  7-C , 26-H ) :   0.9683 B(  7-C , 27-H ) :   0.9667 B(  8-N ,  9-C ) :   1.1945
B(  8-N , 28-H ) :   0.9522 B(  9-C , 10-S ) :   1.6117 B(  9-C , 11-N ) :   1.2879
B( 11-N , 12-C ) :   0.9964 B( 11-N , 29-H ) :   0.9489 B( 12-C , 13-C ) :   0.9427
B( 12-C , 30-H ) :   0.9972 B( 13-C , 14-C ) :   1.3891 B( 13-C , 19-C ) :   1.3403
B( 14-C , 15-C ) :   1.3970 B( 14-C , 31-H ) :   0.9604 B( 15-C , 16-C ) :   1.3631
B( 15-C , 32-H ) :   0.9698 B( 16-C , 17-C ) :   1.3300 B( 16-C , 33-H ) :   0.9843
B( 17-C , 18-O ) :   1.1104 B( 17-C , 19-C ) :   1.3634 B( 18-O , 34-H ) :   0.9793
B( 19-C , 35-H ) :   0.9569

MP2 TOTAL ENERGY:    -1274.334421442 Eh
FINAL SINGLE POINT ENERGY     -1274.334421441867

DIPOLE MOMENT
-------------
                                X             Y             Z
Electronic contribution:     10.60871       8.29382       6.87583
Nuclear contribution   :    -12.12676      -9.27294      -7.29764
                        -----------------------------------------
Total Dipole Moment    :     -1.51805      -0.97912      -0.42181
                        -----------------------------------------
Magnitude (a.u.)       :      1.85501
Magnitude (Debye)      :      4.71506

Rotational constants in cm-1:     0.012046     0.009063     0.006789
Rotational constants in MHz :   361.132897   271.705441   203.515490

                             ****ORCA TERMINATED NORMALLY****
TOTAL RUN TIME: 0 days 1 hours 45 minutes 18 seconds 296 msec
