                         Program Version 4.2.0 -  RELEASE  -
|  1> ! ri-mp2 cc-pvtz cc-pvtz/c TightSCF  NoKeepInts
|  2>
|  3> %scf
|  4>   MaxCore 4096
|  5> end
|  6> *xyz  0  1
|  7>     C       14.2650728   15.1969846   16.2297431
|  8>     C       15.6684163   15.0088648   16.8301126
|  9>     O       16.6157352   15.6248803   15.9410293
| 10>     C       17.8709675   15.8311073   16.4299712
| 11>     O       18.6531268   14.8992776   16.4911208
| 12>     C       17.9362333   16.9667053   17.4055085
| 13>     C       17.2896557   18.1437065   17.2216612
| 14>     C       16.4450771   18.5487063   16.0324596
| 15>     N       17.4400918   19.1725072   18.1558650
| 16>     C       18.3240736   19.1517195   19.2031742
| 17>     S       18.5258311   20.4574084   20.1976224
| 18>     N       19.0315236   17.9893395   19.3863514
| 19>     C       18.8004866   16.7329165   18.6471581
| 20>     C       18.1622283   15.6814189   19.5514892
| 21>     C       18.6993802   14.3830041   19.6220087
| 22>     C       18.1036279   13.4036303   20.4340700
| 23>     C       16.9584978   13.7234456   21.1828931
| 24>     C       16.4174910   15.0140763   21.1130455
| 25>     O       15.3044511   15.3233567   21.8243537
| 26>     C       17.0120982   15.9865730   20.3030268
| 27>     H       13.5099897   14.7172932   16.8644299
| 28>     H       14.2100823   14.7448878   15.2314576
| 29>     H       14.0132960   16.2601292   16.1432337
| 30>     H       15.6983159   15.4768505   17.8228717
| 31>     H       15.8977793   13.9407029   16.9448461
| 32>     H       15.4081599   18.2183513   16.1612609
| 33>     H       16.8255288   18.1066104   15.1030548
| 34>     H       16.4360921   19.6355658   15.8837182
| 35>     H       16.9327078   20.0349769   18.0358993
| 36>     H       19.6578496   17.9924966   20.1813917
| 37>     H       19.7779752   16.3555113   18.3127749
| 38>     H       19.5736243   14.1268476   19.0276470
| 39>     H       18.5269174   12.4013868   20.4744821
| 40>     H       16.4939483   12.9689186   21.8091401
| 41>     H       15.0844591   14.5526749   22.3694567
| 42>     H       16.5762085   16.9791675   20.2656709
| 43> *
| 44>
| 45>                          ****END OF INPUT****

CARTESIAN COORDINATES (ANGSTROEM)
---------------------------------
  C     14.265073   15.196985   16.229743
  C     15.668416   15.008865   16.830113
  O     16.615735   15.624880   15.941029
  C     17.870967   15.831107   16.429971
  O     18.653127   14.899278   16.491121
  C     17.936233   16.966705   17.405508
  C     17.289656   18.143706   17.221661
  C     16.445077   18.548706   16.032460
  N     17.440092   19.172507   18.155865
  C     18.324074   19.151719   19.203174
  S     18.525831   20.457408   20.197622
  N     19.031524   17.989339   19.386351
  C     18.800487   16.732917   18.647158
  C     18.162228   15.681419   19.551489
  C     18.699380   14.383004   19.622009
  C     18.103628   13.403630   20.434070
  C     16.958498   13.723446   21.182893
  C     16.417491   15.014076   21.113045
  O     15.304451   15.323357   21.824354
  C     17.012098   15.986573   20.303027
  H     13.509990   14.717293   16.864430
  H     14.210082   14.744888   15.231458
  H     14.013296   16.260129   16.143234
  H     15.698316   15.476850   17.822872
  H     15.897779   13.940703   16.944846
  H     15.408160   18.218351   16.161261
  H     16.825529   18.106610   15.103055
  H     16.436092   19.635566   15.883718
  H     16.932708   20.034977   18.035899
  H     19.657850   17.992497   20.181392
  H     19.777975   16.355511   18.312775
  H     19.573624   14.126848   19.027647
  H     18.526917   12.401387   20.474482
  H     16.493948   12.968919   21.809140
  H     15.084459   14.552675   22.369457
  H     16.576208   16.979167   20.265671

 Total Charge           Charge          ....    0
 Multiplicity           Mult            ....    1
 Number of Electrons    NEL             ....  154
 Basis Dimension        Dim             ....  828

ORBITAL ENERGIES
----------------

  NO   OCC          E(Eh)            E(eV)
   0   2.0000     -91.890486     -2500.4673
   1   2.0000     -20.597642      -560.4903
   2   2.0000     -20.581960      -560.0636
   3   2.0000     -20.557365      -559.3943
   4   2.0000     -15.630008      -425.3141
   5   2.0000     -15.609914      -424.7673
   6   2.0000     -11.393667      -310.0374
   7   2.0000     -11.386098      -309.8315
   8   2.0000     -11.334865      -308.4374
   9   2.0000     -11.313973      -307.8689
  10   2.0000     -11.310438      -307.7727
  11   2.0000     -11.299370      -307.4715
  12   2.0000     -11.262987      -306.4814
  13   2.0000     -11.261221      -306.4334
  14   2.0000     -11.259600      -306.3893
  15   2.0000     -11.253881      -306.2337
  16   2.0000     -11.243522      -305.9518
  17   2.0000     -11.239463      -305.8413
  18   2.0000     -11.236273      -305.7545
  19   2.0000     -11.233972      -305.6919
  20   2.0000      -8.895554      -242.0603
  21   2.0000      -6.577130      -178.9728
  22   2.0000      -6.575121      -178.9181
  23   2.0000      -6.574534      -178.9022
  24   2.0000      -1.452284       -39.5187
  25   2.0000      -1.417464       -38.5712
  26   2.0000      -1.357454       -36.9382
  27   2.0000      -1.341316       -36.4991
  28   2.0000      -1.239498       -33.7285
  29   2.0000      -1.158065       -31.5125
  30   2.0000      -1.123000       -30.5584
  31   2.0000      -1.046163       -28.4675
  32   2.0000      -1.036205       -28.1966
  33   2.0000      -1.015693       -27.6384
  34   2.0000      -1.001683       -27.2572
  35   2.0000      -0.987424       -26.8692
  36   2.0000      -0.925223       -25.1766
  37   2.0000      -0.879705       -23.9380
  38   2.0000      -0.851001       -23.1569
  39   2.0000      -0.841452       -22.8971
  40   2.0000      -0.834071       -22.6962
  41   2.0000      -0.831769       -22.6336
  42   2.0000      -0.757265       -20.6062
  43   2.0000      -0.736241       -20.0341
  44   2.0000      -0.730036       -19.8653
  45   2.0000      -0.695745       -18.9322
  46   2.0000      -0.687382       -18.7046
  47   2.0000      -0.682279       -18.5658
  48   2.0000      -0.675621       -18.3846
  49   2.0000      -0.657784       -17.8992
  50   2.0000      -0.651746       -17.7349
  51   2.0000      -0.642763       -17.4905
  52   2.0000      -0.629655       -17.1338
  53   2.0000      -0.626514       -17.0483
  54   2.0000      -0.606281       -16.4978
  55   2.0000      -0.605394       -16.4736
  56   2.0000      -0.601281       -16.3617
  57   2.0000      -0.580432       -15.7944
  58   2.0000      -0.576137       -15.6775
  59   2.0000      -0.566000       -15.4016
  60   2.0000      -0.558966       -15.2102
  61   2.0000      -0.550202       -14.9718
  62   2.0000      -0.541678       -14.7398
  63   2.0000      -0.524018       -14.2593
  64   2.0000      -0.522248       -14.2111
  65   2.0000      -0.514277       -13.9942
  66   2.0000      -0.502630       -13.6773
  67   2.0000      -0.498284       -13.5590
  68   2.0000      -0.482006       -13.1160
  69   2.0000      -0.466398       -12.6913
  70   2.0000      -0.458997       -12.4899
  71   2.0000      -0.453385       -12.3372
  72   2.0000      -0.356796        -9.7089
  73   2.0000      -0.349382        -9.5072
  74   2.0000      -0.329748        -8.9729
  75   2.0000      -0.321278        -8.7424
  76   2.0000      -0.317961        -8.6522
  77   0.0000       0.069990         1.9045
  78   0.0000       0.102958         2.8016
  79   0.0000       0.118367         3.2209
  80   0.0000       0.131051         3.5661
  81   0.0000       0.133948         3.6449

MULLIKEN ATOMIC CHARGES
-----------------------
   0 C :   -0.269052
   1 C :    0.029318
   2 O :   -0.369256
   3 C :    0.473320
   4 O :   -0.385887
   5 C :   -0.235872
   6 C :    0.148212
   7 C :   -0.292809
   8 N :   -0.124843
   9 C :    0.196408
  10 S :   -0.437087
  11 N :   -0.202794
  12 C :    0.058491
  13 C :    0.044636
  14 C :   -0.170065
  15 C :   -0.134310
  16 C :   -0.277662
  17 C :    0.321375
  18 O :   -0.359416
  19 C :   -0.301675
  20 H :    0.097803
  21 H :    0.105705
  22 H :    0.088544
  23 H :    0.095291
  24 H :    0.114225
  25 H :    0.120383
  26 H :    0.130198
  27 H :    0.114107
  28 H :    0.197713
  29 H :    0.194687
  30 H :    0.158738
  31 H :    0.161994
  32 H :    0.162282
  33 H :    0.131439
  34 H :    0.241210
  35 H :    0.174650
Sum of atomic charges:   -0.0000000

LOEWDIN ATOMIC CHARGES
----------------------
   0 C :    0.110549
   1 C :   -0.017742
   2 O :    0.285975
   3 C :   -0.419672
   4 O :    0.136565
   5 C :   -0.094720
   6 C :   -0.077761
   7 C :    0.127438
   8 N :    0.404218
   9 C :   -0.458127
  10 S :   -0.034632
  11 N :    0.396994
  12 C :   -0.045276
  13 C :   -0.041875
  14 C :    0.022069
  15 C :    0.043192
  16 C :   -0.001539
  17 C :   -0.195152
  18 O :    0.393803
  19 C :    0.026829
  20 H :   -0.023019
  21 H :   -0.024153
  22 H :   -0.032728
  23 H :   -0.035154
  24 H :   -0.026025
  25 H :   -0.013607
  26 H :   -0.006643
  27 H :   -0.017312
  28 H :   -0.058142
  29 H :   -0.063883
  30 H :   -0.003586
  31 H :   -0.023435
  32 H :   -0.019602
  33 H :   -0.035235
  34 H :   -0.153482
  35 H :   -0.025131

  Mayer bond orders larger than 0.100000
B(  0-C ,  1-C ) :   0.9786 B(  0-C , 20-H ) :   0.9761 B(  0-C , 21-H ) :   0.9786
B(  0-C , 22-H ) :   0.9779 B(  1-C ,  2-O ) :   0.8936 B(  1-C , 23-H ) :   0.9609
B(  1-C , 24-H ) :   0.9808 B(  2-O ,  3-C ) :   1.1020 B(  3-C ,  4-O ) :   2.0582
B(  3-C ,  5-C ) :   0.9926 B(  5-C ,  6-C ) :   1.6633 B(  5-C , 12-C ) :   0.9595
B(  6-C ,  7-C ) :   0.9538 B(  6-C ,  8-N ) :   1.1343 B(  7-C , 25-H ) :   0.9641
B(  7-C , 26-H ) :   0.9700 B(  7-C , 27-H ) :   0.9855 B(  8-N ,  9-C ) :   1.1841
B(  8-N , 28-H ) :   0.9501 B(  9-C , 10-S ) :   1.6148 B(  9-C , 11-N ) :   1.2971
B( 11-N , 12-C ) :   0.9932 B( 11-N , 29-H ) :   0.9517 B( 12-C , 13-C ) :   0.9455
B( 12-C , 30-H ) :   0.9986 B( 13-C , 14-C ) :   1.3843 B( 13-C , 19-C ) :   1.3474
B( 14-C , 15-C ) :   1.3956 B( 14-C , 31-H ) :   0.9611 B( 15-C , 16-C ) :   1.3644
B( 15-C , 32-H ) :   0.9704 B( 16-C , 17-C ) :   1.3309 B( 16-C , 33-H ) :   0.9845
B( 17-C , 18-O ) :   1.1109 B( 17-C , 19-C ) :   1.3669 B( 18-O , 34-H ) :   0.9797
B( 19-C , 35-H ) :   0.9591

MP2 TOTAL ENERGY:    -1274.323724792 Eh
FINAL SINGLE POINT ENERGY     -1274.323724791869

DIPOLE MOMENT
-------------
                                X             Y             Z
Electronic contribution:     11.66101       7.66938       7.31089
Nuclear contribution   :    -12.96337      -8.83589      -7.73497
                        -----------------------------------------
Total Dipole Moment    :     -1.30236      -1.16651      -0.42408
                        -----------------------------------------
Magnitude (a.u.)       :      1.79909
Magnitude (Debye)      :      4.57293

Rotational constants in cm-1:     0.011265     0.009395     0.006796
Rotational constants in MHz :   337.701789   281.664183   203.743521

                             ****ORCA TERMINATED NORMALLY****
TOTAL RUN TIME: 0 days 1 hours 55 minutes 6 seconds 129 msec
