                         Program Version 4.2.0 -  RELEASE  -
|  1> ! ri-mp2 cc-pvtz cc-pvtz/c TightSCF  NoKeepInts
|  2>
|  3> %scf
|  4>   MaxCore 4096
|  5> end
|  6> *xyz  0  1
|  7>     C       15.1893027   14.1222658   16.6372254
|  8>     C       15.5582065   14.9915804   15.4121634
|  9>     O       16.4571850   16.0686478   15.7591531
| 10>     C       17.5292597   15.8853761   16.5854571
| 11>     O       18.1221545   14.8218910   16.6624585
| 12>     C       17.8196397   17.0384308   17.5025635
| 13>     C       17.3663817   18.3083661   17.3337210
| 14>     C       16.5156327   18.8547130   16.2055008
| 15>     N       17.7409128   19.3050256   18.2411049
| 16>     C       18.6553455   19.1466100   19.2486539
| 17>     S       19.1252317   20.4109768   20.2058552
| 18>     N       19.1600259   17.8832512   19.4231123
| 19>     C       18.6870124   16.6798082   18.7139169
| 20>     C       17.9291479   15.7586869   19.6666395
| 21>     C       18.3121054   14.4125476   19.8122852
| 22>     C       17.6087631   13.5568752   20.6765218
| 23>     C       16.5114384   14.0503642   21.4023996
| 24>     C       16.1242165   15.3894104   21.2574426
| 25>     O       15.0601277   15.8669743   21.9509073
| 26>     C       16.8259665   16.2385515   20.3961238
| 27>     H       16.0230524   13.4817517   16.9494979
| 28>     H       14.3469250   13.4641102   16.3929485
| 29>     H       14.8939618   14.7493136   17.4879342
| 30>     H       16.0292264   14.3509552   14.6547587
| 31>     H       14.6454447   15.4141290   14.9731015
| 32>     H       15.4935743   18.4605445   16.2657208
| 33>     H       16.9315929   18.5699390   15.2309537
| 34>     H       16.4483986   19.9493150   16.2175151
| 35>     H       17.3818069   20.2397446   18.1303477
| 36>     H       19.8087340   17.7859108   20.1935778
| 37>     H       19.5724354   16.1421236   18.3447972
| 38>     H       19.1483586   14.0234478   19.2364168
| 39>     H       17.9116334   12.5159984   20.7749327
| 40>     H       15.9640967   13.3923623   22.0690150
| 41>     H       14.7392179   15.1502305   22.5184806
| 42>     H       16.5104846   17.2717710   20.3007965
| 43> *
| 44>
| 45>                          ****END OF INPUT****

CARTESIAN COORDINATES (ANGSTROEM)
---------------------------------
  C     15.189303   14.122266   16.637225
  C     15.558206   14.991580   15.412163
  O     16.457185   16.068648   15.759153
  C     17.529260   15.885376   16.585457
  O     18.122155   14.821891   16.662458
  C     17.819640   17.038431   17.502563
  C     17.366382   18.308366   17.333721
  C     16.515633   18.854713   16.205501
  N     17.740913   19.305026   18.241105
  C     18.655345   19.146610   19.248654
  S     19.125232   20.410977   20.205855
  N     19.160026   17.883251   19.423112
  C     18.687012   16.679808   18.713917
  C     17.929148   15.758687   19.666639
  C     18.312105   14.412548   19.812285
  C     17.608763   13.556875   20.676522
  C     16.511438   14.050364   21.402400
  C     16.124216   15.389410   21.257443
  O     15.060128   15.866974   21.950907
  C     16.825966   16.238551   20.396124
  H     16.023052   13.481752   16.949498
  H     14.346925   13.464110   16.392948
  H     14.893962   14.749314   17.487934
  H     16.029226   14.350955   14.654759
  H     14.645445   15.414129   14.973102
  H     15.493574   18.460545   16.265721
  H     16.931593   18.569939   15.230954
  H     16.448399   19.949315   16.217515
  H     17.381807   20.239745   18.130348
  H     19.808734   17.785911   20.193578
  H     19.572435   16.142124   18.344797
  H     19.148359   14.023448   19.236417
  H     17.911633   12.515998   20.774933
  H     15.964097   13.392362   22.069015
  H     14.739218   15.150230   22.518481
  H     16.510485   17.271771   20.300796

 Total Charge           Charge          ....    0
 Multiplicity           Mult            ....    1
 Number of Electrons    NEL             ....  154
 Basis Dimension        Dim             ....  828

ORBITAL ENERGIES
----------------

  NO   OCC          E(Eh)            E(eV)
   0   2.0000     -91.888210     -2500.4053
   1   2.0000     -20.597056      -560.4744
   2   2.0000     -20.593121      -560.3673
   3   2.0000     -20.546283      -559.0928
   4   2.0000     -15.628366      -425.2694
   5   2.0000     -15.607086      -424.6904
   6   2.0000     -11.396142      -310.1048
   7   2.0000     -11.383204      -309.7527
   8   2.0000     -11.335999      -308.4682
   9   2.0000     -11.309050      -307.7349
  10   2.0000     -11.305920      -307.6497
  11   2.0000     -11.303612      -307.5869
  12   2.0000     -11.260109      -306.4031
  13   2.0000     -11.258579      -306.3615
  14   2.0000     -11.254647      -306.2545
  15   2.0000     -11.249141      -306.1047
  16   2.0000     -11.238816      -305.8237
  17   2.0000     -11.234872      -305.7164
  18   2.0000     -11.231776      -305.6322
  19   2.0000     -11.225316      -305.4564
  20   2.0000      -8.893275      -241.9983
  21   2.0000      -6.574852      -178.9108
  22   2.0000      -6.572845      -178.8562
  23   2.0000      -6.572260      -178.8403
  24   2.0000      -1.449752       -39.4498
  25   2.0000      -1.412889       -38.4467
  26   2.0000      -1.355816       -36.8936
  27   2.0000      -1.339350       -36.4456
  28   2.0000      -1.237160       -33.6648
  29   2.0000      -1.153479       -31.3878
  30   2.0000      -1.119728       -30.4693
  31   2.0000      -1.042203       -28.3598
  32   2.0000      -1.032844       -28.1051
  33   2.0000      -1.010827       -27.5060
  34   2.0000      -0.997941       -27.1554
  35   2.0000      -0.983403       -26.7598
  36   2.0000      -0.922089       -25.0913
  37   2.0000      -0.896513       -24.3954
  38   2.0000      -0.847976       -23.0746
  39   2.0000      -0.836190       -22.7539
  40   2.0000      -0.829296       -22.5663
  41   2.0000      -0.816318       -22.2131
  42   2.0000      -0.746377       -20.3100
  43   2.0000      -0.733394       -19.9567
  44   2.0000      -0.725680       -19.7467
  45   2.0000      -0.691376       -18.8133
  46   2.0000      -0.685347       -18.6492
  47   2.0000      -0.677543       -18.4369
  48   2.0000      -0.671641       -18.2763
  49   2.0000      -0.657863       -17.9014
  50   2.0000      -0.652693       -17.7607
  51   2.0000      -0.644618       -17.5410
  52   2.0000      -0.632568       -17.2131
  53   2.0000      -0.617912       -16.8142
  54   2.0000      -0.601428       -16.3657
  55   2.0000      -0.600570       -16.3423
  56   2.0000      -0.596587       -16.2340
  57   2.0000      -0.578322       -15.7370
  58   2.0000      -0.574493       -15.6328
  59   2.0000      -0.564038       -15.3483
  60   2.0000      -0.555523       -15.1166
  61   2.0000      -0.544591       -14.8191
  62   2.0000      -0.536911       -14.6101
  63   2.0000      -0.526425       -14.3247
  64   2.0000      -0.517643       -14.0858
  65   2.0000      -0.509737       -13.8707
  66   2.0000      -0.500454       -13.6180
  67   2.0000      -0.495745       -13.4899
  68   2.0000      -0.479680       -13.0528
  69   2.0000      -0.463522       -12.6131
  70   2.0000      -0.457927       -12.4608
  71   2.0000      -0.450089       -12.2475
  72   2.0000      -0.353932        -9.6310
  73   2.0000      -0.345294        -9.3959
  74   2.0000      -0.327397        -8.9089
  75   2.0000      -0.316405        -8.6098
  76   2.0000      -0.314717        -8.5639
  77   0.0000       0.075107         2.0438
  78   0.0000       0.110675         3.0116
  79   0.0000       0.121117         3.2958
  80   0.0000       0.134503         3.6600
  81   0.0000       0.141683         3.8554

MULLIKEN ATOMIC CHARGES
-----------------------
   0 C :   -0.317834
   1 C :    0.048038
   2 O :   -0.361915
   3 C :    0.453702
   4 O :   -0.427232
   5 C :   -0.180397
   6 C :    0.144658
   7 C :   -0.282162
   8 N :   -0.122156
   9 C :    0.202886
  10 S :   -0.439538
  11 N :   -0.200030
  12 C :    0.045599
  13 C :    0.053768
  14 C :   -0.165764
  15 C :   -0.133730
  16 C :   -0.279526
  17 C :    0.313019
  18 O :   -0.359265
  19 C :   -0.276900
  20 H :    0.129418
  21 H :    0.099958
  22 H :    0.100019
  23 H :    0.100996
  24 H :    0.104012
  25 H :    0.124538
  26 H :    0.128093
  27 H :    0.101974
  28 H :    0.196820
  29 H :    0.194212
  30 H :    0.153963
  31 H :    0.155589
  32 H :    0.160093
  33 H :    0.128933
  34 H :    0.240309
  35 H :    0.165853
Sum of atomic charges:   -0.0000000

LOEWDIN ATOMIC CHARGES
----------------------
   0 C :    0.105729
   1 C :   -0.012848
   2 O :    0.296002
   3 C :   -0.415170
   4 O :    0.109449
   5 C :   -0.091882
   6 C :   -0.066547
   7 C :    0.125282
   8 N :    0.404757
   9 C :   -0.458462
  10 S :   -0.036157
  11 N :    0.397832
  12 C :   -0.046276
  13 C :   -0.039510
  14 C :    0.022294
  15 C :    0.040688
  16 C :   -0.002324
  17 C :   -0.193241
  18 O :    0.393178
  19 C :    0.028171
  20 H :   -0.024151
  21 H :   -0.026512
  22 H :   -0.027601
  23 H :   -0.028573
  24 H :   -0.025492
  25 H :   -0.010155
  26 H :   -0.007635
  27 H :   -0.021091
  28 H :   -0.059095
  29 H :   -0.063721
  30 H :   -0.005155
  31 H :   -0.025064
  32 H :   -0.021040
  33 H :   -0.036186
  34 H :   -0.154665
  35 H :   -0.024831

  Mayer bond orders larger than 0.100000
B(  0-C ,  1-C ) :   0.9586 B(  0-C , 20-H ) :   0.9714 B(  0-C , 21-H ) :   0.9764
B(  0-C , 22-H ) :   0.9726 B(  1-C ,  2-O ) :   0.8996 B(  1-C , 23-H ) :   0.9837
B(  1-C , 24-H ) :   0.9836 B(  2-O ,  3-C ) :   1.1339 B(  3-C ,  4-O ) :   1.9897
B(  3-C ,  5-C ) :   1.0461 B(  5-C ,  6-C ) :   1.6509 B(  5-C , 12-C ) :   0.9637
B(  6-C ,  7-C ) :   0.9545 B(  6-C ,  8-N ) :   1.1491 B(  7-C , 25-H ) :   0.9641
B(  7-C , 26-H ) :   0.9657 B(  7-C , 27-H ) :   0.9909 B(  8-N ,  9-C ) :   1.1799
B(  8-N , 28-H ) :   0.9488 B(  9-C , 10-S ) :   1.6103 B(  9-C , 11-N ) :   1.3039
B( 11-N , 12-C ) :   0.9919 B( 11-N , 29-H ) :   0.9517 B( 12-C , 13-C ) :   0.9455
B( 12-C , 30-H ) :   0.9999 B( 13-C , 14-C ) :   1.3768 B( 13-C , 19-C ) :   1.3677
B( 14-C , 15-C ) :   1.3937 B( 14-C , 31-H ) :   0.9639 B( 15-C , 16-C ) :   1.3623
B( 15-C , 32-H ) :   0.9710 B( 16-C , 17-C ) :   1.3319 B( 16-C , 33-H ) :   0.9856
B( 17-C , 18-O ) :   1.1085 B( 17-C , 19-C ) :   1.3759 B( 18-O , 34-H ) :   0.9804
B( 19-C , 35-H ) :   0.9584

MP2 TOTAL ENERGY:    -1274.342314260 Eh
FINAL SINGLE POINT ENERGY     -1274.342314260387

DIPOLE MOMENT
-------------
                                X             Y             Z
Electronic contribution:     10.08948      10.03030       8.15755
Nuclear contribution   :    -11.61874     -11.29491      -9.11711
                        -----------------------------------------
Total Dipole Moment    :     -1.52927      -1.26461      -0.95956
                        -----------------------------------------
Magnitude (a.u.)       :      2.20424
Magnitude (Debye)      :      5.60272

Rotational constants in cm-1:     0.011292     0.009249     0.006270
Rotational constants in MHz :   338.521171   277.270541   187.969477

                             ****ORCA TERMINATED NORMALLY****
TOTAL RUN TIME: 0 days 1 hours 37 minutes 34 seconds 511 msec
