                         Program Version 4.2.0 -  RELEASE  -
|  1> ! ri-mp2 cc-pvtz cc-pvtz/c TightSCF  NoKeepInts
|  2>
|  3> %scf
|  4>   MaxCore 4096
|  5> end
|  6> *xyz  0  1
|  7>     C       14.8783149   15.8835234   17.2503825
|  8>     C       15.7839491   14.8358519   16.5727419
|  9>     O       16.8413369   15.4267834   15.7832992
| 10>     C       18.0241990   15.8055428   16.3597498
| 11>     O       18.9250221   14.9891098   16.4298073
| 12>     C       17.9294908   16.9213936   17.3504772
| 13>     C       17.3191123   18.0976538   17.0682568
| 14>     C       16.6702088   18.5112689   15.7637746
| 15>     N       17.3328138   19.1303783   18.0087878
| 16>     C       18.0577121   19.1163358   19.1718518
| 17>     S       18.1005116   20.4220032   20.1855656
| 18>     N       18.7471264   17.9626955   19.4536423
| 19>     C       18.6501331   16.7053624   18.6855938
| 20>     C       17.9764795   15.6065458   19.5068761
| 21>     C       18.4818331   14.2933431   19.4803669
| 22>     C       17.8597017   13.2685742   20.2124604
| 23>     C       16.7203823   13.5570013   20.9820962
| 24>     C       16.2140352   14.8628875   21.0151112
| 25>     O       15.1085897   15.1440198   21.7495237
| 26>     C       16.8361222   15.8808678   20.2856468
| 27>     H       15.4001790   16.4460593   18.0282549
| 28>     H       14.0296893   15.3825065   17.7320671
| 29>     H       14.4730012   16.5826869   16.5105577
| 30>     H       16.2098292   14.1627131   17.3301001
| 31>     H       15.1590982   14.2250977   15.9084241
| 32>     H       15.5793676   18.5528444   15.8606751
| 33>     H       16.9071811   17.8267102   14.9410947
| 34>     H       17.0165393   19.5042590   15.4505933
| 35>     H       16.8435214   19.9897600   17.8139556
| 36>     H       19.2581320   17.9740330   20.3272879
| 37>     H       19.6755871   16.3768830   18.4607665
| 38>     H       19.3559144   14.0624424   18.8750835
| 39>     H       18.2600785   12.2567115   20.1771321
| 40>     H       16.2354310   12.7679100   21.5473242
| 41>     H       14.8633469   14.3370515   22.2270041
| 42>     H       16.4230294   16.8831889   20.3276673
| 43> *
| 44>
| 45>                          ****END OF INPUT****

CARTESIAN COORDINATES (ANGSTROEM)
---------------------------------
  C     14.878315   15.883523   17.250383
  C     15.783949   14.835852   16.572742
  O     16.841337   15.426783   15.783299
  C     18.024199   15.805543   16.359750
  O     18.925022   14.989110   16.429807
  C     17.929491   16.921394   17.350477
  C     17.319112   18.097654   17.068257
  C     16.670209   18.511269   15.763775
  N     17.332814   19.130378   18.008788
  C     18.057712   19.116336   19.171852
  S     18.100512   20.422003   20.185566
  N     18.747126   17.962695   19.453642
  C     18.650133   16.705362   18.685594
  C     17.976479   15.606546   19.506876
  C     18.481833   14.293343   19.480367
  C     17.859702   13.268574   20.212460
  C     16.720382   13.557001   20.982096
  C     16.214035   14.862887   21.015111
  O     15.108590   15.144020   21.749524
  C     16.836122   15.880868   20.285647
  H     15.400179   16.446059   18.028255
  H     14.029689   15.382506   17.732067
  H     14.473001   16.582687   16.510558
  H     16.209829   14.162713   17.330100
  H     15.159098   14.225098   15.908424
  H     15.579368   18.552844   15.860675
  H     16.907181   17.826710   14.941095
  H     17.016539   19.504259   15.450593
  H     16.843521   19.989760   17.813956
  H     19.258132   17.974033   20.327288
  H     19.675587   16.376883   18.460766
  H     19.355914   14.062442   18.875083
  H     18.260078   12.256711   20.177132
  H     16.235431   12.767910   21.547324
  H     14.863347   14.337051   22.227004
  H     16.423029   16.883189   20.327667

 Total Charge           Charge          ....    0
 Multiplicity           Mult            ....    1
 Number of Electrons    NEL             ....  154
 Basis Dimension        Dim             ....  828

ORBITAL ENERGIES
----------------

  NO   OCC          E(Eh)            E(eV)
   0   2.0000     -91.891116     -2500.4844
   1   2.0000     -20.598859      -560.5234
   2   2.0000     -20.580614      -560.0270
   3   2.0000     -20.556241      -559.3638
   4   2.0000     -15.629538      -425.3014
   5   2.0000     -15.611227      -424.8031
   6   2.0000     -11.395195      -310.0790
   7   2.0000     -11.387202      -309.8615
   8   2.0000     -11.333450      -308.3989
   9   2.0000     -11.315555      -307.9119
  10   2.0000     -11.313187      -307.8475
  11   2.0000     -11.303580      -307.5861
  12   2.0000     -11.263164      -306.4863
  13   2.0000     -11.262810      -306.4766
  14   2.0000     -11.262445      -306.4667
  15   2.0000     -11.255481      -306.2772
  16   2.0000     -11.245287      -305.9998
  17   2.0000     -11.241438      -305.8951
  18   2.0000     -11.237514      -305.7883
  19   2.0000     -11.229161      -305.5610
  20   2.0000      -8.896192      -242.0777
  21   2.0000      -6.577772      -178.9903
  22   2.0000      -6.575757      -178.9355
  23   2.0000      -6.575172      -178.9195
  24   2.0000      -1.447198       -39.3803
  25   2.0000      -1.418673       -38.6041
  26   2.0000      -1.354052       -36.8456
  27   2.0000      -1.341763       -36.5112
  28   2.0000      -1.240511       -33.7560
  29   2.0000      -1.159737       -31.5581
  30   2.0000      -1.124079       -30.5877
  31   2.0000      -1.047066       -28.4921
  32   2.0000      -1.033937       -28.1348
  33   2.0000      -1.017637       -27.6913
  34   2.0000      -1.003482       -27.3061
  35   2.0000      -0.989653       -26.9298
  36   2.0000      -0.927044       -25.2261
  37   2.0000      -0.889641       -24.2083
  38   2.0000      -0.851532       -23.1714
  39   2.0000      -0.841481       -22.8979
  40   2.0000      -0.835916       -22.7464
  41   2.0000      -0.827337       -22.5130
  42   2.0000      -0.753113       -20.4932
  43   2.0000      -0.735368       -20.0104
  44   2.0000      -0.730251       -19.8711
  45   2.0000      -0.697422       -18.9778
  46   2.0000      -0.687871       -18.7179
  47   2.0000      -0.677807       -18.4441
  48   2.0000      -0.674417       -18.3518
  49   2.0000      -0.661763       -18.0075
  50   2.0000      -0.654401       -17.8072
  51   2.0000      -0.645883       -17.5754
  52   2.0000      -0.639960       -17.4142
  53   2.0000      -0.611258       -16.6332
  54   2.0000      -0.606844       -16.5131
  55   2.0000      -0.602883       -16.4053
  56   2.0000      -0.595540       -16.2055
  57   2.0000      -0.592254       -16.1161
  58   2.0000      -0.576825       -15.6962
  59   2.0000      -0.573956       -15.6181
  60   2.0000      -0.564473       -15.3601
  61   2.0000      -0.554740       -15.0952
  62   2.0000      -0.542635       -14.7658
  63   2.0000      -0.526295       -14.3212
  64   2.0000      -0.520161       -14.1543
  65   2.0000      -0.512965       -13.9585
  66   2.0000      -0.502208       -13.6658
  67   2.0000      -0.492127       -13.3915
  68   2.0000      -0.485521       -13.2117
  69   2.0000      -0.466514       -12.6945
  70   2.0000      -0.456289       -12.4163
  71   2.0000      -0.451281       -12.2800
  72   2.0000      -0.356523        -9.7015
  73   2.0000      -0.350752        -9.5444
  74   2.0000      -0.330455        -8.9921
  75   2.0000      -0.323299        -8.7974
  76   2.0000      -0.319339        -8.6896
  77   0.0000       0.074067         2.0155
  78   0.0000       0.103208         2.8084
  79   0.0000       0.118817         3.2332
  80   0.0000       0.128593         3.4992
  81   0.0000       0.130940         3.5631

MULLIKEN ATOMIC CHARGES
-----------------------
   0 C :   -0.338771
   1 C :    0.046376
   2 O :   -0.374403
   3 C :    0.442260
   4 O :   -0.380290
   5 C :   -0.204468
   6 C :    0.142178
   7 C :   -0.310419
   8 N :   -0.130525
   9 C :    0.195150
  10 S :   -0.436676
  11 N :   -0.215194
  12 C :    0.073875
  13 C :    0.033460
  14 C :   -0.204439
  15 C :   -0.134132
  16 C :   -0.279224
  17 C :    0.323073
  18 O :   -0.357547
  19 C :   -0.287617
  20 H :    0.112424
  21 H :    0.125319
  22 H :    0.102867
  23 H :    0.102622
  24 H :    0.121143
  25 H :    0.120906
  26 H :    0.132198
  27 H :    0.129548
  28 H :    0.198306
  29 H :    0.197830
  30 H :    0.163711
  31 H :    0.171118
  32 H :    0.164298
  33 H :    0.132536
  34 H :    0.241191
  35 H :    0.181317
Sum of atomic charges:   -0.0000000

LOEWDIN ATOMIC CHARGES
----------------------
   0 C :    0.104534
   1 C :   -0.010593
   2 O :    0.273879
   3 C :   -0.417702
   4 O :    0.136856
   5 C :   -0.089134
   6 C :   -0.081865
   7 C :    0.127341
   8 N :    0.404667
   9 C :   -0.457921
  10 S :   -0.034904
  11 N :    0.397205
  12 C :   -0.043887
  13 C :   -0.043011
  14 C :    0.020377
  15 C :    0.041312
  16 C :   -0.001836
  17 C :   -0.193860
  18 O :    0.395005
  19 C :    0.028798
  20 H :   -0.037829
  21 H :   -0.021059
  22 H :   -0.032820
  23 H :   -0.026531
  24 H :   -0.020237
  25 H :   -0.016609
  26 H :   -0.008962
  27 H :   -0.013182
  28 H :   -0.056334
  29 H :   -0.063696
  30 H :   -0.002973
  31 H :   -0.022754
  32 H :   -0.019161
  33 H :   -0.034866
  34 H :   -0.153322
  35 H :   -0.024930

  Mayer bond orders larger than 0.100000
B(  0-C ,  1-C ) :   0.9615 B(  0-C , 20-H ) :   0.9696 B(  0-C , 21-H ) :   0.9776
B(  0-C , 22-H ) :   0.9775 B(  1-C ,  2-O ) :   0.8930 B(  1-C , 23-H ) :   0.9720
B(  1-C , 24-H ) :   0.9835 B(  2-O ,  3-C ) :   1.1090 B(  3-C ,  4-O ) :   2.0705
B(  3-C ,  5-C ) :   0.9690 B(  5-C ,  6-C ) :   1.6656 B(  5-C , 12-C ) :   0.9561
B(  6-C ,  7-C ) :   0.9562 B(  6-C ,  8-N ) :   1.1269 B(  7-C , 25-H ) :   0.9633
B(  7-C , 26-H ) :   0.9727 B(  7-C , 27-H ) :   0.9750 B(  8-N ,  9-C ) :   1.1880
B(  8-N , 28-H ) :   0.9514 B(  9-C , 10-S ) :   1.6156 B(  9-C , 11-N ) :   1.2895
B( 11-N , 12-C ) :   0.9879 B( 11-N , 29-H ) :   0.9505 B( 12-C , 13-C ) :   0.9451
B( 12-C , 30-H ) :   0.9977 B( 13-C , 14-C ) :   1.3854 B( 13-C , 19-C ) :   1.3405
B( 14-C , 15-C ) :   1.4001 B( 14-C , 31-H ) :   0.9595 B( 15-C , 16-C ) :   1.3597
B( 15-C , 32-H ) :   0.9701 B( 16-C , 17-C ) :   1.3318 B( 16-C , 33-H ) :   0.9844
B( 17-C , 18-O ) :   1.1109 B( 17-C , 19-C ) :   1.3669 B( 18-O , 34-H ) :   0.9796
B( 19-C , 35-H ) :   0.9532

MP2 TOTAL ENERGY:    -1274.321683210 Eh
FINAL SINGLE POINT ENERGY     -1274.321683210042

DIPOLE MOMENT
-------------
                                X             Y             Z
Electronic contribution:      9.65958       6.30096       5.86047
Nuclear contribution   :    -10.92693      -7.50583      -6.32487
                        -----------------------------------------
Total Dipole Moment    :     -1.26735      -1.20487      -0.46439
                        -----------------------------------------
Magnitude (a.u.)       :      1.80929
Magnitude (Debye)      :      4.59886

Rotational constants in cm-1:     0.012072     0.009583     0.007009
Rotational constants in MHz :   361.909565   287.293895   210.132302

                             ****ORCA TERMINATED NORMALLY****
TOTAL RUN TIME: 0 days 1 hours 58 minutes 15 seconds 81 msec
