                         Program Version 5.0.0 -  RELEASE  -
|  1> ! ri-mp2 cc-pvtz cc-pvtz/c TightSCF NoKeepInts
|  2>
|  3> %scf
|  4>   MaxCore 4096
|  5> end
|  6> *xyz  0  1
|  7>     C       14.7778088   14.4469010   14.7775039
|  8>     C       15.3837739   14.5578080   16.1865636
|  9>     O       16.3531954   15.6209747   16.1515925
| 10>     C       17.5099007   15.5067121   16.8675549
| 11>     O       17.9923992   14.4219597   17.1487333
| 12>     C       17.8806138   16.7564826   17.6126003
| 13>     C       17.5101665   18.0119183   17.2485442
| 14>     C       16.6918987   18.4281741   16.0432898
| 15>     N       17.9620078   19.1107425   17.9867321
| 16>     C       18.8935258   19.0513642   18.9895101
| 17>     S       19.4692103   20.4155987   19.7264165
| 18>     N       19.3246432   17.7998825   19.3498813
| 19>     C       18.7480386   16.5349051   18.8568186
| 20>     C       17.9531935   15.8443557   19.9621804
| 21>     C       18.2467786   14.5178833   20.3287206
| 22>     C       17.5160219   13.8759898   21.3425739
| 23>     C       16.4813219   14.5656719   21.9970574
| 24>     C       16.1829124   15.8855693   21.6325314
| 25>     O       15.1799744   16.5520754   22.2580133
| 26>     C       16.9116199   16.5215851   20.6226114
| 27>     H       14.2957847   15.3886461   14.4873868
| 28>     H       14.0247177   13.6502042   14.7444495
| 29>     H       15.5564236   14.2134733   14.0404524
| 30>     H       14.6059151   14.7758689   16.9298112
| 31>     H       15.8457738   13.5944808   16.4423082
| 32>     H       17.0479696   17.9240485   15.1361207
| 33>     H       16.7422195   19.5066698   15.8504503
| 34>     H       15.6360423   18.1646198   16.1827663
| 35>     H       17.6578223   20.0380951   17.7367060
| 36>     H       19.9884036   17.7814712   20.1134423
| 37>     H       19.5825446   15.8782738   18.5710497
| 38>     H       19.0351483   13.9763551   19.8115063
| 39>     H       17.7496793   12.8476341   21.6122719
| 40>     H       15.9133929   14.0731175   22.7792207
| 41>     H       14.8297703   15.9677954   22.9470627
| 42>     H       16.6663872   17.5446921   20.3595657
| 43> *
| 44>
| 45>                          ****END OF INPUT****

CARTESIAN COORDINATES (ANGSTROEM)
---------------------------------
  C     14.777809   14.446901   14.777504
  C     15.383774   14.557808   16.186564
  O     16.353195   15.620975   16.151592
  C     17.509901   15.506712   16.867555
  O     17.992399   14.421960   17.148733
  C     17.880614   16.756483   17.612600
  C     17.510167   18.011918   17.248544
  C     16.691899   18.428174   16.043290
  N     17.962008   19.110743   17.986732
  C     18.893526   19.051364   18.989510
  S     19.469210   20.415599   19.726416
  N     19.324643   17.799882   19.349881
  C     18.748039   16.534905   18.856819
  C     17.953194   15.844356   19.962180
  C     18.246779   14.517883   20.328721
  C     17.516022   13.875990   21.342574
  C     16.481322   14.565672   21.997057
  C     16.182912   15.885569   21.632531
  O     15.179974   16.552075   22.258013
  C     16.911620   16.521585   20.622611
  H     14.295785   15.388646   14.487387
  H     14.024718   13.650204   14.744449
  H     15.556424   14.213473   14.040452
  H     14.605915   14.775869   16.929811
  H     15.845774   13.594481   16.442308
  H     17.047970   17.924049   15.136121
  H     16.742220   19.506670   15.850450
  H     15.636042   18.164620   16.182766
  H     17.657822   20.038095   17.736706
  H     19.988404   17.781471   20.113442
  H     19.582545   15.878274   18.571050
  H     19.035148   13.976355   19.811506
  H     17.749679   12.847634   21.612272
  H     15.913393   14.073117   22.779221
  H     14.829770   15.967795   22.947063
  H     16.666387   17.544692   20.359566

 Total Charge           Charge          ....    0
 Multiplicity           Mult            ....    1
 Number of Electrons    NEL             ....  154
 Basis Dimension        Dim             ....  828

ORBITAL ENERGIES
----------------

  NO   OCC          E(Eh)            E(eV)
   0   2.0000     -91.888067     -2500.4014
   1   2.0000     -20.597712      -560.4922
   2   2.0000     -20.592417      -560.3481
   3   2.0000     -20.548614      -559.1562
   4   2.0000     -15.628212      -425.2653
   5   2.0000     -15.606875      -424.6846
   6   2.0000     -11.395937      -310.0992
   7   2.0000     -11.383098      -309.7498
   8   2.0000     -11.335198      -308.4464
   9   2.0000     -11.308271      -307.7137
  10   2.0000     -11.306165      -307.6564
  11   2.0000     -11.298453      -307.4465
  12   2.0000     -11.260182      -306.4051
  13   2.0000     -11.259211      -306.3787
  14   2.0000     -11.254134      -306.2406
  15   2.0000     -11.248398      -306.0845
  16   2.0000     -11.238030      -305.8023
  17   2.0000     -11.234116      -305.6958
  18   2.0000     -11.231689      -305.6298
  19   2.0000     -11.231169      -305.6156
  20   2.0000      -8.893133      -241.9945
  21   2.0000      -6.574711      -178.9070
  22   2.0000      -6.572703      -178.8524
  23   2.0000      -6.572119      -178.8364
  24   2.0000      -1.453252       -39.5450
  25   2.0000      -1.412154       -38.4267
  26   2.0000      -1.357429       -36.9375
  27   2.0000      -1.339188       -36.4412
  28   2.0000      -1.236957       -33.6593
  29   2.0000      -1.152732       -31.3674
  30   2.0000      -1.119767       -30.4704
  31   2.0000      -1.043997       -28.4086
  32   2.0000      -1.036481       -28.2041
  33   2.0000      -1.010138       -27.4873
  34   2.0000      -0.997713       -27.1491
  35   2.0000      -0.983226       -26.7549
  36   2.0000      -0.921370       -25.0718
  37   2.0000      -0.886651       -24.1270
  38   2.0000      -0.847268       -23.0553
  39   2.0000      -0.835710       -22.7408
  40   2.0000      -0.828570       -22.5465
  41   2.0000      -0.820230       -22.3196
  42   2.0000      -0.760146       -20.6846
  43   2.0000      -0.735858       -20.0237
  44   2.0000      -0.725488       -19.7415
  45   2.0000      -0.690888       -18.8000
  46   2.0000      -0.684869       -18.6362
  47   2.0000      -0.680257       -18.5107
  48   2.0000      -0.673878       -18.3371
  49   2.0000      -0.654190       -17.8014
  50   2.0000      -0.649312       -17.6687
  51   2.0000      -0.642053       -17.4712
  52   2.0000      -0.631578       -17.1861
  53   2.0000      -0.615007       -16.7352
  54   2.0000      -0.601087       -16.3564
  55   2.0000      -0.600586       -16.3428
  56   2.0000      -0.595743       -16.2110
  57   2.0000      -0.579165       -15.7599
  58   2.0000      -0.573858       -15.6155
  59   2.0000      -0.562196       -15.2981
  60   2.0000      -0.561714       -15.2850
  61   2.0000      -0.545696       -14.8491
  62   2.0000      -0.536335       -14.5944
  63   2.0000      -0.528926       -14.3928
  64   2.0000      -0.517873       -14.0920
  65   2.0000      -0.509832       -13.8732
  66   2.0000      -0.499751       -13.5989
  67   2.0000      -0.495467       -13.4823
  68   2.0000      -0.481323       -13.0975
  69   2.0000      -0.463614       -12.6156
  70   2.0000      -0.461058       -12.5460
  71   2.0000      -0.452082       -12.3018
  72   2.0000      -0.353956        -9.6316
  73   2.0000      -0.344573        -9.3763
  74   2.0000      -0.327234        -8.9045
  75   2.0000      -0.315836        -8.5943
  76   2.0000      -0.314418        -8.5557
  77   0.0000       0.074597         2.0299
  78   0.0000       0.111046         3.0217
  79   0.0000       0.120244         3.2720
  80   0.0000       0.135273         3.6810
  81   0.0000       0.138396         3.7659

MULLIKEN ATOMIC CHARGES
-----------------------
   0 C :   -0.263512
   1 C :    0.026244
   2 O :   -0.358157
   3 C :    0.457703
   4 O :   -0.418589
   5 C :   -0.185550
   6 C :    0.142498
   7 C :   -0.285302
   8 N :   -0.123575
   9 C :    0.201844
  10 S :   -0.439717
  11 N :   -0.198189
  12 C :    0.040213
  13 C :    0.054217
  14 C :   -0.161870
  15 C :   -0.133688
  16 C :   -0.279390
  17 C :    0.310984
  18 O :   -0.359057
  19 C :   -0.272587
  20 H :    0.089793
  21 H :    0.091854
  22 H :    0.099358
  23 H :    0.097757
  24 H :    0.119514
  25 H :    0.125951
  26 H :    0.103407
  27 H :    0.126040
  28 H :    0.196962
  29 H :    0.193827
  30 H :    0.154106
  31 H :    0.153884
  32 H :    0.159358
  33 H :    0.128319
  34 H :    0.240180
  35 H :    0.165167
Sum of atomic charges:   -0.0000000

LOEWDIN ATOMIC CHARGES
----------------------
   0 C :    0.105359
   1 C :   -0.012031
   2 O :    0.301850
   3 C :   -0.413574
   4 O :    0.110786
   5 C :   -0.091912
   6 C :   -0.068494
   7 C :    0.125070
   8 N :    0.404569
   9 C :   -0.458519
  10 S :   -0.036318
  11 N :    0.397582
  12 C :   -0.046113
  13 C :   -0.039065
  14 C :    0.021820
  15 C :    0.040955
  16 C :   -0.002374
  17 C :   -0.192911
  18 O :    0.392973
  19 C :    0.028252
  20 H :   -0.030430
  21 H :   -0.025304
  22 H :   -0.024841
  23 H :   -0.031268
  24 H :   -0.026810
  25 H :   -0.008375
  26 H :   -0.020542
  27 H :   -0.010193
  28 H :   -0.059032
  29 H :   -0.063811
  30 H :   -0.004878
  31 H :   -0.025222
  32 H :   -0.021127
  33 H :   -0.036332
  34 H :   -0.154800
  35 H :   -0.024941

  Mayer bond orders larger than 0.100000
B(  0-C ,  1-C ) :   0.9748 B(  0-C , 20-H ) :   0.9797 B(  0-C , 21-H ) :   0.9765
B(  0-C , 22-H ) :   0.9778 B(  1-C ,  2-O ) :   0.8869 B(  1-C , 23-H ) :   0.9758
B(  1-C , 24-H ) :   0.9741 B(  2-O ,  3-C ) :   1.1249 B(  3-C ,  4-O ) :   2.0032
B(  3-C ,  5-C ) :   1.0443 B(  5-C ,  6-C ) :   1.6555 B(  5-C , 12-C ) :   0.9648
B(  6-C ,  7-C ) :   0.9532 B(  6-C ,  8-N ) :   1.1429 B(  7-C , 25-H ) :   0.9677
B(  7-C , 26-H ) :   0.9905 B(  7-C , 27-H ) :   0.9636 B(  8-N ,  9-C ) :   1.1808
B(  8-N , 28-H ) :   0.9492 B(  9-C , 10-S ) :   1.6104 B(  9-C , 11-N ) :   1.3030
B( 11-N , 12-C ) :   0.9910 B( 11-N , 29-H ) :   0.9519 B( 12-C , 13-C ) :   0.9476
B( 12-C , 30-H ) :   0.9991 B( 13-C , 14-C ) :   1.3767 B( 13-C , 19-C ) :   1.3687
B( 14-C , 15-C ) :   1.3946 B( 14-C , 31-H ) :   0.9646 B( 15-C , 16-C ) :   1.3629
B( 15-C , 32-H ) :   0.9713 B( 16-C , 17-C ) :   1.3314 B( 16-C , 33-H ) :   0.9859
B( 17-C , 18-O ) :   1.1082 B( 17-C , 19-C ) :   1.3785 B( 18-O , 34-H ) :   0.9805
B( 19-C , 35-H ) :   0.9584

MP2 TOTAL ENERGY:    -1274.339115354 Eh
FINAL SINGLE POINT ENERGY     -1274.339115353635

DIPOLE MOMENT
-------------
                                X             Y             Z
Electronic contribution:     11.43502       9.42854      11.02134
Nuclear contribution   :    -13.00840     -10.69471     -11.80525
                        -----------------------------------------
Total Dipole Moment    :     -1.57339      -1.26616      -0.78391
                        -----------------------------------------
Magnitude (a.u.)       :      2.16639
Magnitude (Debye)      :      5.50652

Rotational constants in cm-1:     0.010471     0.008959     0.005910
Rotational constants in MHz :   313.911538   268.582499   177.182844

                             ****ORCA TERMINATED NORMALLY****
TOTAL RUN TIME: 0 days 1 hours 51 minutes 45 seconds 598 msec
