                         Program Version 5.0.0 -  RELEASE  -
|  1> ! ri-mp2 cc-pvtz cc-pvtz/c TightSCF NoKeepInts
|  2>
|  3> %scf
|  4>   MaxCore 4096
|  5> end
|  6> *xyz  0  1
|  7>     C       15.5922753   13.2621658   16.4282679
|  8>     C       15.6917813   14.7286043   16.8784197
|  9>     O       16.9228007   15.2562119   16.3499311
| 10>     C       16.9934591   16.6037555   16.1577736
| 11>     O       16.2773674   17.1281906   15.3238962
| 12>     C       17.5857666   17.3436811   17.3289514
| 13>     C       17.4355276   18.6835113   17.4972143
| 14>     C       16.6092906   19.6324010   16.6552279
| 15>     N       18.1341934   19.3429149   18.5137423
| 16>     C       19.1492945   18.7862810   19.2458933
| 17>     S       20.0589727   19.6760477   20.3023296
| 18>     N       19.3814811   17.4492874   19.0451539
| 19>     C       18.4904402   16.5503413   18.2895545
| 20>     C       17.7136284   15.6834649   19.2740700
| 21>     C       17.9905114   14.3070379   19.3785485
| 22>     C       17.2760068   13.5006097   20.2802627
| 23>     C       16.2816330   14.0756276   21.0898164
| 24>     C       16.0110256   15.4476103   20.9967828
| 25>     O       15.0516769   16.0059572   21.7765834
| 26>     C       16.7210431   16.2473467   20.0959723
| 27>     H       14.6543554   12.8149174   16.7788651
| 28>     H       16.4260332   12.6768930   16.8351965
| 29>     H       15.6194192   13.1918683   15.3335593
| 30>     H       14.8336790   15.2774751   16.4661446
| 31>     H       15.6501554   14.8012050   17.9704433
| 32>     H       15.5646883   19.2990753   16.6097237
| 33>     H       16.9876506   19.6628923   15.6253598
| 34>     H       16.6102006   20.6591788   17.0393569
| 35>     H       17.9853460   20.3285643   18.6608540
| 36>     H       20.1200810   17.0597134   19.6167509
| 37>     H       19.1240337   15.8920541   17.6782777
| 38>     H       18.7563898   13.8583501   18.7511763
| 39>     H       17.4949954   12.4363757   20.3509695
| 40>     H       15.7282682   13.4568541   21.7888136
| 41>     H       14.7224775   15.3173750   22.3739702
| 42>     H       16.5010507   17.3081601   20.0461472
| 43> *
| 44>
| 45>                          ****END OF INPUT****

CARTESIAN COORDINATES (ANGSTROEM)
---------------------------------
  C     15.592275   13.262166   16.428268
  C     15.691781   14.728604   16.878420
  O     16.922801   15.256212   16.349931
  C     16.993459   16.603755   16.157774
  O     16.277367   17.128191   15.323896
  C     17.585767   17.343681   17.328951
  C     17.435528   18.683511   17.497214
  C     16.609291   19.632401   16.655228
  N     18.134193   19.342915   18.513742
  C     19.149294   18.786281   19.245893
  S     20.058973   19.676048   20.302330
  N     19.381481   17.449287   19.045154
  C     18.490440   16.550341   18.289555
  C     17.713628   15.683465   19.274070
  C     17.990511   14.307038   19.378549
  C     17.276007   13.500610   20.280263
  C     16.281633   14.075628   21.089816
  C     16.011026   15.447610   20.996783
  O     15.051677   16.005957   21.776583
  C     16.721043   16.247347   20.095972
  H     14.654355   12.814917   16.778865
  H     16.426033   12.676893   16.835196
  H     15.619419   13.191868   15.333559
  H     14.833679   15.277475   16.466145
  H     15.650155   14.801205   17.970443
  H     15.564688   19.299075   16.609724
  H     16.987651   19.662892   15.625360
  H     16.610201   20.659179   17.039357
  H     17.985346   20.328564   18.660854
  H     20.120081   17.059713   19.616751
  H     19.124034   15.892054   17.678278
  H     18.756390   13.858350   18.751176
  H     17.494995   12.436376   20.350970
  H     15.728268   13.456854   21.788814
  H     14.722478   15.317375   22.373970
  H     16.501051   17.308160   20.046147

 Total Charge           Charge          ....    0
 Multiplicity           Mult            ....    1
 Number of Electrons    NEL             ....  154
 Basis Dimension        Dim             ....  828

ORBITAL ENERGIES
----------------

  NO   OCC          E(Eh)            E(eV)
   0   2.0000     -91.891176     -2500.4860
   1   2.0000     -20.601589      -560.5977
   2   2.0000     -20.582020      -560.0652
   3   2.0000     -20.548582      -559.1553
   4   2.0000     -15.631603      -425.3576
   5   2.0000     -15.610058      -424.7713
   6   2.0000     -11.392679      -310.0105
   7   2.0000     -11.385744      -309.8219
   8   2.0000     -11.337946      -308.5212
   9   2.0000     -11.319572      -308.0212
  10   2.0000     -11.312426      -307.8268
  11   2.0000     -11.292539      -307.2856
  12   2.0000     -11.263981      -306.5085
  13   2.0000     -11.260792      -306.4217
  14   2.0000     -11.260189      -306.4053
  15   2.0000     -11.253680      -306.2282
  16   2.0000     -11.248592      -306.0897
  17   2.0000     -11.243140      -305.9414
  18   2.0000     -11.242799      -305.9321
  19   2.0000     -11.225033      -305.4487
  20   2.0000      -8.896202      -242.0780
  21   2.0000      -6.577767      -178.9901
  22   2.0000      -6.575773      -178.9359
  23   2.0000      -6.575176      -178.9196
  24   2.0000      -1.449025       -39.4300
  25   2.0000      -1.421291       -38.6753
  26   2.0000      -1.352318       -36.7984
  27   2.0000      -1.342706       -36.5369
  28   2.0000      -1.241057       -33.7709
  29   2.0000      -1.162266       -31.6269
  30   2.0000      -1.121580       -30.5198
  31   2.0000      -1.046269       -28.4704
  32   2.0000      -1.033760       -28.1300
  33   2.0000      -1.020551       -27.7706
  34   2.0000      -0.998206       -27.1626
  35   2.0000      -0.986091       -26.8329
  36   2.0000      -0.925762       -25.1913
  37   2.0000      -0.877927       -23.8896
  38   2.0000      -0.849485       -23.1157
  39   2.0000      -0.842758       -22.9326
  40   2.0000      -0.838765       -22.8239
  41   2.0000      -0.828838       -22.5538
  42   2.0000      -0.761159       -20.7122
  43   2.0000      -0.736292       -20.0355
  44   2.0000      -0.724579       -19.7168
  45   2.0000      -0.700767       -19.0688
  46   2.0000      -0.691638       -18.8204
  47   2.0000      -0.679107       -18.4794
  48   2.0000      -0.672617       -18.3028
  49   2.0000      -0.656654       -17.8685
  50   2.0000      -0.648611       -17.6496
  51   2.0000      -0.644368       -17.5341
  52   2.0000      -0.630414       -17.1544
  53   2.0000      -0.621871       -16.9220
  54   2.0000      -0.611930       -16.6515
  55   2.0000      -0.603829       -16.4310
  56   2.0000      -0.601204       -16.3596
  57   2.0000      -0.581855       -15.8331
  58   2.0000      -0.572556       -15.5800
  59   2.0000      -0.565769       -15.3954
  60   2.0000      -0.556106       -15.1324
  61   2.0000      -0.541421       -14.7328
  62   2.0000      -0.534614       -14.5476
  63   2.0000      -0.529703       -14.4139
  64   2.0000      -0.517459       -14.0808
  65   2.0000      -0.513903       -13.9840
  66   2.0000      -0.505761       -13.7625
  67   2.0000      -0.498473       -13.5641
  68   2.0000      -0.486957       -13.2508
  69   2.0000      -0.465346       -12.6627
  70   2.0000      -0.455999       -12.4084
  71   2.0000      -0.444953       -12.1078
  72   2.0000      -0.358023        -9.7423
  73   2.0000      -0.354208        -9.6385
  74   2.0000      -0.331001        -9.0070
  75   2.0000      -0.327025        -8.8988
  76   2.0000      -0.318111        -8.6562
  77   0.0000       0.067577         1.8389
  78   0.0000       0.101668         2.7665
  79   0.0000       0.122076         3.3219
  80   0.0000       0.126999         3.4558
  81   0.0000       0.132708         3.6112

MULLIKEN ATOMIC CHARGES
-----------------------
   0 C :   -0.263563
   1 C :    0.018224
   2 O :   -0.384251
   3 C :    0.505046
   4 O :   -0.404159
   5 C :   -0.277032
   6 C :    0.155851
   7 C :   -0.269638
   8 N :   -0.124801
   9 C :    0.209697
  10 S :   -0.435285
  11 N :   -0.197131
  12 C :    0.043406
  13 C :    0.025149
  14 C :   -0.162661
  15 C :   -0.135893
  16 C :   -0.272317
  17 C :    0.303615
  18 O :   -0.356430
  19 C :   -0.245709
  20 H :    0.086548
  21 H :    0.089858
  22 H :    0.105933
  23 H :    0.112446
  24 H :    0.116715
  25 H :    0.129301
  26 H :    0.134939
  27 H :    0.094534
  28 H :    0.198581
  29 H :    0.192248
  30 H :    0.148812
  31 H :    0.151053
  32 H :    0.164055
  33 H :    0.133560
  34 H :    0.241728
  35 H :    0.167571
Sum of atomic charges:   -0.0000000

LOEWDIN ATOMIC CHARGES
----------------------
   0 C :    0.109352
   1 C :   -0.015976
   2 O :    0.287837
   3 C :   -0.420491
   4 O :    0.120663
   5 C :   -0.099131
   6 C :   -0.058048
   7 C :    0.130835
   8 N :    0.406898
   9 C :   -0.457342
  10 S :   -0.031994
  11 N :    0.396332
  12 C :   -0.053322
  13 C :   -0.039711
  14 C :    0.014864
  15 C :    0.042170
  16 C :   -0.001494
  17 C :   -0.191091
  18 O :    0.396710
  19 C :    0.030214
  20 H :   -0.026096
  21 H :   -0.030954
  22 H :   -0.023940
  23 H :   -0.029881
  24 H :   -0.034751
  25 H :   -0.005399
  26 H :   -0.003145
  27 H :   -0.023239
  28 H :   -0.057417
  29 H :   -0.065131
  30 H :   -0.006937
  31 H :   -0.029345
  32 H :   -0.019763
  33 H :   -0.034301
  34 H :   -0.152650
  35 H :   -0.024329

  Mayer bond orders larger than 0.100000
B(  0-C ,  1-C ) :   0.9822 B(  0-C , 20-H ) :   0.9758 B(  0-C , 21-H ) :   0.9794
B(  0-C , 22-H ) :   0.9789 B(  1-C ,  2-O ) :   0.8709 B(  1-C , 23-H ) :   0.9765
B(  1-C , 24-H ) :   0.9629 B(  2-O ,  3-C ) :   1.1075 B(  3-C ,  4-O ) :   2.0231
B(  3-C ,  5-C ) :   1.0566 B(  5-C ,  6-C ) :   1.6541 B(  5-C , 12-C ) :   0.9716
B(  6-C ,  7-C ) :   0.9700 B(  6-C ,  8-N ) :   1.1544 B(  7-C , 25-H ) :   0.9630
B(  7-C , 26-H ) :   0.9574 B(  7-C , 27-H ) :   0.9891 B(  8-N ,  9-C ) :   1.1785
B(  8-N , 28-H ) :   0.9480 B(  9-C , 10-S ) :   1.6146 B(  9-C , 11-N ) :   1.3021
B( 11-N , 12-C ) :   0.9767 B( 11-N , 29-H ) :   0.9540 B( 12-C , 13-C ) :   0.9436
B( 12-C , 30-H ) :   1.0028 B( 13-C , 14-C ) :   1.3584 B( 13-C , 19-C ) :   1.3754
B( 14-C , 15-C ) :   1.3875 B( 14-C , 31-H ) :   0.9725 B( 15-C , 16-C ) :   1.3638
B( 15-C , 32-H ) :   0.9697 B( 16-C , 17-C ) :   1.3277 B( 16-C , 33-H ) :   0.9840
B( 17-C , 18-O ) :   1.1149 B( 17-C , 19-C ) :   1.3787 B( 18-O , 34-H ) :   0.9789
B( 19-C , 35-H ) :   0.9567

MP2 TOTAL ENERGY:    -1274.329163798 Eh
FINAL SINGLE POINT ENERGY     -1274.329163797845

DIPOLE MOMENT
-------------
                                X             Y             Z
Electronic contribution:      9.88125      10.73028       5.95535
Nuclear contribution   :    -11.00564     -12.17289      -5.74743
                        -----------------------------------------
Total Dipole Moment    :     -1.12439      -1.44262       0.20793
                        -----------------------------------------
Magnitude (a.u.)       :      1.84083
Magnitude (Debye)      :      4.67901

Rotational constants in cm-1:     0.012277     0.008955     0.006357
Rotational constants in MHz :   368.045142   268.475865   190.591256

                             ****ORCA TERMINATED NORMALLY****
TOTAL RUN TIME: 0 days 1 hours 50 minutes 39 seconds 366 msec
