                         Program Version 4.2.0 -  RELEASE  -
|  1> ! ri-mp2 cc-pvtz cc-pvtz/c TightSCF  NoKeepInts
|  2>
|  3> %scf
|  4>   MaxCore 4096
|  5> end
|  6> *xyz  0  1
|  7>     C       14.5756857   14.5241600   15.2136897
|  8>     C       15.6206922   14.4789987   16.3409109
|  9>     O       16.5523357   15.5475219   16.1056047
| 10>     C       17.7327279   15.5396339   16.7889022
| 11>     O       18.2862160   14.4951922   17.0910656
| 12>     C       17.9671275   16.8052716   17.5595904
| 13>     C       17.5181201   18.0281610   17.1766033
| 14>     C       16.7411512   18.3787872   15.9243213
| 15>     N       17.8348850   19.1553401   17.9414082
| 16>     C       18.7032999   19.1633730   19.0011518
| 17>     S       19.1181081   20.5638063   19.7771812
| 18>     N       19.2118805   17.9481205   19.3849034
| 19>     C       18.7770308   16.6437810   18.8502563
| 20>     C       17.9789888   15.8753733   19.9004583
| 21>     C       18.3654839   14.5768030   20.2803051
| 22>     C       17.6301778   13.8624647   21.2410148
| 23>     C       16.4970662   14.4507104   21.8280951
| 24>     C       16.1062128   15.7422641   21.4497603
| 25>     O       15.0082190   16.3102778   22.0092342
| 26>     C       16.8396981   16.4504880   20.4927721
| 27>     H       15.0570245   14.3977520   14.2358428
| 28>     H       14.0429877   15.4830979   15.2174821
| 29>     H       13.8393721   13.7211224   15.3400014
| 30>     H       15.1413257   14.5964251   17.3219463
| 31>     H       16.1294156   13.5053481   16.3143085
| 32>     H       17.1643289   17.8744007   15.0466002
| 33>     H       16.7501865   19.4544282   15.7102281
| 34>     H       15.6937868   18.0659208   16.0188416
| 35>     H       17.4722067   20.0567837   17.6749786
| 36>     H       19.8257448   17.9781153   20.1887981
| 37>     H       19.6798137   16.0638185   18.6097456
| 38>     H       19.2311516   14.1126400   19.8139731
| 39>     H       17.9368583   12.8564324   21.5216506
| 40>     H       15.9254312   13.9018196   22.5690005
| 41>     H       14.6706439   15.6932363   22.6757253
| 42>     H       16.5216149   17.4501302   20.2176479
| 43> *
| 44>
| 45>                          ****END OF INPUT****

CARTESIAN COORDINATES (ANGSTROEM)
---------------------------------
  C     14.575686   14.524160   15.213690
  C     15.620692   14.478999   16.340911
  O     16.552336   15.547522   16.105605
  C     17.732728   15.539634   16.788902
  O     18.286216   14.495192   17.091066
  C     17.967128   16.805272   17.559590
  C     17.518120   18.028161   17.176603
  C     16.741151   18.378787   15.924321
  N     17.834885   19.155340   17.941408
  C     18.703300   19.163373   19.001152
  S     19.118108   20.563806   19.777181
  N     19.211880   17.948121   19.384903
  C     18.777031   16.643781   18.850256
  C     17.978989   15.875373   19.900458
  C     18.365484   14.576803   20.280305
  C     17.630178   13.862465   21.241015
  C     16.497066   14.450710   21.828095
  C     16.106213   15.742264   21.449760
  O     15.008219   16.310278   22.009234
  C     16.839698   16.450488   20.492772
  H     15.057025   14.397752   14.235843
  H     14.042988   15.483098   15.217482
  H     13.839372   13.721122   15.340001
  H     15.141326   14.596425   17.321946
  H     16.129416   13.505348   16.314308
  H     17.164329   17.874401   15.046600
  H     16.750187   19.454428   15.710228
  H     15.693787   18.065921   16.018842
  H     17.472207   20.056784   17.674979
  H     19.825745   17.978115   20.188798
  H     19.679814   16.063819   18.609746
  H     19.231152   14.112640   19.813973
  H     17.936858   12.856432   21.521651
  H     15.925431   13.901820   22.569001
  H     14.670644   15.693236   22.675725
  H     16.521615   17.450130   20.217648

 Total Charge           Charge          ....    0
 Multiplicity           Mult            ....    1
 Number of Electrons    NEL             ....  154
 Basis Dimension        Dim             ....  828

ORBITAL ENERGIES
----------------

  NO   OCC          E(Eh)            E(eV)
   0   2.0000     -91.888261     -2500.4067
   1   2.0000     -20.593925      -560.3892
   2   2.0000     -20.593525      -560.3783
   3   2.0000     -20.550840      -559.2168
   4   2.0000     -15.628226      -425.2656
   5   2.0000     -15.607303      -424.6963
   6   2.0000     -11.394917      -310.0715
   7   2.0000     -11.383456      -309.7596
   8   2.0000     -11.334395      -308.4246
   9   2.0000     -11.309467      -307.7462
  10   2.0000     -11.306970      -307.6783
  11   2.0000     -11.298138      -307.4380
  12   2.0000     -11.259963      -306.3992
  13   2.0000     -11.259514      -306.3870
  14   2.0000     -11.255184      -306.2691
  15   2.0000     -11.249518      -306.1149
  16   2.0000     -11.239183      -305.8337
  17   2.0000     -11.235236      -305.7263
  18   2.0000     -11.232866      -305.6618
  19   2.0000     -11.232300      -305.6464
  20   2.0000      -8.893330      -241.9998
  21   2.0000      -6.574909      -178.9124
  22   2.0000      -6.572900      -178.8577
  23   2.0000      -6.572316      -178.8418
  24   2.0000      -1.454046       -39.5666
  25   2.0000      -1.413277       -38.4572
  26   2.0000      -1.357281       -36.9335
  27   2.0000      -1.339240       -36.4426
  28   2.0000      -1.237187       -33.6656
  29   2.0000      -1.153764       -31.3955
  30   2.0000      -1.120267       -30.4840
  31   2.0000      -1.044224       -28.4148
  32   2.0000      -1.036615       -28.2077
  33   2.0000      -1.011184       -27.5157
  34   2.0000      -0.998175       -27.1617
  35   2.0000      -0.983760       -26.7695
  36   2.0000      -0.921917       -25.0866
  37   2.0000      -0.884856       -24.0782
  38   2.0000      -0.847352       -23.0576
  39   2.0000      -0.836466       -22.7614
  40   2.0000      -0.829668       -22.5764
  41   2.0000      -0.821611       -22.3572
  42   2.0000      -0.759504       -20.6672
  43   2.0000      -0.735935       -20.0258
  44   2.0000      -0.726331       -19.7645
  45   2.0000      -0.691763       -18.8238
  46   2.0000      -0.684853       -18.6358
  47   2.0000      -0.680809       -18.5257
  48   2.0000      -0.675148       -18.3717
  49   2.0000      -0.654375       -17.8064
  50   2.0000      -0.651125       -17.7180
  51   2.0000      -0.642678       -17.4882
  52   2.0000      -0.633777       -17.2460
  53   2.0000      -0.613132       -16.6842
  54   2.0000      -0.602004       -16.3814
  55   2.0000      -0.601464       -16.3667
  56   2.0000      -0.596900       -16.2425
  57   2.0000      -0.577152       -15.7051
  58   2.0000      -0.574698       -15.6383
  59   2.0000      -0.562861       -15.3162
  60   2.0000      -0.560281       -15.2460
  61   2.0000      -0.545639       -14.8476
  62   2.0000      -0.539749       -14.6873
  63   2.0000      -0.525052       -14.2874
  64   2.0000      -0.518862       -14.1190
  65   2.0000      -0.510290       -13.8857
  66   2.0000      -0.502442       -13.6722
  67   2.0000      -0.496301       -13.5050
  68   2.0000      -0.481805       -13.1106
  69   2.0000      -0.464367       -12.6361
  70   2.0000      -0.460976       -12.5438
  71   2.0000      -0.451282       -12.2800
  72   2.0000      -0.353941        -9.6312
  73   2.0000      -0.345576        -9.4036
  74   2.0000      -0.327475        -8.9111
  75   2.0000      -0.316618        -8.6156
  76   2.0000      -0.315008        -8.5718
  77   0.0000       0.073414         1.9977
  78   0.0000       0.109062         2.9677
  79   0.0000       0.119792         3.2597
  80   0.0000       0.134443         3.6584
  81   0.0000       0.137603         3.7444

MULLIKEN ATOMIC CHARGES
-----------------------
   0 C :   -0.267960
   1 C :    0.038553
   2 O :   -0.359055
   3 C :    0.453024
   4 O :   -0.411192
   5 C :   -0.186149
   6 C :    0.139836
   7 C :   -0.284882
   8 N :   -0.123943
   9 C :    0.202579
  10 S :   -0.439850
  11 N :   -0.199335
  12 C :    0.045186
  13 C :    0.052961
  14 C :   -0.161963
  15 C :   -0.132955
  16 C :   -0.280324
  17 C :    0.311541
  18 O :   -0.358921
  19 C :   -0.276111
  20 H :    0.099272
  21 H :    0.089818
  22 H :    0.094252
  23 H :    0.093061
  24 H :    0.112805
  25 H :    0.125118
  26 H :    0.103869
  27 H :    0.125800
  28 H :    0.197080
  29 H :    0.193970
  30 H :    0.154380
  31 H :    0.154306
  32 H :    0.159757
  33 H :    0.128982
  34 H :    0.240389
  35 H :    0.166099
Sum of atomic charges:   -0.0000000

LOEWDIN ATOMIC CHARGES
----------------------
   0 C :    0.107349
   1 C :   -0.015972
   2 O :    0.298281
   3 C :   -0.413948
   4 O :    0.117097
   5 C :   -0.092575
   6 C :   -0.070652
   7 C :    0.125484
   8 N :    0.404379
   9 C :   -0.458084
  10 S :   -0.036404
  11 N :    0.397379
  12 C :   -0.045810
  13 C :   -0.039417
  14 C :    0.021810
  15 C :    0.041280
  16 C :   -0.002392
  17 C :   -0.193464
  18 O :    0.393068
  19 C :    0.027934
  20 H :   -0.025141
  21 H :   -0.030476
  22 H :   -0.024097
  23 H :   -0.030668
  24 H :   -0.026992
  25 H :   -0.008179
  26 H :   -0.020171
  27 H :   -0.010485
  28 H :   -0.058907
  29 H :   -0.063918
  30 H :   -0.004784
  31 H :   -0.025071
  32 H :   -0.020896
  33 H :   -0.036152
  34 H :   -0.154608
  35 H :   -0.024800

  Mayer bond orders larger than 0.100000
B(  0-C ,  1-C ) :   0.9742 B(  0-C , 20-H ) :   0.9773 B(  0-C , 21-H ) :   0.9792
B(  0-C , 22-H ) :   0.9770 B(  1-C ,  2-O ) :   0.8960 B(  1-C , 23-H ) :   0.9718
B(  1-C , 24-H ) :   0.9774 B(  2-O ,  3-C ) :   1.1121 B(  3-C ,  4-O ) :   2.0089
B(  3-C ,  5-C ) :   1.0395 B(  5-C ,  6-C ) :   1.6598 B(  5-C , 12-C ) :   0.9649
B(  6-C ,  7-C ) :   0.9525 B(  6-C ,  8-N ) :   1.1409 B(  7-C , 25-H ) :   0.9687
B(  7-C , 26-H ) :   0.9898 B(  7-C , 27-H ) :   0.9630 B(  8-N ,  9-C ) :   1.1821
B(  8-N , 28-H ) :   0.9495 B(  9-C , 10-S ) :   1.6104 B(  9-C , 11-N ) :   1.3020
B( 11-N , 12-C ) :   0.9913 B( 11-N , 29-H ) :   0.9518 B( 12-C , 13-C ) :   0.9469
B( 12-C , 30-H ) :   0.9988 B( 13-C , 14-C ) :   1.3771 B( 13-C , 19-C ) :   1.3679
B( 14-C , 15-C ) :   1.3947 B( 14-C , 31-H ) :   0.9645 B( 15-C , 16-C ) :   1.3632
B( 15-C , 32-H ) :   0.9712 B( 16-C , 17-C ) :   1.3313 B( 16-C , 33-H ) :   0.9856
B( 17-C , 18-O ) :   1.1087 B( 17-C , 19-C ) :   1.3773 B( 18-O , 34-H ) :   0.9803
B( 19-C , 35-H ) :   0.9582

MP2 TOTAL ENERGY:    -1274.335002615 Eh
FINAL SINGLE POINT ENERGY     -1274.335002614588

DIPOLE MOMENT
-------------
                                X             Y             Z
Electronic contribution:     11.38144       9.65071       9.95075
Nuclear contribution   :    -12.81855     -10.99593     -10.68967
                        -----------------------------------------
Total Dipole Moment    :     -1.43711      -1.34523      -0.73893
                        -----------------------------------------
Magnitude (a.u.)       :      2.10260
Magnitude (Debye)      :      5.34438

Rotational constants in cm-1:     0.010599     0.009110     0.006138
Rotational constants in MHz :   317.755787   273.109696   184.011833

                             ****ORCA TERMINATED NORMALLY****
TOTAL RUN TIME: 0 days 1 hours 34 minutes 32 seconds 129 msec
