                         Program Version 4.2.0 -  RELEASE  -
|  1> ! ri-mp2 cc-pvtz cc-pvtz/c TightSCF  NoKeepInts
|  2>
|  3> %scf
|  4>   MaxCore 4096
|  5> end
|  6> *xyz  0  1
|  7>     C       14.2424008   15.2212539   16.4909620
|  8>     C       15.7077628   14.7673454   16.5946979
|  9>     O       16.5214774   15.7818235   15.9837527
| 10>     C       17.8048289   15.8873006   16.4275547
| 11>     O       18.5128827   14.8970473   16.5002022
| 12>     C       17.9470656   17.0112632   17.4069007
| 13>     C       17.3488866   18.2177977   17.2495159
| 14>     C       16.4940149   18.6698852   16.0842520
| 15>     N       17.5596694   19.2267040   18.1939242
| 16>     C       18.4458688   19.1476118   19.2364600
| 17>     S       18.7151264   20.4272577   20.2489804
| 18>     N       19.0983891   17.9506047   19.3983399
| 19>     C       18.8130726   16.7203543   18.6350847
| 20>     C       18.1404165   15.6791995   19.5255703
| 21>     C       18.6832897   14.3870211   19.6479078
| 22>     C       18.0543877   13.4186854   20.4482841
| 23>     C       16.8704584   13.7435869   21.1319701
| 24>     C       16.3239541   15.0281251   21.0094029
| 25>     O       15.1746898   15.3419342   21.6586376
| 26>     C       16.9519244   15.9896107   20.2117024
| 27>     H       14.0912488   16.1665080   17.0265448
| 28>     H       13.5763230   14.4688530   16.9305476
| 29>     H       13.9548723   15.3641252   15.4418870
| 30>     H       15.9702620   14.6459292   17.6552594
| 31>     H       15.8563541   13.8042058   16.0885686
| 32>     H       16.8953944   18.2978846   15.1332653
| 33>     H       16.4415282   19.7624893   16.0035046
| 34>     H       15.4699055   18.2900185   16.1852471
| 35>     H       17.0909328   20.1128150   18.0916560
| 36>     H       19.7239829   17.9109572   20.1927885
| 37>     H       19.7715710   16.3117596   18.2834578
| 38>     H       19.5876155   14.1270202   19.1028327
| 39>     H       18.4820579   12.4209009   20.5299269
| 40>     H       16.3803737   12.9976844   21.7489242
| 41>     H       14.9314676   14.5784186   22.2037337
| 42>     H       16.5125438   16.9780186   20.1317533
| 43> *
| 44>
| 45>                          ****END OF INPUT****

CARTESIAN COORDINATES (ANGSTROEM)
---------------------------------
  C     14.242401   15.221254   16.490962
  C     15.707763   14.767345   16.594698
  O     16.521477   15.781823   15.983753
  C     17.804829   15.887301   16.427555
  O     18.512883   14.897047   16.500202
  C     17.947066   17.011263   17.406901
  C     17.348887   18.217798   17.249516
  C     16.494015   18.669885   16.084252
  N     17.559669   19.226704   18.193924
  C     18.445869   19.147612   19.236460
  S     18.715126   20.427258   20.248980
  N     19.098389   17.950605   19.398340
  C     18.813073   16.720354   18.635085
  C     18.140416   15.679199   19.525570
  C     18.683290   14.387021   19.647908
  C     18.054388   13.418685   20.448284
  C     16.870458   13.743587   21.131970
  C     16.323954   15.028125   21.009403
  O     15.174690   15.341934   21.658638
  C     16.951924   15.989611   20.211702
  H     14.091249   16.166508   17.026545
  H     13.576323   14.468853   16.930548
  H     13.954872   15.364125   15.441887
  H     15.970262   14.645929   17.655259
  H     15.856354   13.804206   16.088569
  H     16.895394   18.297885   15.133265
  H     16.441528   19.762489   16.003505
  H     15.469905   18.290018   16.185247
  H     17.090933   20.112815   18.091656
  H     19.723983   17.910957   20.192788
  H     19.771571   16.311760   18.283458
  H     19.587615   14.127020   19.102833
  H     18.482058   12.420901   20.529927
  H     16.380374   12.997684   21.748924
  H     14.931468   14.578419   22.203734
  H     16.512544   16.978019   20.131753

 Total Charge           Charge          ....    0
 Multiplicity           Mult            ....    1
 Number of Electrons    NEL             ....  154
 Basis Dimension        Dim             ....  828

ORBITAL ENERGIES
----------------

  NO   OCC          E(Eh)            E(eV)
   0   2.0000     -91.889057     -2500.4284
   1   2.0000     -20.597062      -560.4746
   2   2.0000     -20.583729      -560.1117
   3   2.0000     -20.555843      -559.3529
   4   2.0000     -15.628420      -425.2709
   5   2.0000     -15.608774      -424.7363
   6   2.0000     -11.393587      -310.0353
   7   2.0000     -11.384638      -309.7918
   8   2.0000     -11.332526      -308.3737
   9   2.0000     -11.313418      -307.8538
  10   2.0000     -11.309476      -307.7465
  11   2.0000     -11.297347      -307.4164
  12   2.0000     -11.260396      -306.4110
  13   2.0000     -11.259692      -306.3918
  14   2.0000     -11.258683      -306.3643
  15   2.0000     -11.253474      -306.2226
  16   2.0000     -11.243181      -305.9425
  17   2.0000     -11.238886      -305.8256
  18   2.0000     -11.236138      -305.7509
  19   2.0000     -11.232310      -305.6467
  20   2.0000      -8.894132      -242.0216
  21   2.0000      -6.575710      -178.9342
  22   2.0000      -6.573700      -178.8795
  23   2.0000      -6.573116      -178.8636
  24   2.0000      -1.453736       -39.5582
  25   2.0000      -1.416872       -38.5550
  26   2.0000      -1.356372       -36.9087
  27   2.0000      -1.339659       -36.4540
  28   2.0000      -1.238112       -33.6907
  29   2.0000      -1.157432       -31.4953
  30   2.0000      -1.121829       -30.5265
  31   2.0000      -1.045591       -28.4520
  32   2.0000      -1.035330       -28.1728
  33   2.0000      -1.014890       -27.6165
  34   2.0000      -0.999781       -27.2054
  35   2.0000      -0.985563       -26.8185
  36   2.0000      -0.923938       -25.1416
  37   2.0000      -0.882416       -24.0118
  38   2.0000      -0.848197       -23.0806
  39   2.0000      -0.839183       -22.8353
  40   2.0000      -0.833403       -22.6780
  41   2.0000      -0.825502       -22.4631
  42   2.0000      -0.757343       -20.6084
  43   2.0000      -0.735919       -20.0254
  44   2.0000      -0.728932       -19.8352
  45   2.0000      -0.695110       -18.9149
  46   2.0000      -0.685671       -18.6581
  47   2.0000      -0.681607       -18.5475
  48   2.0000      -0.676121       -18.3982
  49   2.0000      -0.655808       -17.8454
  50   2.0000      -0.653948       -17.7948
  51   2.0000      -0.643740       -17.5171
  52   2.0000      -0.636183       -17.3114
  53   2.0000      -0.609280       -16.5794
  54   2.0000      -0.605723       -16.4825
  55   2.0000      -0.603138       -16.4122
  56   2.0000      -0.600543       -16.3416
  57   2.0000      -0.578008       -15.7284
  58   2.0000      -0.575456       -15.6589
  59   2.0000      -0.566228       -15.4079
  60   2.0000      -0.558336       -15.1931
  61   2.0000      -0.548658       -14.9297
  62   2.0000      -0.545998       -14.8574
  63   2.0000      -0.522664       -14.2224
  64   2.0000      -0.514623       -14.0036
  65   2.0000      -0.510904       -13.9024
  66   2.0000      -0.506382       -13.7794
  67   2.0000      -0.498770       -13.5722
  68   2.0000      -0.482456       -13.1283
  69   2.0000      -0.466068       -12.6824
  70   2.0000      -0.456893       -12.4327
  71   2.0000      -0.452964       -12.3258
  72   2.0000      -0.354516        -9.6469
  73   2.0000      -0.348996        -9.4967
  74   2.0000      -0.328423        -8.9369
  75   2.0000      -0.320645        -8.7252
  76   2.0000      -0.315884        -8.5956
  77   0.0000       0.070685         1.9234
  78   0.0000       0.103364         2.8127
  79   0.0000       0.118466         3.2236
  80   0.0000       0.131052         3.5661
  81   0.0000       0.135549         3.6885

MULLIKEN ATOMIC CHARGES
-----------------------
   0 C :   -0.282624
   1 C :    0.049390
   2 O :   -0.370449
   3 C :    0.444177
   4 O :   -0.395590
   5 C :   -0.190878
   6 C :    0.131400
   7 C :   -0.282085
   8 N :   -0.125059
   9 C :    0.202874
  10 S :   -0.439665
  11 N :   -0.201345
  12 C :    0.060244
  13 C :    0.025577
  14 C :   -0.150610
  15 C :   -0.135780
  16 C :   -0.278564
  17 C :    0.313715
  18 O :   -0.359657
  19 C :   -0.277478
  20 H :    0.091319
  21 H :    0.103388
  22 H :    0.100291
  23 H :    0.095555
  24 H :    0.109353
  25 H :    0.123315
  26 H :    0.106378
  27 H :    0.124676
  28 H :    0.197300
  29 H :    0.194265
  30 H :    0.155658
  31 H :    0.157301
  32 H :    0.161369
  33 H :    0.131631
  34 H :    0.241112
  35 H :    0.169496
Sum of atomic charges:   -0.0000000

LOEWDIN ATOMIC CHARGES
----------------------
   0 C :    0.108015
   1 C :   -0.016000
   2 O :    0.289845
   3 C :   -0.418811
   4 O :    0.130421
   5 C :   -0.093981
   6 C :   -0.076267
   7 C :    0.126775
   8 N :    0.403926
   9 C :   -0.457243
  10 S :   -0.036338
  11 N :    0.396968
  12 C :   -0.045043
  13 C :   -0.042024
  14 C :    0.021727
  15 C :    0.042406
  16 C :   -0.002100
  17 C :   -0.195026
  18 O :    0.393849
  19 C :    0.027359
  20 H :   -0.029979
  21 H :   -0.022785
  22 H :   -0.026790
  23 H :   -0.027289
  24 H :   -0.028312
  25 H :   -0.007864
  26 H :   -0.019167
  27 H :   -0.011100
  28 H :   -0.058694
  29 H :   -0.064146
  30 H :   -0.004480
  31 H :   -0.024246
  32 H :   -0.019939
  33 H :   -0.035340
  34 H :   -0.153834
  35 H :   -0.024492

  Mayer bond orders larger than 0.100000
B(  0-C ,  1-C ) :   0.9728 B(  0-C , 20-H ) :   0.9777 B(  0-C , 21-H ) :   0.9780
B(  0-C , 22-H ) :   0.9769 B(  1-C ,  2-O ) :   0.8952 B(  1-C , 23-H ) :   0.9652
B(  1-C , 24-H ) :   0.9840 B(  2-O ,  3-C ) :   1.0905 B(  3-C ,  4-O ) :   2.0285
B(  3-C ,  5-C ) :   1.0242 B(  5-C ,  6-C ) :   1.6719 B(  5-C , 12-C ) :   0.9617
B(  6-C ,  7-C ) :   0.9521 B(  6-C ,  8-N ) :   1.1367 B(  7-C , 25-H ) :   0.9712
B(  7-C , 26-H ) :   0.9879 B(  7-C , 27-H ) :   0.9627 B(  8-N ,  9-C ) :   1.1854
B(  8-N , 28-H ) :   0.9501 B(  9-C , 10-S ) :   1.6111 B(  9-C , 11-N ) :   1.2987
B( 11-N , 12-C ) :   0.9934 B( 11-N , 29-H ) :   0.9517 B( 12-C , 13-C ) :   0.9439
B( 12-C , 30-H ) :   0.9981 B( 13-C , 14-C ) :   1.3798 B( 13-C , 19-C ) :   1.3676
B( 14-C , 15-C ) :   1.3945 B( 14-C , 31-H ) :   0.9633 B( 15-C , 16-C ) :   1.3640
B( 15-C , 32-H ) :   0.9709 B( 16-C , 17-C ) :   1.3295 B( 16-C , 33-H ) :   0.9846
B( 17-C , 18-O ) :   1.1104 B( 17-C , 19-C ) :   1.3725 B( 18-O , 34-H ) :   0.9797
B( 19-C , 35-H ) :   0.9583

MP2 TOTAL ENERGY:    -1274.324089157 Eh
FINAL SINGLE POINT ENERGY     -1274.324089156678

DIPOLE MOMENT
-------------
                                X             Y             Z
Electronic contribution:     11.66416       7.96479       7.02753
Nuclear contribution   :    -12.94212      -9.25172      -7.59426
                        -----------------------------------------
Total Dipole Moment    :     -1.27796      -1.28692      -0.56673
                        -----------------------------------------
Magnitude (a.u.)       :      1.90014
Magnitude (Debye)      :      4.82977

Rotational constants in cm-1:     0.011591     0.009214     0.006790
Rotational constants in MHz :   347.495463   276.233990   203.546296

                             ****ORCA TERMINATED NORMALLY****
TOTAL RUN TIME: 0 days 1 hours 41 minutes 31 seconds 486 msec
