                         Program Version 4.2.0 -  RELEASE  -
|  1> ! ri-mp2 cc-pvtz cc-pvtz/c TightSCF  NoKeepInts
|  2>
|  3> %scf
|  4>   MaxCore 4096
|  5> end
|  6> *xyz  0  1
|  7>     C       14.8873690   14.1929331   16.3060936
|  8>     C       16.4049133   13.9021367   16.3168730
|  9>     O       17.2395395   15.0475302   16.6215034
| 10>     C       16.8656900   16.3627738   16.5210952
| 11>     O       16.0536535   16.7662395   15.7072288
| 12>     C       17.6372856   17.2471997   17.4623120
| 13>     C       17.5358315   18.6007741   17.4406898
| 14>     C       16.6852264   19.4429272   16.5138627
| 15>     N       18.2895567   19.3754416   18.3274093
| 16>     C       19.2159482   18.8841951   19.2076364
| 17>     S       20.1164933   19.8783135   20.1755077
| 18>     N       19.3605232   17.5211803   19.2473536
| 19>     C       18.5359518   16.5541583   18.5003153
| 20>     C       17.7267603   15.7041039   19.4758438
| 21>     C       18.0292401   14.3409957   19.6541188
| 22>     C       17.2797681   13.5527975   20.5435966
| 23>     C       16.2209810   14.1326845   21.2630812
| 24>     C       15.9207920   15.4911237   21.0921755
| 25>     O       14.8999582   16.0541176   21.7862932
| 26>     C       16.6683676   16.2729543   20.2062432
| 27>     H       14.5869252   14.7519701   17.2013032
| 28>     H       14.3237901   13.2524455   16.2915416
| 29>     H       14.5938771   14.7621774   15.4155559
| 30>     H       16.6128260   13.1150800   17.0531431
| 31>     H       16.6857096   13.5089520   15.3312340
| 32>     H       16.9438964   19.2443754   15.4659447
| 33>     H       16.8007495   20.5196622   16.6842199
| 34>     H       15.6224120   19.1995635   16.6396461
| 35>     H       18.1971584   20.3785592   18.3126694
| 36>     H       20.0225159   17.1871456   19.9358099
| 37>     H       19.2249319   15.8949513   17.9537281
| 38>     H       18.8446395   13.8895925   19.0952823
| 39>     H       17.5204815   12.4991660   20.6740582
| 40>     H       15.6395109   13.5284552   21.9516643
| 41>     H       14.5294448   15.3714972   22.3655953
| 42>     H       16.4242821   17.3238265   20.0933708
| 43> *
| 44>
| 45>                          ****END OF INPUT****

CARTESIAN COORDINATES (ANGSTROEM)
---------------------------------
  C     14.887369   14.192933   16.306094
  C     16.404913   13.902137   16.316873
  O     17.239539   15.047530   16.621503
  C     16.865690   16.362774   16.521095
  O     16.053653   16.766240   15.707229
  C     17.637286   17.247200   17.462312
  C     17.535832   18.600774   17.440690
  C     16.685226   19.442927   16.513863
  N     18.289557   19.375442   18.327409
  C     19.215948   18.884195   19.207636
  S     20.116493   19.878313   20.175508
  N     19.360523   17.521180   19.247354
  C     18.535952   16.554158   18.500315
  C     17.726760   15.704104   19.475844
  C     18.029240   14.340996   19.654119
  C     17.279768   13.552798   20.543597
  C     16.220981   14.132684   21.263081
  C     15.920792   15.491124   21.092175
  O     14.899958   16.054118   21.786293
  C     16.668368   16.272954   20.206243
  H     14.586925   14.751970   17.201303
  H     14.323790   13.252446   16.291542
  H     14.593877   14.762177   15.415556
  H     16.612826   13.115080   17.053143
  H     16.685710   13.508952   15.331234
  H     16.943896   19.244375   15.465945
  H     16.800749   20.519662   16.684220
  H     15.622412   19.199564   16.639646
  H     18.197158   20.378559   18.312669
  H     20.022516   17.187146   19.935810
  H     19.224932   15.894951   17.953728
  H     18.844639   13.889592   19.095282
  H     17.520481   12.499166   20.674058
  H     15.639511   13.528455   21.951664
  H     14.529445   15.371497   22.365595
  H     16.424282   17.323826   20.093371

 Total Charge           Charge          ....    0
 Multiplicity           Mult            ....    1
 Number of Electrons    NEL             ....  154
 Basis Dimension        Dim             ....  828

ORBITAL ENERGIES
----------------

  NO   OCC          E(Eh)            E(eV)
   0   2.0000     -91.888293     -2500.4076
   1   2.0000     -20.597763      -560.4936
   2   2.0000     -20.595421      -560.4299
   3   2.0000     -20.540656      -558.9397
   4   2.0000     -15.628278      -425.2671
   5   2.0000     -15.607726      -424.7078
   6   2.0000     -11.395887      -310.0979
   7   2.0000     -11.383439      -309.7591
   8   2.0000     -11.335115      -308.4442
   9   2.0000     -11.315078      -307.8989
  10   2.0000     -11.308097      -307.7090
  11   2.0000     -11.301412      -307.5270
  12   2.0000     -11.260747      -306.4205
  13   2.0000     -11.257900      -306.3430
  14   2.0000     -11.256636      -306.3086
  15   2.0000     -11.251431      -306.1670
  16   2.0000     -11.244249      -305.9716
  17   2.0000     -11.239436      -305.8406
  18   2.0000     -11.239341      -305.8380
  19   2.0000     -11.223464      -305.4060
  20   2.0000      -8.893366      -242.0008
  21   2.0000      -6.574944      -178.9133
  22   2.0000      -6.572936      -178.8587
  23   2.0000      -6.572352      -178.8428
  24   2.0000      -1.443393       -39.2767
  25   2.0000      -1.417425       -38.5701
  26   2.0000      -1.352735       -36.8098
  27   2.0000      -1.339362       -36.4459
  28   2.0000      -1.237993       -33.6875
  29   2.0000      -1.158519       -31.5249
  30   2.0000      -1.119705       -30.4687
  31   2.0000      -1.042965       -28.3805
  32   2.0000      -1.035068       -28.1656
  33   2.0000      -1.016271       -27.6542
  34   2.0000      -0.995299       -27.0835
  35   2.0000      -0.983642       -26.7662
  36   2.0000      -0.922363       -25.0988
  37   2.0000      -0.898045       -24.4370
  38   2.0000      -0.846948       -23.0466
  39   2.0000      -0.838500       -22.8167
  40   2.0000      -0.835117       -22.7247
  41   2.0000      -0.817549       -22.2466
  42   2.0000      -0.744599       -20.2616
  43   2.0000      -0.731678       -19.9100
  44   2.0000      -0.719913       -19.5898
  45   2.0000      -0.696528       -18.9535
  46   2.0000      -0.687821       -18.7166
  47   2.0000      -0.674900       -18.3650
  48   2.0000      -0.671253       -18.2657
  49   2.0000      -0.658667       -17.9232
  50   2.0000      -0.651829       -17.7372
  51   2.0000      -0.642683       -17.4883
  52   2.0000      -0.635692       -17.2981
  53   2.0000      -0.613421       -16.6920
  54   2.0000      -0.607756       -16.5379
  55   2.0000      -0.600878       -16.3507
  56   2.0000      -0.598833       -16.2951
  57   2.0000      -0.578103       -15.7310
  58   2.0000      -0.570566       -15.5259
  59   2.0000      -0.568310       -15.4645
  60   2.0000      -0.558500       -15.1976
  61   2.0000      -0.540604       -14.7106
  62   2.0000      -0.535316       -14.5667
  63   2.0000      -0.525920       -14.3110
  64   2.0000      -0.520638       -14.1673
  65   2.0000      -0.513518       -13.9735
  66   2.0000      -0.501478       -13.6459
  67   2.0000      -0.498837       -13.5741
  68   2.0000      -0.486545       -13.2396
  69   2.0000      -0.463352       -12.6085
  70   2.0000      -0.453352       -12.3363
  71   2.0000      -0.441103       -12.0030
  72   2.0000      -0.353284        -9.6133
  73   2.0000      -0.350264        -9.5312
  74   2.0000      -0.327937        -8.9236
  75   2.0000      -0.322597        -8.7783
  76   2.0000      -0.315770        -8.5925
  77   0.0000       0.076872         2.0918
  78   0.0000       0.104296         2.8380
  79   0.0000       0.124734         3.3942
  80   0.0000       0.132474         3.6048
  81   0.0000       0.138159         3.7595

MULLIKEN ATOMIC CHARGES
-----------------------
   0 C :   -0.306575
   1 C :    0.046892
   2 O :   -0.367172
   3 C :    0.462958
   4 O :   -0.426908
   5 C :   -0.230621
   6 C :    0.156450
   7 C :   -0.271795
   8 N :   -0.121014
   9 C :    0.212929
  10 S :   -0.441664
  11 N :   -0.207307
  12 C :    0.070165
  13 C :    0.061502
  14 C :   -0.198112
  15 C :   -0.127375
  16 C :   -0.280461
  17 C :    0.318302
  18 O :   -0.356463
  19 C :   -0.272652
  20 H :    0.102342
  21 H :    0.096806
  22 H :    0.125025
  23 H :    0.099162
  24 H :    0.103391
  25 H :    0.131718
  26 H :    0.094940
  27 H :    0.130562
  28 H :    0.196905
  29 H :    0.195422
  30 H :    0.149546
  31 H :    0.153408
  32 H :    0.162067
  33 H :    0.130671
  34 H :    0.240930
  35 H :    0.166025
Sum of atomic charges:   -0.0000000

LOEWDIN ATOMIC CHARGES
----------------------
   0 C :    0.104420
   1 C :   -0.009602
   2 O :    0.296364
   3 C :   -0.414911
   4 O :    0.105001
   5 C :   -0.094715
   6 C :   -0.059445
   7 C :    0.131144
   8 N :    0.406464
   9 C :   -0.456120
  10 S :   -0.036678
  11 N :    0.396321
  12 C :   -0.052332
  13 C :   -0.038344
  14 C :    0.015008
  15 C :    0.038571
  16 C :   -0.002040
  17 C :   -0.189834
  18 O :    0.395507
  19 C :    0.030902
  20 H :   -0.026723
  21 H :   -0.027077
  22 H :   -0.024921
  23 H :   -0.027899
  24 H :   -0.028681
  25 H :   -0.003870
  26 H :   -0.023610
  27 H :   -0.005015
  28 H :   -0.057709
  29 H :   -0.064722
  30 H :   -0.011495
  31 H :   -0.029902
  32 H :   -0.021308
  33 H :   -0.035454
  34 H :   -0.153707
  35 H :   -0.023588

  Mayer bond orders larger than 0.100000
B(  0-C ,  1-C ) :   0.9665 B(  0-C , 20-H ) :   0.9749 B(  0-C , 21-H ) :   0.9753
B(  0-C , 22-H ) :   0.9721 B(  1-C ,  2-O ) :   0.8970 B(  1-C , 23-H ) :   0.9781
B(  1-C , 24-H ) :   0.9831 B(  2-O ,  3-C ) :   1.1542 B(  3-C ,  4-O ) :   1.9832
B(  3-C ,  5-C ) :   1.0481 B(  5-C ,  6-C ) :   1.6530 B(  5-C , 12-C ) :   0.9711
B(  6-C ,  7-C ) :   0.9665 B(  6-C ,  8-N ) :   1.1633 B(  7-C , 25-H ) :   0.9602
B(  7-C , 26-H ) :   0.9905 B(  7-C , 27-H ) :   0.9606 B(  8-N ,  9-C ) :   1.1848
B(  8-N , 28-H ) :   0.9479 B(  9-C , 10-S ) :   1.6048 B(  9-C , 11-N ) :   1.3067
B( 11-N , 12-C ) :   0.9858 B( 11-N , 29-H ) :   0.9513 B( 12-C , 13-C ) :   0.9352
B( 12-C , 30-H ) :   1.0023 B( 13-C , 14-C ) :   1.3531 B( 13-C , 19-C ) :   1.3809
B( 14-C , 15-C ) :   1.3876 B( 14-C , 31-H ) :   0.9711 B( 15-C , 16-C ) :   1.3641
B( 15-C , 32-H ) :   0.9702 B( 16-C , 17-C ) :   1.3313 B( 16-C , 33-H ) :   0.9847
B( 17-C , 18-O ) :   1.1102 B( 17-C , 19-C ) :   1.3688 B( 18-O , 34-H ) :   0.9796
B( 19-C , 35-H ) :   0.9586

MP2 TOTAL ENERGY:    -1274.341181180 Eh
FINAL SINGLE POINT ENERGY     -1274.341181180492

DIPOLE MOMENT
-------------
                                X             Y             Z
Electronic contribution:     10.33119       9.92781       7.64980
Nuclear contribution   :    -11.37786     -11.71674      -7.93829
                        -----------------------------------------
Total Dipole Moment    :     -1.04667      -1.78893      -0.28850
                        -----------------------------------------
Magnitude (a.u.)       :      2.09261
Magnitude (Debye)      :      5.31900

Rotational constants in cm-1:     0.012154     0.008651     0.006251
Rotational constants in MHz :   364.369515   259.352695   187.385624

                             ****ORCA TERMINATED NORMALLY****
TOTAL RUN TIME: 0 days 1 hours 55 minutes 8 seconds 980 msec
