                         Program Version 4.2.0 -  RELEASE  -
|  1> ! ri-mp2 cc-pvtz cc-pvtz/c TightSCF  NoKeepInts
|  2>
|  3> %scf
|  4>   MaxCore 4096
|  5> end
|  6> *xyz  0  1
|  7>     C       14.8245211   15.0016598   16.1580650
|  8>     C       15.9860930   14.6388289   17.1024512
|  9>     O       17.2306465   14.8773415   16.4118257
| 10>     C       17.6617806   16.1494199   16.1599986
| 11>     O       17.6605708   16.5673122   15.0168436
| 12>     C       17.7650054   17.0496380   17.3583505
| 13>     C       17.3478064   18.3386597   17.3157510
| 14>     C       16.5739756   19.0072486   16.2006436
| 15>     N       17.6703468   19.2127218   18.3573279
| 16>     C       18.5938521   18.9435566   19.3330036
| 17>     S       19.0641276   20.0853546   20.4327195
| 18>     N       19.1148878   17.6734082   19.3476645
| 19>     C       18.6017356   16.5433272   18.5488900
| 20>     C       17.8834593   15.5618696   19.4686560
| 21>     C       18.2506848   14.2028297   19.4804021
| 22>     C       17.5900678   13.2905502   20.3200604
| 23>     C       16.5574508   13.7404056   21.1602010
| 24>     C       16.1945300   15.0939247   21.1587772
| 25>     O       15.1951546   15.5307707   21.9651302
| 26>     C       16.8517189   15.9996780   20.3202032
| 27>     H       14.8200528   16.0735250   15.9279771
| 28>     H       13.8620805   14.7487613   16.6191155
| 29>     H       14.9083680   14.4477630   15.2143611
| 30>     H       15.8903306   15.2333681   18.0141442
| 31>     H       15.9168397   13.5776656   17.3745451
| 32>     H       15.7907709   18.3453395   15.8123911
| 33>     H       17.2420874   19.2447641   15.3624410
| 34>     H       16.0881411   19.9364699   16.5207219
| 35>     H       17.3169298   20.1563791   18.3434065
| 36>     H       19.7798039   17.4998156   20.0909166
| 37>     H       19.4743297   16.0237625   18.1279054
| 38>     H       19.0448215   13.8488089   18.8275625
| 39>     H       17.8797546   12.2408025   20.3185646
| 40>     H       16.0449861   13.0389805   21.8107824
| 41>     H       14.9136415   14.7837922   22.5149356
| 42>     H       16.5556465   17.0434969   20.3372643
| 43> *
| 44>
| 45>                          ****END OF INPUT****

CARTESIAN COORDINATES (ANGSTROEM)
---------------------------------
  C     14.824521   15.001660   16.158065
  C     15.986093   14.638829   17.102451
  O     17.230646   14.877341   16.411826
  C     17.661781   16.149420   16.159999
  O     17.660571   16.567312   15.016844
  C     17.765005   17.049638   17.358351
  C     17.347806   18.338660   17.315751
  C     16.573976   19.007249   16.200644
  N     17.670347   19.212722   18.357328
  C     18.593852   18.943557   19.333004
  S     19.064128   20.085355   20.432720
  N     19.114888   17.673408   19.347665
  C     18.601736   16.543327   18.548890
  C     17.883459   15.561870   19.468656
  C     18.250685   14.202830   19.480402
  C     17.590068   13.290550   20.320060
  C     16.557451   13.740406   21.160201
  C     16.194530   15.093925   21.158777
  O     15.195155   15.530771   21.965130
  C     16.851719   15.999678   20.320203
  H     14.820053   16.073525   15.927977
  H     13.862080   14.748761   16.619115
  H     14.908368   14.447763   15.214361
  H     15.890331   15.233368   18.014144
  H     15.916840   13.577666   17.374545
  H     15.790771   18.345340   15.812391
  H     17.242087   19.244764   15.362441
  H     16.088141   19.936470   16.520722
  H     17.316930   20.156379   18.343406
  H     19.779804   17.499816   20.090917
  H     19.474330   16.023763   18.127905
  H     19.044821   13.848809   18.827562
  H     17.879755   12.240802   20.318565
  H     16.044986   13.038980   21.810782
  H     14.913642   14.783792   22.514936
  H     16.555647   17.043497   20.337264

 Total Charge           Charge          ....    0
 Multiplicity           Mult            ....    1
 Number of Electrons    NEL             ....  154
 Basis Dimension        Dim             ....  828

ORBITAL ENERGIES
----------------

  NO   OCC          E(Eh)            E(eV)
   0   2.0000     -91.891753     -2500.5017
   1   2.0000     -20.602748      -560.6293
   2   2.0000     -20.585284      -560.1541
   3   2.0000     -20.552899      -559.2728
   4   2.0000     -15.630192      -425.3191
   5   2.0000     -15.611690      -424.8157
   6   2.0000     -11.394221      -310.0525
   7   2.0000     -11.386765      -309.8496
   8   2.0000     -11.334784      -308.4352
   9   2.0000     -11.320971      -308.0593
  10   2.0000     -11.317439      -307.9632
  11   2.0000     -11.297332      -307.4160
  12   2.0000     -11.266331      -306.5724
  13   2.0000     -11.262030      -306.4554
  14   2.0000     -11.260542      -306.4149
  15   2.0000     -11.256123      -306.2947
  16   2.0000     -11.250336      -306.1372
  17   2.0000     -11.244857      -305.9881
  18   2.0000     -11.244548      -305.9797
  19   2.0000     -11.226372      -305.4851
  20   2.0000      -8.896789      -242.0939
  21   2.0000      -6.578357      -179.0062
  22   2.0000      -6.576357      -178.9518
  23   2.0000      -6.575763      -178.9356
  24   2.0000      -1.446411       -39.3589
  25   2.0000      -1.422520       -38.7087
  26   2.0000      -1.355489       -36.8847
  27   2.0000      -1.342386       -36.5282
  28   2.0000      -1.241699       -33.7884
  29   2.0000      -1.163695       -31.6657
  30   2.0000      -1.123053       -30.5598
  31   2.0000      -1.048582       -28.5334
  32   2.0000      -1.032510       -28.0960
  33   2.0000      -1.022189       -27.8152
  34   2.0000      -1.001749       -27.2590
  35   2.0000      -0.988360       -26.8946
  36   2.0000      -0.927775       -25.2461
  37   2.0000      -0.887692       -24.1553
  38   2.0000      -0.851602       -23.1733
  39   2.0000      -0.844943       -22.9921
  40   2.0000      -0.840972       -22.8840
  41   2.0000      -0.832269       -22.6472
  42   2.0000      -0.753709       -20.5095
  43   2.0000      -0.736690       -20.0464
  44   2.0000      -0.719247       -19.5717
  45   2.0000      -0.701763       -19.0959
  46   2.0000      -0.692546       -18.8451
  47   2.0000      -0.682074       -18.5602
  48   2.0000      -0.672169       -18.2907
  49   2.0000      -0.667725       -18.1697
  50   2.0000      -0.653080       -17.7712
  51   2.0000      -0.649007       -17.6604
  52   2.0000      -0.637586       -17.3496
  53   2.0000      -0.613180       -16.6855
  54   2.0000      -0.611158       -16.6304
  55   2.0000      -0.604388       -16.4462
  56   2.0000      -0.602403       -16.3922
  57   2.0000      -0.582522       -15.8512
  58   2.0000      -0.576842       -15.6967
  59   2.0000      -0.568274       -15.4635
  60   2.0000      -0.556170       -15.1342
  61   2.0000      -0.551531       -15.0079
  62   2.0000      -0.542154       -14.7528
  63   2.0000      -0.530329       -14.4310
  64   2.0000      -0.524779       -14.2800
  65   2.0000      -0.518423       -14.1070
  66   2.0000      -0.506263       -13.7761
  67   2.0000      -0.499828       -13.6010
  68   2.0000      -0.479416       -13.0456
  69   2.0000      -0.468880       -12.7589
  70   2.0000      -0.453870       -12.3504
  71   2.0000      -0.447228       -12.1697
  72   2.0000      -0.359026        -9.7696
  73   2.0000      -0.353817        -9.6279
  74   2.0000      -0.331496        -9.0205
  75   2.0000      -0.328621        -8.9422
  76   2.0000      -0.319657        -8.6983
  77   0.0000       0.074043         2.0148
  78   0.0000       0.099498         2.7075
  79   0.0000       0.119236         3.2446
  80   0.0000       0.127013         3.4562
  81   0.0000       0.130393         3.5482

MULLIKEN ATOMIC CHARGES
-----------------------
   0 C :   -0.272276
   1 C :    0.025520
   2 O :   -0.356524
   3 C :    0.415617
   4 O :   -0.371463
   5 C :   -0.227070
   6 C :    0.153651
   7 C :   -0.277657
   8 N :   -0.124676
   9 C :    0.196203
  10 S :   -0.433103
  11 N :   -0.192924
  12 C :    0.036177
  13 C :    0.026084
  14 C :   -0.156566
  15 C :   -0.145842
  16 C :   -0.271045
  17 C :    0.302765
  18 O :   -0.354278
  19 C :   -0.253391
  20 H :    0.083596
  21 H :    0.096850
  22 H :    0.110623
  23 H :    0.104226
  24 H :    0.119958
  25 H :    0.121013
  26 H :    0.142165
  27 H :    0.095977
  28 H :    0.198021
  29 H :    0.191803
  30 H :    0.152411
  31 H :    0.148019
  32 H :    0.165016
  33 H :    0.134896
  34 H :    0.241434
  35 H :    0.174791
Sum of atomic charges:   -0.0000000

LOEWDIN ATOMIC CHARGES
----------------------
   0 C :    0.106879
   1 C :   -0.020309
   2 O :    0.289870
   3 C :   -0.423518
   4 O :    0.133100
   5 C :   -0.095509
   6 C :   -0.071282
   7 C :    0.130131
   8 N :    0.405559
   9 C :   -0.458450
  10 S :   -0.031778
  11 N :    0.396539
  12 C :   -0.051569
  13 C :   -0.043411
  14 C :    0.018213
  15 C :    0.043209
  16 C :   -0.000189
  17 C :   -0.191882
  18 O :    0.397144
  19 C :    0.030375
  20 H :   -0.032661
  21 H :   -0.026728
  22 H :   -0.022255
  23 H :   -0.039378
  24 H :   -0.021397
  25 H :   -0.010913
  26 H :   -0.002720
  27 H :   -0.021767
  28 H :   -0.057521
  29 H :   -0.064477
  30 H :   -0.006875
  31 H :   -0.028009
  32 H :   -0.019159
  33 H :   -0.033971
  34 H :   -0.152506
  35 H :   -0.022785

  Mayer bond orders larger than 0.100000
B(  0-C ,  1-C ) :   0.9815 B(  0-C , 20-H ) :   0.9754 B(  0-C , 21-H ) :   0.9769
B(  0-C , 22-H ) :   0.9786 B(  1-C ,  2-O ) :   0.8801 B(  1-C , 23-H ) :   0.9582
B(  1-C , 24-H ) :   0.9793 B(  2-O ,  3-C ) :   1.1449 B(  3-C ,  4-O ) :   2.0934
B(  3-C ,  5-C ) :   0.9613 B(  5-C ,  6-C ) :   1.6872 B(  5-C , 12-C ) :   0.9608
B(  6-C ,  7-C ) :   0.9605 B(  6-C ,  8-N ) :   1.1344 B(  7-C , 25-H ) :   0.9723
B(  7-C , 26-H ) :   0.9562 B(  7-C , 27-H ) :   0.9852 B(  8-N ,  9-C ) :   1.1841
B(  8-N , 28-H ) :   0.9497 B(  9-C , 10-S ) :   1.6207 B(  9-C , 11-N ) :   1.2893
B( 11-N , 12-C ) :   0.9963 B( 11-N , 29-H ) :   0.9524 B( 12-C , 13-C ) :   0.9446
B( 12-C , 30-H ) :   1.0096 B( 13-C , 14-C ) :   1.3706 B( 13-C , 19-C ) :   1.3574
B( 14-C , 15-C ) :   1.3902 B( 14-C , 31-H ) :   0.9728 B( 15-C , 16-C ) :   1.3660
B( 15-C , 32-H ) :   0.9698 B( 16-C , 17-C ) :   1.3276 B( 16-C , 33-H ) :   0.9830
B( 17-C , 18-O ) :   1.1158 B( 17-C , 19-C ) :   1.3748 B( 18-O , 34-H ) :   0.9790
B( 19-C , 35-H ) :   0.9569

MP2 TOTAL ENERGY:    -1274.325707590 Eh
FINAL SINGLE POINT ENERGY     -1274.325707589906

DIPOLE MOMENT
-------------
                                X             Y             Z
Electronic contribution:     10.85228       7.44655       7.28677
Nuclear contribution   :    -12.10964      -9.03376      -6.95486
                        -----------------------------------------
Total Dipole Moment    :     -1.25737      -1.58721       0.33191
                        -----------------------------------------
Magnitude (a.u.)       :      2.05192
Magnitude (Debye)      :      5.21557

Rotational constants in cm-1:     0.011316     0.009845     0.006440
Rotational constants in MHz :   339.251415   295.149576   193.063247

                             ****ORCA TERMINATED NORMALLY****
TOTAL RUN TIME: 0 days 1 hours 54 minutes 31 seconds 439 msec
