                         Program Version 4.2.0 -  RELEASE  -
|  1> ! ri-mp2 cc-pvtz cc-pvtz/c TightSCF  NoKeepInts
|  2>
|  3> %scf
|  4>   MaxCore 4096
|  5> end
|  6> *xyz  0  1
|  7>     C       15.9235832   14.3014176   14.3687421
|  8>     C       15.0912171   14.8505177   15.5463711
|  9>     O       15.8278963   15.8869156   16.2246016
| 10>     C       16.9145631   15.5842146   16.9964601
| 11>     O       17.2944467   14.4382198   17.1749574
| 12>     C       17.5283535   16.7549385   17.7130574
| 13>     C       17.2679291   18.0637637   17.4512717
| 14>     C       16.3322154   18.6452737   16.4108863
| 15>     N       17.9596294   19.0613069   18.1471924
| 16>     C       19.0181917   18.8415018   18.9882045
| 17>     S       19.8699547   20.0885619   19.6627717
| 18>     N       19.3344330   17.5312270   19.2406582
| 19>     C       18.5265530   16.3738745   18.8132881
| 20>     C       17.8148352   15.7486143   20.0105285
| 21>     C       17.9686923   14.3790104   20.2946551
| 22>     C       17.3155480   13.7971541   21.3940997
| 23>     C       16.5003963   14.5910607   22.2185888
| 24>     C       16.3412956   15.9547365   21.9373126
| 25>     O       15.5501171   16.7228532   22.7281881
| 26>     C       16.9923481   16.5309297   20.8420296
| 27>     H       16.2377162   15.1148501   13.7033278
| 28>     H       15.3292304   13.5906860   13.7819722
| 29>     H       16.8194344   13.7756049   14.7209531
| 30>     H       14.1549792   15.2701917   15.1567437
| 31>     H       14.8366936   14.0394440   16.2424668
| 32>     H       15.2894184   18.4006697   16.6487915
| 33>     H       16.5570789   18.2413239   15.4159612
| 34>     H       16.4036055   19.7372479   16.3383878
| 35>     H       17.7420972   20.0298527   17.9756129
| 36>     H       20.0981445   17.3944378   19.8902038
| 37>     H       19.2161914   15.6262078   18.3954427
| 38>     H       18.5846783   13.7589400   19.6478767
| 39>     H       17.4378952   12.7350902   21.5985379
| 40>     H       15.9924896   14.1453463   23.0672455
| 41>     H       15.2172612   16.1570923   23.4407932
| 42>     H       16.8578873   17.5889224   20.6458178
| 43> *
| 44>
| 45>                          ****END OF INPUT****

CARTESIAN COORDINATES (ANGSTROEM)
---------------------------------
  C     15.923583   14.301418   14.368742
  C     15.091217   14.850518   15.546371
  O     15.827896   15.886916   16.224602
  C     16.914563   15.584215   16.996460
  O     17.294447   14.438220   17.174957
  C     17.528353   16.754939   17.713057
  C     17.267929   18.063764   17.451272
  C     16.332215   18.645274   16.410886
  N     17.959629   19.061307   18.147192
  C     19.018192   18.841502   18.988204
  S     19.869955   20.088562   19.662772
  N     19.334433   17.531227   19.240658
  C     18.526553   16.373874   18.813288
  C     17.814835   15.748614   20.010528
  C     17.968692   14.379010   20.294655
  C     17.315548   13.797154   21.394100
  C     16.500396   14.591061   22.218589
  C     16.341296   15.954736   21.937313
  O     15.550117   16.722853   22.728188
  C     16.992348   16.530930   20.842030
  H     16.237716   15.114850   13.703328
  H     15.329230   13.590686   13.781972
  H     16.819434   13.775605   14.720953
  H     14.154979   15.270192   15.156744
  H     14.836694   14.039444   16.242467
  H     15.289418   18.400670   16.648792
  H     16.557079   18.241324   15.415961
  H     16.403606   19.737248   16.338388
  H     17.742097   20.029853   17.975613
  H     20.098145   17.394438   19.890204
  H     19.216191   15.626208   18.395443
  H     18.584678   13.758940   19.647877
  H     17.437895   12.735090   21.598538
  H     15.992490   14.145346   23.067245
  H     15.217261   16.157092   23.440793
  H     16.857887   17.588922   20.645818

 Total Charge           Charge          ....    0
 Multiplicity           Mult            ....    1
 Number of Electrons    NEL             ....  154
 Basis Dimension        Dim             ....  828

ORBITAL ENERGIES
----------------

  NO   OCC          E(Eh)            E(eV)
   0   2.0000     -91.887990     -2500.3993
   1   2.0000     -20.604499      -560.6769
   2   2.0000     -20.590481      -560.2955
   3   2.0000     -20.545142      -559.0617
   4   2.0000     -15.628465      -425.2722
   5   2.0000     -15.606449      -424.6731
   6   2.0000     -11.397106      -310.1310
   7   2.0000     -11.382734      -309.7399
   8   2.0000     -11.336958      -308.4943
   9   2.0000     -11.306268      -307.6592
  10   2.0000     -11.304971      -307.6239
  11   2.0000     -11.302092      -307.5456
  12   2.0000     -11.260835      -306.4229
  13   2.0000     -11.258793      -306.3673
  14   2.0000     -11.252341      -306.1918
  15   2.0000     -11.246415      -306.0305
  16   2.0000     -11.236067      -305.7489
  17   2.0000     -11.232253      -305.6452
  18   2.0000     -11.229194      -305.5619
  19   2.0000     -11.226811      -305.4971
  20   2.0000      -8.893049      -241.9922
  21   2.0000      -6.574626      -178.9047
  22   2.0000      -6.572620      -178.8501
  23   2.0000      -6.572034      -178.8341
  24   2.0000      -1.453458       -39.5506
  25   2.0000      -1.410212       -38.3738
  26   2.0000      -1.357403       -36.9368
  27   2.0000      -1.339365       -36.4460
  28   2.0000      -1.236814       -33.6554
  29   2.0000      -1.151090       -31.3228
  30   2.0000      -1.119025       -30.4502
  31   2.0000      -1.041680       -28.3456
  32   2.0000      -1.034549       -28.1515
  33   2.0000      -1.008381       -27.4394
  34   2.0000      -0.996871       -27.1262
  35   2.0000      -0.982501       -26.7352
  36   2.0000      -0.920888       -25.0586
  37   2.0000      -0.894998       -24.3541
  38   2.0000      -0.847615       -23.0648
  39   2.0000      -0.834707       -22.7135
  40   2.0000      -0.826704       -22.4958
  41   2.0000      -0.816470       -22.2173
  42   2.0000      -0.752936       -20.4884
  43   2.0000      -0.734337       -19.9823
  44   2.0000      -0.724067       -19.7029
  45   2.0000      -0.690007       -18.7760
  46   2.0000      -0.684692       -18.6314
  47   2.0000      -0.679335       -18.4857
  48   2.0000      -0.671029       -18.2596
  49   2.0000      -0.659823       -17.9547
  50   2.0000      -0.646703       -17.5977
  51   2.0000      -0.641749       -17.4629
  52   2.0000      -0.630690       -17.1619
  53   2.0000      -0.613184       -16.6856
  54   2.0000      -0.599616       -16.3164
  55   2.0000      -0.598409       -16.2835
  56   2.0000      -0.593695       -16.1553
  57   2.0000      -0.584834       -15.9142
  58   2.0000      -0.572068       -15.5668
  59   2.0000      -0.565209       -15.3801
  60   2.0000      -0.560155       -15.2426
  61   2.0000      -0.545469       -14.8430
  62   2.0000      -0.535220       -14.5641
  63   2.0000      -0.527395       -14.3511
  64   2.0000      -0.516132       -14.0447
  65   2.0000      -0.510362       -13.8876
  66   2.0000      -0.499504       -13.5922
  67   2.0000      -0.494785       -13.4638
  68   2.0000      -0.480081       -13.0637
  69   2.0000      -0.463687       -12.6176
  70   2.0000      -0.456420       -12.4198
  71   2.0000      -0.453797       -12.3485
  72   2.0000      -0.354234        -9.6392
  73   2.0000      -0.342992        -9.3333
  74   2.0000      -0.327055        -8.8996
  75   2.0000      -0.315290        -8.5795
  76   2.0000      -0.312658        -8.5079
  77   0.0000       0.076169         2.0727
  78   0.0000       0.114818         3.1244
  79   0.0000       0.121000         3.2926
  80   0.0000       0.136846         3.7238
  81   0.0000       0.140969         3.8360

MULLIKEN ATOMIC CHARGES
-----------------------
   0 C :   -0.300505
   1 C :    0.034905
   2 O :   -0.344990
   3 C :    0.453099
   4 O :   -0.440025
   5 C :   -0.175070
   6 C :    0.148322
   7 C :   -0.284944
   8 N :   -0.119987
   9 C :    0.200762
  10 S :   -0.439068
  11 N :   -0.195792
  12 C :    0.031752
  13 C :    0.058871
  14 C :   -0.159865
  15 C :   -0.133878
  16 C :   -0.278587
  17 C :    0.311680
  18 O :   -0.359237
  19 C :   -0.271697
  20 H :    0.090159
  21 H :    0.097094
  22 H :    0.122540
  23 H :    0.108174
  24 H :    0.104316
  25 H :    0.129672
  26 H :    0.124986
  27 H :    0.101679
  28 H :    0.196619
  29 H :    0.193305
  30 H :    0.153040
  31 H :    0.152560
  32 H :    0.158504
  33 H :    0.127587
  34 H :    0.239899
  35 H :    0.164122
Sum of atomic charges:   -0.0000000

LOEWDIN ATOMIC CHARGES
----------------------
   0 C :    0.104650
   1 C :   -0.015580
   2 O :    0.304672
   3 C :   -0.413040
   4 O :    0.102514
   5 C :   -0.090329
   6 C :   -0.064132
   7 C :    0.124798
   8 N :    0.404977
   9 C :   -0.459218
  10 S :   -0.035807
  11 N :    0.398013
  12 C :   -0.046649
  13 C :   -0.038645
  14 C :    0.022188
  15 C :    0.040891
  16 C :   -0.002188
  17 C :   -0.192352
  18 O :    0.392979
  19 C :    0.028634
  20 H :   -0.031329
  21 H :   -0.026596
  22 H :   -0.024936
  23 H :   -0.025275
  24 H :   -0.026626
  25 H :   -0.009010
  26 H :   -0.009412
  27 H :   -0.021301
  28 H :   -0.059245
  29 H :   -0.063580
  30 H :   -0.005327
  31 H :   -0.025542
  32 H :   -0.021389
  33 H :   -0.036502
  34 H :   -0.155029
  35 H :   -0.025278

  Mayer bond orders larger than 0.100000
B(  0-C ,  1-C ) :   0.9635 B(  0-C , 20-H ) :   0.9771 B(  0-C , 21-H ) :   0.9767
B(  0-C , 22-H ) :   0.9727 B(  1-C ,  2-O ) :   0.9009 B(  1-C , 23-H ) :   0.9848
B(  1-C , 24-H ) :   0.9776 B(  2-O ,  3-C ) :   1.1629 B(  3-C ,  4-O ) :   1.9467
B(  3-C ,  5-C ) :   1.0770 B(  5-C ,  6-C ) :   1.6414 B(  5-C , 12-C ) :   0.9679
B(  6-C ,  7-C ) :   0.9555 B(  6-C ,  8-N ) :   1.1545 B(  7-C , 25-H ) :   0.9635
B(  7-C , 26-H ) :   0.9652 B(  7-C , 27-H ) :   0.9916 B(  8-N ,  9-C ) :   1.1765
B(  8-N , 28-H ) :   0.9487 B(  9-C , 10-S ) :   1.6110 B(  9-C , 11-N ) :   1.3050
B( 11-N , 12-C ) :   0.9938 B( 11-N , 29-H ) :   0.9520 B( 12-C , 13-C ) :   0.9471
B( 12-C , 30-H ) :   1.0006 B( 13-C , 14-C ) :   1.3743 B( 13-C , 19-C ) :   1.3700
B( 14-C , 15-C ) :   1.3947 B( 14-C , 31-H ) :   0.9655 B( 15-C , 16-C ) :   1.3626
B( 15-C , 32-H ) :   0.9716 B( 16-C , 17-C ) :   1.3316 B( 16-C , 33-H ) :   0.9861
B( 17-C , 18-O ) :   1.1078 B( 17-C , 19-C ) :   1.3796 B( 18-O , 34-H ) :   0.9807
B( 19-C , 35-H ) :   0.9583

MP2 TOTAL ENERGY:    -1274.348725463 Eh
FINAL SINGLE POINT ENERGY     -1274.348725463316

DIPOLE MOMENT
-------------
                                X             Y             Z
Electronic contribution:      9.20006       8.91381      12.49946
Nuclear contribution   :    -10.86982      -9.98145     -13.46721
                        -----------------------------------------
Total Dipole Moment    :     -1.66976      -1.06765      -0.96775
                        -----------------------------------------
Magnitude (a.u.)       :      2.20557
Magnitude (Debye)      :      5.60611

Rotational constants in cm-1:     0.010582     0.008719     0.005717
Rotational constants in MHz :   317.242750   261.377511   171.404955

                             ****ORCA TERMINATED NORMALLY****
TOTAL RUN TIME: 0 days 1 hours 39 minutes 19 seconds 748 msec
