                         Program Version 4.2.0 -  RELEASE  -
|  1> ! ri-mp2 cc-pvtz cc-pvtz/c TightSCF  NoKeepInts
|  2>
|  3> %scf
|  4>   MaxCore 4096
|  5> end
|  6> *xyz  0  1
|  7>     C       15.0186447   15.5375875   17.5694733
|  8>     C       15.6531758   15.2297296   16.1989190
|  9>     O       17.0308227   14.8286428   16.3387609
| 10>     C       18.1256327   15.6484722   16.4697899
| 11>     O       19.2262076   15.1345987   16.3929840
| 12>     C       17.9491389   16.8294279   17.3651019
| 13>     C       17.4075938   17.9911561   16.9320135
| 14>     C       16.9025569   18.3001497   15.5396700
| 15>     N       17.3614181   19.0979092   17.7824937
| 16>     C       17.9658823   19.1617211   19.0107596
| 17>     S       17.9337895   20.5403523   19.9231563
| 18>     N       18.6023170   18.0248085   19.4443298
| 19>     C       18.5735710   16.7163760   18.7592662
| 20>     C       17.8851622   15.6474609   19.6065491
| 21>     C       18.3334189   14.3147364   19.5479375
| 22>     C       17.7110469   13.3126191   20.3103456
| 23>     C       16.6294491   13.6436143   21.1434556
| 24>     C       16.1780717   14.9684566   21.2062987
| 25>     O       15.1264811   15.2895516   22.0010676
| 26>     C       16.7986788   15.9644324   20.4453986
| 27>     H       15.2488054   14.7383432   18.2853569
| 28>     H       13.9276746   15.5986272   17.4761635
| 29>     H       15.3652381   16.4887584   17.9846670
| 30>     H       15.1041845   14.3837761   15.7650354
| 31>     H       15.5389582   16.0695356   15.5071007
| 32>     H       17.2088571   17.5419812   14.8086757
| 33>     H       17.3070382   19.2558396   15.1817564
| 34>     H       15.8083124   18.3740921   15.5235686
| 35>     H       16.9168085   19.9486923   17.4752706
| 36>     H       19.0301056   18.0967806   20.3588826
| 37>     H       19.6181901   16.3994924   18.6220855
| 38>     H       19.1632615   14.0518203   18.8949444
| 39>     H       18.0660986   12.2853272   20.2487234
| 40>     H       16.1445430   12.8719415   21.7320710
| 41>     H       14.8638409   14.4853650   22.4737666
| 42>     H       16.4220236   16.9798245   20.5081608
| 43> *
| 44>
| 45>                          ****END OF INPUT****

CARTESIAN COORDINATES (ANGSTROEM)
---------------------------------
  C     15.018645   15.537587   17.569473
  C     15.653176   15.229730   16.198919
  O     17.030823   14.828643   16.338761
  C     18.125633   15.648472   16.469790
  O     19.226208   15.134599   16.392984
  C     17.949139   16.829428   17.365102
  C     17.407594   17.991156   16.932014
  C     16.902557   18.300150   15.539670
  N     17.361418   19.097909   17.782494
  C     17.965882   19.161721   19.010760
  S     17.933789   20.540352   19.923156
  N     18.602317   18.024808   19.444330
  C     18.573571   16.716376   18.759266
  C     17.885162   15.647461   19.606549
  C     18.333419   14.314736   19.547937
  C     17.711047   13.312619   20.310346
  C     16.629449   13.643614   21.143456
  C     16.178072   14.968457   21.206299
  O     15.126481   15.289552   22.001068
  C     16.798679   15.964432   20.445399
  H     15.248805   14.738343   18.285357
  H     13.927675   15.598627   17.476163
  H     15.365238   16.488758   17.984667
  H     15.104184   14.383776   15.765035
  H     15.538958   16.069536   15.507101
  H     17.208857   17.541981   14.808676
  H     17.307038   19.255840   15.181756
  H     15.808312   18.374092   15.523569
  H     16.916808   19.948692   17.475271
  H     19.030106   18.096781   20.358883
  H     19.618190   16.399492   18.622086
  H     19.163262   14.051820   18.894944
  H     18.066099   12.285327   20.248723
  H     16.144543   12.871942   21.732071
  H     14.863841   14.485365   22.473767
  H     16.422024   16.979824   20.508161

 Total Charge           Charge          ....    0
 Multiplicity           Mult            ....    1
 Number of Electrons    NEL             ....  154
 Basis Dimension        Dim             ....  828

ORBITAL ENERGIES
----------------

  NO   OCC          E(Eh)            E(eV)
   0   2.0000     -91.889204     -2500.4324
   1   2.0000     -20.600328      -560.5634
   2   2.0000     -20.596738      -560.4657
   3   2.0000     -20.554426      -559.3144
   4   2.0000     -15.625650      -425.1956
   5   2.0000     -15.610951      -424.7956
   6   2.0000     -11.399425      -310.1941
   7   2.0000     -11.385889      -309.8258
   8   2.0000     -11.326452      -308.2084
   9   2.0000     -11.315483      -307.9099
  10   2.0000     -11.313070      -307.8443
  11   2.0000     -11.307955      -307.7051
  12   2.0000     -11.272262      -306.7338
  13   2.0000     -11.266674      -306.5818
  14   2.0000     -11.261227      -306.4336
  15   2.0000     -11.253709      -306.2290
  16   2.0000     -11.242994      -305.9374
  17   2.0000     -11.238547      -305.8164
  18   2.0000     -11.235698      -305.7389
  19   2.0000     -11.228513      -305.5434
  20   2.0000      -8.894324      -242.0269
  21   2.0000      -6.575919      -178.9399
  22   2.0000      -6.573886      -178.8845
  23   2.0000      -6.573316      -178.8690
  24   2.0000      -1.450474       -39.4694
  25   2.0000      -1.416575       -38.5470
  26   2.0000      -1.360218       -37.0134
  27   2.0000      -1.339590       -36.4521
  28   2.0000      -1.239324       -33.7237
  29   2.0000      -1.158197       -31.5161
  30   2.0000      -1.124736       -30.6056
  31   2.0000      -1.047596       -28.5065
  32   2.0000      -1.038752       -28.2659
  33   2.0000      -1.016400       -27.6576
  34   2.0000      -1.005050       -27.3488
  35   2.0000      -0.989333       -26.9211
  36   2.0000      -0.927319       -25.2336
  37   2.0000      -0.894504       -24.3407
  38   2.0000      -0.854051       -23.2399
  39   2.0000      -0.839864       -22.8539
  40   2.0000      -0.833611       -22.6837
  41   2.0000      -0.830483       -22.5986
  42   2.0000      -0.752530       -20.4774
  43   2.0000      -0.739079       -20.1114
  44   2.0000      -0.730028       -19.8651
  45   2.0000      -0.694679       -18.9032
  46   2.0000      -0.687483       -18.7074
  47   2.0000      -0.680874       -18.5275
  48   2.0000      -0.675426       -18.3793
  49   2.0000      -0.664416       -18.0797
  50   2.0000      -0.651860       -17.7380
  51   2.0000      -0.643129       -17.5004
  52   2.0000      -0.639992       -17.4151
  53   2.0000      -0.615110       -16.7380
  54   2.0000      -0.610556       -16.6141
  55   2.0000      -0.605424       -16.4744
  56   2.0000      -0.601420       -16.3655
  57   2.0000      -0.590701       -16.0738
  58   2.0000      -0.581751       -15.8303
  59   2.0000      -0.573500       -15.6057
  60   2.0000      -0.564973       -15.3737
  61   2.0000      -0.557764       -15.1775
  62   2.0000      -0.540763       -14.7149
  63   2.0000      -0.528343       -14.3770
  64   2.0000      -0.516757       -14.0617
  65   2.0000      -0.512232       -13.9386
  66   2.0000      -0.504445       -13.7266
  67   2.0000      -0.500662       -13.6237
  68   2.0000      -0.484982       -13.1970
  69   2.0000      -0.463196       -12.6042
  70   2.0000      -0.455498       -12.3947
  71   2.0000      -0.452554       -12.3146
  72   2.0000      -0.356264        -9.6944
  73   2.0000      -0.347441        -9.4544
  74   2.0000      -0.328943        -8.9510
  75   2.0000      -0.321747        -8.7552
  76   2.0000      -0.317547        -8.6409
  77   0.0000       0.088452         2.4069
  78   0.0000       0.103290         2.8107
  79   0.0000       0.111961         3.0466
  80   0.0000       0.129000         3.5103
  81   0.0000       0.131130         3.5682

MULLIKEN ATOMIC CHARGES
-----------------------
   0 C :   -0.310847
   1 C :    0.002913
   2 O :   -0.315546
   3 C :    0.396530
   4 O :   -0.372900
   5 C :   -0.171116
   6 C :    0.128731
   7 C :   -0.333426
   8 N :   -0.135712
   9 C :    0.207565
  10 S :   -0.442728
  11 N :   -0.229341
  12 C :    0.084518
  13 C :    0.036538
  14 C :   -0.205497
  15 C :   -0.134496
  16 C :   -0.278611
  17 C :    0.316625
  18 O :   -0.359212
  19 C :   -0.279353
  20 H :    0.123968
  21 H :    0.112105
  22 H :    0.103933
  23 H :    0.131614
  24 H :    0.090281
  25 H :    0.120902
  26 H :    0.137592
  27 H :    0.123215
  28 H :    0.195563
  29 H :    0.202824
  30 H :    0.169480
  31 H :    0.169671
  32 H :    0.163082
  33 H :    0.131736
  34 H :    0.240974
  35 H :    0.178425
Sum of atomic charges:    0.0000000

LOEWDIN ATOMIC CHARGES
----------------------
   0 C :    0.104099
   1 C :   -0.023264
   2 O :    0.310193
   3 C :   -0.418182
   4 O :    0.132611
   5 C :   -0.075925
   6 C :   -0.108272
   7 C :    0.121299
   8 N :    0.400862
   9 C :   -0.457023
  10 S :   -0.039415
  11 N :    0.398690
  12 C :   -0.041355
  13 C :   -0.040885
  14 C :    0.023159
  15 C :    0.043843
  16 C :   -0.002371
  17 C :   -0.194321
  18 O :    0.395226
  19 C :    0.028916
  20 H :   -0.018581
  21 H :   -0.026234
  22 H :   -0.036751
  23 H :   -0.019025
  24 H :   -0.040231
  25 H :   -0.011035
  26 H :   -0.009250
  27 H :   -0.017470
  28 H :   -0.058760
  29 H :   -0.063513
  30 H :   -0.001388
  31 H :   -0.022006
  32 H :   -0.018811
  33 H :   -0.035218
  34 H :   -0.153745
  35 H :   -0.025865

  Mayer bond orders larger than 0.100000
B(  0-C ,  1-C ) :   0.9570 B(  0-C , 20-H ) :   0.9703 B(  0-C , 21-H ) :   0.9766
B(  0-C , 22-H ) :   0.9722 B(  1-C ,  2-O ) :   0.9140 B(  1-C , 23-H ) :   0.9846
B(  1-C , 24-H ) :   0.9768 B(  2-O ,  3-C ) :   1.1339 B(  3-C ,  4-O ) :   2.0854
B(  3-C ,  5-C ) :   0.9181 B(  5-C ,  6-C ) :   1.7093 B(  5-C , 12-C ) :   0.9528
B(  6-C ,  7-C ) :   0.9412 B(  6-C ,  8-N ) :   1.1003 B(  7-C , 25-H ) :   0.9825
B(  7-C , 26-H ) :   0.9723 B(  7-C , 27-H ) :   0.9660 B(  8-N ,  9-C ) :   1.1989
B(  8-N , 28-H ) :   0.9535 B(  9-C , 10-S ) :   1.6063 B(  9-C , 11-N ) :   1.2860
B( 11-N , 12-C ) :   0.9851 B( 11-N , 29-H ) :   0.9471 B( 12-C , 13-C ) :   0.9520
B( 12-C , 30-H ) :   0.9956 B( 13-C , 14-C ) :   1.3864 B( 13-C , 19-C ) :   1.3358
B( 14-C , 15-C ) :   1.4034 B( 14-C , 31-H ) :   0.9610 B( 15-C , 16-C ) :   1.3565
B( 15-C , 32-H ) :   0.9703 B( 16-C , 17-C ) :   1.3321 B( 16-C , 33-H ) :   0.9851
B( 17-C , 18-O ) :   1.1084 B( 17-C , 19-C ) :   1.3690 B( 18-O , 34-H ) :   0.9797
B( 19-C , 35-H ) :   0.9569

MP2 TOTAL ENERGY:    -1274.320628333 Eh
FINAL SINGLE POINT ENERGY     -1274.320628333433

DIPOLE MOMENT
-------------
                                X             Y             Z
Electronic contribution:      9.25781       6.09357       6.32712
Nuclear contribution   :    -10.76948      -7.21573      -7.18077
                        -----------------------------------------
Total Dipole Moment    :     -1.51167      -1.12216      -0.85366
                        -----------------------------------------
Magnitude (a.u.)       :      2.06715
Magnitude (Debye)      :      5.25429

Rotational constants in cm-1:     0.012099     0.009537     0.006875
Rotational constants in MHz :   362.712302   285.924048   206.103921

                             ****ORCA TERMINATED NORMALLY****
TOTAL RUN TIME: 0 days 1 hours 54 minutes 45 seconds 968 msec
