                         Program Version 5.0.0 -  RELEASE  -
|  1> ! ri-mp2 cc-pvtz cc-pvtz/c TightSCF NoKeepInts
|  2>
|  3> %scf
|  4>   MaxCore 4096
|  5> end
|  6> *xyz  0  1
|  7>     C       14.6813396   16.1766508   16.9515802
|  8>     C       15.6231191   14.9591519   17.0037210
|  9>     O       16.7625194   15.0738365   16.1199008
| 10>     C       17.9329629   15.7406621   16.3931547
| 11>     O       18.9936818   15.1972844   16.1471147
| 12>     C       17.8757236   16.8607599   17.3750775
| 13>     C       17.3439937   18.0605522   17.0485789
| 14>     C       16.7340666   18.4538037   15.7200082
| 15>     N       17.4189182   19.1247001   17.9493918
| 16>     C       18.1098998   19.0959525   19.1327773
| 17>     S       18.1943385   20.4182277   20.1219545
| 18>     N       18.7303819   17.9141736   19.4569397
| 19>     C       18.6316606   16.6566700   18.6885261
| 20>     C       18.0033847   15.5414316   19.5169297
| 21>     C       18.4991128   14.2286228   19.4156840
| 22>     C       17.9137572   13.1834101   20.1491433
| 23>     C       16.8207907   13.4513943   20.9906215
| 24>     C       16.3199815   14.7562781   21.0907121
| 25>     O       15.2554320   15.0156985   21.8903559
| 26>     C       16.9028347   15.7949662   20.3576346
| 27>     H       15.0303941   16.9871562   17.5985895
| 28>     H       13.6872253   15.8889815   17.3154072
| 29>     H       14.5654557   16.5429039   15.9246596
| 30>     H       15.9378688   14.7546661   18.0331242
| 31>     H       15.0448797   14.0860624   16.6745503
| 32>     H       16.6324557   17.6034453   15.0351402
| 33>     H       17.3621147   19.1980005   15.2139050
| 34>     H       15.7361389   18.8889702   15.8537984
| 35>     H       16.9929536   20.0083136   17.7173026
| 36>     H       19.2211548   17.9191247   20.3422893
| 37>     H       19.6554240   16.3456231   18.4320424
| 38>     H       19.3351324   14.0156004   18.7520919
| 39>     H       18.3059180   12.1715048   20.0596391
| 40>     H       16.3651187   12.6461159   21.5576130
| 41>     H       15.0353633   14.1959808   22.3586161
| 42>     H       16.4915029   16.7953234   20.4454247
| 43> *
| 44>
| 45>                          ****END OF INPUT****

CARTESIAN COORDINATES (ANGSTROEM)
---------------------------------
  C     14.681340   16.176651   16.951580
  C     15.623119   14.959152   17.003721
  O     16.762519   15.073836   16.119901
  C     17.932963   15.740662   16.393155
  O     18.993682   15.197284   16.147115
  C     17.875724   16.860760   17.375077
  C     17.343994   18.060552   17.048579
  C     16.734067   18.453804   15.720008
  N     17.418918   19.124700   17.949392
  C     18.109900   19.095952   19.132777
  S     18.194339   20.418228   20.121955
  N     18.730382   17.914174   19.456940
  C     18.631661   16.656670   18.688526
  C     18.003385   15.541432   19.516930
  C     18.499113   14.228623   19.415684
  C     17.913757   13.183410   20.149143
  C     16.820791   13.451394   20.990621
  C     16.319982   14.756278   21.090712
  O     15.255432   15.015698   21.890356
  C     16.902835   15.794966   20.357635
  H     15.030394   16.987156   17.598589
  H     13.687225   15.888981   17.315407
  H     14.565456   16.542904   15.924660
  H     15.937869   14.754666   18.033124
  H     15.044880   14.086062   16.674550
  H     16.632456   17.603445   15.035140
  H     17.362115   19.198000   15.213905
  H     15.736139   18.888970   15.853798
  H     16.992954   20.008314   17.717303
  H     19.221155   17.919125   20.342289
  H     19.655424   16.345623   18.432042
  H     19.335132   14.015600   18.752092
  H     18.305918   12.171505   20.059639
  H     16.365119   12.646116   21.557613
  H     15.035363   14.195981   22.358616
  H     16.491503   16.795323   20.445425

 Total Charge           Charge          ....    0
 Multiplicity           Mult            ....    1
 Number of Electrons    NEL             ....  154
 Basis Dimension        Dim             ....  828

ORBITAL ENERGIES
----------------

  NO   OCC          E(Eh)            E(eV)
   0   2.0000     -91.890420     -2500.4655
   1   2.0000     -20.602392      -560.6196
   2   2.0000     -20.591911      -560.3344
   3   2.0000     -20.552262      -559.2555
   4   2.0000     -15.626919      -425.2301
   5   2.0000     -15.612270      -424.8315
   6   2.0000     -11.397437      -310.1400
   7   2.0000     -11.387194      -309.8613
   8   2.0000     -11.328603      -308.2670
   9   2.0000     -11.320127      -308.0363
  10   2.0000     -11.316126      -307.9274
  11   2.0000     -11.302441      -307.5551
  12   2.0000     -11.266497      -306.5770
  13   2.0000     -11.265804      -306.5581
  14   2.0000     -11.263124      -306.4852
  15   2.0000     -11.260524      -306.4144
  16   2.0000     -11.249339      -306.1101
  17   2.0000     -11.244657      -305.9827
  18   2.0000     -11.242201      -305.9158
  19   2.0000     -11.233953      -305.6914
  20   2.0000      -8.895526      -242.0596
  21   2.0000      -6.577113      -178.9723
  22   2.0000      -6.575088      -178.9172
  23   2.0000      -6.574512      -178.9016
  24   2.0000      -1.444382       -39.3036
  25   2.0000      -1.422217       -38.7005
  26   2.0000      -1.355977       -36.8980
  27   2.0000      -1.340544       -36.4781
  28   2.0000      -1.240557       -33.7573
  29   2.0000      -1.164114       -31.6771
  30   2.0000      -1.126207       -30.6456
  31   2.0000      -1.050535       -28.5865
  32   2.0000      -1.037923       -28.2433
  33   2.0000      -1.021761       -27.8035
  34   2.0000      -1.005247       -27.3542
  35   2.0000      -0.990624       -26.9562
  36   2.0000      -0.928850       -25.2753
  37   2.0000      -0.893299       -24.3079
  38   2.0000      -0.852956       -23.2101
  39   2.0000      -0.842895       -22.9363
  40   2.0000      -0.839640       -22.8478
  41   2.0000      -0.833213       -22.6729
  42   2.0000      -0.753344       -20.4995
  43   2.0000      -0.735843       -20.0233
  44   2.0000      -0.730839       -19.8871
  45   2.0000      -0.700018       -19.0485
  46   2.0000      -0.690149       -18.7799
  47   2.0000      -0.679169       -18.4811
  48   2.0000      -0.676208       -18.4006
  49   2.0000      -0.663921       -18.0662
  50   2.0000      -0.655110       -17.8265
  51   2.0000      -0.641420       -17.4539
  52   2.0000      -0.639149       -17.3921
  53   2.0000      -0.615637       -16.7523
  54   2.0000      -0.609214       -16.5776
  55   2.0000      -0.608703       -16.5637
  56   2.0000      -0.605512       -16.4768
  57   2.0000      -0.586556       -15.9610
  58   2.0000      -0.584290       -15.8993
  59   2.0000      -0.578620       -15.7450
  60   2.0000      -0.567008       -15.4291
  61   2.0000      -0.557226       -15.1629
  62   2.0000      -0.539317       -14.6755
  63   2.0000      -0.532683       -14.4950
  64   2.0000      -0.523913       -14.2564
  65   2.0000      -0.515346       -14.0233
  66   2.0000      -0.504052       -13.7160
  67   2.0000      -0.494407       -13.4535
  68   2.0000      -0.491129       -13.3643
  69   2.0000      -0.465082       -12.6555
  70   2.0000      -0.455409       -12.3923
  71   2.0000      -0.449198       -12.2233
  72   2.0000      -0.356819        -9.7095
  73   2.0000      -0.354449        -9.6450
  74   2.0000      -0.330265        -8.9870
  75   2.0000      -0.328147        -8.9293
  76   2.0000      -0.319290        -8.6883
  77   0.0000       0.086913         2.3650
  78   0.0000       0.101220         2.7543
  79   0.0000       0.117248         3.1905
  80   0.0000       0.125107         3.4043
  81   0.0000       0.128217         3.4890

MULLIKEN ATOMIC CHARGES
-----------------------
   0 C :   -0.324109
   1 C :    0.033314
   2 O :   -0.337769
   3 C :    0.398539
   4 O :   -0.373729
   5 C :   -0.165712
   6 C :    0.109314
   7 C :   -0.329602
   8 N :   -0.133176
   9 C :    0.204071
  10 S :   -0.440775
  11 N :   -0.220680
  12 C :    0.080961
  13 C :   -0.000916
  14 C :   -0.199003
  15 C :   -0.135473
  16 C :   -0.272936
  17 C :    0.310510
  18 O :   -0.356536
  19 C :   -0.255636
  20 H :    0.100190
  21 H :    0.122150
  22 H :    0.106072
  23 H :    0.106279
  24 H :    0.125838
  25 H :    0.124286
  26 H :    0.150364
  27 H :    0.119523
  28 H :    0.197223
  29 H :    0.200519
  30 H :    0.165843
  31 H :    0.172318
  32 H :    0.165342
  33 H :    0.134194
  34 H :    0.241852
  35 H :    0.177347
Sum of atomic charges:    0.0000000

LOEWDIN ATOMIC CHARGES
----------------------
   0 C :    0.103303
   1 C :   -0.013981
   2 O :    0.289009
   3 C :   -0.416345
   4 O :    0.129218
   5 C :   -0.082948
   6 C :   -0.099904
   7 C :    0.125387
   8 N :    0.402740
   9 C :   -0.455974
  10 S :   -0.037405
  11 N :    0.397573
  12 C :   -0.044452
  13 C :   -0.045785
  14 C :    0.019676
  15 C :    0.045561
  16 C :   -0.000392
  17 C :   -0.194158
  18 O :    0.396324
  19 C :    0.026341
  20 H :   -0.034710
  21 H :   -0.021577
  22 H :   -0.028130
  23 H :   -0.031232
  24 H :   -0.019420
  25 H :   -0.010080
  26 H :   -0.009007
  27 H :   -0.016473
  28 H :   -0.057194
  29 H :   -0.063922
  30 H :   -0.002587
  31 H :   -0.021372
  32 H :   -0.017648
  33 H :   -0.033981
  34 H :   -0.152504
  35 H :   -0.023950

  Mayer bond orders larger than 0.100000
B(  0-C ,  1-C ) :   0.9550 B(  0-C , 20-H ) :   0.9759 B(  0-C , 21-H ) :   0.9786
B(  0-C , 22-H ) :   0.9737 B(  1-C ,  2-O ) :   0.8992 B(  1-C , 23-H ) :   0.9666
B(  1-C , 24-H ) :   0.9864 B(  2-O ,  3-C ) :   1.1677 B(  3-C ,  4-O ) :   2.1047
B(  3-C ,  5-C ) :   0.9072 B(  5-C ,  6-C ) :   1.7104 B(  5-C , 12-C ) :   0.9490
B(  6-C ,  7-C ) :   0.9516 B(  6-C ,  8-N ) :   1.0993 B(  7-C , 25-H ) :   0.9792
B(  7-C , 26-H ) :   0.9661 B(  7-C , 27-H ) :   0.9671 B(  8-N ,  9-C ) :   1.1978
B(  8-N , 28-H ) :   0.9513 B(  9-C , 10-S ) :   1.6114 B(  9-C , 11-N ) :   1.2857
B( 11-N , 12-C ) :   0.9938 B( 11-N , 29-H ) :   0.9478 B( 12-C , 13-C ) :   0.9455
B( 12-C , 30-H ) :   0.9970 B( 13-C , 14-C ) :   1.3936 B( 13-C , 19-C ) :   1.3442
B( 14-C , 15-C ) :   1.3959 B( 14-C , 31-H ) :   0.9600 B( 15-C , 16-C ) :   1.3621
B( 15-C , 32-H ) :   0.9696 B( 16-C , 17-C ) :   1.3285 B( 16-C , 33-H ) :   0.9840
B( 17-C , 18-O ) :   1.1129 B( 17-C , 19-C ) :   1.3675 B( 18-O , 34-H ) :   0.9787
B( 19-C , 35-H ) :   0.9576

MP2 TOTAL ENERGY:    -1274.326566374 Eh
FINAL SINGLE POINT ENERGY     -1274.326566373810

DIPOLE MOMENT
-------------
                                X             Y             Z
Electronic contribution:     10.04892       5.12923       6.38329
Nuclear contribution   :    -11.49659      -6.36626      -6.59557
                        -----------------------------------------
Total Dipole Moment    :     -1.44768      -1.23703      -0.21228
                        -----------------------------------------
Magnitude (a.u.)       :      1.91600
Magnitude (Debye)      :      4.87009

Rotational constants in cm-1:     0.012103     0.009324     0.006944
Rotational constants in MHz :   362.829416   279.532313   208.174409

                             ****ORCA TERMINATED NORMALLY****
TOTAL RUN TIME: 0 days 1 hours 42 minutes 44 seconds 735 msec
