                         Program Version 5.0.0 -  RELEASE  -
|  1> ! ri-mp2 cc-pvtz cc-pvtz/c TightSCF NoKeepInts
|  2>
|  3> %scf
|  4>   MaxCore 4096
|  5> end
|  6> *xyz  0  1
|  7>     C       14.4958426   14.6376786   15.9545880
|  8>     C       15.7389909   14.8003156   16.8444220
|  9>     O       16.7613310   15.4218160   16.0497992
| 10>     C       17.9814495   15.5607541   16.6371694
| 11>     O       18.6310202   14.5735396   16.9353746
| 12>     C       18.0727283   16.8225629   17.4401352
| 13>     C       17.5459649   18.0053356   17.0371645
| 14>     C       16.8260352   18.2910663   15.7359909
| 15>     N       17.7103472   19.1452337   17.8296191
| 16>     C       18.4946647   19.2093442   18.9517980
| 17>     S       18.7264044   20.6265906   19.7718714
| 18>     N       19.0764162   18.0354156   19.3619746
| 19>     C       18.8026399   16.7070060   18.7806303
| 20>     C       17.9966646   15.8491400   19.7525686
| 21>     C       18.4435449   14.5633444   20.1081294
| 22>     C       17.6940694   13.7611093   20.9847210
| 23>     C       16.4850524   14.2471929   21.5105789
| 24>     C       16.0340253   15.5255814   21.1559141
| 25>     O       14.8610908   15.9937366   21.6515649
| 26>     C       16.7817984   16.3214909   20.2826261
| 27>     H       14.7262112   14.0144891   15.0813329
| 28>     H       14.1411816   15.6134570   15.6007951
| 29>     H       13.6832773   14.1579678   16.5136711
| 30>     H       15.4998159   15.4183402   17.7202837
| 31>     H       16.0741693   13.8140377   17.1947199
| 32>     H       17.3051221   17.7693502   14.8978834
| 33>     H       16.8217074   19.3591538   15.4863344
| 34>     H       15.7835702   17.9533474   15.7874395
| 35>     H       17.2933351   20.0170292   17.5440121
| 36>     H       19.6269174   18.1058937   20.2082709
| 37>     H       19.7684004   16.2133919   18.5985583
| 38>     H       19.3680947   14.1766328   19.6857457
| 39>     H       18.0487483   12.7657542   21.2467793
| 40>     H       15.9020046   13.6294520   22.1856294
| 41>     H       14.5295043   15.3366637   22.2822242
| 42>     H       16.4148593   17.3087852   20.0236797
| 43> *
| 44>
| 45>                          ****END OF INPUT****

CARTESIAN COORDINATES (ANGSTROEM)
---------------------------------
  C     14.495843   14.637679   15.954588
  C     15.738991   14.800316   16.844422
  O     16.761331   15.421816   16.049799
  C     17.981450   15.560754   16.637169
  O     18.631020   14.573540   16.935375
  C     18.072728   16.822563   17.440135
  C     17.545965   18.005336   17.037164
  C     16.826035   18.291066   15.735991
  N     17.710347   19.145234   17.829619
  C     18.494665   19.209344   18.951798
  S     18.726404   20.626591   19.771871
  N     19.076416   18.035416   19.361975
  C     18.802640   16.707006   18.780630
  C     17.996665   15.849140   19.752569
  C     18.443545   14.563344   20.108129
  C     17.694069   13.761109   20.984721
  C     16.485052   14.247193   21.510579
  C     16.034025   15.525581   21.155914
  O     14.861091   15.993737   21.651565
  C     16.781798   16.321491   20.282626
  H     14.726211   14.014489   15.081333
  H     14.141182   15.613457   15.600795
  H     13.683277   14.157968   16.513671
  H     15.499816   15.418340   17.720284
  H     16.074169   13.814038   17.194720
  H     17.305122   17.769350   14.897883
  H     16.821707   19.359154   15.486334
  H     15.783570   17.953347   15.787439
  H     17.293335   20.017029   17.544012
  H     19.626917   18.105894   20.208271
  H     19.768400   16.213392   18.598558
  H     19.368095   14.176633   19.685746
  H     18.048748   12.765754   21.246779
  H     15.902005   13.629452   22.185629
  H     14.529504   15.336664   22.282224
  H     16.414859   17.308785   20.023680

 Total Charge           Charge          ....    0
 Multiplicity           Mult            ....    1
 Number of Electrons    NEL             ....  154
 Basis Dimension        Dim             ....  828

ORBITAL ENERGIES
----------------

  NO   OCC          E(Eh)            E(eV)
   0   2.0000     -91.889792     -2500.4484
   1   2.0000     -20.596954      -560.4716
   2   2.0000     -20.582411      -560.0759
   3   2.0000     -20.557007      -559.3846
   4   2.0000     -15.629557      -425.3019
   5   2.0000     -15.609167      -424.7470
   6   2.0000     -11.393467      -310.0320
   7   2.0000     -11.385297      -309.8097
   8   2.0000     -11.334354      -308.4235
   9   2.0000     -11.313052      -307.8438
  10   2.0000     -11.309391      -307.7442
  11   2.0000     -11.298279      -307.4418
  12   2.0000     -11.261839      -306.4502
  13   2.0000     -11.259999      -306.4001
  14   2.0000     -11.258524      -306.3600
  15   2.0000     -11.253060      -306.2113
  16   2.0000     -11.242727      -305.9302
  17   2.0000     -11.238595      -305.8177
  18   2.0000     -11.235691      -305.7387
  19   2.0000     -11.232166      -305.6428
  20   2.0000      -8.894860      -242.0414
  21   2.0000      -6.576436      -178.9539
  22   2.0000      -6.574428      -178.8993
  23   2.0000      -6.573842      -178.8833
  24   2.0000      -1.453632       -39.5553
  25   2.0000      -1.416756       -38.5519
  26   2.0000      -1.357401       -36.9368
  27   2.0000      -1.340565       -36.4786
  28   2.0000      -1.238734       -33.7077
  29   2.0000      -1.157163       -31.4880
  30   2.0000      -1.122129       -30.5347
  31   2.0000      -1.045515       -28.4499
  32   2.0000      -1.035378       -28.1741
  33   2.0000      -1.014706       -27.6116
  34   2.0000      -1.000399       -27.2222
  35   2.0000      -0.986067       -26.8322
  36   2.0000      -0.924266       -25.1506
  37   2.0000      -0.879301       -23.9270
  38   2.0000      -0.849813       -23.1246
  39   2.0000      -0.840211       -22.8633
  40   2.0000      -0.833197       -22.6724
  41   2.0000      -0.829492       -22.5716
  42   2.0000      -0.757376       -20.6093
  43   2.0000      -0.736029       -20.0284
  44   2.0000      -0.729250       -19.8439
  45   2.0000      -0.694908       -18.9094
  46   2.0000      -0.687124       -18.6976
  47   2.0000      -0.681776       -18.5521
  48   2.0000      -0.675238       -18.3741
  49   2.0000      -0.657292       -17.8858
  50   2.0000      -0.650028       -17.6882
  51   2.0000      -0.642041       -17.4708
  52   2.0000      -0.629049       -17.1173
  53   2.0000      -0.625961       -17.0333
  54   2.0000      -0.605513       -16.4769
  55   2.0000      -0.603939       -16.4340
  56   2.0000      -0.600488       -16.3401
  57   2.0000      -0.579348       -15.7649
  58   2.0000      -0.576376       -15.6840
  59   2.0000      -0.564628       -15.3643
  60   2.0000      -0.557866       -15.1803
  61   2.0000      -0.549323       -14.9478
  62   2.0000      -0.536062       -14.5870
  63   2.0000      -0.522469       -14.2171
  64   2.0000      -0.522226       -14.2105
  65   2.0000      -0.513263       -13.9666
  66   2.0000      -0.503656       -13.7052
  67   2.0000      -0.498304       -13.5595
  68   2.0000      -0.482194       -13.1212
  69   2.0000      -0.465459       -12.6658
  70   2.0000      -0.458670       -12.4810
  71   2.0000      -0.453013       -12.3271
  72   2.0000      -0.355610        -9.6766
  73   2.0000      -0.348675        -9.4879
  74   2.0000      -0.329060        -8.9542
  75   2.0000      -0.320244        -8.7143
  76   2.0000      -0.316849        -8.6219
  77   0.0000       0.069295         1.8856
  78   0.0000       0.103345         2.8122
  79   0.0000       0.118213         3.2167
  80   0.0000       0.131466         3.5774
  81   0.0000       0.134573         3.6619

MULLIKEN ATOMIC CHARGES
-----------------------
   0 C :   -0.261912
   1 C :    0.028951
   2 O :   -0.371162
   3 C :    0.476572
   4 O :   -0.392367
   5 C :   -0.229756
   6 C :    0.143789
   7 C :   -0.282528
   8 N :   -0.123925
   9 C :    0.200349
  10 S :   -0.438073
  11 N :   -0.201386
  12 C :    0.054550
  13 C :    0.056347
  14 C :   -0.164220
  15 C :   -0.133552
  16 C :   -0.279048
  17 C :    0.323738
  18 O :   -0.360183
  19 C :   -0.310482
  20 H :    0.104013
  21 H :    0.089563
  22 H :    0.092984
  23 H :    0.094568
  24 H :    0.113778
  25 H :    0.126199
  26 H :    0.107725
  27 H :    0.122371
  28 H :    0.197322
  29 H :    0.194276
  30 H :    0.156382
  31 H :    0.158526
  32 H :    0.161600
  33 H :    0.130963
  34 H :    0.241216
  35 H :    0.172813
Sum of atomic charges:   -0.0000000

LOEWDIN ATOMIC CHARGES
----------------------
   0 C :    0.110443
   1 C :   -0.019907
   2 O :    0.289127
   3 C :   -0.419121
   4 O :    0.134157
   5 C :   -0.095361
   6 C :   -0.075525
   7 C :    0.126585
   8 N :    0.404261
   9 C :   -0.457711
  10 S :   -0.035203
  11 N :    0.397014
  12 C :   -0.045531
  13 C :   -0.040969
  14 C :    0.022135
  15 C :    0.042540
  16 C :   -0.001852
  17 C :   -0.195009
  18 O :    0.393440
  19 C :    0.027694
  20 H :   -0.023772
  21 H :   -0.030956
  22 H :   -0.023937
  23 H :   -0.035013
  24 H :   -0.025376
  25 H :   -0.007041
  26 H :   -0.018927
  27 H :   -0.011047
  28 H :   -0.058565
  29 H :   -0.064023
  30 H :   -0.004180
  31 H :   -0.024101
  32 H :   -0.019992
  33 H :   -0.035440
  34 H :   -0.153653
  35 H :   -0.025184

  Mayer bond orders larger than 0.100000
B(  0-C ,  1-C ) :   0.9784 B(  0-C , 20-H ) :   0.9786 B(  0-C , 21-H ) :   0.9788
B(  0-C , 22-H ) :   0.9763 B(  1-C ,  2-O ) :   0.8897 B(  1-C , 23-H ) :   0.9651
B(  1-C , 24-H ) :   0.9773 B(  2-O ,  3-C ) :   1.0979 B(  3-C ,  4-O ) :   2.0445
B(  3-C ,  5-C ) :   1.0081 B(  5-C ,  6-C ) :   1.6641 B(  5-C , 12-C ) :   0.9626
B(  6-C ,  7-C ) :   0.9534 B(  6-C ,  8-N ) :   1.1381 B(  7-C , 25-H ) :   0.9704
B(  7-C , 26-H ) :   0.9872 B(  7-C , 27-H ) :   0.9635 B(  8-N ,  9-C ) :   1.1832
B(  8-N , 28-H ) :   0.9497 B(  9-C , 10-S ) :   1.6132 B(  9-C , 11-N ) :   1.2989
B( 11-N , 12-C ) :   0.9931 B( 11-N , 29-H ) :   0.9519 B( 12-C , 13-C ) :   0.9450
B( 12-C , 30-H ) :   0.9988 B( 13-C , 14-C ) :   1.3808 B( 13-C , 19-C ) :   1.3504
B( 14-C , 15-C ) :   1.3944 B( 14-C , 31-H ) :   0.9626 B( 15-C , 16-C ) :   1.3645
B( 15-C , 32-H ) :   0.9705 B( 16-C , 17-C ) :   1.3315 B( 16-C , 33-H ) :   0.9847
B( 17-C , 18-O ) :   1.1093 B( 17-C , 19-C ) :   1.3660 B( 18-O , 34-H ) :   0.9798
B( 19-C , 35-H ) :   0.9592

MP2 TOTAL ENERGY:    -1274.323687870 Eh
FINAL SINGLE POINT ENERGY     -1274.323687870403

DIPOLE MOMENT
-------------
                                X             Y             Z
Electronic contribution:     11.28816       9.11390       7.72517
Nuclear contribution   :    -12.59827     -10.33550      -8.18523
                        -----------------------------------------
Total Dipole Moment    :     -1.31012      -1.22160      -0.46006
                        -----------------------------------------
Magnitude (a.u.)       :      1.84942
Magnitude (Debye)      :      4.70086

Rotational constants in cm-1:     0.011348     0.009250     0.006651
Rotational constants in MHz :   340.190796   277.311211   199.406256

                             ****ORCA TERMINATED NORMALLY****
TOTAL RUN TIME: 0 days 2 hours 10 minutes 13 seconds 587 msec
