                         Program Version 5.0.0 -  RELEASE  -
|  1> ! ri-mp2 cc-pvtz cc-pvtz/c TightSCF NoKeepInts
|  2>
|  3> %scf
|  4>   MaxCore 4096
|  5> end
|  6> *xyz  0  1
|  7>     C       15.6200388   14.0821216   14.8632001
|  8>     C       15.5506843   14.1789313   16.4001406
|  9>     O       16.5534801   15.1032669   16.8599776
| 10>     C       16.3225787   16.4516245   16.8164923
| 11>     O       15.3548037   16.9338787   16.2524230
| 12>     C       17.3214206   17.2363866   17.6218189
| 13>     C       17.3111867   18.5927664   17.6728511
| 14>     C       16.3476982   19.5294471   16.9758240
| 15>     N       18.2907866   19.2743860   18.4013217
| 16>     C       19.3688634   18.6855822   19.0064500
| 17>     S       20.5407157   19.5742128   19.7634383
| 18>     N       19.4301160   17.3166037   18.9497484
| 19>     C       18.3717083   16.4407758   18.4143396
| 20>     C       17.7407237   15.6412900   19.5509373
| 21>     C       17.9058615   14.2450205   19.6186511
| 22>     C       17.3255542   13.5061302   20.6634216
| 23>     C       16.5761182   14.1686310   21.6505424
| 24>     C       16.4130411   15.5593804   21.5884805
| 25>     O       15.6910030   16.2020269   22.5407090
| 26>     C       16.9915735   16.2919559   20.5474616
| 27>     H       15.3591431   15.0392120   14.3946227
| 28>     H       14.9170411   13.3247808   14.4959785
| 29>     H       16.6288364   13.8003139   14.5374916
| 30>     H       14.5488884   14.4929512   16.7242518
| 31>     H       15.7513806   13.1883781   16.8279523
| 32>     H       15.3211530   19.3515719   17.3212176
| 33>     H       16.3614457   19.3612908   15.8914697
| 34>     H       16.5766261   20.5874867   17.1488074
| 35>     H       18.2625957   20.2801974   18.4521693
| 36>     H       20.2168871   16.9089749   19.4382612
| 37>     H       18.8518932   15.7375443   17.7194727
| 38>     H       18.4806788   13.7298601   18.8537548
| 39>     H       17.4573564   12.4264131   20.7059819
| 40>     H       16.1263019   13.6025673   22.4595379
| 41>     H       15.3991389   15.5377904   23.1828433
| 42>     H       16.8596771   17.3682486   20.5219580
| 43> *
| 44>
| 45>                          ****END OF INPUT****

CARTESIAN COORDINATES (ANGSTROEM)
---------------------------------
  C     15.620039   14.082122   14.863200
  C     15.550684   14.178931   16.400141
  O     16.553480   15.103267   16.859978
  C     16.322579   16.451625   16.816492
  O     15.354804   16.933879   16.252423
  C     17.321421   17.236387   17.621819
  C     17.311187   18.592766   17.672851
  C     16.347698   19.529447   16.975824
  N     18.290787   19.274386   18.401322
  C     19.368863   18.685582   19.006450
  S     20.540716   19.574213   19.763438
  N     19.430116   17.316604   18.949748
  C     18.371708   16.440776   18.414340
  C     17.740724   15.641290   19.550937
  C     17.905862   14.245021   19.618651
  C     17.325554   13.506130   20.663422
  C     16.576118   14.168631   21.650542
  C     16.413041   15.559380   21.588480
  O     15.691003   16.202027   22.540709
  C     16.991574   16.291956   20.547462
  H     15.359143   15.039212   14.394623
  H     14.917041   13.324781   14.495978
  H     16.628836   13.800314   14.537492
  H     14.548888   14.492951   16.724252
  H     15.751381   13.188378   16.827952
  H     15.321153   19.351572   17.321218
  H     16.361446   19.361291   15.891470
  H     16.576626   20.587487   17.148807
  H     18.262596   20.280197   18.452169
  H     20.216887   16.908975   19.438261
  H     18.851893   15.737544   17.719473
  H     18.480679   13.729860   18.853755
  H     17.457356   12.426413   20.705982
  H     16.126302   13.602567   22.459538
  H     15.399139   15.537790   23.182843
  H     16.859677   17.368249   20.521958

 Total Charge           Charge          ....    0
 Multiplicity           Mult            ....    1
 Number of Electrons    NEL             ....  154
 Basis Dimension        Dim             ....  828

ORBITAL ENERGIES
----------------

  NO   OCC          E(Eh)            E(eV)
   0   2.0000     -91.888646     -2500.4172
   1   2.0000     -20.601690      -560.6005
   2   2.0000     -20.595375      -560.4286
   3   2.0000     -20.542440      -558.9882
   4   2.0000     -15.628912      -425.2843
   5   2.0000     -15.607889      -424.7122
   6   2.0000     -11.396019      -310.1014
   7   2.0000     -11.383716      -309.7667
   8   2.0000     -11.335855      -308.4643
   9   2.0000     -11.312398      -307.8260
  10   2.0000     -11.308502      -307.7200
  11   2.0000     -11.298113      -307.4373
  12   2.0000     -11.258953      -306.3717
  13   2.0000     -11.258427      -306.3574
  14   2.0000     -11.253885      -306.2338
  15   2.0000     -11.252034      -306.1834
  16   2.0000     -11.241722      -305.9028
  17   2.0000     -11.237217      -305.7802
  18   2.0000     -11.236982      -305.7738
  19   2.0000     -11.223477      -305.4063
  20   2.0000      -8.893707      -242.0101
  21   2.0000      -6.575281      -178.9225
  22   2.0000      -6.573277      -178.8680
  23   2.0000      -6.572690      -178.8520
  24   2.0000      -1.451375       -39.4939
  25   2.0000      -1.415021       -38.5047
  26   2.0000      -1.355315       -36.8800
  27   2.0000      -1.339833       -36.4587
  28   2.0000      -1.238178       -33.6925
  29   2.0000      -1.156469       -31.4691
  30   2.0000      -1.120026       -30.4774
  31   2.0000      -1.042065       -28.3560
  32   2.0000      -1.036350       -28.2005
  33   2.0000      -1.013762       -27.5859
  34   2.0000      -0.994971       -27.0745
  35   2.0000      -0.983619       -26.7656
  36   2.0000      -0.921987       -25.0886
  37   2.0000      -0.893620       -24.3166
  38   2.0000      -0.846796       -23.0425
  39   2.0000      -0.836880       -22.7727
  40   2.0000      -0.832822       -22.6622
  41   2.0000      -0.817971       -22.2581
  42   2.0000      -0.757163       -20.6035
  43   2.0000      -0.731218       -19.8975
  44   2.0000      -0.722698       -19.6656
  45   2.0000      -0.694641       -18.9022
  46   2.0000      -0.687860       -18.7176
  47   2.0000      -0.680582       -18.5196
  48   2.0000      -0.670918       -18.2566
  49   2.0000      -0.653460       -17.7816
  50   2.0000      -0.646946       -17.6043
  51   2.0000      -0.645214       -17.5572
  52   2.0000      -0.630442       -17.1552
  53   2.0000      -0.612046       -16.6546
  54   2.0000      -0.605538       -16.4775
  55   2.0000      -0.598751       -16.2929
  56   2.0000      -0.597883       -16.2692
  57   2.0000      -0.578995       -15.7553
  58   2.0000      -0.571434       -15.5495
  59   2.0000      -0.570384       -15.5209
  60   2.0000      -0.562916       -15.3177
  61   2.0000      -0.538815       -14.6619
  62   2.0000      -0.536495       -14.5988
  63   2.0000      -0.526525       -14.3275
  64   2.0000      -0.523898       -14.2560
  65   2.0000      -0.513018       -13.9599
  66   2.0000      -0.500409       -13.6168
  67   2.0000      -0.497695       -13.5430
  68   2.0000      -0.485262       -13.2046
  69   2.0000      -0.463689       -12.6176
  70   2.0000      -0.455574       -12.3968
  71   2.0000      -0.447029       -12.1643
  72   2.0000      -0.354149        -9.6369
  73   2.0000      -0.348269        -9.4769
  74   2.0000      -0.327928        -8.9234
  75   2.0000      -0.320084        -8.7099
  76   2.0000      -0.315628        -8.5887
  77   0.0000       0.076395         2.0788
  78   0.0000       0.108080         2.9410
  79   0.0000       0.125127         3.4049
  80   0.0000       0.133076         3.6212
  81   0.0000       0.137118         3.7312

MULLIKEN ATOMIC CHARGES
-----------------------
   0 C :   -0.288202
   1 C :    0.039254
   2 O :   -0.352139
   3 C :    0.467242
   4 O :   -0.438197
   5 C :   -0.211491
   6 C :    0.148743
   7 C :   -0.275163
   8 N :   -0.119916
   9 C :    0.210778
  10 S :   -0.439960
  11 N :   -0.203089
  12 C :    0.047634
  13 C :    0.068801
  14 C :   -0.179287
  15 C :   -0.132428
  16 C :   -0.278129
  17 C :    0.315316
  18 O :   -0.356893
  19 C :   -0.269085
  20 H :    0.116981
  21 H :    0.093445
  22 H :    0.090935
  23 H :    0.097818
  24 H :    0.106767
  25 H :    0.132607
  26 H :    0.129954
  27 H :    0.095340
  28 H :    0.197200
  29 H :    0.194296
  30 H :    0.150250
  31 H :    0.147171
  32 H :    0.159423
  33 H :    0.129174
  34 H :    0.240531
  35 H :    0.164321
Sum of atomic charges:   -0.0000000

LOEWDIN ATOMIC CHARGES
----------------------
   0 C :    0.104771
   1 C :   -0.015352
   2 O :    0.307391
   3 C :   -0.412253
   4 O :    0.096639
   5 C :   -0.093730
   6 C :   -0.058913
   7 C :    0.131369
   8 N :    0.406531
   9 C :   -0.456657
  10 S :   -0.035500
  11 N :    0.396544
  12 C :   -0.052634
  13 C :   -0.038472
  14 C :    0.014232
  15 C :    0.038859
  16 C :   -0.001655
  17 C :   -0.189488
  18 O :    0.394996
  19 C :    0.031424
  20 H :   -0.025112
  21 H :   -0.027628
  22 H :   -0.030327
  23 H :   -0.027668
  24 H :   -0.025979
  25 H :   -0.004494
  26 H :   -0.004290
  27 H :   -0.023385
  28 H :   -0.057608
  29 H :   -0.064582
  30 H :   -0.011103
  31 H :   -0.030451
  32 H :   -0.021660
  33 H :   -0.035784
  34 H :   -0.154093
  35 H :   -0.023941

  Mayer bond orders larger than 0.100000
B(  0-C ,  1-C ) :   0.9686 B(  0-C , 20-H ) :   0.9744 B(  0-C , 21-H ) :   0.9769
B(  0-C , 22-H ) :   0.9769 B(  1-C ,  2-O ) :   0.8961 B(  1-C , 23-H ) :   0.9758
B(  1-C , 24-H ) :   0.9831 B(  2-O ,  3-C ) :   1.1623 B(  3-C ,  4-O ) :   1.9477
B(  3-C ,  5-C ) :   1.0684 B(  5-C ,  6-C ) :   1.6565 B(  5-C , 12-C ) :   0.9739
B(  6-C ,  7-C ) :   0.9674 B(  6-C ,  8-N ) :   1.1647 B(  7-C , 25-H ) :   0.9603
B(  7-C , 26-H ) :   0.9604 B(  7-C , 27-H ) :   0.9907 B(  8-N ,  9-C ) :   1.1822
B(  8-N , 28-H ) :   0.9479 B(  9-C , 10-S ) :   1.6076 B(  9-C , 11-N ) :   1.3049
B( 11-N , 12-C ) :   0.9876 B( 11-N , 29-H ) :   0.9517 B( 12-C , 13-C ) :   0.9371
B( 12-C , 30-H ) :   1.0027 B( 13-C , 14-C ) :   1.3557 B( 13-C , 19-C ) :   1.3823
B( 14-C , 15-C ) :   1.3927 B( 14-C , 31-H ) :   0.9720 B( 15-C , 16-C ) :   1.3644
B( 15-C , 32-H ) :   0.9709 B( 16-C , 17-C ) :   1.3317 B( 16-C , 33-H ) :   0.9853
B( 17-C , 18-O ) :   1.1097 B( 17-C , 19-C ) :   1.3737 B( 18-O , 34-H ) :   0.9800
B( 19-C , 35-H ) :   0.9583

MP2 TOTAL ENERGY:    -1274.349877596 Eh
FINAL SINGLE POINT ENERGY     -1274.349877595886

DIPOLE MOMENT
-------------
                                X             Y             Z
Electronic contribution:      9.75312       9.33894      10.14448
Nuclear contribution   :    -10.90037     -10.96879     -10.46331
                        -----------------------------------------
Total Dipole Moment    :     -1.14725      -1.62986      -0.31882
                        -----------------------------------------
Magnitude (a.u.)       :      2.01848
Magnitude (Debye)      :      5.13058

Rotational constants in cm-1:     0.010856     0.008848     0.006017
Rotational constants in MHz :   325.468575   265.244197   180.397401

                             ****ORCA TERMINATED NORMALLY****
TOTAL RUN TIME: 0 days 2 hours 13 minutes 12 seconds 113 msec
