                         Program Version 4.2.0 -  RELEASE  -
|  1> ! ri-mp2 cc-pvtz cc-pvtz/c TightSCF  NoKeepInts
|  2>
|  3> %scf
|  4>   MaxCore 4096
|  5> end
|  6> *xyz  0  1
|  7>     C       14.3053653   15.5807961   16.4333164
|  8>     C       15.6733790   15.0212219   16.8583351
|  9>     O       16.6682147   15.4879025   15.9267923
| 10>     C       17.9127407   15.7944882   16.3985713
| 11>     O       18.7752520   14.9349298   16.4058912
| 12>     C       17.9290198   16.9191438   17.3877847
| 13>     C       17.2883496   18.0964050   17.1848348
| 14>     C       16.5113805   18.5343919   15.9609995
| 15>     N       17.4047096   19.1212071   18.1275716
| 16>     C       18.2557612   19.1011213   19.2016251
| 17>     S       18.4189371   20.4038071   20.2068933
| 18>     N       18.9659037   17.9431784   19.4005165
| 19>     C       18.7679006   16.6887477   18.6482729
| 20>     C       18.1337768   15.6167950   19.5314010
| 21>     C       18.6452546   14.3061268   19.5333894
| 22>     C       18.0541206   13.3064935   20.3237165
| 23>     C       16.9393846   13.6180668   21.1202403
| 24>     C       16.4238026   14.9208919   21.1193616
| 25>     O       15.3396703   15.2226678   21.8769434
| 26>     C       17.0134362   15.9136601   20.3304354
| 27>     H       14.2728995   16.6694398   16.5414649
| 28>     H       13.5101125   15.1560241   17.0580719
| 29>     H       14.0912347   15.3258612   15.3877841
| 30>     H       15.8865487   15.3526315   17.8818248
| 31>     H       15.6544237   13.9233367   16.8567562
| 32>     H       16.6266629   17.8458381   15.1162486
| 33>     H       16.8584704   19.5140679   15.6089102
| 34>     H       15.4417393   18.6207516   16.1822744
| 35>     H       16.9008261   19.9835389   17.9916793
| 36>     H       19.5706597   17.9478431   20.2121571
| 37>     H       19.7587718   16.3305542   18.3322017
| 38>     H       19.4970648   14.0572474   18.9039608
| 39>     H       18.4580889   12.2955121   20.3113994
| 40>     H       16.4786944   12.8480610   21.7303475
| 41>     H       15.1194153   14.4347539   22.3967250
| 42>     H       16.5950278   16.9144956   20.3453017
| 43> *
| 44>
| 45>                          ****END OF INPUT****

CARTESIAN COORDINATES (ANGSTROEM)
---------------------------------
  C     14.305365   15.580796   16.433316
  C     15.673379   15.021222   16.858335
  O     16.668215   15.487902   15.926792
  C     17.912741   15.794488   16.398571
  O     18.775252   14.934930   16.405891
  C     17.929020   16.919144   17.387785
  C     17.288350   18.096405   17.184835
  C     16.511381   18.534392   15.960999
  N     17.404710   19.121207   18.127572
  C     18.255761   19.101121   19.201625
  S     18.418937   20.403807   20.206893
  N     18.965904   17.943178   19.400516
  C     18.767901   16.688748   18.648273
  C     18.133777   15.616795   19.531401
  C     18.645255   14.306127   19.533389
  C     18.054121   13.306493   20.323716
  C     16.939385   13.618067   21.120240
  C     16.423803   14.920892   21.119362
  O     15.339670   15.222668   21.876943
  C     17.013436   15.913660   20.330435
  H     14.272899   16.669440   16.541465
  H     13.510112   15.156024   17.058072
  H     14.091235   15.325861   15.387784
  H     15.886549   15.352631   17.881825
  H     15.654424   13.923337   16.856756
  H     16.626663   17.845838   15.116249
  H     16.858470   19.514068   15.608910
  H     15.441739   18.620752   16.182274
  H     16.900826   19.983539   17.991679
  H     19.570660   17.947843   20.212157
  H     19.758772   16.330554   18.332202
  H     19.497065   14.057247   18.903961
  H     18.458089   12.295512   20.311399
  H     16.478694   12.848061   21.730347
  H     15.119415   14.434754   22.396725
  H     16.595028   16.914496   20.345302

 Total Charge           Charge          ....    0
 Multiplicity           Mult            ....    1
 Number of Electrons    NEL             ....  154
 Basis Dimension        Dim             ....  828

ORBITAL ENERGIES
----------------

  NO   OCC          E(Eh)            E(eV)
   0   2.0000     -91.890710     -2500.4733
   1   2.0000     -20.598780      -560.5213
   2   2.0000     -20.582555      -560.0798
   3   2.0000     -20.557201      -559.3899
   4   2.0000     -15.629172      -425.2914
   5   2.0000     -15.610658      -424.7876
   6   2.0000     -11.395174      -310.0785
   7   2.0000     -11.386663      -309.8468
   8   2.0000     -11.334718      -308.4334
   9   2.0000     -11.315596      -307.9130
  10   2.0000     -11.312266      -307.8224
  11   2.0000     -11.299687      -307.4801
  12   2.0000     -11.264355      -306.5187
  13   2.0000     -11.263456      -306.4942
  14   2.0000     -11.261556      -306.4425
  15   2.0000     -11.255518      -306.2782
  16   2.0000     -11.245041      -305.9931
  17   2.0000     -11.240940      -305.8815
  18   2.0000     -11.237622      -305.7912
  19   2.0000     -11.233622      -305.6824
  20   2.0000      -8.895789      -242.0667
  21   2.0000      -6.577369      -178.9793
  22   2.0000      -6.575354      -178.9245
  23   2.0000      -6.574770      -178.9086
  24   2.0000      -1.450095       -39.4591
  25   2.0000      -1.418619       -38.6026
  26   2.0000      -1.357294       -36.9338
  27   2.0000      -1.341715       -36.5099
  28   2.0000      -1.240294       -33.7501
  29   2.0000      -1.159628       -31.5551
  30   2.0000      -1.123829       -30.5809
  31   2.0000      -1.047059       -28.4919
  32   2.0000      -1.036533       -28.2055
  33   2.0000      -1.017351       -27.6835
  34   2.0000      -1.003439       -27.3050
  35   2.0000      -0.988401       -26.8958
  36   2.0000      -0.926537       -25.2124
  37   2.0000      -0.881709       -23.9925
  38   2.0000      -0.851847       -23.1799
  39   2.0000      -0.842237       -22.9184
  40   2.0000      -0.835573       -22.7371
  41   2.0000      -0.833292       -22.6750
  42   2.0000      -0.757235       -20.6054
  43   2.0000      -0.736369       -20.0376
  44   2.0000      -0.731013       -19.8919
  45   2.0000      -0.696977       -18.9657
  46   2.0000      -0.687664       -18.7123
  47   2.0000      -0.682204       -18.5637
  48   2.0000      -0.675655       -18.3855
  49   2.0000      -0.659990       -17.9593
  50   2.0000      -0.653092       -17.7715
  51   2.0000      -0.642373       -17.4799
  52   2.0000      -0.631603       -17.1868
  53   2.0000      -0.623594       -16.9688
  54   2.0000      -0.608439       -16.5565
  55   2.0000      -0.606902       -16.5146
  56   2.0000      -0.602490       -16.3946
  57   2.0000      -0.582188       -15.8421
  58   2.0000      -0.575523       -15.6608
  59   2.0000      -0.567945       -15.4546
  60   2.0000      -0.561777       -15.2867
  61   2.0000      -0.553915       -15.0728
  62   2.0000      -0.543570       -14.7913
  63   2.0000      -0.525576       -14.3017
  64   2.0000      -0.521222       -14.1832
  65   2.0000      -0.515108       -14.0168
  66   2.0000      -0.502242       -13.6667
  67   2.0000      -0.497086       -13.5264
  68   2.0000      -0.482791       -13.1374
  69   2.0000      -0.467566       -12.7231
  70   2.0000      -0.460247       -12.5239
  71   2.0000      -0.450718       -12.2647
  72   2.0000      -0.358373        -9.7518
  73   2.0000      -0.350638        -9.5413
  74   2.0000      -0.330103        -8.9825
  75   2.0000      -0.323109        -8.7922
  76   2.0000      -0.319159        -8.6847
  77   0.0000       0.074150         2.0177
  78   0.0000       0.102471         2.7884
  79   0.0000       0.117512         3.1977
  80   0.0000       0.130184         3.5425
  81   0.0000       0.131658         3.5826

MULLIKEN ATOMIC CHARGES
-----------------------
   0 C :   -0.278112
   1 C :    0.030494
   2 O :   -0.367295
   3 C :    0.459195
   4 O :   -0.379295
   5 C :   -0.223584
   6 C :    0.152375
   7 C :   -0.333140
   8 N :   -0.128222
   9 C :    0.193918
  10 S :   -0.437646
  11 N :   -0.206094
  12 C :    0.062107
  13 C :    0.020364
  14 C :   -0.177430
  15 C :   -0.136107
  16 C :   -0.274975
  17 C :    0.314762
  18 O :   -0.358150
  19 C :   -0.274177
  20 H :    0.085130
  21 H :    0.103693
  22 H :    0.106681
  23 H :    0.097832
  24 H :    0.117734
  25 H :    0.138279
  26 H :    0.136061
  27 H :    0.120874
  28 H :    0.197808
  29 H :    0.195708
  30 H :    0.162032
  31 H :    0.167217
  32 H :    0.163314
  33 H :    0.132448
  34 H :    0.241207
  35 H :    0.174994
Sum of atomic charges:   -0.0000000

LOEWDIN ATOMIC CHARGES
----------------------
   0 C :    0.108852
   1 C :   -0.013738
   2 O :    0.284170
   3 C :   -0.418573
   4 O :    0.136643
   5 C :   -0.089976
   6 C :   -0.082925
   7 C :    0.125784
   8 N :    0.403878
   9 C :   -0.458489
  10 S :   -0.035224
  11 N :    0.396922
  12 C :   -0.044576
  13 C :   -0.043561
  14 C :    0.021451
  15 C :    0.043994
  16 C :   -0.000887
  17 C :   -0.194853
  18 O :    0.394584
  19 C :    0.026070
  20 H :   -0.033615
  21 H :   -0.022800
  22 H :   -0.024687
  23 H :   -0.034437
  24 H :   -0.026117
  25 H :   -0.009516
  26 H :   -0.012633
  27 H :   -0.018259
  28 H :   -0.056513
  29 H :   -0.063698
  30 H :   -0.002944
  31 H :   -0.022655
  32 H :   -0.019022
  33 H :   -0.034864
  34 H :   -0.153251
  35 H :   -0.024535

  Mayer bond orders larger than 0.100000
B(  0-C ,  1-C ) :   0.9788 B(  0-C , 20-H ) :   0.9781 B(  0-C , 21-H ) :   0.9771
B(  0-C , 22-H ) :   0.9775 B(  1-C ,  2-O ) :   0.8939 B(  1-C , 23-H ) :   0.9592
B(  1-C , 24-H ) :   0.9841 B(  2-O ,  3-C ) :   1.1108 B(  3-C ,  4-O ) :   2.0721
B(  3-C ,  5-C ) :   0.9707 B(  5-C ,  6-C ) :   1.6597 B(  5-C , 12-C ) :   0.9590
B(  6-C ,  7-C ) :   0.9545 B(  6-C ,  8-N ) :   1.1290 B(  7-C , 25-H ) :   0.9721
B(  7-C , 26-H ) :   0.9735 B(  7-C , 27-H ) :   0.9651 B(  8-N ,  9-C ) :   1.1878
B(  8-N , 28-H ) :   0.9518 B(  9-C , 10-S ) :   1.6148 B(  9-C , 11-N ) :   1.2942
B( 11-N , 12-C ) :   0.9937 B( 11-N , 29-H ) :   0.9512 B( 12-C , 13-C ) :   0.9477
B( 12-C , 30-H ) :   0.9982 B( 13-C , 14-C ) :   1.3872 B( 13-C , 19-C ) :   1.3454
B( 14-C , 15-C ) :   1.3972 B( 14-C , 31-H ) :   0.9594 B( 15-C , 16-C ) :   1.3641
B( 15-C , 32-H ) :   0.9702 B( 16-C , 17-C ) :   1.3300 B( 16-C , 33-H ) :   0.9842
B( 17-C , 18-O ) :   1.1120 B( 17-C , 19-C ) :   1.3705 B( 18-O , 34-H ) :   0.9795
B( 19-C , 35-H ) :   0.9595

MP2 TOTAL ENERGY:    -1274.324150443 Eh
FINAL SINGLE POINT ENERGY     -1274.324150443059

DIPOLE MOMENT
-------------
                                X             Y             Z
Electronic contribution:     11.41975       6.52963       7.02983
Nuclear contribution   :    -12.73320      -7.66685      -7.39491
                        -----------------------------------------
Total Dipole Moment    :     -1.31345      -1.13722      -0.36508
                        -----------------------------------------
Magnitude (a.u.)       :      1.77531
Magnitude (Debye)      :      4.51247

Rotational constants in cm-1:     0.011319     0.009458     0.006893
Rotational constants in MHz :   339.331636   283.557916   206.641266

                             ****ORCA TERMINATED NORMALLY****
TOTAL RUN TIME: 0 days 1 hours 49 minutes 56 seconds 662 msec
