                         Program Version 5.0.0 -  RELEASE  -
|  1> ! ri-mp2 cc-pvtz cc-pvtz/c TightSCF NoKeepInts
|  2>
|  3> %scf
|  4>   MaxCore 4096
|  5> end
|  6> *xyz  0  1
|  7>     C       14.1709656   14.9614318   15.6433548
|  8>     C       15.5653491   14.6589869   16.2168406
|  9>     O       16.3676566   15.8373970   16.0448619
| 10>     C       17.6181736   15.8375245   16.5876835
| 11>     O       18.2736563   14.8113605   16.6656614
| 12>     C       17.8471819   16.9909691   17.5188063
| 13>     C       17.2720019   18.2126439   17.3773138
| 14>     C       16.3376395   18.6735894   16.2777039
| 15>     N       17.5896892   19.2380238   18.2736183
| 16>     C       18.5658454   19.1649661   19.2323330
| 17>     S       18.9615883   20.4659719   20.1737524
| 18>     N       19.1990297   17.9554563   19.3704253
| 19>     C       18.8039556   16.7117353   18.6824063
| 20>     C       18.1835569   15.7280960   19.6712166
| 21>     C       18.7034639   14.4273582   19.8042628
| 22>     C       18.1306689   13.5155550   20.7067226
| 23>     C       17.0271161   13.9065022   21.4838817
| 24>     C       16.5035855   15.1997310   21.3516287
| 25>     O       15.4333228   15.5779658   22.0950717
| 26>     C       17.0754423   16.1047895   20.4520591
| 27>     H       13.7084071   15.8029668   16.1736833
| 28>     H       13.5155718   14.0880961   15.7470032
| 29>     H       14.2381812   15.2159204   14.5782627
| 30>     H       15.4839677   14.4049654   17.2827444
| 31>     H       16.0155095   13.8079820   15.6875790
| 32>     H       16.6935117   18.3391007   15.2951987
| 33>     H       16.2487403   19.7657494   16.2308441
| 34>     H       15.3315135   18.2626015   16.4279128
| 35>     H       17.1363636   20.1337135   18.1878134
| 36>     H       19.8931571   17.9197920   20.1058800
| 37>     H       19.7143562   16.2561712   18.2666658
| 38>     H       19.5455873   14.1167362   19.1905662
| 39>     H       18.5391552   12.5105007   20.7957370
| 40>     H       16.5806912   13.2048780   22.1806052
| 41>     H       15.2158219   14.8411341   22.6855618
| 42>     H       16.6565757   17.1016375   20.3683380
| 43> *
| 44>
| 45>                          ****END OF INPUT****

CARTESIAN COORDINATES (ANGSTROEM)
---------------------------------
  C     14.170966   14.961432   15.643355
  C     15.565349   14.658987   16.216841
  O     16.367657   15.837397   16.044862
  C     17.618174   15.837524   16.587684
  O     18.273656   14.811360   16.665661
  C     17.847182   16.990969   17.518806
  C     17.272002   18.212644   17.377314
  C     16.337640   18.673589   16.277704
  N     17.589689   19.238024   18.273618
  C     18.565845   19.164966   19.232333
  S     18.961588   20.465972   20.173752
  N     19.199030   17.955456   19.370425
  C     18.803956   16.711735   18.682406
  C     18.183557   15.728096   19.671217
  C     18.703464   14.427358   19.804263
  C     18.130669   13.515555   20.706723
  C     17.027116   13.906502   21.483882
  C     16.503585   15.199731   21.351629
  O     15.433323   15.577966   22.095072
  C     17.075442   16.104789   20.452059
  H     13.708407   15.802967   16.173683
  H     13.515572   14.088096   15.747003
  H     14.238181   15.215920   14.578263
  H     15.483968   14.404965   17.282744
  H     16.015510   13.807982   15.687579
  H     16.693512   18.339101   15.295199
  H     16.248740   19.765749   16.230844
  H     15.331513   18.262601   16.427913
  H     17.136364   20.133713   18.187813
  H     19.893157   17.919792   20.105880
  H     19.714356   16.256171   18.266666
  H     19.545587   14.116736   19.190566
  H     18.539155   12.510501   20.795737
  H     16.580691   13.204878   22.180605
  H     15.215822   14.841134   22.685562
  H     16.656576   17.101637   20.368338

 Total Charge           Charge          ....    0
 Multiplicity           Mult            ....    1
 Number of Electrons    NEL             ....  154
 Basis Dimension        Dim             ....  828

ORBITAL ENERGIES
----------------

  NO   OCC          E(Eh)            E(eV)
   0   2.0000     -91.888321     -2500.4083
   1   2.0000     -20.593871      -560.3877
   2   2.0000     -20.593778      -560.3852
   3   2.0000     -20.550917      -559.2189
   4   2.0000     -15.628246      -425.2662
   5   2.0000     -15.607427      -424.6997
   6   2.0000     -11.394400      -310.0574
   7   2.0000     -11.383548      -309.7621
   8   2.0000     -11.334283      -308.4215
   9   2.0000     -11.309750      -307.7539
  10   2.0000     -11.307174      -307.6838
  11   2.0000     -11.298569      -307.4497
  12   2.0000     -11.260020      -306.4007
  13   2.0000     -11.259538      -306.3876
  14   2.0000     -11.255430      -306.2758
  15   2.0000     -11.249791      -306.1224
  16   2.0000     -11.239484      -305.8419
  17   2.0000     -11.235509      -305.7337
  18   2.0000     -11.233966      -305.6918
  19   2.0000     -11.232557      -305.6534
  20   2.0000      -8.893390      -242.0014
  21   2.0000      -6.574968      -178.9140
  22   2.0000      -6.572960      -178.8593
  23   2.0000      -6.572375      -178.8434
  24   2.0000      -1.454789       -39.5868
  25   2.0000      -1.413533       -38.4642
  26   2.0000      -1.357124       -36.9292
  27   2.0000      -1.339277       -36.4436
  28   2.0000      -1.237266       -33.6677
  29   2.0000      -1.154039       -31.4030
  30   2.0000      -1.120428       -30.4884
  31   2.0000      -1.044410       -28.4198
  32   2.0000      -1.036868       -28.2146
  33   2.0000      -1.011444       -27.5228
  34   2.0000      -0.998369       -27.1670
  35   2.0000      -0.984029       -26.7768
  36   2.0000      -0.922071       -25.0908
  37   2.0000      -0.885311       -24.0905
  38   2.0000      -0.847296       -23.0561
  39   2.0000      -0.836562       -22.7640
  40   2.0000      -0.829923       -22.5834
  41   2.0000      -0.821389       -22.3511
  42   2.0000      -0.759587       -20.6694
  43   2.0000      -0.735947       -20.0261
  44   2.0000      -0.726489       -19.7688
  45   2.0000      -0.692052       -18.8317
  46   2.0000      -0.684215       -18.6184
  47   2.0000      -0.681521       -18.5451
  48   2.0000      -0.676110       -18.3979
  49   2.0000      -0.655905       -17.8481
  50   2.0000      -0.652139       -17.7456
  51   2.0000      -0.643521       -17.5111
  52   2.0000      -0.635138       -17.2830
  53   2.0000      -0.607656       -16.5352
  54   2.0000      -0.602225       -16.3874
  55   2.0000      -0.601596       -16.3702
  56   2.0000      -0.597183       -16.2502
  57   2.0000      -0.576297       -15.6818
  58   2.0000      -0.574851       -15.6425
  59   2.0000      -0.563843       -15.3430
  60   2.0000      -0.559902       -15.2357
  61   2.0000      -0.548196       -14.9172
  62   2.0000      -0.543558       -14.7910
  63   2.0000      -0.520249       -14.1567
  64   2.0000      -0.518146       -14.0995
  65   2.0000      -0.510352       -13.8874
  66   2.0000      -0.506195       -13.7743
  67   2.0000      -0.496779       -13.5180
  68   2.0000      -0.481816       -13.1109
  69   2.0000      -0.463930       -12.6242
  70   2.0000      -0.460328       -12.5262
  71   2.0000      -0.452868       -12.3232
  72   2.0000      -0.353951        -9.6315
  73   2.0000      -0.345852        -9.4111
  74   2.0000      -0.327545        -8.9130
  75   2.0000      -0.316869        -8.6225
  76   2.0000      -0.315083        -8.5738
  77   0.0000       0.073526         2.0007
  78   0.0000       0.108893         2.9631
  79   0.0000       0.119682         3.2567
  80   0.0000       0.134198         3.6517
  81   0.0000       0.138182         3.7601

MULLIKEN ATOMIC CHARGES
-----------------------
   0 C :   -0.276342
   1 C :    0.051573
   2 O :   -0.354018
   3 C :    0.436296
   4 O :   -0.408666
   5 C :   -0.178996
   6 C :    0.140170
   7 C :   -0.285166
   8 N :   -0.124302
   9 C :    0.202831
  10 S :   -0.439851
  11 N :   -0.199480
  12 C :    0.047216
  13 C :    0.051523
  14 C :   -0.161246
  15 C :   -0.133095
  16 C :   -0.280785
  17 C :    0.311724
  18 O :   -0.358836
  19 C :   -0.276578
  20 H :    0.091364
  21 H :    0.099160
  22 H :    0.098551
  23 H :    0.090948
  24 H :    0.104978
  25 H :    0.125165
  26 H :    0.104335
  27 H :    0.125972
  28 H :    0.197126
  29 H :    0.194000
  30 H :    0.154307
  31 H :    0.154391
  32 H :    0.159945
  33 H :    0.129274
  34 H :    0.240411
  35 H :    0.166101
Sum of atomic charges:    0.0000000

LOEWDIN ATOMIC CHARGES
----------------------
   0 C :    0.107988
   1 C :   -0.018161
   2 O :    0.298421
   3 C :   -0.415137
   4 O :    0.117517
   5 C :   -0.092620
   6 C :   -0.070976
   7 C :    0.125688
   8 N :    0.404330
   9 C :   -0.457981
  10 S :   -0.036403
  11 N :    0.397363
  12 C :   -0.045713
  13 C :   -0.039606
  14 C :    0.021853
  15 C :    0.041235
  16 C :   -0.002494
  17 C :   -0.193541
  18 O :    0.393120
  19 C :    0.027800
  20 H :   -0.029635
  21 H :   -0.023121
  22 H :   -0.026189
  23 H :   -0.028204
  24 H :   -0.027856
  25 H :   -0.008163
  26 H :   -0.020103
  27 H :   -0.010584
  28 H :   -0.058899
  29 H :   -0.063923
  30 H :   -0.004748
  31 H :   -0.025012
  32 H :   -0.020818
  33 H :   -0.036095
  34 H :   -0.154580
  35 H :   -0.024754

  Mayer bond orders larger than 0.100000
B(  0-C ,  1-C ) :   0.9713 B(  0-C , 20-H ) :   0.9785 B(  0-C , 21-H ) :   0.9779
B(  0-C , 22-H ) :   0.9770 B(  1-C ,  2-O ) :   0.9032 B(  1-C , 23-H ) :   0.9712
B(  1-C , 24-H ) :   0.9801 B(  2-O ,  3-C ) :   1.1163 B(  3-C ,  4-O ) :   2.0101
B(  3-C ,  5-C ) :   1.0361 B(  5-C ,  6-C ) :   1.6604 B(  5-C , 12-C ) :   0.9655
B(  6-C ,  7-C ) :   0.9525 B(  6-C ,  8-N ) :   1.1394 B(  7-C , 25-H ) :   0.9688
B(  7-C , 26-H ) :   0.9899 B(  7-C , 27-H ) :   0.9626 B(  8-N ,  9-C ) :   1.1825
B(  8-N , 28-H ) :   0.9494 B(  9-C , 10-S ) :   1.6103 B(  9-C , 11-N ) :   1.3018
B( 11-N , 12-C ) :   0.9915 B( 11-N , 29-H ) :   0.9518 B( 12-C , 13-C ) :   0.9459
B( 12-C , 30-H ) :   0.9988 B( 13-C , 14-C ) :   1.3770 B( 13-C , 19-C ) :   1.3684
B( 14-C , 15-C ) :   1.3948 B( 14-C , 31-H ) :   0.9645 B( 15-C , 16-C ) :   1.3631
B( 15-C , 32-H ) :   0.9712 B( 16-C , 17-C ) :   1.3310 B( 16-C , 33-H ) :   0.9855
B( 17-C , 18-O ) :   1.1088 B( 17-C , 19-C ) :   1.3774 B( 18-O , 34-H ) :   0.9802
B( 19-C , 35-H ) :   0.9582

MP2 TOTAL ENERGY:    -1274.335542076 Eh
FINAL SINGLE POINT ENERGY     -1274.335542075904

DIPOLE MOMENT
-------------
                                X             Y             Z
Electronic contribution:     12.10154       8.70220       9.20386
Nuclear contribution   :    -13.52041     -10.03391      -9.97035
                        -----------------------------------------
Total Dipole Moment    :     -1.41888      -1.33171      -0.76650
                        -----------------------------------------
Magnitude (a.u.)       :      2.09145
Magnitude (Debye)      :      5.31605

Rotational constants in cm-1:     0.010664     0.009165     0.006261
Rotational constants in MHz :   319.711268   274.758627   187.694850

                             ****ORCA TERMINATED NORMALLY****
TOTAL RUN TIME: 0 days 1 hours 54 minutes 28 seconds 650 msec
