                         Program Version 4.2.0 -  RELEASE  -
|  1> ! ri-mp2 cc-pvtz cc-pvtz/c TightSCF  NoKeepInts
|  2>
|  3> %scf
|  4>   MaxCore 4096
|  5> end
|  6> *xyz  0  1
|  7>     C       14.5715728   14.3983651   16.4907506
|  8>     C       15.5782565   15.5144176   16.8120128
|  9>     O       16.8123138   15.1730546   16.1515488
| 10>     C       18.0322396   15.5997736   16.6098310
| 11>     O       18.9840326   14.8411891   16.6067914
| 12>     C       18.0372650   16.8521426   17.4283603
| 13>     C       17.5269039   18.0272654   16.9888329
| 14>     C       16.9298909   18.3198121   15.6282205
| 15>     N       17.6222012   19.1684083   17.7885042
| 16>     C       18.3105604   19.2369894   18.9718313
| 17>     S       18.4353411   20.6489906   19.8229149
| 18>     N       18.8894942   18.0738132   19.4165509
| 19>     C       18.7332957   16.7481882   18.7854096
| 20>     C       17.9802435   15.7830492   19.6964508
| 21>     C       18.4166652   14.4522195   19.8292555
| 22>     C       17.7150353   13.5453649   20.6407472
| 23>     C       16.5637331   13.9707754   21.3246971
| 24>     C       16.1216171   15.2935747   21.1908263
| 25>     O       15.0021438   15.7043040   21.8376587
| 26>     C       16.8215511   16.1943695   20.3817963
| 27>     H       14.9477735   13.4287279   16.8411283
| 28>     H       14.3991726   14.3313318   15.4093173
| 29>     H       13.6104408   14.5915115   16.9824740
| 30>     H       15.1890944   16.4794189   16.4696437
| 31>     H       15.7175637   15.5505141   17.9004056
| 32>     H       17.0221084   17.4729391   14.9374804
| 33>     H       17.4441400   19.1651567   15.1531919
| 34>     H       15.8666308   18.5769573   15.7067370
| 35>     H       17.2204822   20.0369724   17.4714669
| 36>     H       19.3750868   18.1499612   20.3015528
| 37>     H       19.7405504   16.3401577   18.6137868
| 38>     H       19.2965071   14.1144026   19.2853048
| 39>     H       18.0615188   12.5170613   20.7302835
| 40>     H       16.0173099   13.2720352   21.9496280
| 41>     H       14.6966155   14.9662894   22.3868674
| 42>     H       16.4576482   17.2124959   20.2917405
| 43> *
| 44>
| 45>                          ****END OF INPUT****

CARTESIAN COORDINATES (ANGSTROEM)
---------------------------------
  C     14.571573   14.398365   16.490751
  C     15.578257   15.514418   16.812013
  O     16.812314   15.173055   16.151549
  C     18.032240   15.599774   16.609831
  O     18.984033   14.841189   16.606791
  C     18.037265   16.852143   17.428360
  C     17.526904   18.027265   16.988833
  C     16.929891   18.319812   15.628220
  N     17.622201   19.168408   17.788504
  C     18.310560   19.236989   18.971831
  S     18.435341   20.648991   19.822915
  N     18.889494   18.073813   19.416551
  C     18.733296   16.748188   18.785410
  C     17.980243   15.783049   19.696451
  C     18.416665   14.452219   19.829255
  C     17.715035   13.545365   20.640747
  C     16.563733   13.970775   21.324697
  C     16.121617   15.293575   21.190826
  O     15.002144   15.704304   21.837659
  C     16.821551   16.194370   20.381796
  H     14.947774   13.428728   16.841128
  H     14.399173   14.331332   15.409317
  H     13.610441   14.591511   16.982474
  H     15.189094   16.479419   16.469644
  H     15.717564   15.550514   17.900406
  H     17.022108   17.472939   14.937480
  H     17.444140   19.165157   15.153192
  H     15.866631   18.576957   15.706737
  H     17.220482   20.036972   17.471467
  H     19.375087   18.149961   20.301553
  H     19.740550   16.340158   18.613787
  H     19.296507   14.114403   19.285305
  H     18.061519   12.517061   20.730283
  H     16.017310   13.272035   21.949628
  H     14.696616   14.966289   22.386867
  H     16.457648   17.212496   20.291740

 Total Charge           Charge          ....    0
 Multiplicity           Mult            ....    1
 Number of Electrons    NEL             ....  154
 Basis Dimension        Dim             ....  828

ORBITAL ENERGIES
----------------

  NO   OCC          E(Eh)            E(eV)
   0   2.0000     -91.890772     -2500.4750
   1   2.0000     -20.599856      -560.5506
   2   2.0000     -20.598230      -560.5063
   3   2.0000     -20.550862      -559.2174
   4   2.0000     -15.628545      -425.2743
   5   2.0000     -15.611631      -424.8141
   6   2.0000     -11.397101      -310.1309
   7   2.0000     -11.387278      -309.8636
   8   2.0000     -11.333053      -308.3881
   9   2.0000     -11.316801      -307.9458
  10   2.0000     -11.313793      -307.8640
  11   2.0000     -11.303051      -307.5717
  12   2.0000     -11.268338      -306.6271
  13   2.0000     -11.265110      -306.5392
  14   2.0000     -11.263313      -306.4903
  15   2.0000     -11.256743      -306.3115
  16   2.0000     -11.246076      -306.0213
  17   2.0000     -11.242199      -305.9158
  18   2.0000     -11.238965      -305.8278
  19   2.0000     -11.231798      -305.6328
  20   2.0000      -8.895876      -242.0691
  21   2.0000      -6.577460      -178.9818
  22   2.0000      -6.575439      -178.9268
  23   2.0000      -6.574860      -178.9110
  24   2.0000      -1.448610       -39.4187
  25   2.0000      -1.419682       -38.6315
  26   2.0000      -1.360139       -37.0113
  27   2.0000      -1.341461       -36.5030
  28   2.0000      -1.240666       -33.7603
  29   2.0000      -1.161308       -31.6008
  30   2.0000      -1.125525       -30.6271
  31   2.0000      -1.048829       -28.5401
  32   2.0000      -1.039161       -28.2770
  33   2.0000      -1.018921       -27.7263
  34   2.0000      -1.005390       -27.3581
  35   2.0000      -0.989516       -26.9261
  36   2.0000      -0.927958       -25.2510
  37   2.0000      -0.879346       -23.9282
  38   2.0000      -0.856365       -23.3029
  39   2.0000      -0.842884       -22.9360
  40   2.0000      -0.837298       -22.7840
  41   2.0000      -0.836365       -22.7586
  42   2.0000      -0.756606       -20.5883
  43   2.0000      -0.740016       -20.1369
  44   2.0000      -0.731848       -19.9146
  45   2.0000      -0.697616       -18.9831
  46   2.0000      -0.688495       -18.7349
  47   2.0000      -0.681916       -18.5559
  48   2.0000      -0.677321       -18.4308
  49   2.0000      -0.662874       -18.0377
  50   2.0000      -0.656470       -17.8635
  51   2.0000      -0.650662       -17.7054
  52   2.0000      -0.640823       -17.4377
  53   2.0000      -0.611655       -16.6440
  54   2.0000      -0.607851       -16.5405
  55   2.0000      -0.603750       -16.4289
  56   2.0000      -0.595332       -16.1998
  57   2.0000      -0.585587       -15.9346
  58   2.0000      -0.577991       -15.7279
  59   2.0000      -0.569042       -15.4844
  60   2.0000      -0.563353       -15.3296
  61   2.0000      -0.559156       -15.2154
  62   2.0000      -0.549561       -14.9543
  63   2.0000      -0.526406       -14.3242
  64   2.0000      -0.518184       -14.1005
  65   2.0000      -0.516037       -14.0421
  66   2.0000      -0.502693       -13.6790
  67   2.0000      -0.501332       -13.6419
  68   2.0000      -0.490257       -13.3406
  69   2.0000      -0.470442       -12.8014
  70   2.0000      -0.456535       -12.4229
  71   2.0000      -0.451324       -12.2812
  72   2.0000      -0.358142        -9.7455
  73   2.0000      -0.351806        -9.5731
  74   2.0000      -0.330333        -8.9888
  75   2.0000      -0.324590        -8.8326
  76   2.0000      -0.319407        -8.6915
  77   0.0000       0.080594         2.1931
  78   0.0000       0.104361         2.8398
  79   0.0000       0.115092         3.1318
  80   0.0000       0.129075         3.5123
  81   0.0000       0.132455         3.6043

MULLIKEN ATOMIC CHARGES
-----------------------
   0 C :   -0.259090
   1 C :    0.019003
   2 O :   -0.316665
   3 C :    0.410546
   4 O :   -0.381827
   5 C :   -0.208236
   6 C :    0.152215
   7 C :   -0.329417
   8 N :   -0.137384
   9 C :    0.200844
  10 S :   -0.439128
  11 N :   -0.212900
  12 C :    0.074768
  13 C :    0.022770
  14 C :   -0.193580
  15 C :   -0.132543
  16 C :   -0.275318
  17 C :    0.325008
  18 O :   -0.358325
  19 C :   -0.289696
  20 H :    0.107638
  21 H :    0.100253
  22 H :    0.089077
  23 H :    0.084085
  24 H :    0.112450
  25 H :    0.133803
  26 H :    0.138336
  27 H :    0.119584
  28 H :    0.196705
  29 H :    0.198116
  30 H :    0.164029
  31 H :    0.170258
  32 H :    0.164087
  33 H :    0.132573
  34 H :    0.241520
  35 H :    0.176443
Sum of atomic charges:   -0.0000000

LOEWDIN ATOMIC CHARGES
----------------------
   0 C :    0.111984
   1 C :   -0.024014
   2 O :    0.301602
   3 C :   -0.415770
   4 O :    0.124521
   5 C :   -0.084730
   6 C :   -0.093567
   7 C :    0.123925
   8 N :    0.402601
   9 C :   -0.457053
  10 S :   -0.036221
  11 N :    0.397178
  12 C :   -0.044596
  13 C :   -0.044828
  14 C :    0.021738
  15 C :    0.045180
  16 C :   -0.000233
  17 C :   -0.194628
  18 O :    0.394674
  19 C :    0.026129
  20 H :   -0.021730
  21 H :   -0.026688
  22 H :   -0.025279
  23 H :   -0.038227
  24 H :   -0.030333
  25 H :   -0.007843
  26 H :   -0.010227
  27 H :   -0.018553
  28 H :   -0.056981
  29 H :   -0.063550
  30 H :   -0.002472
  31 H :   -0.021684
  32 H :   -0.018444
  33 H :   -0.034601
  34 H :   -0.152928
  35 H :   -0.024353

  Mayer bond orders larger than 0.100000
B(  0-C ,  1-C ) :   0.9865 B(  0-C , 20-H ) :   0.9782 B(  0-C , 21-H ) :   0.9796
B(  0-C , 22-H ) :   0.9768 B(  1-C ,  2-O ) :   0.9036 B(  1-C , 23-H ) :   0.9710
B(  1-C , 24-H ) :   0.9634 B(  2-O ,  3-C ) :   1.1852 B(  3-C ,  4-O ) :   2.0912
B(  3-C ,  5-C ) :   0.9337 B(  5-C ,  6-C ) :   1.6694 B(  5-C , 12-C ) :   0.9559
B(  6-C ,  7-C ) :   0.9447 B(  6-C ,  8-N ) :   1.1257 B(  7-C , 25-H ) :   0.9774
B(  7-C , 26-H ) :   0.9696 B(  7-C , 27-H ) :   0.9663 B(  8-N ,  9-C ) :   1.1921
B(  8-N , 28-H ) :   0.9520 B(  9-C , 10-S ) :   1.6126 B(  9-C , 11-N ) :   1.2905
B( 11-N , 12-C ) :   0.9956 B( 11-N , 29-H ) :   0.9496 B( 12-C , 13-C ) :   0.9418
B( 12-C , 30-H ) :   0.9975 B( 13-C , 14-C ) :   1.3883 B( 13-C , 19-C ) :   1.3456
B( 14-C , 15-C ) :   1.3966 B( 14-C , 31-H ) :   0.9594 B( 15-C , 16-C ) :   1.3639
B( 15-C , 32-H ) :   0.9699 B( 16-C , 17-C ) :   1.3299 B( 16-C , 33-H ) :   0.9842
B( 17-C , 18-O ) :   1.1097 B( 17-C , 19-C ) :   1.3637 B( 18-O , 34-H ) :   0.9793
B( 19-C , 35-H ) :   0.9592

MP2 TOTAL ENERGY:    -1274.336054781 Eh
FINAL SINGLE POINT ENERGY     -1274.336054781328

DIPOLE MOMENT
-------------
                                X             Y             Z
Electronic contribution:     10.75776       8.48664       7.32204
Nuclear contribution   :    -12.25281      -9.48318      -7.67088
                        -----------------------------------------
Total Dipole Moment    :     -1.49506      -0.99654      -0.34884
                        -----------------------------------------
Magnitude (a.u.)       :      1.83029
Magnitude (Debye)      :      4.65224

Rotational constants in cm-1:     0.011612     0.009162     0.006696
Rotational constants in MHz :   348.127011   274.684794   200.736430

                             ****ORCA TERMINATED NORMALLY****
TOTAL RUN TIME: 0 days 1 hours 43 minutes 43 seconds 226 msec
