                         Program Version 4.2.0 -  RELEASE  -
|  1> ! ri-mp2 cc-pvtz cc-pvtz/c TightSCF  NoKeepInts
|  2>
|  3> %scf
|  4>   MaxCore 4096
|  5> end
|  6> *xyz  0  1
|  7>     C       15.0656957   15.1829457   16.8486914
|  8>     C       16.3153173   14.2737285   16.8152176
|  9>     O       17.4108426   14.8745973   16.0851606
| 10>     C       17.6270823   16.2220821   15.9729371
| 11>     O       17.5863634   16.7369095   14.8708799
| 12>     C       17.7315519   17.0214608   17.2442557
| 13>     C       17.3237676   18.3148259   17.2940226
| 14>     C       16.5375442   19.0650655   16.2411732
| 15>     N       17.6803668   19.1178795   18.3816350
| 16>     C       18.6647507   18.7951199   19.2793582
| 17>     S       19.2234812   19.8779562   20.3976254
| 18>     N       19.1797219   17.5257549   19.1840493
| 19>     C       18.5572369   16.4385096   18.4061285
| 20>     C       17.7790451   15.5584059   19.3763923
| 21>     C       18.2999158   14.3089717   19.7650116
| 22>     C       17.5980267   13.4906490   20.6660379
| 23>     C       16.3709158   13.9286598   21.1923067
| 24>     C       15.8598684   15.1806147   20.8248492
| 25>     O       14.6777363   15.6094826   21.3333925
| 26>     C       16.5602246   15.9929231   19.9281399
| 27>     H       15.2166283   16.0720602   17.4691455
| 28>     H       14.2136298   14.6332958   17.2669103
| 29>     H       14.7932667   15.5046323   15.8352255
| 30>     H       16.6079388   14.0084705   17.8326193
| 31>     H       16.0503649   13.3321620   16.3171033
| 32>     H       15.7489264   18.4322330   15.8151921
| 33>     H       17.1952329   19.3648860   15.4147801
| 34>     H       16.0555635   19.9671791   16.6358033
| 35>     H       17.3341393   20.0625500   18.4387720
| 36>     H       19.8954969   17.3103661   19.8661385
| 37>     H       19.3632440   15.8345577   17.9653911
| 38>     H       19.2501377   13.9671749   19.3624859
| 39>     H       18.0067026   12.5240024   20.9566648
| 40>     H       15.8257106   13.3001390   21.8891340
| 41>     H       14.3874566   14.9571948   21.9891417
| 42>     H       16.1531061   16.9645540   19.6722280
| 43> *
| 44>
| 45>                          ****END OF INPUT****

CARTESIAN COORDINATES (ANGSTROEM)
---------------------------------
  C     15.065696   15.182946   16.848691
  C     16.315317   14.273729   16.815218
  O     17.410843   14.874597   16.085161
  C     17.627082   16.222082   15.972937
  O     17.586363   16.736909   14.870880
  C     17.731552   17.021461   17.244256
  C     17.323768   18.314826   17.294023
  C     16.537544   19.065065   16.241173
  N     17.680367   19.117879   18.381635
  C     18.664751   18.795120   19.279358
  S     19.223481   19.877956   20.397625
  N     19.179722   17.525755   19.184049
  C     18.557237   16.438510   18.406129
  C     17.779045   15.558406   19.376392
  C     18.299916   14.308972   19.765012
  C     17.598027   13.490649   20.666038
  C     16.370916   13.928660   21.192307
  C     15.859868   15.180615   20.824849
  O     14.677736   15.609483   21.333392
  C     16.560225   15.992923   19.928140
  H     15.216628   16.072060   17.469145
  H     14.213630   14.633296   17.266910
  H     14.793267   15.504632   15.835225
  H     16.607939   14.008470   17.832619
  H     16.050365   13.332162   16.317103
  H     15.748926   18.432233   15.815192
  H     17.195233   19.364886   15.414780
  H     16.055564   19.967179   16.635803
  H     17.334139   20.062550   18.438772
  H     19.895497   17.310366   19.866138
  H     19.363244   15.834558   17.965391
  H     19.250138   13.967175   19.362486
  H     18.006703   12.524002   20.956665
  H     15.825711   13.300139   21.889134
  H     14.387457   14.957195   21.989142
  H     16.153106   16.964554   19.672228

 Total Charge           Charge          ....    0
 Multiplicity           Mult            ....    1
 Number of Electrons    NEL             ....  154
 Basis Dimension        Dim             ....  828

ORBITAL ENERGIES
----------------

  NO   OCC          E(Eh)            E(eV)
   0   2.0000     -91.891585     -2500.4972
   1   2.0000     -20.605211      -560.6963
   2   2.0000     -20.584309      -560.1275
   3   2.0000     -20.547488      -559.1256
   4   2.0000     -15.630772      -425.3349
   5   2.0000     -15.611032      -424.7978
   6   2.0000     -11.393460      -310.0318
   7   2.0000     -11.386165      -309.8333
   8   2.0000     -11.334592      -308.4299
   9   2.0000     -11.323224      -308.1206
  10   2.0000     -11.317093      -307.9538
  11   2.0000     -11.298362      -307.4441
  12   2.0000     -11.268182      -306.6228
  13   2.0000     -11.264478      -306.5220
  14   2.0000     -11.259454      -306.3853
  15   2.0000     -11.254556      -306.2520
  16   2.0000     -11.252140      -306.1863
  17   2.0000     -11.246928      -306.0445
  18   2.0000     -11.246434      -306.0310
  19   2.0000     -11.230097      -305.5865
  20   2.0000      -8.896586      -242.0884
  21   2.0000      -6.578146      -179.0004
  22   2.0000      -6.576158      -178.9464
  23   2.0000      -6.575559      -178.9300
  24   2.0000      -1.441276       -39.2191
  25   2.0000      -1.424830       -38.7716
  26   2.0000      -1.351384       -36.7730
  27   2.0000      -1.342852       -36.5409
  28   2.0000      -1.241914       -33.7942
  29   2.0000      -1.165721       -31.7209
  30   2.0000      -1.122643       -30.5487
  31   2.0000      -1.049472       -28.5576
  32   2.0000      -1.031757       -28.0755
  33   2.0000      -1.024297       -27.8725
  34   2.0000      -1.002261       -27.2729
  35   2.0000      -0.987988       -26.8845
  36   2.0000      -0.927987       -25.2518
  37   2.0000      -0.896781       -24.4027
  38   2.0000      -0.850614       -23.1464
  39   2.0000      -0.848094       -23.0778
  40   2.0000      -0.842048       -22.9133
  41   2.0000      -0.826433       -22.4884
  42   2.0000      -0.748867       -20.3777
  43   2.0000      -0.738542       -20.0967
  44   2.0000      -0.716020       -19.4839
  45   2.0000      -0.704149       -19.1609
  46   2.0000      -0.693644       -18.8750
  47   2.0000      -0.677638       -18.4395
  48   2.0000      -0.672855       -18.3093
  49   2.0000      -0.661755       -18.0073
  50   2.0000      -0.655200       -17.8289
  51   2.0000      -0.650944       -17.7131
  52   2.0000      -0.638175       -17.3656
  53   2.0000      -0.626007       -17.0345
  54   2.0000      -0.615496       -16.7485
  55   2.0000      -0.607123       -16.5206
  56   2.0000      -0.602786       -16.4026
  57   2.0000      -0.584810       -15.9135
  58   2.0000      -0.575767       -15.6674
  59   2.0000      -0.566743       -15.4219
  60   2.0000      -0.548307       -14.9202
  61   2.0000      -0.544566       -14.8184
  62   2.0000      -0.540607       -14.7107
  63   2.0000      -0.535761       -14.5788
  64   2.0000      -0.533037       -14.5047
  65   2.0000      -0.517938       -14.0938
  66   2.0000      -0.508790       -13.8449
  67   2.0000      -0.497046       -13.5253
  68   2.0000      -0.479540       -13.0489
  69   2.0000      -0.470134       -12.7930
  70   2.0000      -0.448274       -12.1981
  71   2.0000      -0.445443       -12.1211
  72   2.0000      -0.359627        -9.7859
  73   2.0000      -0.357202        -9.7200
  74   2.0000      -0.333562        -9.0767
  75   2.0000      -0.328786        -8.9467
  76   2.0000      -0.318229        -8.6595
  77   0.0000       0.070828         1.9273
  78   0.0000       0.102243         2.7822
  79   0.0000       0.119671         3.2564
  80   0.0000       0.125255         3.4084
  81   0.0000       0.130137         3.5412

MULLIKEN ATOMIC CHARGES
-----------------------
   0 C :   -0.339160
   1 C :    0.033836
   2 O :   -0.356511
   3 C :    0.454152
   4 O :   -0.379001
   5 C :   -0.275093
   6 C :    0.156858
   7 C :   -0.277518
   8 N :   -0.127787
   9 C :    0.211340
  10 S :   -0.434335
  11 N :   -0.194410
  12 C :    0.048434
  13 C :    0.066077
  14 C :   -0.195441
  15 C :   -0.128716
  16 C :   -0.275165
  17 C :    0.321570
  18 O :   -0.356904
  19 C :   -0.294552
  20 H :    0.102358
  21 H :    0.115033
  22 H :    0.121932
  23 H :    0.106537
  24 H :    0.124212
  25 H :    0.123044
  26 H :    0.145316
  27 H :    0.094299
  28 H :    0.198521
  29 H :    0.190357
  30 H :    0.149776
  31 H :    0.150372
  32 H :    0.163982
  33 H :    0.134490
  34 H :    0.242901
  35 H :    0.179197
Sum of atomic charges:   -0.0000000

LOEWDIN ATOMIC CHARGES
----------------------
   0 C :    0.104298
   1 C :   -0.011908
   2 O :    0.284258
   3 C :   -0.424364
   4 O :    0.127844
   5 C :   -0.095309
   6 C :   -0.069033
   7 C :    0.129486
   8 N :    0.406737
   9 C :   -0.455121
  10 S :   -0.031017
  11 N :    0.396388
  12 C :   -0.052463
  13 C :   -0.040538
  14 C :    0.010382
  15 C :    0.043144
  16 C :    0.000441
  17 C :   -0.189319
  18 O :    0.397136
  19 C :    0.034342
  20 H :   -0.037674
  21 H :   -0.021692
  22 H :   -0.025061
  23 H :   -0.038479
  24 H :   -0.022306
  25 H :   -0.008200
  26 H :   -0.002103
  27 H :   -0.022388
  28 H :   -0.057422
  29 H :   -0.066128
  30 H :   -0.004436
  31 H :   -0.029498
  32 H :   -0.018831
  33 H :   -0.033502
  34 H :   -0.151701
  35 H :   -0.025964

  Mayer bond orders larger than 0.100000
B(  0-C ,  1-C ) :   0.9610 B(  0-C , 20-H ) :   0.9683 B(  0-C , 21-H ) :   0.9764
B(  0-C , 22-H ) :   0.9737 B(  1-C ,  2-O ) :   0.9026 B(  1-C , 23-H ) :   0.9659
B(  1-C , 24-H ) :   0.9829 B(  2-O ,  3-C ) :   1.1507 B(  3-C ,  4-O ) :   2.0797
B(  3-C ,  5-C ) :   0.9784 B(  5-C ,  6-C ) :   1.6724 B(  5-C , 12-C ) :   0.9763
B(  6-C ,  7-C ) :   0.9646 B(  6-C ,  8-N ) :   1.1428 B(  7-C , 25-H ) :   0.9701
B(  7-C , 26-H ) :   0.9556 B(  7-C , 27-H ) :   0.9845 B(  8-N ,  9-C ) :   1.1811
B(  8-N , 28-H ) :   0.9498 B(  9-C , 10-S ) :   1.6174 B(  9-C , 11-N ) :   1.2953
B( 11-N , 12-C ) :   0.9663 B( 11-N , 29-H ) :   0.9550 B( 12-C , 13-C ) :   0.9522
B( 12-C , 30-H ) :   1.0023 B( 13-C , 14-C ) :   1.3434 B( 13-C , 19-C ) :   1.3609
B( 14-C , 15-C ) :   1.3931 B( 14-C , 31-H ) :   0.9753 B( 15-C , 16-C ) :   1.3684
B( 15-C , 32-H ) :   0.9697 B( 16-C , 17-C ) :   1.3266 B( 16-C , 33-H ) :   0.9830
B( 17-C , 18-O ) :   1.1153 B( 17-C , 19-C ) :   1.3720 B( 18-O , 34-H ) :   0.9786
B( 19-C , 35-H ) :   0.9511

MP2 TOTAL ENERGY:    -1274.327603814 Eh
FINAL SINGLE POINT ENERGY     -1274.327603814236

DIPOLE MOMENT
-------------
                                X             Y             Z
Electronic contribution:     10.02665       7.20863       5.05059
Nuclear contribution   :    -11.35176      -8.84915      -4.42315
                        -----------------------------------------
Total Dipole Moment    :     -1.32511      -1.64052       0.62744
                        -----------------------------------------
Magnitude (a.u.)       :      2.20021
Magnitude (Debye)      :      5.59248

Rotational constants in cm-1:     0.011546     0.009956     0.006790
Rotational constants in MHz :   346.137140   298.468461   203.568965

                             ****ORCA TERMINATED NORMALLY****
TOTAL RUN TIME: 0 days 1 hours 50 minutes 8 seconds 246 msec
