                         Program Version 5.0.0 -  RELEASE  -
|  1> ! ri-mp2 cc-pvtz cc-pvtz/c TightSCF NoKeepInts
|  2>
|  3> %scf
|  4>   MaxCore 4096
|  5> end
|  6> *xyz  0  1
|  7>     C       15.1963842   15.0487873   17.4539873
|  8>     C       15.5463434   15.4716565   16.0151638
|  9>     O       16.9423602   15.2339178   15.7210956
| 10>     C       18.0250817   15.6178320   16.4765055
| 11>     O       19.0024289   14.8941663   16.5309161
| 12>     C       17.9018605   16.8154042   17.3707737
| 13>     C       17.4042049   18.0097980   16.9630984
| 14>     C       16.9502462   18.4048104   15.5727154
| 15>     N       17.4256760   19.1060738   17.8287374
| 16>     C       18.0821811   19.1409528   19.0301102
| 17>     S       18.1473863   20.5160413   19.9459586
| 18>     N       18.6908646   17.9783457   19.4297969
| 19>     C       18.5623578   16.6740622   18.7503384
| 20>     C       17.8465681   15.6551633   19.6366961
| 21>     C       18.2554070   14.3083306   19.6303255
| 22>     C       17.6044390   13.3551341   20.4306805
| 23>     C       16.5345128   13.7498187   21.2508783
| 24>     C       16.1253700   15.0896116   21.2659838
| 25>     O       15.0874397   15.4731244   22.0508988
| 26>     C       16.7754346   16.0368917   20.4683997
| 27>     H       15.7360344   14.1378939   17.7445415
| 28>     H       14.1217069   14.8478320   17.5402446
| 29>     H       15.4345877   15.8465883   18.1632196
| 30>     H       14.9486405   14.8684237   15.3193879
| 31>     H       15.2582590   16.5143900   15.8604387
| 32>     H       17.1501641   17.6270714   14.8263882
| 33>     H       17.4891189   19.2982351   15.2314772
| 34>     H       15.8789553   18.6381041   15.5516633
| 35>     H       17.0081197   19.9772982   17.5414075
| 36>     H       19.1600912   18.0278866   20.3253976
| 37>     H       19.5828732   16.2979447   18.5841722
| 38>     H       19.0788872   13.9952839   18.9918045
| 39>     H       17.9296362   12.3162903   20.4097945
| 40>     H       16.0276552   13.0161281   21.8689525
| 41>     H       14.8025666   14.6966233   22.5559879
| 42>     H       16.4331571   17.0660838   20.4960620
| 43> *
| 44>
| 45>                          ****END OF INPUT****

CARTESIAN COORDINATES (ANGSTROEM)
---------------------------------
  C     15.196384   15.048787   17.453987
  C     15.546343   15.471656   16.015164
  O     16.942360   15.233918   15.721096
  C     18.025082   15.617832   16.476505
  O     19.002429   14.894166   16.530916
  C     17.901861   16.815404   17.370774
  C     17.404205   18.009798   16.963098
  C     16.950246   18.404810   15.572715
  N     17.425676   19.106074   17.828737
  C     18.082181   19.140953   19.030110
  S     18.147386   20.516041   19.945959
  N     18.690865   17.978346   19.429797
  C     18.562358   16.674062   18.750338
  C     17.846568   15.655163   19.636696
  C     18.255407   14.308331   19.630325
  C     17.604439   13.355134   20.430681
  C     16.534513   13.749819   21.250878
  C     16.125370   15.089612   21.265984
  O     15.087440   15.473124   22.050899
  C     16.775435   16.036892   20.468400
  H     15.736034   14.137894   17.744542
  H     14.121707   14.847832   17.540245
  H     15.434588   15.846588   18.163220
  H     14.948640   14.868424   15.319388
  H     15.258259   16.514390   15.860439
  H     17.150164   17.627071   14.826388
  H     17.489119   19.298235   15.231477
  H     15.878955   18.638104   15.551663
  H     17.008120   19.977298   17.541407
  H     19.160091   18.027887   20.325398
  H     19.582873   16.297945   18.584172
  H     19.078887   13.995284   18.991805
  H     17.929636   12.316290   20.409794
  H     16.027655   13.016128   21.868952
  H     14.802567   14.696623   22.555988
  H     16.433157   17.066084   20.496062

 Total Charge           Charge          ....    0
 Multiplicity           Mult            ....    1
 Number of Electrons    NEL             ....  154
 Basis Dimension        Dim             ....  828

ORBITAL ENERGIES
----------------

  NO   OCC          E(Eh)            E(eV)
   0   2.0000     -91.891095     -2500.4838
   1   2.0000     -20.598263      -560.5072
   2   2.0000     -20.597474      -560.4858
   3   2.0000     -20.549615      -559.1834
   4   2.0000     -15.629340      -425.2960
   5   2.0000     -15.611130      -424.8004
   6   2.0000     -11.400409      -310.2209
   7   2.0000     -11.387121      -309.8593
   8   2.0000     -11.336256      -308.4752
   9   2.0000     -11.314140      -307.8734
  10   2.0000     -11.313234      -307.8487
  11   2.0000     -11.308228      -307.7125
  12   2.0000     -11.269029      -306.6459
  13   2.0000     -11.269006      -306.6452
  14   2.0000     -11.261548      -306.4423
  15   2.0000     -11.254304      -306.2452
  16   2.0000     -11.243634      -305.9548
  17   2.0000     -11.239297      -305.8368
  18   2.0000     -11.235494      -305.7333
  19   2.0000     -11.227981      -305.5289
  20   2.0000      -8.896191      -242.0777
  21   2.0000      -6.577776      -178.9904
  22   2.0000      -6.575753      -178.9353
  23   2.0000      -6.575173      -178.9196
  24   2.0000      -1.445831       -39.3431
  25   2.0000      -1.417285       -38.5663
  26   2.0000      -1.358387       -36.9636
  27   2.0000      -1.342662       -36.5357
  28   2.0000      -1.241209       -33.7750
  29   2.0000      -1.158519       -31.5249
  30   2.0000      -1.124810       -30.6076
  31   2.0000      -1.047057       -28.4919
  32   2.0000      -1.037664       -28.2363
  33   2.0000      -1.017163       -27.6784
  34   2.0000      -1.005811       -27.3695
  35   2.0000      -0.989928       -26.9373
  36   2.0000      -0.927834       -25.2476
  37   2.0000      -0.896559       -24.3966
  38   2.0000      -0.855487       -23.2790
  39   2.0000      -0.841184       -22.8898
  40   2.0000      -0.834175       -22.6991
  41   2.0000      -0.829458       -22.5707
  42   2.0000      -0.745903       -20.2971
  43   2.0000      -0.739237       -20.1157
  44   2.0000      -0.730198       -19.8697
  45   2.0000      -0.695288       -18.9197
  46   2.0000      -0.687050       -18.6956
  47   2.0000      -0.681043       -18.5321
  48   2.0000      -0.675433       -18.3795
  49   2.0000      -0.660579       -17.9753
  50   2.0000      -0.656115       -17.8538
  51   2.0000      -0.650340       -17.6967
  52   2.0000      -0.639352       -17.3977
  53   2.0000      -0.623545       -16.9675
  54   2.0000      -0.610186       -16.6040
  55   2.0000      -0.605452       -16.4752
  56   2.0000      -0.601420       -16.3655
  57   2.0000      -0.588263       -16.0075
  58   2.0000      -0.576273       -15.6812
  59   2.0000      -0.565793       -15.3960
  60   2.0000      -0.565565       -15.3898
  61   2.0000      -0.551236       -14.9999
  62   2.0000      -0.539877       -14.6908
  63   2.0000      -0.535965       -14.5843
  64   2.0000      -0.520479       -14.1630
  65   2.0000      -0.512937       -13.9577
  66   2.0000      -0.501261       -13.6400
  67   2.0000      -0.498712       -13.5707
  68   2.0000      -0.482519       -13.1300
  69   2.0000      -0.469373       -12.7723
  70   2.0000      -0.457322       -12.4444
  71   2.0000      -0.449917       -12.2429
  72   2.0000      -0.359293        -9.7769
  73   2.0000      -0.348289        -9.4774
  74   2.0000      -0.330603        -8.9962
  75   2.0000      -0.322837        -8.7848
  76   2.0000      -0.319647        -8.6980
  77   0.0000       0.078723         2.1422
  78   0.0000       0.106847         2.9075
  79   0.0000       0.114653         3.1199
  80   0.0000       0.130381         3.5478
  81   0.0000       0.131324         3.5735

MULLIKEN ATOMIC CHARGES
-----------------------
   0 C :   -0.328198
   1 C :    0.028482
   2 O :   -0.332367
   3 C :    0.438055
   4 O :   -0.386550
   5 C :   -0.252416
   6 C :    0.178868
   7 C :   -0.334621
   8 N :   -0.136855
   9 C :    0.198658
  10 S :   -0.438954
  11 N :   -0.222984
  12 C :    0.086477
  13 C :    0.023878
  14 C :   -0.219506
  15 C :   -0.136325
  16 C :   -0.275021
  17 C :    0.322143
  18 O :   -0.357187
  19 C :   -0.272583
  20 H :    0.125806
  21 H :    0.113061
  22 H :    0.109141
  23 H :    0.127208
  24 H :    0.085578
  25 H :    0.136190
  26 H :    0.139432
  27 H :    0.120594
  28 H :    0.196933
  29 H :    0.201790
  30 H :    0.166158
  31 H :    0.177928
  32 H :    0.164867
  33 H :    0.131722
  34 H :    0.240903
  35 H :    0.179693
Sum of atomic charges:    0.0000000

LOEWDIN ATOMIC CHARGES
----------------------
   0 C :    0.105998
   1 C :   -0.020107
   2 O :    0.295320
   3 C :   -0.414281
   4 O :    0.122941
   5 C :   -0.081375
   6 C :   -0.090678
   7 C :    0.122153
   8 N :    0.403268
   9 C :   -0.459481
  10 S :   -0.036152
  11 N :    0.398002
  12 C :   -0.042873
  13 C :   -0.042005
  14 C :    0.019969
  15 C :    0.042732
  16 C :   -0.001420
  17 C :   -0.192737
  18 O :    0.395301
  19 C :    0.027325
  20 H :   -0.018979
  21 H :   -0.024788
  22 H :   -0.034640
  23 H :   -0.019615
  24 H :   -0.039448
  25 H :   -0.008044
  26 H :   -0.009236
  27 H :   -0.019305
  28 H :   -0.056771
  29 H :   -0.063048
  30 H :   -0.002171
  31 H :   -0.022608
  32 H :   -0.018962
  33 H :   -0.035093
  34 H :   -0.153540
  35 H :   -0.025652

  Mayer bond orders larger than 0.100000
B(  0-C ,  1-C ) :   0.9556 B(  0-C , 20-H ) :   0.9680 B(  0-C , 21-H ) :   0.9778
B(  0-C , 22-H ) :   0.9724 B(  1-C ,  2-O ) :   0.9018 B(  1-C , 23-H ) :   0.9831
B(  1-C , 24-H ) :   0.9728 B(  2-O ,  3-C ) :   1.1730 B(  3-C ,  4-O ) :   2.0751
B(  3-C ,  5-C ) :   0.9391 B(  5-C ,  6-C ) :   1.6750 B(  5-C , 12-C ) :   0.9482
B(  6-C ,  7-C ) :   0.9428 B(  6-C ,  8-N ) :   1.1185 B(  7-C , 25-H ) :   0.9770
B(  7-C , 26-H ) :   0.9700 B(  7-C , 27-H ) :   0.9663 B(  8-N ,  9-C ) :   1.1925
B(  8-N , 28-H ) :   0.9521 B(  9-C , 10-S ) :   1.6106 B(  9-C , 11-N ) :   1.2918
B( 11-N , 12-C ) :   0.9868 B( 11-N , 29-H ) :   0.9485 B( 12-C , 13-C ) :   0.9539
B( 12-C , 30-H ) :   0.9953 B( 13-C , 14-C ) :   1.3870 B( 13-C , 19-C ) :   1.3374
B( 14-C , 15-C ) :   1.4002 B( 14-C , 31-H ) :   0.9571 B( 15-C , 16-C ) :   1.3586
B( 15-C , 32-H ) :   0.9698 B( 16-C , 17-C ) :   1.3313 B( 16-C , 33-H ) :   0.9847
B( 17-C , 18-O ) :   1.1103 B( 17-C , 19-C ) :   1.3647 B( 18-O , 34-H ) :   0.9797
B( 19-C , 35-H ) :   0.9582

MP2 TOTAL ENERGY:    -1274.333009199 Eh
FINAL SINGLE POINT ENERGY     -1274.333009199338

DIPOLE MOMENT
-------------
                                X             Y             Z
Electronic contribution:      8.94993       6.88588       6.27659
Nuclear contribution   :    -10.48288      -7.85137      -6.87846
                        -----------------------------------------
Total Dipole Moment    :     -1.53296      -0.96549      -0.60187
                        -----------------------------------------
Magnitude (a.u.)       :      1.90903
Magnitude (Debye)      :      4.85236

Rotational constants in cm-1:     0.011624     0.009659     0.006684
Rotational constants in MHz :   348.471961   289.563332   200.389422

                             ****ORCA TERMINATED NORMALLY****
TOTAL RUN TIME: 0 days 2 hours 11 minutes 19 seconds 705 msec
