                         Program Version 4.2.0 -  RELEASE  -
|  1> ! ri-mp2 cc-pvtz cc-pvtz/c TightSCF  NoKeepInts
|  2>
|  3> %scf
|  4>   MaxCore 4096
|  5> end
|  6> *xyz  0  1
|  7>     C       14.6425834   14.2991611   16.3400539
|  8>     C       15.5723032   15.4302719   16.8075452
|  9>     O       16.7682724   15.3558471   16.0087792
| 10>     C       17.9777259   15.6133791   16.5907343
| 11>     O       18.8147119   14.7344956   16.6850566
| 12>     C       18.0336294   16.8575766   17.4230292
| 13>     C       17.5177165   18.0465563   17.0259620
| 14>     C       16.8632540   18.3713055   15.6990115
| 15>     N       17.6546929   19.1706436   17.8444938
| 16>     C       18.4029257   19.2143963   18.9920020
| 17>     S       18.5906396   20.6127673   19.8540893
| 18>     N       18.9860608   18.0372140   19.3912615
| 19>     C       18.7596231   16.7211247   18.7623179
| 20>     C       17.9838222   15.7937635   19.6934573
| 21>     C       18.4033733   14.4640654   19.8804813
| 22>     C       17.6793955   13.5943825   20.7128550
| 23>     C       16.5228537   14.0563356   21.3635089
| 24>     C       16.0978546   15.3782282   21.1759421
| 25>     O       14.9737031   15.8240426   21.7906578
| 26>     C       16.8198523   16.2416216   20.3459020
| 27>     H       15.1326049   13.3244845   16.4602513
| 28>     H       14.3798930   14.4254457   15.2823921
| 29>     H       13.7165494   14.2925552   16.9276475
| 30>     H       15.0780378   16.4025606   16.6978685
| 31>     H       15.8033411   15.2690720   17.8693636
| 32>     H       17.1294405   17.6461005   14.9202021
| 33>     H       17.1840269   19.3527328   15.3272554
| 34>     H       15.7707821   18.3889363   15.7869170
| 35>     H       17.2442437   20.0472746   17.5631585
| 36>     H       19.5146340   18.0937130   20.2527118
| 37>     H       19.7436897   16.2695994   18.5674216
| 38>     H       19.2867681   14.0975252   19.3618037
| 39>     H       18.0127884   12.5662608   20.8441602
| 40>     H       15.9593419   13.3863805   22.0045765
| 41>     H       14.6550715   15.1117266   22.3657419
| 42>     H       16.4707936   17.2604538   20.2153874
| 43> *
| 44>
| 45>                          ****END OF INPUT****

CARTESIAN COORDINATES (ANGSTROEM)
---------------------------------
  C     14.642583   14.299161   16.340054
  C     15.572303   15.430272   16.807545
  O     16.768272   15.355847   16.008779
  C     17.977726   15.613379   16.590734
  O     18.814712   14.734496   16.685057
  C     18.033629   16.857577   17.423029
  C     17.517716   18.046556   17.025962
  C     16.863254   18.371305   15.699011
  N     17.654693   19.170644   17.844494
  C     18.402926   19.214396   18.992002
  S     18.590640   20.612767   19.854089
  N     18.986061   18.037214   19.391261
  C     18.759623   16.721125   18.762318
  C     17.983822   15.793764   19.693457
  C     18.403373   14.464065   19.880481
  C     17.679395   13.594383   20.712855
  C     16.522854   14.056336   21.363509
  C     16.097855   15.378228   21.175942
  O     14.973703   15.824043   21.790658
  C     16.819852   16.241622   20.345902
  H     15.132605   13.324485   16.460251
  H     14.379893   14.425446   15.282392
  H     13.716549   14.292555   16.927647
  H     15.078038   16.402561   16.697868
  H     15.803341   15.269072   17.869364
  H     17.129441   17.646100   14.920202
  H     17.184027   19.352733   15.327255
  H     15.770782   18.388936   15.786917
  H     17.244244   20.047275   17.563159
  H     19.514634   18.093713   20.252712
  H     19.743690   16.269599   18.567422
  H     19.286768   14.097525   19.361804
  H     18.012788   12.566261   20.844160
  H     15.959342   13.386380   22.004576
  H     14.655072   15.111727   22.365742
  H     16.470794   17.260454   20.215387

 Total Charge           Charge          ....    0
 Multiplicity           Mult            ....    1
 Number of Electrons    NEL             ....  154
 Basis Dimension        Dim             ....  828

ORBITAL ENERGIES
----------------

  NO   OCC          E(Eh)            E(eV)
   0   2.0000     -91.890943     -2500.4797
   1   2.0000     -20.599016      -560.5277
   2   2.0000     -20.590816      -560.3046
   3   2.0000     -20.553992      -559.3026
   4   2.0000     -15.629738      -425.3068
   5   2.0000     -15.610958      -424.7958
   6   2.0000     -11.395595      -310.0899
   7   2.0000     -11.387006      -309.8562
   8   2.0000     -11.335320      -308.4497
   9   2.0000     -11.315739      -307.9169
  10   2.0000     -11.311967      -307.8143
  11   2.0000     -11.303031      -307.5711
  12   2.0000     -11.265875      -306.5601
  13   2.0000     -11.263604      -306.4982
  14   2.0000     -11.261685      -306.4460
  15   2.0000     -11.255674      -306.2825
  16   2.0000     -11.245261      -305.9991
  17   2.0000     -11.241233      -305.8895
  18   2.0000     -11.238008      -305.8017
  19   2.0000     -11.230499      -305.5974
  20   2.0000      -8.896030      -242.0733
  21   2.0000      -6.577610      -178.9859
  22   2.0000      -6.575595      -178.9310
  23   2.0000      -6.575011      -178.9151
  24   2.0000      -1.449887       -39.4534
  25   2.0000      -1.418851       -38.6089
  26   2.0000      -1.360021       -37.0081
  27   2.0000      -1.341866       -36.5140
  28   2.0000      -1.240464       -33.7547
  29   2.0000      -1.160165       -31.5697
  30   2.0000      -1.124515       -30.5996
  31   2.0000      -1.047694       -28.5092
  32   2.0000      -1.037109       -28.2212
  33   2.0000      -1.017678       -27.6924
  34   2.0000      -1.004133       -27.3239
  35   2.0000      -0.988711       -26.9042
  36   2.0000      -0.927009       -25.2252
  37   2.0000      -0.878172       -23.8963
  38   2.0000      -0.855303       -23.2740
  39   2.0000      -0.842993       -22.9390
  40   2.0000      -0.836260       -22.7558
  41   2.0000      -0.835143       -22.7254
  42   2.0000      -0.756303       -20.5801
  43   2.0000      -0.738211       -20.0877
  44   2.0000      -0.731304       -19.8998
  45   2.0000      -0.696865       -18.9627
  46   2.0000      -0.688333       -18.7305
  47   2.0000      -0.681365       -18.5409
  48   2.0000      -0.676865       -18.4184
  49   2.0000      -0.662947       -18.0397
  50   2.0000      -0.653481       -17.7821
  51   2.0000      -0.649549       -17.6751
  52   2.0000      -0.641577       -17.4582
  53   2.0000      -0.610572       -16.6145
  54   2.0000      -0.607263       -16.5245
  55   2.0000      -0.602995       -16.4083
  56   2.0000      -0.598122       -16.2757
  57   2.0000      -0.584611       -15.9081
  58   2.0000      -0.577408       -15.7121
  59   2.0000      -0.566450       -15.4139
  60   2.0000      -0.562628       -15.3099
  61   2.0000      -0.558495       -15.1974
  62   2.0000      -0.545101       -14.8330
  63   2.0000      -0.525182       -14.2909
  64   2.0000      -0.515937       -14.0394
  65   2.0000      -0.515463       -14.0265
  66   2.0000      -0.502319       -13.6688
  67   2.0000      -0.498339       -13.5605
  68   2.0000      -0.489542       -13.3211
  69   2.0000      -0.469673       -12.7804
  70   2.0000      -0.458156       -12.4671
  71   2.0000      -0.452386       -12.3101
  72   2.0000      -0.358281        -9.7493
  73   2.0000      -0.350992        -9.5510
  74   2.0000      -0.330356        -8.9894
  75   2.0000      -0.323451        -8.8016
  76   2.0000      -0.319183        -8.6854
  77   0.0000       0.075312         2.0494
  78   0.0000       0.104531         2.8444
  79   0.0000       0.116576         3.1722
  80   0.0000       0.129814         3.5324
  81   0.0000       0.134031         3.6472

MULLIKEN ATOMIC CHARGES
-----------------------
   0 C :   -0.256678
   1 C :    0.023374
   2 O :   -0.340088
   3 C :    0.432559
   4 O :   -0.379923
   5 C :   -0.207045
   6 C :    0.138979
   7 C :   -0.314553
   8 N :   -0.132397
   9 C :    0.197786
  10 S :   -0.437647
  11 N :   -0.206338
  12 C :    0.065100
  13 C :    0.019881
  14 C :   -0.176913
  15 C :   -0.135045
  16 C :   -0.276154
  17 C :    0.320567
  18 O :   -0.358794
  19 C :   -0.281353
  20 H :    0.108107
  21 H :    0.097915
  22 H :    0.088699
  23 H :    0.084903
  24 H :    0.109871
  25 H :    0.137760
  26 H :    0.125033
  27 H :    0.120713
  28 H :    0.197378
  29 H :    0.196118
  30 H :    0.161365
  31 H :    0.167035
  32 H :    0.163256
  33 H :    0.132472
  34 H :    0.241466
  35 H :    0.172592
Sum of atomic charges:    0.0000000

LOEWDIN ATOMIC CHARGES
----------------------
   0 C :    0.111451
   1 C :   -0.022024
   2 O :    0.294911
   3 C :   -0.419920
   4 O :    0.129795
   5 C :   -0.089259
   6 C :   -0.084219
   7 C :    0.127033
   8 N :    0.403439
   9 C :   -0.457915
  10 S :   -0.034999
  11 N :    0.397078
  12 C :   -0.045178
  13 C :   -0.044705
  14 C :    0.021380
  15 C :    0.043987
  16 C :   -0.000872
  17 C :   -0.195254
  18 O :    0.394317
  19 C :    0.026700
  20 H :   -0.021038
  21 H :   -0.027201
  22 H :   -0.025881
  23 H :   -0.038384
  24 H :   -0.027574
  25 H :   -0.007224
  26 H :   -0.013482
  27 H :   -0.017640
  28 H :   -0.057242
  29 H :   -0.063619
  30 H :   -0.002962
  31 H :   -0.022329
  32 H :   -0.018903
  33 H :   -0.034776
  34 H :   -0.153139
  35 H :   -0.024350

  Mayer bond orders larger than 0.100000
B(  0-C ,  1-C ) :   0.9869 B(  0-C , 20-H ) :   0.9774 B(  0-C , 21-H ) :   0.9799
B(  0-C , 22-H ) :   0.9761 B(  1-C ,  2-O ) :   0.8942 B(  1-C , 23-H ) :   0.9725
B(  1-C , 24-H ) :   0.9671 B(  2-O ,  3-C ) :   1.1514 B(  3-C ,  4-O ) :   2.0841
B(  3-C ,  5-C ) :   0.9601 B(  5-C ,  6-C ) :   1.6619 B(  5-C , 12-C ) :   0.9586
B(  6-C ,  7-C ) :   0.9464 B(  6-C ,  8-N ) :   1.1317 B(  7-C , 25-H ) :   0.9725
B(  7-C , 26-H ) :   0.9784 B(  7-C , 27-H ) :   0.9652 B(  8-N ,  9-C ) :   1.1875
B(  8-N , 28-H ) :   0.9513 B(  9-C , 10-S ) :   1.6139 B(  9-C , 11-N ) :   1.2942
B( 11-N , 12-C ) :   0.9947 B( 11-N , 29-H ) :   0.9509 B( 12-C , 13-C ) :   0.9413
B( 12-C , 30-H ) :   0.9979 B( 13-C , 14-C ) :   1.3869 B( 13-C , 19-C ) :   1.3523
B( 14-C , 15-C ) :   1.3964 B( 14-C , 31-H ) :   0.9597 B( 15-C , 16-C ) :   1.3643
B( 15-C , 32-H ) :   0.9703 B( 16-C , 17-C ) :   1.3294 B( 16-C , 33-H ) :   0.9843
B( 17-C , 18-O ) :   1.1106 B( 17-C , 19-C ) :   1.3677 B( 18-O , 34-H ) :   0.9793
B( 19-C , 35-H ) :   0.9596

MP2 TOTAL ENERGY:    -1274.332772158 Eh
FINAL SINGLE POINT ENERGY     -1274.332772158481

DIPOLE MOMENT
-------------
                                X             Y             Z
Electronic contribution:     10.90606       8.88349       7.32185
Nuclear contribution   :    -12.35485      -9.88650      -7.66185
                        -----------------------------------------
Total Dipole Moment    :     -1.44879      -1.00300      -0.34000
                        -----------------------------------------
Magnitude (a.u.)       :      1.79460
Magnitude (Debye)      :      4.56152

Rotational constants in cm-1:     0.011553     0.009235     0.006666
Rotational constants in MHz :   346.345732   276.860250   199.849729

                             ****ORCA TERMINATED NORMALLY****
TOTAL RUN TIME: 0 days 1 hours 51 minutes 17 seconds 473 msec
