                         Program Version 5.0.0 -  RELEASE  -
|  1> ! ri-mp2 cc-pvtz cc-pvtz/c TightSCF NoKeepInts
|  2>
|  3> %scf
|  4>   MaxCore 4096
|  5> end
|  6> *xyz  0  1
|  7>     C       14.8122374   16.1715045   17.1043810
|  8>     C       15.6455093   14.8764768   17.0500273
|  9>     O       16.8367445   14.9597688   16.2304419
| 10>     C       17.9419491   15.7630620   16.3899136
| 11>     O       19.0221231   15.3842290   15.9784208
| 12>     C       17.8736225   16.8810418   17.3698025
| 13>     C       17.3972039   18.0949099   17.0130621
| 14>     C       16.8314207   18.4857981   15.6649851
| 15>     N       17.4679254   19.1627377   17.9096161
| 16>     C       18.0923756   19.1150898   19.1289030
| 17>     S       18.1598340   20.4345730   20.1231349
| 18>     N       18.6585305   17.9157648   19.4870667
| 19>     C       18.5831992   16.6642041   18.7061677
| 20>     C       17.9390257   15.5393554   19.5081476
| 21>     C       18.4415273   14.2291827   19.4045889
| 22>     C       17.8458961   13.1756497   20.1176871
| 23>     C       16.7367872   13.4328561   20.9413127
| 24>     C       16.2305209   14.7354181   21.0447174
| 25>     O       15.1511089   14.9846258   21.8273998
| 26>     C       16.8234949   15.7824411   20.3319013
| 27>     H       15.2141534   16.8861163   17.8294882
| 28>     H       13.7917541   15.9362981   17.4309159
| 29>     H       14.7415505   16.6380457   16.1154362
| 30>     H       15.9021012   14.5557711   18.0659467
| 31>     H       15.0106522   14.0878311   16.6258873
| 32>     H       16.7153587   17.6266590   14.9931393
| 33>     H       17.4967173   19.1983327   15.1608797
| 34>     H       15.8462099   18.9566650   15.7690491
| 35>     H       17.0816189   20.0579913   17.6539743
| 36>     H       19.0998686   17.9081879   20.3980716
| 37>     H       19.6148617   16.3582861   18.4765554
| 38>     H       19.2914619   14.0248324   18.7563005
| 39>     H       18.2429930   12.1657144   20.0271107
| 40>     H       16.2733732   12.6211533   21.4927410
| 41>     H       14.9250264   14.1603936   22.2848233
| 42>     H       16.4082626   16.7810331   20.4220031
| 43> *
| 44>
| 45>                          ****END OF INPUT****

CARTESIAN COORDINATES (ANGSTROEM)
---------------------------------
  C     14.812237   16.171505   17.104381
  C     15.645509   14.876477   17.050027
  O     16.836744   14.959769   16.230442
  C     17.941949   15.763062   16.389914
  O     19.022123   15.384229   15.978421
  C     17.873622   16.881042   17.369802
  C     17.397204   18.094910   17.013062
  C     16.831421   18.485798   15.664985
  N     17.467925   19.162738   17.909616
  C     18.092376   19.115090   19.128903
  S     18.159834   20.434573   20.123135
  N     18.658531   17.915765   19.487067
  C     18.583199   16.664204   18.706168
  C     17.939026   15.539355   19.508148
  C     18.441527   14.229183   19.404589
  C     17.845896   13.175650   20.117687
  C     16.736787   13.432856   20.941313
  C     16.230521   14.735418   21.044717
  O     15.151109   14.984626   21.827400
  C     16.823495   15.782441   20.331901
  H     15.214153   16.886116   17.829488
  H     13.791754   15.936298   17.430916
  H     14.741550   16.638046   16.115436
  H     15.902101   14.555771   18.065947
  H     15.010652   14.087831   16.625887
  H     16.715359   17.626659   14.993139
  H     17.496717   19.198333   15.160880
  H     15.846210   18.956665   15.769049
  H     17.081619   20.057991   17.653974
  H     19.099869   17.908188   20.398072
  H     19.614862   16.358286   18.476555
  H     19.291462   14.024832   18.756300
  H     18.242993   12.165714   20.027111
  H     16.273373   12.621153   21.492741
  H     14.925026   14.160394   22.284823
  H     16.408263   16.781033   20.422003

 Total Charge           Charge          ....    0
 Multiplicity           Mult            ....    1
 Number of Electrons    NEL             ....  154
 Basis Dimension        Dim             ....  828

ORBITAL ENERGIES
----------------

  NO   OCC          E(Eh)            E(eV)
   0   2.0000     -91.889620     -2500.4437
   1   2.0000     -20.604073      -560.6653
   2   2.0000     -20.595409      -560.4296
   3   2.0000     -20.550977      -559.2205
   4   2.0000     -15.625116      -425.1810
   5   2.0000     -15.612410      -424.8353
   6   2.0000     -11.398298      -310.1634
   7   2.0000     -11.386605      -309.8453
   8   2.0000     -11.324644      -308.1592
   9   2.0000     -11.322065      -308.0891
  10   2.0000     -11.317829      -307.9738
  11   2.0000     -11.303418      -307.5817
  12   2.0000     -11.268680      -306.6364
  13   2.0000     -11.265345      -306.5456
  14   2.0000     -11.262727      -306.4744
  15   2.0000     -11.261876      -306.4512
  16   2.0000     -11.251362      -306.1651
  17   2.0000     -11.246484      -306.0324
  18   2.0000     -11.244808      -305.9868
  19   2.0000     -11.234132      -305.6963
  20   2.0000      -8.894739      -242.0382
  21   2.0000      -6.576331      -178.9511
  22   2.0000      -6.574301      -178.8958
  23   2.0000      -6.573729      -178.8803
  24   2.0000      -1.443211       -39.2718
  25   2.0000      -1.423887       -38.7459
  26   2.0000      -1.356178       -36.9035
  27   2.0000      -1.339301       -36.4442
  28   2.0000      -1.240068       -33.7440
  29   2.0000      -1.165909       -31.7260
  30   2.0000      -1.126207       -30.6456
  31   2.0000      -1.051577       -28.6149
  32   2.0000      -1.038205       -28.2510
  33   2.0000      -1.023684       -27.8559
  34   2.0000      -1.005749       -27.3678
  35   2.0000      -0.990431       -26.9510
  36   2.0000      -0.929358       -25.2891
  37   2.0000      -0.896929       -24.4067
  38   2.0000      -0.852714       -23.2035
  39   2.0000      -0.843548       -22.9541
  40   2.0000      -0.841377       -22.8950
  41   2.0000      -0.832449       -22.6521
  42   2.0000      -0.751456       -20.4481
  43   2.0000      -0.736999       -20.0548
  44   2.0000      -0.728468       -19.8226
  45   2.0000      -0.701832       -19.0978
  46   2.0000      -0.691018       -18.8036
  47   2.0000      -0.678998       -18.4765
  48   2.0000      -0.676230       -18.4011
  49   2.0000      -0.663479       -18.0542
  50   2.0000      -0.655965       -17.8497
  51   2.0000      -0.644657       -17.5420
  52   2.0000      -0.640645       -17.4328
  53   2.0000      -0.616001       -16.7622
  54   2.0000      -0.610162       -16.6034
  55   2.0000      -0.609561       -16.5870
  56   2.0000      -0.606670       -16.5083
  57   2.0000      -0.586577       -15.9616
  58   2.0000      -0.583885       -15.8883
  59   2.0000      -0.579194       -15.7607
  60   2.0000      -0.567885       -15.4529
  61   2.0000      -0.556060       -15.1312
  62   2.0000      -0.538661       -14.6577
  63   2.0000      -0.534674       -14.5492
  64   2.0000      -0.525034       -14.2869
  65   2.0000      -0.515679       -14.0323
  66   2.0000      -0.504806       -13.7365
  67   2.0000      -0.500029       -13.6065
  68   2.0000      -0.490684       -13.3522
  69   2.0000      -0.464459       -12.6386
  70   2.0000      -0.453377       -12.3370
  71   2.0000      -0.448583       -12.2066
  72   2.0000      -0.356513        -9.7012
  73   2.0000      -0.354654        -9.6506
  74   2.0000      -0.330983        -9.0065
  75   2.0000      -0.328940        -8.9509
  76   2.0000      -0.318116        -8.6564
  77   0.0000       0.090819         2.4713
  78   0.0000       0.101389         2.7589
  79   0.0000       0.118621         3.2279
  80   0.0000       0.124973         3.4007
  81   0.0000       0.127506         3.4696

MULLIKEN ATOMIC CHARGES
-----------------------
   0 C :   -0.336632
   1 C :    0.038813
   2 O :   -0.329667
   3 C :    0.388405
   4 O :   -0.375717
   5 C :   -0.165001
   6 C :    0.121745
   7 C :   -0.330844
   8 N :   -0.136787
   9 C :    0.209641
  10 S :   -0.442970
  11 N :   -0.223928
  12 C :    0.086718
  13 C :   -0.007124
  14 C :   -0.196809
  15 C :   -0.134264
  16 C :   -0.272815
  17 C :    0.311471
  18 O :   -0.356139
  19 C :   -0.261277
  20 H :    0.110032
  21 H :    0.123086
  22 H :    0.106702
  23 H :    0.101914
  24 H :    0.126223
  25 H :    0.120707
  26 H :    0.149769
  27 H :    0.118194
  28 H :    0.196833
  29 H :    0.201266
  30 H :    0.165598
  31 H :    0.168179
  32 H :    0.165677
  33 H :    0.134649
  34 H :    0.242203
  35 H :    0.182152
Sum of atomic charges:    0.0000000

LOEWDIN ATOMIC CHARGES
----------------------
   0 C :    0.102765
   1 C :   -0.013585
   2 O :    0.293750
   3 C :   -0.417575
   4 O :    0.126938
   5 C :   -0.080276
   6 C :   -0.103299
   7 C :    0.125060
   8 N :    0.402103
   9 C :   -0.455270
  10 S :   -0.039081
  11 N :    0.397612
  12 C :   -0.045505
  13 C :   -0.045406
  14 C :    0.019741
  15 C :    0.045980
  16 C :   -0.000166
  17 C :   -0.193930
  18 O :    0.396967
  19 C :    0.027795
  20 H :   -0.034645
  21 H :   -0.021371
  22 H :   -0.029551
  23 H :   -0.031282
  24 H :   -0.019431
  25 H :   -0.009889
  26 H :   -0.008333
  27 H :   -0.016991
  28 H :   -0.057551
  29 H :   -0.064259
  30 H :   -0.002660
  31 H :   -0.021670
  32 H :   -0.017357
  33 H :   -0.033618
  34 H :   -0.152158
  35 H :   -0.023852

  Mayer bond orders larger than 0.100000
B(  0-C ,  1-C ) :   0.9545 B(  0-C , 20-H ) :   0.9731 B(  0-C , 21-H ) :   0.9785
B(  0-C , 22-H ) :   0.9743 B(  1-C ,  2-O ) :   0.9040 B(  1-C , 23-H ) :   0.9675
B(  1-C , 24-H ) :   0.9849 B(  2-O ,  3-C ) :   1.1834 B(  3-C ,  4-O ) :   2.1106
B(  3-C ,  5-C ) :   0.9025 B(  5-C ,  6-C ) :   1.7194 B(  5-C , 12-C ) :   0.9473
B(  6-C ,  7-C ) :   0.9541 B(  6-C ,  8-N ) :   1.1016 B(  7-C , 25-H ) :   0.9801
B(  7-C , 26-H ) :   0.9663 B(  7-C , 27-H ) :   0.9677 B(  8-N ,  9-C ) :   1.2024
B(  8-N , 28-H ) :   0.9521 B(  9-C , 10-S ) :   1.6088 B(  9-C , 11-N ) :   1.2822
B( 11-N , 12-C ) :   0.9961 B( 11-N , 29-H ) :   0.9471 B( 12-C , 13-C ) :   0.9405
B( 12-C , 30-H ) :   0.9974 B( 13-C , 14-C ) :   1.3907 B( 13-C , 19-C ) :   1.3433
B( 14-C , 15-C ) :   1.3972 B( 14-C , 31-H ) :   0.9629 B( 15-C , 16-C ) :   1.3609
B( 15-C , 32-H ) :   0.9695 B( 16-C , 17-C ) :   1.3283 B( 16-C , 33-H ) :   0.9840
B( 17-C , 18-O ) :   1.1136 B( 17-C , 19-C ) :   1.3667 B( 18-O , 34-H ) :   0.9784
B( 19-C , 35-H ) :   0.9544

MP2 TOTAL ENERGY:    -1274.326983051 Eh
FINAL SINGLE POINT ENERGY     -1274.326983051333

DIPOLE MOMENT
-------------
                                X             Y             Z
Electronic contribution:      9.57180       5.15892       6.16748
Nuclear contribution   :    -11.07113      -6.52243      -6.28987
                        -----------------------------------------
Total Dipole Moment    :     -1.49933      -1.36351      -0.12239
                        -----------------------------------------
Magnitude (a.u.)       :      2.03030
Magnitude (Debye)      :      5.16062

Rotational constants in cm-1:     0.012403     0.009269     0.006900
Rotational constants in MHz :   371.841488   277.891347   206.843828

                             ****ORCA TERMINATED NORMALLY****
TOTAL RUN TIME: 0 days 2 hours 6 minutes 3 seconds 558 msec
