                         Program Version 4.2.0 -  RELEASE  -
|  1> ! ri-mp2 cc-pvtz cc-pvtz/c TightSCF  NoKeepInts
|  2>
|  3> %scf
|  4>   MaxCore 4096
|  5> end
|  6> *xyz  0  1
|  7>     C       15.2909287   14.1420597   17.1490310
|  8>     C       16.4755502   14.0132153   16.1701890
|  9>     O       17.4741794   15.0088758   16.4694493
| 10>     C       17.1978783   16.3266097   16.2319275
| 11>     O       16.4385138   16.6677052   15.3408455
| 12>     C       17.6736534   17.2338688   17.3338082
| 13>     C       17.4068539   18.5652174   17.3463199
| 14>     C       16.5921380   19.3489806   16.3394882
| 15>     N       17.9465715   19.3781922   18.3478740
| 16>     C       18.8791221   18.9722408   19.2649158
| 17>     S       19.5775476   20.0275834   20.3299923
| 18>     N       19.2132298   17.6421142   19.2474991
| 19>     C       18.5233602   16.6091966   18.4534209
| 20>     C       17.7056088   15.7212319   19.3861160
| 21>     C       18.1190290   14.4027545   19.6550529
| 22>     C       17.3822978   13.5866664   20.5301723
| 23>     C       16.2236955   14.0933714   21.1434505
| 24>     C       15.8118541   15.4073884   20.8816430
| 25>     O       14.6940163   15.8996074   21.4722552
| 26>     C       16.5475019   16.2174497   20.0111687
| 27>     H       15.6219251   13.9928758   18.1823790
| 28>     H       14.5297844   13.3848886   16.9261838
| 29>     H       14.8165099   15.1283906   17.0735866
| 30>     H       16.9174722   13.0139802   16.2729131
| 31>     H       16.1230557   14.1217877   15.1352714
| 32>     H       17.0238902   19.2533666   15.3350634
| 33>     H       16.5335995   20.4183521   16.5736028
| 34>     H       15.5653977   18.9640886   16.2919877
| 35>     H       17.7175667   20.3590877   18.3693996
| 36>     H       19.8794851   17.3658783   19.9570987
| 37>     H       19.2965906   15.9900286   17.9772039
| 38>     H       19.0139606   14.0082157   19.1813782
| 39>     H       17.7100584   12.5681892   20.7312835
| 40>     H       15.6516213   13.4672889   21.8202921
| 41>     H       14.3542228   15.2160769   22.0691319
| 42>     H       16.2183295   17.2351749   19.8326048
| 43> *
| 44>
| 45>                          ****END OF INPUT****

CARTESIAN COORDINATES (ANGSTROEM)
---------------------------------
  C     15.290929   14.142060   17.149031
  C     16.475550   14.013215   16.170189
  O     17.474179   15.008876   16.469449
  C     17.197878   16.326610   16.231928
  O     16.438514   16.667705   15.340846
  C     17.673653   17.233869   17.333808
  C     17.406854   18.565217   17.346320
  C     16.592138   19.348981   16.339488
  N     17.946572   19.378192   18.347874
  C     18.879122   18.972241   19.264916
  S     19.577548   20.027583   20.329992
  N     19.213230   17.642114   19.247499
  C     18.523360   16.609197   18.453421
  C     17.705609   15.721232   19.386116
  C     18.119029   14.402755   19.655053
  C     17.382298   13.586666   20.530172
  C     16.223696   14.093371   21.143450
  C     15.811854   15.407388   20.881643
  O     14.694016   15.899607   21.472255
  C     16.547502   16.217450   20.011169
  H     15.621925   13.992876   18.182379
  H     14.529784   13.384889   16.926184
  H     14.816510   15.128391   17.073587
  H     16.917472   13.013980   16.272913
  H     16.123056   14.121788   15.135271
  H     17.023890   19.253367   15.335063
  H     16.533600   20.418352   16.573603
  H     15.565398   18.964089   16.291988
  H     17.717567   20.359088   18.369400
  H     19.879485   17.365878   19.957099
  H     19.296591   15.990029   17.977204
  H     19.013961   14.008216   19.181378
  H     17.710058   12.568189   20.731283
  H     15.651621   13.467289   21.820292
  H     14.354223   15.216077   22.069132
  H     16.218329   17.235175   19.832605

 Total Charge           Charge          ....    0
 Multiplicity           Mult            ....    1
 Number of Electrons    NEL             ....  154
 Basis Dimension        Dim             ....  828

ORBITAL ENERGIES
----------------

  NO   OCC          E(Eh)            E(eV)
   0   2.0000     -91.889623     -2500.4438
   1   2.0000     -20.598505      -560.5138
   2   2.0000     -20.594413      -560.4025
   3   2.0000     -20.542797      -558.9979
   4   2.0000     -15.630120      -425.3172
   5   2.0000     -15.608699      -424.7343
   6   2.0000     -11.394509      -310.0603
   7   2.0000     -11.384499      -309.7880
   8   2.0000     -11.336957      -308.4943
   9   2.0000     -11.315907      -307.9215
  10   2.0000     -11.309946      -307.7593
  11   2.0000     -11.295540      -307.3673
  12   2.0000     -11.261243      -306.4340
  13   2.0000     -11.259698      -306.3920
  14   2.0000     -11.257435      -306.3304
  15   2.0000     -11.252693      -306.2013
  16   2.0000     -11.245103      -305.9948
  17   2.0000     -11.239839      -305.8516
  18   2.0000     -11.239795      -305.8504
  19   2.0000     -11.220483      -305.3249
  20   2.0000      -8.894666      -242.0362
  21   2.0000      -6.576236      -178.9485
  22   2.0000      -6.574237      -178.8941
  23   2.0000      -6.573646      -178.8780
  24   2.0000      -1.449253       -39.4362
  25   2.0000      -1.418183       -38.5907
  26   2.0000      -1.352574       -36.8054
  27   2.0000      -1.341067       -36.4923
  28   2.0000      -1.239408       -33.7260
  29   2.0000      -1.159242       -31.5446
  30   2.0000      -1.120955       -30.5027
  31   2.0000      -1.043777       -28.4026
  32   2.0000      -1.032667       -28.1003
  33   2.0000      -1.017027       -27.6747
  34   2.0000      -0.996535       -27.1171
  35   2.0000      -0.984996       -26.8031
  36   2.0000      -0.923666       -25.1342
  37   2.0000      -0.893858       -24.3231
  38   2.0000      -0.847728       -23.0679
  39   2.0000      -0.839818       -22.8526
  40   2.0000      -0.835577       -22.7372
  41   2.0000      -0.814796       -22.1717
  42   2.0000      -0.753321       -20.4989
  43   2.0000      -0.733746       -19.9662
  44   2.0000      -0.723020       -19.6744
  45   2.0000      -0.697756       -18.9869
  46   2.0000      -0.689862       -18.7721
  47   2.0000      -0.677358       -18.4318
  48   2.0000      -0.669566       -18.2198
  49   2.0000      -0.664419       -18.0798
  50   2.0000      -0.648866       -17.6566
  51   2.0000      -0.642755       -17.4903
  52   2.0000      -0.634791       -17.2736
  53   2.0000      -0.609539       -16.5864
  54   2.0000      -0.609095       -16.5743
  55   2.0000      -0.601239       -16.3605
  56   2.0000      -0.599792       -16.3212
  57   2.0000      -0.579265       -15.7626
  58   2.0000      -0.571133       -15.5413
  59   2.0000      -0.566396       -15.4124
  60   2.0000      -0.554747       -15.0954
  61   2.0000      -0.543870       -14.7995
  62   2.0000      -0.533756       -14.5242
  63   2.0000      -0.530871       -14.4457
  64   2.0000      -0.526823       -14.3356
  65   2.0000      -0.514173       -13.9913
  66   2.0000      -0.502991       -13.6871
  67   2.0000      -0.500481       -13.6188
  68   2.0000      -0.477145       -12.9838
  69   2.0000      -0.465073       -12.6553
  70   2.0000      -0.453179       -12.3316
  71   2.0000      -0.445006       -12.1092
  72   2.0000      -0.355816        -9.6823
  73   2.0000      -0.351437        -9.5631
  74   2.0000      -0.329099        -8.9552
  75   2.0000      -0.323864        -8.8128
  76   2.0000      -0.316804        -8.6207
  77   0.0000       0.073064         1.9882
  78   0.0000       0.105299         2.8653
  79   0.0000       0.123229         3.3532
  80   0.0000       0.131053         3.5661
  81   0.0000       0.136682         3.7193

MULLIKEN ATOMIC CHARGES
-----------------------
   0 C :   -0.314728
   1 C :    0.026854
   2 O :   -0.372610
   3 C :    0.458074
   4 O :   -0.427915
   5 C :   -0.221932
   6 C :    0.152262
   7 C :   -0.270277
   8 N :   -0.123415
   9 C :    0.212089
  10 S :   -0.438465
  11 N :   -0.203145
  12 C :    0.051607
  13 C :    0.055238
  14 C :   -0.185628
  15 C :   -0.131638
  16 C :   -0.278648
  17 C :    0.305404
  18 O :   -0.358260
  19 C :   -0.244900
  20 H :    0.107676
  21 H :    0.108481
  22 H :    0.108567
  23 H :    0.112569
  24 H :    0.119805
  25 H :    0.132639
  26 H :    0.095107
  27 H :    0.130996
  28 H :    0.198207
  29 H :    0.193786
  30 H :    0.151037
  31 H :    0.151498
  32 H :    0.160808
  33 H :    0.131304
  34 H :    0.241194
  35 H :    0.166356
Sum of atomic charges:   -0.0000000

LOEWDIN ATOMIC CHARGES
----------------------
   0 C :    0.106077
   1 C :   -0.016520
   2 O :    0.296952
   3 C :   -0.416220
   4 O :    0.101324
   5 C :   -0.095603
   6 C :   -0.058047
   7 C :    0.131393
   8 N :    0.406936
   9 C :   -0.456361
  10 S :   -0.034182
  11 N :    0.396661
  12 C :   -0.052326
  13 C :   -0.037933
  14 C :    0.012698
  15 C :    0.039385
  16 C :   -0.002712
  17 C :   -0.190094
  18 O :    0.396372
  19 C :    0.032638
  20 H :   -0.026957
  21 H :   -0.026372
  22 H :   -0.027009
  23 H :   -0.024822
  24 H :   -0.028398
  25 H :   -0.003458
  26 H :   -0.023337
  27 H :   -0.005132
  28 H :   -0.057487
  29 H :   -0.064935
  30 H :   -0.008775
  31 H :   -0.029671
  32 H :   -0.020813
  33 H :   -0.035301
  34 H :   -0.153411
  35 H :   -0.024556

  Mayer bond orders larger than 0.100000
B(  0-C ,  1-C ) :   0.9582 B(  0-C , 20-H ) :   0.9712 B(  0-C , 21-H ) :   0.9782
B(  0-C , 22-H ) :   0.9745 B(  1-C ,  2-O ) :   0.8865 B(  1-C , 23-H ) :   0.9840
B(  1-C , 24-H ) :   0.9819 B(  2-O ,  3-C ) :   1.1371 B(  3-C ,  4-O ) :   1.9800
B(  3-C ,  5-C ) :   1.0648 B(  5-C ,  6-C ) :   1.6532 B(  5-C , 12-C ) :   0.9727
B(  6-C ,  7-C ) :   0.9679 B(  6-C ,  8-N ) :   1.1605 B(  7-C , 25-H ) :   0.9592
B(  7-C , 26-H ) :   0.9901 B(  7-C , 27-H ) :   0.9613 B(  8-N ,  9-C ) :   1.1809
B(  8-N , 28-H ) :   0.9478 B(  9-C , 10-S ) :   1.6090 B(  9-C , 11-N ) :   1.3055
B( 11-N , 12-C ) :   0.9782 B( 11-N , 29-H ) :   0.9528 B( 12-C , 13-C ) :   0.9378
B( 12-C , 30-H ) :   1.0029 B( 13-C , 14-C ) :   1.3547 B( 13-C , 19-C ) :   1.3814
B( 14-C , 15-C ) :   1.3891 B( 14-C , 31-H ) :   0.9719 B( 15-C , 16-C ) :   1.3601
B( 15-C , 32-H ) :   0.9718 B( 16-C , 17-C ) :   1.3314 B( 16-C , 33-H ) :   0.9853
B( 17-C , 18-O ) :   1.1124 B( 17-C , 19-C ) :   1.3740 B( 18-O , 34-H ) :   0.9795
B( 19-C , 35-H ) :   0.9567

MP2 TOTAL ENERGY:    -1274.346350837 Eh
FINAL SINGLE POINT ENERGY     -1274.346350837172

DIPOLE MOMENT
-------------
                                X             Y             Z
Electronic contribution:      9.34201      10.03059       5.86584
Nuclear contribution   :    -10.23544     -11.74086      -6.04350
                        -----------------------------------------
Total Dipole Moment    :     -0.89343      -1.71027      -0.17765
                        -----------------------------------------
Magnitude (a.u.)       :      1.93773
Magnitude (Debye)      :      4.92532

Rotational constants in cm-1:     0.012317     0.009093     0.006495
Rotational constants in MHz :   369.250067   272.590433   194.715214

                             ****ORCA TERMINATED NORMALLY****
TOTAL RUN TIME: 0 days 1 hours 44 minutes 34 seconds 3 msec
