                         Program Version 5.0.0 -  RELEASE  -
|  1> ! ri-mp2 cc-pvtz cc-pvtz/c TightSCF NoKeepInts
|  2>
|  3> %scf
|  4>   MaxCore 4096
|  5> end
|  6> *xyz  0  1
|  7>     C       15.4358521   13.8261478   15.1324888
|  8>     C       15.0745680   14.9319618   16.1473294
|  9>     O       16.0860593   15.9599674   16.1644737
| 10>     C       17.3088878   15.7460089   16.7392282
| 11>     O       17.7637591   14.6283957   16.9162209
| 12>     C       17.7702990   16.9108820   17.5661350
| 13>     C       17.4477959   18.2061040   17.3148658
| 14>     C       16.6103408   18.7495717   16.1753834
| 15>     N       17.9776692   19.2223556   18.1165044
| 16>     C       18.9405179   19.0423539   19.0743570
| 17>     S       19.6059495   20.3171113   19.8915799
| 18>     N       19.3248967   17.7483349   19.3193651
| 19>     C       18.6731438   16.5527210   18.7520189
| 20>     C       17.8890686   15.8096184   19.8307390
| 21>     C       18.1321445   14.4455391   20.0762300
| 22>     C       17.4102524   13.7553127   21.0643406
| 23>     C       16.4354144   14.4341445   21.8149939
| 24>     C       16.1871827   15.7917089   21.5711128
| 25>     O       15.2417163   16.4483597   22.2896314
| 26>     C       16.9068692   16.4758140   20.5864798
| 27>     H       15.6967894   14.2621236   14.1603839
| 28>     H       14.5828183   13.1528348   14.9859813
| 29>     H       16.2800013   13.2177376   15.4777507
| 30>     H       14.1177855   15.3814105   15.8523961
| 31>     H       14.9509473   14.4990755   17.1494917
| 32>     H       16.8855856   18.2741002   15.2256776
| 33>     H       16.7349813   19.8307167   16.0392073
| 34>     H       15.5449438   18.5565226   16.3524499
| 35>     H       17.7083761   20.1790424   17.9513970
| 36>     H       20.0138434   17.6401582   20.0525413
| 37>     H       19.4654248   15.8863907   18.3812559
| 38>     H       18.8731569   13.9138969   19.4841669
| 39>     H       17.6041925   12.6987134   21.2398580
| 40>     H       15.8744539   13.9045096   22.5777018
| 41>     H       14.8903159   15.8253572   22.9432149
| 42>     H       16.7009967   17.5269967   20.4170478
| 43> *
| 44>
| 45>                          ****END OF INPUT****

CARTESIAN COORDINATES (ANGSTROEM)
---------------------------------
  C     15.435852   13.826148   15.132489
  C     15.074568   14.931962   16.147329
  O     16.086059   15.959967   16.164474
  C     17.308888   15.746009   16.739228
  O     17.763759   14.628396   16.916221
  C     17.770299   16.910882   17.566135
  C     17.447796   18.206104   17.314866
  C     16.610341   18.749572   16.175383
  N     17.977669   19.222356   18.116504
  C     18.940518   19.042354   19.074357
  S     19.605950   20.317111   19.891580
  N     19.324897   17.748335   19.319365
  C     18.673144   16.552721   18.752019
  C     17.889069   15.809618   19.830739
  C     18.132144   14.445539   20.076230
  C     17.410252   13.755313   21.064341
  C     16.435414   14.434144   21.814994
  C     16.187183   15.791709   21.571113
  O     15.241716   16.448360   22.289631
  C     16.906869   16.475814   20.586480
  H     15.696789   14.262124   14.160384
  H     14.582818   13.152835   14.985981
  H     16.280001   13.217738   15.477751
  H     14.117785   15.381410   15.852396
  H     14.950947   14.499075   17.149492
  H     16.885586   18.274100   15.225678
  H     16.734981   19.830717   16.039207
  H     15.544944   18.556523   16.352450
  H     17.708376   20.179042   17.951397
  H     20.013843   17.640158   20.052541
  H     19.465425   15.886391   18.381256
  H     18.873157   13.913897   19.484167
  H     17.604192   12.698713   21.239858
  H     15.874454   13.904510   22.577702
  H     14.890316   15.825357   22.943215
  H     16.700997   17.526997   20.417048

 Total Charge           Charge          ....    0
 Multiplicity           Mult            ....    1
 Number of Electrons    NEL             ....  154
 Basis Dimension        Dim             ....  828

ORBITAL ENERGIES
----------------

  NO   OCC          E(Eh)            E(eV)
   0   2.0000     -91.887619     -2500.3892
   1   2.0000     -20.596908      -560.4704
   2   2.0000     -20.592620      -560.3537
   3   2.0000     -20.550367      -559.2039
   4   2.0000     -15.627299      -425.2404
   5   2.0000     -15.606697      -424.6798
   6   2.0000     -11.397386      -310.1386
   7   2.0000     -11.382730      -309.7398
   8   2.0000     -11.333416      -308.3979
   9   2.0000     -11.308596      -307.7225
  10   2.0000     -11.306424      -307.6634
  11   2.0000     -11.302490      -307.5564
  12   2.0000     -11.259659      -306.3909
  13   2.0000     -11.258542      -306.3605
  14   2.0000     -11.254460      -306.2494
  15   2.0000     -11.248855      -306.0969
  16   2.0000     -11.238444      -305.8136
  17   2.0000     -11.234364      -305.7026
  18   2.0000     -11.231616      -305.6278
  19   2.0000     -11.221508      -305.3528
  20   2.0000      -8.892692      -241.9825
  21   2.0000      -6.574272      -178.8950
  22   2.0000      -6.572263      -178.8404
  23   2.0000      -6.571679      -178.8245
  24   2.0000      -1.451876       -39.5075
  25   2.0000      -1.412362       -38.4323
  26   2.0000      -1.358298       -36.9612
  27   2.0000      -1.338519       -36.4230
  28   2.0000      -1.236507       -33.6471
  29   2.0000      -1.152941       -31.3731
  30   2.0000      -1.119444       -30.4616
  31   2.0000      -1.042162       -28.3587
  32   2.0000      -1.032805       -28.1040
  33   2.0000      -1.010377       -27.4938
  34   2.0000      -0.996851       -27.1257
  35   2.0000      -0.982245       -26.7282
  36   2.0000      -0.921449       -25.0739
  37   2.0000      -0.890940       -24.2437
  38   2.0000      -0.847392       -23.0587
  39   2.0000      -0.836188       -22.7538
  40   2.0000      -0.828951       -22.5569
  41   2.0000      -0.819832       -22.3088
  42   2.0000      -0.749848       -20.4044
  43   2.0000      -0.732193       -19.9240
  44   2.0000      -0.725613       -19.7449
  45   2.0000      -0.691546       -18.8179
  46   2.0000      -0.685014       -18.6402
  47   2.0000      -0.680502       -18.5174
  48   2.0000      -0.671115       -18.2620
  49   2.0000      -0.662767       -18.0348
  50   2.0000      -0.645621       -17.5682
  51   2.0000      -0.641271       -17.4499
  52   2.0000      -0.632872       -17.2213
  53   2.0000      -0.605112       -16.4659
  54   2.0000      -0.600523       -16.3411
  55   2.0000      -0.598432       -16.2842
  56   2.0000      -0.595500       -16.2044
  57   2.0000      -0.586545       -15.9607
  58   2.0000      -0.573613       -15.6088
  59   2.0000      -0.568546       -15.4709
  60   2.0000      -0.560244       -15.2450
  61   2.0000      -0.545876       -14.8541
  62   2.0000      -0.535568       -14.5736
  63   2.0000      -0.518683       -14.1141
  64   2.0000      -0.517772       -14.0893
  65   2.0000      -0.510867       -13.9014
  66   2.0000      -0.502166       -13.6646
  67   2.0000      -0.495815       -13.4918
  68   2.0000      -0.479957       -13.0603
  69   2.0000      -0.461856       -12.5677
  70   2.0000      -0.456914       -12.4333
  71   2.0000      -0.450960       -12.2712
  72   2.0000      -0.353175        -9.6104
  73   2.0000      -0.344779        -9.3819
  74   2.0000      -0.326854        -8.8942
  75   2.0000      -0.315937        -8.5971
  76   2.0000      -0.314273        -8.5518
  77   0.0000       0.075599         2.0572
  78   0.0000       0.110837         3.0160
  79   0.0000       0.121367         3.3026
  80   0.0000       0.135249         3.6803
  81   0.0000       0.140110         3.8126

MULLIKEN ATOMIC CHARGES
-----------------------
   0 C :   -0.296421
   1 C :    0.046990
   2 O :   -0.357273
   3 C :    0.432602
   4 O :   -0.421282
   5 C :   -0.146835
   6 C :    0.136739
   7 C :   -0.284426
   8 N :   -0.122794
   9 C :    0.202262
  10 S :   -0.440703
  11 N :   -0.198350
  12 C :    0.039991
  13 C :    0.053148
  14 C :   -0.163997
  15 C :   -0.134106
  16 C :   -0.279928
  17 C :    0.311314
  18 O :   -0.358644
  19 C :   -0.271173
  20 H :    0.090783
  21 H :    0.092897
  22 H :    0.126424
  23 H :    0.100799
  24 H :    0.096347
  25 H :    0.123500
  26 H :    0.101968
  27 H :    0.127315
  28 H :    0.196797
  29 H :    0.193577
  30 H :    0.154409
  31 H :    0.154238
  32 H :    0.159585
  33 H :    0.128651
  34 H :    0.240104
  35 H :    0.165490
Sum of atomic charges:    0.0000000

LOEWDIN ATOMIC CHARGES
----------------------
   0 C :    0.104449
   1 C :   -0.013374
   2 O :    0.295544
   3 C :   -0.411050
   4 O :    0.117833
   5 C :   -0.090806
   6 C :   -0.070205
   7 C :    0.125175
   8 N :    0.404220
   9 C :   -0.458364
  10 S :   -0.037104
  11 N :    0.397446
  12 C :   -0.045808
  13 C :   -0.039156
  14 C :    0.021038
  15 C :    0.040456
  16 C :   -0.002526
  17 C :   -0.192796
  18 O :    0.393200
  19 C :    0.028840
  20 H :   -0.029610
  21 H :   -0.029390
  22 H :   -0.026412
  23 H :   -0.025008
  24 H :   -0.027184
  25 H :   -0.008940
  26 H :   -0.020457
  27 H :   -0.009638
  28 H :   -0.059083
  29 H :   -0.063932
  30 H :   -0.005131
  31 H :   -0.025368
  32 H :   -0.021154
  33 H :   -0.036283
  34 H :   -0.154804
  35 H :   -0.024619

  Mayer bond orders larger than 0.100000
B(  0-C ,  1-C ) :   0.9701 B(  0-C , 20-H ) :   0.9755 B(  0-C , 21-H ) :   0.9769
B(  0-C , 22-H ) :   0.9713 B(  1-C ,  2-O ) :   0.9064 B(  1-C , 23-H ) :   0.9842
B(  1-C , 24-H ) :   0.9767 B(  2-O ,  3-C ) :   1.1143 B(  3-C ,  4-O ) :   1.9743
B(  3-C ,  5-C ) :   1.0459 B(  5-C ,  6-C ) :   1.6568 B(  5-C , 12-C ) :   0.9640
B(  6-C ,  7-C ) :   0.9545 B(  6-C ,  8-N ) :   1.1402 B(  7-C , 25-H ) :   0.9685
B(  7-C , 26-H ) :   0.9902 B(  7-C , 27-H ) :   0.9627 B(  8-N ,  9-C ) :   1.1823
B(  8-N , 28-H ) :   0.9495 B(  9-C , 10-S ) :   1.6096 B(  9-C , 11-N ) :   1.3018
B( 11-N , 12-C ) :   0.9931 B( 11-N , 29-H ) :   0.9518 B( 12-C , 13-C ) :   0.9458
B( 12-C , 30-H ) :   0.9989 B( 13-C , 14-C ) :   1.3760 B( 13-C , 19-C ) :   1.3700
B( 14-C , 15-C ) :   1.3946 B( 14-C , 31-H ) :   0.9648 B( 15-C , 16-C ) :   1.3630
B( 15-C , 32-H ) :   0.9713 B( 16-C , 17-C ) :   1.3310 B( 16-C , 33-H ) :   0.9858
B( 17-C , 18-O ) :   1.1085 B( 17-C , 19-C ) :   1.3781 B( 18-O , 34-H ) :   0.9805
B( 19-C , 35-H ) :   0.9582

MP2 TOTAL ENERGY:    -1274.335781605 Eh
FINAL SINGLE POINT ENERGY     -1274.335781605220

DIPOLE MOMENT
-------------
                                X             Y             Z
Electronic contribution:     10.32539      10.35812      10.33549
Nuclear contribution   :    -11.94930     -11.54636     -11.13303
                        -----------------------------------------
Total Dipole Moment    :     -1.62392      -1.18824      -0.79755
                        -----------------------------------------
Magnitude (a.u.)       :      2.16451
Magnitude (Debye)      :      5.50174

Rotational constants in cm-1:     0.010893     0.008976     0.005978
Rotational constants in MHz :   326.554069   269.108426   179.201569

                             ****ORCA TERMINATED NORMALLY****
TOTAL RUN TIME: 0 days 1 hours 25 minutes 44 seconds 491 msec
