                         Program Version 5.0.0 -  RELEASE  -
|  1> ! ri-mp2 cc-pvtz cc-pvtz/c TightSCF NoKeepInts
|  2>
|  3> %scf
|  4>   MaxCore 4096
|  5> end
|  6> *xyz  0  1
|  7>     C       14.5561879   14.4238573   16.6585880
|  8>     C       15.5874036   15.5491688   16.8382732
|  9>     O       16.8411792   15.0555060   16.3301164
| 10>     C       18.0625162   15.6242483   16.5953422
| 11>     O       19.0682989   14.9431572   16.5210982
| 12>     C       18.0470775   16.8698283   17.4201136
| 13>     C       17.5461977   18.0417481   16.9656908
| 14>     C       16.9750736   18.3190372   15.5915207
| 15>     N       17.6197010   19.1850273   17.7641314
| 16>     C       18.2680986   19.2531370   18.9701276
| 17>     S       18.3593706   20.6639493   19.8273918
| 18>     N       18.8356356   18.0909144   19.4329005
| 19>     C       18.7165326   16.7667558   18.7898326
| 20>     C       17.9688869   15.7755714   19.6772522
| 21>     C       18.4048834   14.4406787   19.7628510
| 22>     C       17.7092083   13.5082730   20.5500791
| 23>     C       16.5641655   13.9119347   21.2572374
| 24>     C       16.1223927   15.2387512   21.1704369
| 25>     O       15.0086887   15.6287834   21.8396772
| 26>     C       16.8166209   16.1652883   20.3858986
| 27>     H       14.8677123   13.5264164   17.2081843
| 28>     H       14.4504273   14.1602724   15.5988144
| 29>     H       13.5748463   14.7345421   17.0371015
| 30>     H       15.2561513   16.4399063   16.2939126
| 31>     H       15.6637249   15.7871364   17.9068762
| 32>     H       17.0282515   17.4453486   14.9302952
| 33>     H       17.5354476   19.1220433   15.0955010
| 34>     H       15.9253158   18.6312949   15.6528651
| 35>     H       17.2273958   20.0531982   17.4344219
| 36>     H       19.2919235   18.1676240   20.3333395
| 37>     H       19.7347648   16.3804825   18.6331326
| 38>     H       19.2795569   14.1200051   19.2004069
| 39>     H       18.0551313   12.4772446   20.6025618
| 40>     H       16.0220927   13.1934461   21.8632352
| 41>     H       14.7045837   14.8718932   22.3633557
| 42>     H       16.4515548   17.1855302   20.3314364
| 43> *
| 44>
| 45>                          ****END OF INPUT****

CARTESIAN COORDINATES (ANGSTROEM)
---------------------------------
  C     14.556188   14.423857   16.658588
  C     15.587404   15.549169   16.838273
  O     16.841179   15.055506   16.330116
  C     18.062516   15.624248   16.595342
  O     19.068299   14.943157   16.521098
  C     18.047077   16.869828   17.420114
  C     17.546198   18.041748   16.965691
  C     16.975074   18.319037   15.591521
  N     17.619701   19.185027   17.764131
  C     18.268099   19.253137   18.970128
  S     18.359371   20.663949   19.827392
  N     18.835636   18.090914   19.432900
  C     18.716533   16.766756   18.789833
  C     17.968887   15.775571   19.677252
  C     18.404883   14.440679   19.762851
  C     17.709208   13.508273   20.550079
  C     16.564166   13.911935   21.257237
  C     16.122393   15.238751   21.170437
  O     15.008689   15.628783   21.839677
  C     16.816621   16.165288   20.385899
  H     14.867712   13.526416   17.208184
  H     14.450427   14.160272   15.598814
  H     13.574846   14.734542   17.037101
  H     15.256151   16.439906   16.293913
  H     15.663725   15.787136   17.906876
  H     17.028251   17.445349   14.930295
  H     17.535448   19.122043   15.095501
  H     15.925316   18.631295   15.652865
  H     17.227396   20.053198   17.434422
  H     19.291923   18.167624   20.333339
  H     19.734765   16.380482   18.633133
  H     19.279557   14.120005   19.200407
  H     18.055131   12.477245   20.602562
  H     16.022093   13.193446   21.863235
  H     14.704584   14.871893   22.363356
  H     16.451555   17.185530   20.331436

 Total Charge           Charge          ....    0
 Multiplicity           Mult            ....    1
 Number of Electrons    NEL             ....  154
 Basis Dimension        Dim             ....  828

ORBITAL ENERGIES
----------------

  NO   OCC          E(Eh)            E(eV)
   0   2.0000     -91.890351     -2500.4636
   1   2.0000     -20.601222      -560.5877
   2   2.0000     -20.600035      -560.5554
   3   2.0000     -20.550028      -559.1947
   4   2.0000     -15.627276      -425.2398
   5   2.0000     -15.611931      -424.8223
   6   2.0000     -11.397676      -310.1465
   7   2.0000     -11.387147      -309.8600
   8   2.0000     -11.330113      -308.3080
   9   2.0000     -11.317023      -307.9518
  10   2.0000     -11.315280      -307.9044
  11   2.0000     -11.302700      -307.5621
  12   2.0000     -11.270229      -306.6785
  13   2.0000     -11.265264      -306.5434
  14   2.0000     -11.264006      -306.5092
  15   2.0000     -11.256963      -306.3175
  16   2.0000     -11.246157      -306.0235
  17   2.0000     -11.242398      -305.9212
  18   2.0000     -11.239153      -305.8329
  19   2.0000     -11.232018      -305.6387
  20   2.0000      -8.895466      -242.0579
  21   2.0000      -6.577054      -178.9707
  22   2.0000      -6.575028      -178.9156
  23   2.0000      -6.574452      -178.8999
  24   2.0000      -1.448594       -39.4182
  25   2.0000      -1.419851       -38.6361
  26   2.0000      -1.359942       -37.0059
  27   2.0000      -1.340653       -36.4810
  28   2.0000      -1.240373       -33.7523
  29   2.0000      -1.161575       -31.6081
  30   2.0000      -1.125939       -30.6384
  31   2.0000      -1.049376       -28.5550
  32   2.0000      -1.039974       -28.2991
  33   2.0000      -1.019270       -27.7358
  34   2.0000      -1.005644       -27.3650
  35   2.0000      -0.989699       -26.9311
  36   2.0000      -0.928273       -25.2596
  37   2.0000      -0.880153       -23.9502
  38   2.0000      -0.856329       -23.3019
  39   2.0000      -0.842408       -22.9231
  40   2.0000      -0.837438       -22.7878
  41   2.0000      -0.836733       -22.7687
  42   2.0000      -0.756828       -20.5943
  43   2.0000      -0.740268       -20.1437
  44   2.0000      -0.731908       -19.9162
  45   2.0000      -0.697884       -18.9904
  46   2.0000      -0.688601       -18.7378
  47   2.0000      -0.681658       -18.5488
  48   2.0000      -0.677536       -18.4367
  49   2.0000      -0.662554       -18.0290
  50   2.0000      -0.657668       -17.8961
  51   2.0000      -0.650967       -17.7137
  52   2.0000      -0.640138       -17.4190
  53   2.0000      -0.612290       -16.6613
  54   2.0000      -0.608055       -16.5460
  55   2.0000      -0.603817       -16.4307
  56   2.0000      -0.595141       -16.1946
  57   2.0000      -0.583333       -15.8733
  58   2.0000      -0.577864       -15.7245
  59   2.0000      -0.571987       -15.5646
  60   2.0000      -0.564230       -15.3535
  61   2.0000      -0.557773       -15.1778
  62   2.0000      -0.552245       -15.0274
  63   2.0000      -0.527064       -14.3421
  64   2.0000      -0.518525       -14.1098
  65   2.0000      -0.515964       -14.0401
  66   2.0000      -0.504771       -13.7355
  67   2.0000      -0.502613       -13.6768
  68   2.0000      -0.488932       -13.3045
  69   2.0000      -0.470449       -12.8016
  70   2.0000      -0.454306       -12.3623
  71   2.0000      -0.450898       -12.2695
  72   2.0000      -0.357566        -9.7299
  73   2.0000      -0.351876        -9.5750
  74   2.0000      -0.330008        -8.9800
  75   2.0000      -0.324773        -8.8375
  76   2.0000      -0.319029        -8.6812
  77   0.0000       0.085035         2.3139
  78   0.0000       0.104311         2.8384
  79   0.0000       0.113226         3.0810
  80   0.0000       0.128614         3.4998
  81   0.0000       0.131604         3.5811

MULLIKEN ATOMIC CHARGES
-----------------------
   0 C :   -0.260631
   1 C :    0.019326
   2 O :   -0.305374
   3 C :    0.397646
   4 O :   -0.382602
   5 C :   -0.200253
   6 C :    0.154876
   7 C :   -0.331124
   8 N :   -0.140467
   9 C :    0.204368
  10 S :   -0.440471
  11 N :   -0.218117
  12 C :    0.079527
  13 C :    0.026160
  14 C :   -0.199279
  15 C :   -0.131445
  16 C :   -0.274981
  17 C :    0.325430
  18 O :   -0.357684
  19 C :   -0.294451
  20 H :    0.107613
  21 H :    0.101587
  22 H :    0.088569
  23 H :    0.084450
  24 H :    0.109427
  25 H :    0.126403
  26 H :    0.142470
  27 H :    0.119656
  28 H :    0.196271
  29 H :    0.199612
  30 H :    0.165423
  31 H :    0.170029
  32 H :    0.164216
  33 H :    0.132484
  34 H :    0.241548
  35 H :    0.179785
Sum of atomic charges:    0.0000000

LOEWDIN ATOMIC CHARGES
----------------------
   0 C :    0.112469
   1 C :   -0.025008
   2 O :    0.307615
   3 C :   -0.415828
   4 O :    0.123259
   5 C :   -0.081686
   6 C :   -0.100672
   7 C :    0.122667
   8 N :    0.401652
   9 C :   -0.456159
  10 S :   -0.037401
  11 N :    0.397278
  12 C :   -0.043842
  13 C :   -0.043797
  14 C :    0.022721
  15 C :    0.045966
  16 C :   -0.000050
  17 C :   -0.194156
  18 O :    0.394820
  19 C :    0.025917
  20 H :   -0.022198
  21 H :   -0.026176
  22 H :   -0.025123
  23 H :   -0.038614
  24 H :   -0.032867
  25 H :   -0.008366
  26 H :   -0.009156
  27 H :   -0.018027
  28 H :   -0.057591
  29 H :   -0.063614
  30 H :   -0.002132
  31 H :   -0.021521
  32 H :   -0.018252
  33 H :   -0.034586
  34 H :   -0.152889
  35 H :   -0.024651

  Mayer bond orders larger than 0.100000
B(  0-C ,  1-C ) :   0.9859 B(  0-C , 20-H ) :   0.9788 B(  0-C , 21-H ) :   0.9792
B(  0-C , 22-H ) :   0.9770 B(  1-C ,  2-O ) :   0.9109 B(  1-C , 23-H ) :   0.9718
B(  1-C , 24-H ) :   0.9589 B(  2-O ,  3-C ) :   1.1911 B(  3-C ,  4-O ) :   2.0915
B(  3-C ,  5-C ) :   0.9222 B(  5-C ,  6-C ) :   1.6785 B(  5-C , 12-C ) :   0.9553
B(  6-C ,  7-C ) :   0.9452 B(  6-C ,  8-N ) :   1.1195 B(  7-C , 25-H ) :   0.9806
B(  7-C , 26-H ) :   0.9672 B(  7-C , 27-H ) :   0.9672 B(  8-N ,  9-C ) :   1.1957
B(  8-N , 28-H ) :   0.9524 B(  9-C , 10-S ) :   1.6109 B(  9-C , 11-N ) :   1.2875
B( 11-N , 12-C ) :   0.9949 B( 11-N , 29-H ) :   0.9485 B( 12-C , 13-C ) :   0.9437
B( 12-C , 30-H ) :   0.9971 B( 13-C , 14-C ) :   1.3886 B( 13-C , 19-C ) :   1.3413
B( 14-C , 15-C ) :   1.3975 B( 14-C , 31-H ) :   0.9602 B( 15-C , 16-C ) :   1.3631
B( 15-C , 32-H ) :   0.9697 B( 16-C , 17-C ) :   1.3304 B( 16-C , 33-H ) :   0.9843
B( 17-C , 18-O ) :   1.1098 B( 17-C , 19-C ) :   1.3625 B( 18-O , 34-H ) :   0.9793
B( 19-C , 35-H ) :   0.9581

MP2 TOTAL ENERGY:    -1274.334051784 Eh
FINAL SINGLE POINT ENERGY     -1274.334051783671

DIPOLE MOMENT
-------------
                                X             Y             Z
Electronic contribution:     10.66017       8.34196       7.19646
Nuclear contribution   :    -12.18019      -9.34893      -7.61104
                        -----------------------------------------
Total Dipole Moment    :     -1.52003      -1.00696      -0.41459
                        -----------------------------------------
Magnitude (a.u.)       :      1.86985
Magnitude (Debye)      :      4.75278

Rotational constants in cm-1:     0.011854     0.009087     0.006732
Rotational constants in MHz :   355.366958   272.408880   201.829407

                             ****ORCA TERMINATED NORMALLY****
TOTAL RUN TIME: 0 days 2 hours 7 minutes 30 seconds 198 msec
