                         Program Version 4.2.0 -  RELEASE  -
|  1> ! ri-mp2 cc-pvtz cc-pvtz/c TightSCF  NoKeepInts
|  2>
|  3> %scf
|  4>   MaxCore 4096
|  5> end
|  6> *xyz  0  1
|  7>     C       14.8111647   14.5158058   17.3547038
|  8>     C       15.5683972   15.5907617   16.5582235
|  9>     O       16.8811657   15.0588399   16.2901329
| 10>     C       18.0808355   15.6996450   16.4849089
| 11>     O       19.1075067   15.0545765   16.3809723
| 12>     C       18.0508275   16.8997533   17.3718634
| 13>     C       17.5613259   18.0910788   16.9587831
| 14>     C       16.9790738   18.4091644   15.5981701
| 15>     N       17.6234954   19.2000015   17.8050546
| 16>     C       18.2581197   19.2160405   19.0203411
| 17>     S       18.3427242   20.5901546   19.9360555
| 18>     N       18.8158804   18.0332259   19.4419035
| 19>     C       18.6946265   16.7356148   18.7465088
| 20>     C       17.9177989   15.7225880   19.5817181
| 21>     C       18.3527943   14.3865320   19.6510597
| 22>     C       17.6384020   13.4384776   20.4022191
| 23>     C       16.4758635   13.8278368   21.0888427
| 24>     C       16.0334225   15.1553976   21.0147302
| 25>     O       14.9015584   15.5307630   21.6615731
| 26>     C       16.7451086   16.0969081   20.2643865
| 27>     H       15.3484537   14.2684658   18.2782437
| 28>     H       14.7089882   13.5977079   16.7627871
| 29>     H       13.8076373   14.8666276   17.6239360
| 30>     H       15.0457279   15.8117164   15.6186595
| 31>     H       15.5890480   16.4966098   17.1723594
| 32>     H       17.1462288   17.6023106   14.8739725
| 33>     H       17.4427875   19.3101357   15.1761588
| 34>     H       15.8983318   18.5853272   15.6623348
| 35>     H       17.2343270   20.0813164   17.5082909
| 36>     H       19.2600311   18.0706661   20.3507696
| 37>     H       19.7108111   16.3428264   18.5932216
| 38>     H       19.2424868   14.0785598   19.1055204
| 39>     H       17.9841699   12.4069427   20.4436075
| 40>     H       15.9199624   13.0975524   21.6675350
| 41>     H       14.5873547   14.7644483   22.1650713
| 42>     H       16.3805623   17.1176210   20.2193811
| 43> *
| 44>
| 45>                          ****END OF INPUT****

CARTESIAN COORDINATES (ANGSTROEM)
---------------------------------
  C     14.811165   14.515806   17.354704
  C     15.568397   15.590762   16.558224
  O     16.881166   15.058840   16.290133
  C     18.080835   15.699645   16.484909
  O     19.107507   15.054576   16.380972
  C     18.050828   16.899753   17.371863
  C     17.561326   18.091079   16.958783
  C     16.979074   18.409164   15.598170
  N     17.623495   19.200001   17.805055
  C     18.258120   19.216040   19.020341
  S     18.342724   20.590155   19.936055
  N     18.815880   18.033226   19.441903
  C     18.694626   16.735615   18.746509
  C     17.917799   15.722588   19.581718
  C     18.352794   14.386532   19.651060
  C     17.638402   13.438478   20.402219
  C     16.475863   13.827837   21.088843
  C     16.033423   15.155398   21.014730
  O     14.901558   15.530763   21.661573
  C     16.745109   16.096908   20.264387
  H     15.348454   14.268466   18.278244
  H     14.708988   13.597708   16.762787
  H     13.807637   14.866628   17.623936
  H     15.045728   15.811716   15.618659
  H     15.589048   16.496610   17.172359
  H     17.146229   17.602311   14.873973
  H     17.442787   19.310136   15.176159
  H     15.898332   18.585327   15.662335
  H     17.234327   20.081316   17.508291
  H     19.260031   18.070666   20.350770
  H     19.710811   16.342826   18.593222
  H     19.242487   14.078560   19.105520
  H     17.984170   12.406943   20.443607
  H     15.919962   13.097552   21.667535
  H     14.587355   14.764448   22.165071
  H     16.380562   17.117621   20.219381

 Total Charge           Charge          ....    0
 Multiplicity           Mult            ....    1
 Number of Electrons    NEL             ....  154
 Basis Dimension        Dim             ....  828

ORBITAL ENERGIES
----------------

  NO   OCC          E(Eh)            E(eV)
   0   2.0000     -91.890066     -2500.4558
   1   2.0000     -20.602745      -560.6292
   2   2.0000     -20.599892      -560.5516
   3   2.0000     -20.549669      -559.1849
   4   2.0000     -15.626930      -425.2304
   5   2.0000     -15.611878      -424.8208
   6   2.0000     -11.398146      -310.1593
   7   2.0000     -11.386933      -309.8542
   8   2.0000     -11.328354      -308.2602
   9   2.0000     -11.316756      -307.9446
  10   2.0000     -11.315483      -307.9099
  11   2.0000     -11.303946      -307.5960
  12   2.0000     -11.270952      -306.6982
  13   2.0000     -11.265266      -306.5435
  14   2.0000     -11.263944      -306.5075
  15   2.0000     -11.257021      -306.3191
  16   2.0000     -11.245988      -306.0189
  17   2.0000     -11.242301      -305.9186
  18   2.0000     -11.239367      -305.8387
  19   2.0000     -11.227135      -305.5059
  20   2.0000      -8.895180      -242.0502
  21   2.0000      -6.576769      -178.9630
  22   2.0000      -6.574742      -178.9078
  23   2.0000      -6.574168      -178.8922
  24   2.0000      -1.448713       -39.4215
  25   2.0000      -1.419679       -38.6314
  26   2.0000      -1.359123       -36.9836
  27   2.0000      -1.340328       -36.4722
  28   2.0000      -1.240097       -33.7448
  29   2.0000      -1.161545       -31.6072
  30   2.0000      -1.126266       -30.6473
  31   2.0000      -1.049526       -28.5590
  32   2.0000      -1.038784       -28.2668
  33   2.0000      -1.019025       -27.7291
  34   2.0000      -1.005684       -27.3661
  35   2.0000      -0.989733       -26.9320
  36   2.0000      -0.928318       -25.2608
  37   2.0000      -0.883057       -24.0292
  38   2.0000      -0.855115       -23.2689
  39   2.0000      -0.841933       -22.9102
  40   2.0000      -0.837098       -22.7786
  41   2.0000      -0.835839       -22.7443
  42   2.0000      -0.756691       -20.5906
  43   2.0000      -0.740260       -20.1435
  44   2.0000      -0.731504       -19.9052
  45   2.0000      -0.698114       -18.9966
  46   2.0000      -0.689348       -18.7581
  47   2.0000      -0.682443       -18.5702
  48   2.0000      -0.676925       -18.4201
  49   2.0000      -0.661567       -18.0021
  50   2.0000      -0.655541       -17.8382
  51   2.0000      -0.645324       -17.5602
  52   2.0000      -0.640029       -17.4161
  53   2.0000      -0.613109       -16.6835
  54   2.0000      -0.608696       -16.5635
  55   2.0000      -0.607316       -16.5259
  56   2.0000      -0.601744       -16.3743
  57   2.0000      -0.586134       -15.9495
  58   2.0000      -0.578578       -15.7439
  59   2.0000      -0.568783       -15.4774
  60   2.0000      -0.560259       -15.2454
  61   2.0000      -0.557129       -15.1602
  62   2.0000      -0.545888       -14.8544
  63   2.0000      -0.530963       -14.4482
  64   2.0000      -0.519632       -14.1399
  65   2.0000      -0.514173       -13.9914
  66   2.0000      -0.502920       -13.6852
  67   2.0000      -0.501982       -13.6596
  68   2.0000      -0.487716       -13.2714
  69   2.0000      -0.470849       -12.8125
  70   2.0000      -0.452077       -12.3017
  71   2.0000      -0.450515       -12.2591
  72   2.0000      -0.357213        -9.7202
  73   2.0000      -0.352396        -9.5892
  74   2.0000      -0.329749        -8.9729
  75   2.0000      -0.324691        -8.8353
  76   2.0000      -0.318379        -8.6635
  77   0.0000       0.086535         2.3547
  78   0.0000       0.104422         2.8415
  79   0.0000       0.109996         2.9932
  80   0.0000       0.127811         3.4779
  81   0.0000       0.132470         3.6047

MULLIKEN ATOMIC CHARGES
-----------------------
   0 C :   -0.263136
   1 C :    0.012570
   2 O :   -0.308874
   3 C :    0.390734
   4 O :   -0.381903
   5 C :   -0.164662
   6 C :    0.120547
   7 C :   -0.321593
   8 N :   -0.136872
   9 C :    0.203893
  10 S :   -0.440875
  11 N :   -0.214729
  12 C :    0.063797
  13 C :    0.024533
  14 C :   -0.195320
  15 C :   -0.128724
  16 C :   -0.277880
  17 C :    0.305508
  18 O :   -0.360571
  19 C :   -0.260413
  20 H :    0.112026
  21 H :    0.105541
  22 H :    0.088855
  23 H :    0.109391
  24 H :    0.091779
  25 H :    0.123231
  26 H :    0.137200
  27 H :    0.123083
  28 H :    0.196427
  29 H :    0.198692
  30 H :    0.166034
  31 H :    0.167959
  32 H :    0.163627
  33 H :    0.132410
  34 H :    0.241717
  35 H :    0.176001
Sum of atomic charges:   -0.0000000

LOEWDIN ATOMIC CHARGES
----------------------
   0 C :    0.110579
   1 C :   -0.023080
   2 O :    0.315204
   3 C :   -0.419133
   4 O :    0.124159
   5 C :   -0.081752
   6 C :   -0.106989
   7 C :    0.125276
   8 N :    0.400777
   9 C :   -0.455994
  10 S :   -0.037909
  11 N :    0.397581
  12 C :   -0.043554
  13 C :   -0.042352
  14 C :    0.023125
  15 C :    0.045580
  16 C :   -0.001171
  17 C :   -0.193819
  18 O :    0.395482
  19 C :    0.026644
  20 H :   -0.022427
  21 H :   -0.026259
  22 H :   -0.026206
  23 H :   -0.033399
  24 H :   -0.039957
  25 H :   -0.008390
  26 H :   -0.009748
  27 H :   -0.016229
  28 H :   -0.058217
  29 H :   -0.063579
  30 H :   -0.001939
  31 H :   -0.021633
  32 H :   -0.018337
  33 H :   -0.034816
  34 H :   -0.152902
  35 H :   -0.024616

  Mayer bond orders larger than 0.100000
B(  0-C ,  1-C ) :   0.9783 B(  0-C , 20-H ) :   0.9704 B(  0-C , 21-H ) :   0.9819
B(  0-C , 22-H ) :   0.9753 B(  1-C ,  2-O ) :   0.9153 B(  1-C , 23-H ) :   0.9775
B(  1-C , 24-H ) :   0.9615 B(  2-O ,  3-C ) :   1.1722 B(  3-C ,  4-O ) :   2.0898
B(  3-C ,  5-C ) :   0.9247 B(  5-C ,  6-C ) :   1.6913 B(  5-C , 12-C ) :   0.9610
B(  6-C ,  7-C ) :   0.9474 B(  6-C ,  8-N ) :   1.1103 B(  7-C , 25-H ) :   0.9805
B(  7-C , 26-H ) :   0.9722 B(  7-C , 27-H ) :   0.9651 B(  8-N ,  9-C ) :   1.1956
B(  8-N , 28-H ) :   0.9523 B(  9-C , 10-S ) :   1.6110 B(  9-C , 11-N ) :   1.2870
B( 11-N , 12-C ) :   0.9964 B( 11-N , 29-H ) :   0.9488 B( 12-C , 13-C ) :   0.9460
B( 12-C , 30-H ) :   0.9962 B( 13-C , 14-C ) :   1.3876 B( 13-C , 19-C ) :   1.3501
B( 14-C , 15-C ) :   1.3964 B( 14-C , 31-H ) :   0.9612 B( 15-C , 16-C ) :   1.3598
B( 15-C , 32-H ) :   0.9706 B( 16-C , 17-C ) :   1.3310 B( 16-C , 33-H ) :   0.9854
B( 17-C , 18-O ) :   1.1075 B( 17-C , 19-C ) :   1.3714 B( 18-O , 34-H ) :   0.9791
B( 19-C , 35-H ) :   0.9561

MP2 TOTAL ENERGY:    -1274.331071838 Eh
FINAL SINGLE POINT ENERGY     -1274.331071837675

DIPOLE MOMENT
-------------
                                X             Y             Z
Electronic contribution:     10.24109       7.99792       6.03710
Nuclear contribution   :    -11.79765      -8.96522      -6.55527
                        -----------------------------------------
Total Dipole Moment    :     -1.55656      -0.96729      -0.51817
                        -----------------------------------------
Magnitude (a.u.)       :      1.90448
Magnitude (Debye)      :      4.84081

Rotational constants in cm-1:     0.012387     0.009161     0.006876
Rotational constants in MHz :   371.338318   274.638583   206.128290

                             ****ORCA TERMINATED NORMALLY****
TOTAL RUN TIME: 0 days 1 hours 49 minutes 20 seconds 616 msec
