                         Program Version 5.0.0 -  RELEASE  -
|  1> ! ri-mp2 cc-pvtz cc-pvtz/c TightSCF NoKeepInts
|  2>
|  3> %scf
|  4>   MaxCore 4096
|  5> end
|  6> *xyz  0  1
|  7>     C       15.1079434   15.6092817   17.4380715
|  8>     C       15.5294869   15.3113587   15.9831845
|  9>     O       16.9544782   15.1316532   15.7690182
| 10>     C       18.0489777   15.5775333   16.4765927
| 11>     O       19.0505095   14.8859453   16.5042633
| 12>     C       17.9228418   16.7604761   17.3862823
| 13>     C       17.3897076   17.9420024   16.9887854
| 14>     C       16.8362325   18.2931894   15.6241695
| 15>     N       17.4122822   19.0421111   17.8495168
| 16>     C       18.0992740   19.0918047   19.0336441
| 17>     S       18.1606195   20.4696477   19.9456932
| 18>     N       18.7371630   17.9403081   19.4218857
| 19>     C       18.6145768   16.6320072   18.7483849
| 20>     C       17.9094862   15.6127772   19.6401077
| 21>     C       18.3440603   14.2744915   19.6566789
| 22>     C       17.6980500   13.3196686   20.4592261
| 23>     C       16.6057483   13.7042475   21.2547521
| 24>     C       16.1673739   15.0349656   21.2412693
| 25>     O       15.1057125   15.4073488   21.9993957
| 26>     C       16.8119821   15.9837189   20.4411156
| 27>     H       15.6223314   14.9348612   18.1327157
| 28>     H       14.0320296   15.4293377   17.5521401
| 29>     H       15.2832874   16.6461512   17.7362585
| 30>     H       15.0265003   14.3905170   15.6600042
| 31>     H       15.1553051   16.1120089   15.3344112
| 32>     H       17.1387551   17.5720292   14.8554197
| 33>     H       17.2070669   19.2706079   15.2897761
| 34>     H       15.7410900   18.3408616   15.6417932
| 35>     H       16.9674864   19.9031418   17.5727012
| 36>     H       19.2256190   18.0000909   20.3064356
| 37>     H       19.6349024   16.2625555   18.5671320
| 38>     H       19.1820722   13.9700298   19.0328256
| 39>     H       18.0432933   12.2871160   20.4580575
| 40>     H       16.1027056   12.9690675   21.8741653
| 41>     H       14.8301338   14.6334132   22.5134925
| 42>     H       16.4479150   17.0056735   20.4446342
| 43> *
| 44>
| 45>                          ****END OF INPUT****

CARTESIAN COORDINATES (ANGSTROEM)
---------------------------------
  C     15.107943   15.609282   17.438071
  C     15.529487   15.311359   15.983184
  O     16.954478   15.131653   15.769018
  C     18.048978   15.577533   16.476593
  O     19.050510   14.885945   16.504263
  C     17.922842   16.760476   17.386282
  C     17.389708   17.942002   16.988785
  C     16.836233   18.293189   15.624170
  N     17.412282   19.042111   17.849517
  C     18.099274   19.091805   19.033644
  S     18.160619   20.469648   19.945693
  N     18.737163   17.940308   19.421886
  C     18.614577   16.632007   18.748385
  C     17.909486   15.612777   19.640108
  C     18.344060   14.274491   19.656679
  C     17.698050   13.319669   20.459226
  C     16.605748   13.704247   21.254752
  C     16.167374   15.034966   21.241269
  O     15.105712   15.407349   21.999396
  C     16.811982   15.983719   20.441116
  H     15.622331   14.934861   18.132716
  H     14.032030   15.429338   17.552140
  H     15.283287   16.646151   17.736259
  H     15.026500   14.390517   15.660004
  H     15.155305   16.112009   15.334411
  H     17.138755   17.572029   14.855420
  H     17.207067   19.270608   15.289776
  H     15.741090   18.340862   15.641793
  H     16.967486   19.903142   17.572701
  H     19.225619   18.000091   20.306436
  H     19.634902   16.262556   18.567132
  H     19.182072   13.970030   19.032826
  H     18.043293   12.287116   20.458057
  H     16.102706   12.969067   21.874165
  H     14.830134   14.633413   22.513492
  H     16.447915   17.005674   20.444634

 Total Charge           Charge          ....    0
 Multiplicity           Mult            ....    1
 Number of Electrons    NEL             ....  154
 Basis Dimension        Dim             ....  828

ORBITAL ENERGIES
----------------

  NO   OCC          E(Eh)            E(eV)
   0   2.0000     -91.891015     -2500.4817
   1   2.0000     -20.597655      -560.4907
   2   2.0000     -20.596289      -560.4535
   3   2.0000     -20.546485      -559.0983
   4   2.0000     -15.629695      -425.3056
   5   2.0000     -15.610969      -424.7961
   6   2.0000     -11.400163      -310.2142
   7   2.0000     -11.387065      -309.8578
   8   2.0000     -11.333903      -308.4112
   9   2.0000     -11.314230      -307.8758
  10   2.0000     -11.312435      -307.8270
  11   2.0000     -11.312325      -307.8240
  12   2.0000     -11.269178      -306.6499
  13   2.0000     -11.266040      -306.5645
  14   2.0000     -11.261145      -306.4313
  15   2.0000     -11.254698      -306.2559
  16   2.0000     -11.243985      -305.9644
  17   2.0000     -11.239366      -305.8387
  18   2.0000     -11.236214      -305.7529
  19   2.0000     -11.234167      -305.6972
  20   2.0000      -8.896103      -242.0753
  21   2.0000      -6.577687      -178.9880
  22   2.0000      -6.575667      -178.9330
  23   2.0000      -6.575086      -178.9172
  24   2.0000      -1.441696       -39.2306
  25   2.0000      -1.417469       -38.5713
  26   2.0000      -1.354313       -36.8527
  27   2.0000      -1.342269       -36.5250
  28   2.0000      -1.240762       -33.7629
  29   2.0000      -1.158935       -31.5362
  30   2.0000      -1.124856       -30.6089
  31   2.0000      -1.047314       -28.4989
  32   2.0000      -1.040387       -28.3104
  33   2.0000      -1.017051       -27.6754
  34   2.0000      -1.005700       -27.3665
  35   2.0000      -0.990265       -26.9465
  36   2.0000      -0.928083       -25.2544
  37   2.0000      -0.900646       -24.5078
  38   2.0000      -0.854791       -23.2601
  39   2.0000      -0.841065       -22.8865
  40   2.0000      -0.834503       -22.7080
  41   2.0000      -0.827436       -22.5157
  42   2.0000      -0.745026       -20.2732
  43   2.0000      -0.735146       -20.0043
  44   2.0000      -0.730590       -19.8804
  45   2.0000      -0.695112       -18.9150
  46   2.0000      -0.686832       -18.6897
  47   2.0000      -0.679335       -18.4857
  48   2.0000      -0.674482       -18.3536
  49   2.0000      -0.659652       -17.9500
  50   2.0000      -0.658841       -17.9280
  51   2.0000      -0.651960       -17.7407
  52   2.0000      -0.641655       -17.4603
  53   2.0000      -0.617900       -16.8139
  54   2.0000      -0.608577       -16.5602
  55   2.0000      -0.605436       -16.4748
  56   2.0000      -0.602170       -16.3859
  57   2.0000      -0.589700       -16.0465
  58   2.0000      -0.576803       -15.6956
  59   2.0000      -0.569765       -15.5041
  60   2.0000      -0.565498       -15.3880
  61   2.0000      -0.555599       -15.1186
  62   2.0000      -0.543631       -14.7930
  63   2.0000      -0.531019       -14.4498
  64   2.0000      -0.522180       -14.2092
  65   2.0000      -0.513679       -13.9779
  66   2.0000      -0.501185       -13.6379
  67   2.0000      -0.496140       -13.5007
  68   2.0000      -0.483123       -13.1464
  69   2.0000      -0.469132       -12.7657
  70   2.0000      -0.455766       -12.4020
  71   2.0000      -0.448168       -12.1953
  72   2.0000      -0.356890        -9.7115
  73   2.0000      -0.348817        -9.4918
  74   2.0000      -0.330474        -8.9927
  75   2.0000      -0.322987        -8.7889
  76   2.0000      -0.319146        -8.6844
  77   0.0000       0.079568         2.1651
  78   0.0000       0.107798         2.9333
  79   0.0000       0.114784         3.1234
  80   0.0000       0.130928         3.5627
  81   0.0000       0.131220         3.5707

MULLIKEN ATOMIC CHARGES
-----------------------
   0 C :   -0.343309
   1 C :    0.040970
   2 O :   -0.335930
   3 C :    0.432769
   4 O :   -0.387210
   5 C :   -0.210323
   6 C :    0.142843
   7 C :   -0.338697
   8 N :   -0.135432
   9 C :    0.197576
  10 S :   -0.438479
  11 N :   -0.217477
  12 C :    0.074458
  13 C :    0.020150
  14 C :   -0.206286
  15 C :   -0.135159
  16 C :   -0.277631
  17 C :    0.316854
  18 O :   -0.358154
  19 C :   -0.269131
  20 H :    0.130418
  21 H :    0.121220
  22 H :    0.109964
  23 H :    0.131505
  24 H :    0.085683
  25 H :    0.138457
  26 H :    0.136291
  27 H :    0.121401
  28 H :    0.197592
  29 H :    0.200109
  30 H :    0.166441
  31 H :    0.175856
  32 H :    0.163742
  33 H :    0.131959
  34 H :    0.241093
  35 H :    0.175868
Sum of atomic charges:    0.0000000

LOEWDIN ATOMIC CHARGES
----------------------
   0 C :    0.104469
   1 C :   -0.015190
   2 O :    0.289998
   3 C :   -0.415613
   4 O :    0.120192
   5 C :   -0.082850
   6 C :   -0.091030
   7 C :    0.125702
   8 N :    0.403400
   9 C :   -0.458825
  10 S :   -0.035939
  11 N :    0.398250
  12 C :   -0.043352
  13 C :   -0.043771
  14 C :    0.019506
  15 C :    0.043105
  16 C :   -0.001765
  17 C :   -0.194134
  18 O :    0.395110
  19 C :    0.028766
  20 H :   -0.020250
  21 H :   -0.021853
  22 H :   -0.035985
  23 H :   -0.018005
  24 H :   -0.037501
  25 H :   -0.006789
  26 H :   -0.010287
  27 H :   -0.018243
  28 H :   -0.057326
  29 H :   -0.063234
  30 H :   -0.001972
  31 H :   -0.021821
  32 H :   -0.018759
  33 H :   -0.035032
  34 H :   -0.153617
  35 H :   -0.025354

  Mayer bond orders larger than 0.100000
B(  0-C ,  1-C ) :   0.9584 B(  0-C , 20-H ) :   0.9664 B(  0-C , 21-H ) :   0.9770
B(  0-C , 22-H ) :   0.9726 B(  1-C ,  2-O ) :   0.9039 B(  1-C , 23-H ) :   0.9794
B(  1-C , 24-H ) :   0.9742 B(  2-O ,  3-C ) :   1.1778 B(  3-C ,  4-O ) :   2.0721
B(  3-C ,  5-C ) :   0.9364 B(  5-C ,  6-C ) :   1.6907 B(  5-C , 12-C ) :   0.9570
B(  6-C ,  7-C ) :   0.9431 B(  6-C ,  8-N ) :   1.1087 B(  7-C , 25-H ) :   0.9766
B(  7-C , 26-H ) :   0.9756 B(  7-C , 27-H ) :   0.9641 B(  8-N ,  9-C ) :   1.1903
B(  8-N , 28-H ) :   0.9513 B(  9-C , 10-S ) :   1.6123 B(  9-C , 11-N ) :   1.2909
B( 11-N , 12-C ) :   0.9892 B( 11-N , 29-H ) :   0.9494 B( 12-C , 13-C ) :   0.9462
B( 12-C , 30-H ) :   0.9958 B( 13-C , 14-C ) :   1.3916 B( 13-C , 19-C ) :   1.3446
B( 14-C , 15-C ) :   1.3978 B( 14-C , 31-H ) :   0.9574 B( 15-C , 16-C ) :   1.3605
B( 15-C , 32-H ) :   0.9703 B( 16-C , 17-C ) :   1.3295 B( 16-C , 33-H ) :   0.9848
B( 17-C , 18-O ) :   1.1111 B( 17-C , 19-C ) :   1.3712 B( 18-O , 34-H ) :   0.9797
B( 19-C , 35-H ) :   0.9575

MP2 TOTAL ENERGY:    -1274.328254388 Eh
FINAL SINGLE POINT ENERGY     -1274.328254387842

DIPOLE MOMENT
-------------
                                X             Y             Z
Electronic contribution:      9.48770       5.92724       6.36238
Nuclear contribution   :    -11.11663      -6.92336      -6.93230
                        -----------------------------------------
Total Dipole Moment    :     -1.62893      -0.99612      -0.56992
                        -----------------------------------------
Magnitude (a.u.)       :      1.99260
Magnitude (Debye)      :      5.06480

Rotational constants in cm-1:     0.011513     0.009705     0.006816
Rotational constants in MHz :   345.154584   290.934763   204.348137

                             ****ORCA TERMINATED NORMALLY****
TOTAL RUN TIME: 0 days 2 hours 15 minutes 5 seconds 848 msec
