                         Program Version 5.0.0 -  RELEASE  -
|  1> ! ri-mp2 cc-pvtz cc-pvtz/c TightSCF NoKeepInts
|  2>
|  3> %scf
|  4>   MaxCore 4096
|  5> end
|  6> *xyz  0  1
|  7>     C       15.1010386   15.2719381   16.9786002
|  8>     C       16.2297811   14.2259125   16.8139539
|  9>     O       17.5229701   14.7812023   16.4565745
| 10>     C       17.6866905   16.0869339   16.0943712
| 11>     O       17.3462055   16.4459434   14.9815611
| 12>     C       17.8204001   17.0213604   17.2674877
| 13>     C       17.4308286   18.3205315   17.2125667
| 14>     C       16.6924803   19.0116021   16.0865446
| 15>     N       17.7488631   19.1893706   18.2608364
| 16>     C       18.6332770   18.8995646   19.2661499
| 17>     S       19.1075394   20.0353136   20.3707130
| 18>     N       19.1136736   17.6146517   19.3035966
| 19>     C       18.5839690   16.4980163   18.4985604
| 20>     C       17.7706119   15.5761221   19.4023517
| 21>     C       18.1773231   14.2436345   19.6062298
| 22>     C       17.4438744   13.3924349   20.4498848
| 23>     C       16.2987199   13.8789908   21.1028656
| 24>     C       15.9008613   15.2098066   20.9170524
| 25>     O       14.7974181   15.6841324   21.5475890
| 26>     C       16.6342207   16.0549315   20.0788138
| 27>     H       15.3271980   16.0071014   17.7559138
| 28>     H       14.1677980   14.7709315   17.2627406
| 29>     H       14.9155946   15.8022527   16.0359753
| 30>     H       16.3232717   13.6457812   17.7399488
| 31>     H       15.9280208   13.5231423   16.0265364
| 32>     H       17.3389273   19.1053856   15.2043811
| 33>     H       16.3450693   20.0158434   16.3558758
| 34>     H       15.8122774   18.4299593   15.7851872
| 35>     H       17.4193617   20.1412637   18.2353679
| 36>     H       19.7452373   17.4234289   20.0709197
| 37>     H       19.4457509   15.9272367   18.1248563
| 38>     H       19.0608297   13.8625139   19.1004594
| 39>     H       17.7642205   12.3621064   20.5962891
| 40>     H       15.7285830   13.2252770   21.7549895
| 41>     H       14.4686535   14.9826245   22.1299090
| 42>     H       16.3154600   17.0847577   19.9583467
| 43> *
| 44>
| 45>                          ****END OF INPUT****

CARTESIAN COORDINATES (ANGSTROEM)
---------------------------------
  C     15.101039   15.271938   16.978600
  C     16.229781   14.225912   16.813954
  O     17.522970   14.781202   16.456574
  C     17.686691   16.086934   16.094371
  O     17.346205   16.445943   14.981561
  C     17.820400   17.021360   17.267488
  C     17.430829   18.320532   17.212567
  C     16.692480   19.011602   16.086545
  N     17.748863   19.189371   18.260836
  C     18.633277   18.899565   19.266150
  S     19.107539   20.035314   20.370713
  N     19.113674   17.614652   19.303597
  C     18.583969   16.498016   18.498560
  C     17.770612   15.576122   19.402352
  C     18.177323   14.243634   19.606230
  C     17.443874   13.392435   20.449885
  C     16.298720   13.878991   21.102866
  C     15.900861   15.209807   20.917052
  O     14.797418   15.684132   21.547589
  C     16.634221   16.054931   20.078814
  H     15.327198   16.007101   17.755914
  H     14.167798   14.770931   17.262741
  H     14.915595   15.802253   16.035975
  H     16.323272   13.645781   17.739949
  H     15.928021   13.523142   16.026536
  H     17.338927   19.105386   15.204381
  H     16.345069   20.015843   16.355876
  H     15.812277   18.429959   15.785187
  H     17.419362   20.141264   18.235368
  H     19.745237   17.423429   20.070920
  H     19.445751   15.927237   18.124856
  H     19.060830   13.862514   19.100459
  H     17.764220   12.362106   20.596289
  H     15.728583   13.225277   21.754989
  H     14.468654   14.982624   22.129909
  H     16.315460   17.084758   19.958347

 Total Charge           Charge          ....    0
 Multiplicity           Mult            ....    1
 Number of Electrons    NEL             ....  154
 Basis Dimension        Dim             ....  828

ORBITAL ENERGIES
----------------

  NO   OCC          E(Eh)            E(eV)
   0   2.0000     -91.891273     -2500.4887
   1   2.0000     -20.601544      -560.5965
   2   2.0000     -20.576694      -559.9203
   3   2.0000     -20.551329      -559.2301
   4   2.0000     -15.630840      -425.3368
   5   2.0000     -15.610312      -424.7782
   6   2.0000     -11.393920      -310.0443
   7   2.0000     -11.385898      -309.8260
   8   2.0000     -11.336125      -308.4717
   9   2.0000     -11.319088      -308.0080
  10   2.0000     -11.313838      -307.8652
  11   2.0000     -11.299731      -307.4813
  12   2.0000     -11.264300      -306.5172
  13   2.0000     -11.259892      -306.3972
  14   2.0000     -11.259838      -306.3958
  15   2.0000     -11.254252      -306.2438
  16   2.0000     -11.248535      -306.0882
  17   2.0000     -11.243669      -305.9558
  18   2.0000     -11.242643      -305.9279
  19   2.0000     -11.227338      -305.5114
  20   2.0000      -8.896300      -242.0806
  21   2.0000      -6.577866      -178.9928
  22   2.0000      -6.575871      -178.9385
  23   2.0000      -6.575275      -178.9223
  24   2.0000      -1.443583       -39.2819
  25   2.0000      -1.421280       -38.6750
  26   2.0000      -1.349762       -36.7289
  27   2.0000      -1.342322       -36.5264
  28   2.0000      -1.240971       -33.7685
  29   2.0000      -1.161882       -31.6164
  30   2.0000      -1.121500       -30.5176
  31   2.0000      -1.046406       -28.4742
  32   2.0000      -1.030891       -28.0520
  33   2.0000      -1.020433       -27.7674
  34   2.0000      -1.000541       -27.2261
  35   2.0000      -0.987348       -26.8671
  36   2.0000      -0.925992       -25.1975
  37   2.0000      -0.896662       -24.3994
  38   2.0000      -0.849271       -23.1098
  39   2.0000      -0.843886       -22.9633
  40   2.0000      -0.839185       -22.8354
  41   2.0000      -0.820679       -22.3318
  42   2.0000      -0.745506       -20.2862
  43   2.0000      -0.735616       -20.0171
  44   2.0000      -0.720830       -19.6148
  45   2.0000      -0.700408       -19.0591
  46   2.0000      -0.691287       -18.8109
  47   2.0000      -0.672972       -18.3125
  48   2.0000      -0.672037       -18.2871
  49   2.0000      -0.659849       -17.9554
  50   2.0000      -0.655104       -17.8263
  51   2.0000      -0.646397       -17.5894
  52   2.0000      -0.637841       -17.3565
  53   2.0000      -0.627603       -17.0780
  54   2.0000      -0.611650       -16.6439
  55   2.0000      -0.603884       -16.4325
  56   2.0000      -0.601757       -16.3746
  57   2.0000      -0.581345       -15.8192
  58   2.0000      -0.573495       -15.6056
  59   2.0000      -0.565977       -15.4010
  60   2.0000      -0.546898       -14.8819
  61   2.0000      -0.544220       -14.8090
  62   2.0000      -0.537830       -14.6351
  63   2.0000      -0.532344       -14.4858
  64   2.0000      -0.528994       -14.3947
  65   2.0000      -0.516363       -14.0509
  66   2.0000      -0.504973       -13.7410
  67   2.0000      -0.493978       -13.4418
  68   2.0000      -0.481777       -13.1098
  69   2.0000      -0.467673       -12.7260
  70   2.0000      -0.452223       -12.3056
  71   2.0000      -0.443901       -12.0792
  72   2.0000      -0.357587        -9.7304
  73   2.0000      -0.352391        -9.5891
  74   2.0000      -0.330754        -9.0003
  75   2.0000      -0.326691        -8.8897
  76   2.0000      -0.318505        -8.6670
  77   0.0000       0.067748         1.8435
  78   0.0000       0.101970         2.7747
  79   0.0000       0.120186         3.2704
  80   0.0000       0.127558         3.4710
  81   0.0000       0.132577         3.6076

MULLIKEN ATOMIC CHARGES
-----------------------
   0 C :   -0.349666
   1 C :    0.042692
   2 O :   -0.395110
   3 C :    0.502939
   4 O :   -0.397699
   5 C :   -0.278566
   6 C :    0.164083
   7 C :   -0.273916
   8 N :   -0.123532
   9 C :    0.200588
  10 S :   -0.434007
  11 N :   -0.193854
  12 C :    0.050582
  13 C :    0.066779
  14 C :   -0.182637
  15 C :   -0.134652
  16 C :   -0.275809
  17 C :    0.323142
  18 O :   -0.356972
  19 C :   -0.303700
  20 H :    0.109363
  21 H :    0.117896
  22 H :    0.119841
  23 H :    0.114532
  24 H :    0.121462
  25 H :    0.139614
  26 H :    0.094912
  27 H :    0.125917
  28 H :    0.197978
  29 H :    0.191909
  30 H :    0.148691
  31 H :    0.150505
  32 H :    0.165199
  33 H :    0.133743
  34 H :    0.241597
  35 H :    0.176152
Sum of atomic charges:   -0.0000000

LOEWDIN ATOMIC CHARGES
----------------------
   0 C :    0.105546
   1 C :   -0.005320
   2 O :    0.274325
   3 C :   -0.423767
   4 O :    0.128063
   5 C :   -0.097312
   6 C :   -0.063550
   7 C :    0.130428
   8 N :    0.406502
   9 C :   -0.458381
  10 S :   -0.031919
  11 N :    0.396550
  12 C :   -0.052442
  13 C :   -0.039225
  14 C :    0.017532
  15 C :    0.039598
  16 C :   -0.001998
  17 C :   -0.190925
  18 O :    0.396426
  19 C :    0.033965
  20 H :   -0.037138
  21 H :   -0.021323
  22 H :   -0.028266
  23 H :   -0.028194
  24 H :   -0.026924
  25 H :   -0.002951
  26 H :   -0.022876
  27 H :   -0.007762
  28 H :   -0.057752
  29 H :   -0.064776
  30 H :   -0.006599
  31 H :   -0.028088
  32 H :   -0.020115
  33 H :   -0.034430
  34 H :   -0.152766
  35 H :   -0.024135

  Mayer bond orders larger than 0.100000
B(  0-C ,  1-C ) :   0.9614 B(  0-C , 20-H ) :   0.9682 B(  0-C , 21-H ) :   0.9760
B(  0-C , 22-H ) :   0.9725 B(  1-C ,  2-O ) :   0.8794 B(  1-C , 23-H ) :   0.9713
B(  1-C , 24-H ) :   0.9861 B(  2-O ,  3-C ) :   1.1064 B(  3-C ,  4-O ) :   2.0387
B(  3-C ,  5-C ) :   1.0261 B(  5-C ,  6-C ) :   1.6612 B(  5-C , 12-C ) :   0.9695
B(  6-C ,  7-C ) :   0.9650 B(  6-C ,  8-N ) :   1.1458 B(  7-C , 25-H ) :   0.9570
B(  7-C , 26-H ) :   0.9877 B(  7-C , 27-H ) :   0.9670 B(  8-N ,  9-C ) :   1.1806
B(  8-N , 28-H ) :   0.9487 B(  9-C , 10-S ) :   1.6184 B(  9-C , 11-N ) :   1.2968
B( 11-N , 12-C ) :   0.9891 B( 11-N , 29-H ) :   0.9534 B( 12-C , 13-C ) :   0.9396
B( 12-C , 30-H ) :   1.0053 B( 13-C , 14-C ) :   1.3543 B( 13-C , 19-C ) :   1.3575
B( 14-C , 15-C ) :   1.3904 B( 14-C , 31-H ) :   0.9731 B( 15-C , 16-C ) :   1.3612
B( 15-C , 32-H ) :   0.9702 B( 16-C , 17-C ) :   1.3295 B( 16-C , 33-H ) :   0.9837
B( 17-C , 18-O ) :   1.1138 B( 17-C , 19-C ) :   1.3699 B( 18-O , 34-H ) :   0.9793
B( 19-C , 35-H ) :   0.9560

MP2 TOTAL ENERGY:    -1274.320840904 Eh
FINAL SINGLE POINT ENERGY     -1274.320840903949

DIPOLE MOMENT
-------------
                                X             Y             Z
Electronic contribution:     10.06858       7.31168       5.61359
Nuclear contribution   :    -11.21439      -8.86108      -5.41301
                        -----------------------------------------
Total Dipole Moment    :     -1.14582      -1.54940       0.20058
                        -----------------------------------------
Magnitude (a.u.)       :      1.93747
Magnitude (Debye)      :      4.92465

Rotational constants in cm-1:     0.011984     0.009815     0.006729
Rotational constants in MHz :   359.262823   294.251780   201.738938

                             ****ORCA TERMINATED NORMALLY****
TOTAL RUN TIME: 0 days 2 hours 19 minutes 50 seconds 228 msec
