                         Program Version 4.2.0 -  RELEASE  -
|  1> ! ri-mp2 cc-pvtz cc-pvtz/c TightSCF  NoKeepInts
|  2>
|  3> %scf
|  4>   MaxCore 4096
|  5> end
|  6> *xyz  0  1
|  7>     C       14.5189438   14.4796453   15.7730774
|  8>     C       15.6754946   14.7107392   16.7594476
|  9>     O       16.6530283   15.5267406   16.0938565
| 10>     C       17.8878274   15.6019617   16.6640881
| 11>     O       18.5032176   14.5880480   16.9474113
| 12>     C       18.0467277   16.8560045   17.4681036
| 13>     C       17.5563655   18.0608645   17.0842924
| 14>     C       16.8184678   18.3841032   15.8019598
| 15>     N       17.7806730   19.1881242   17.8802136
| 16>     C       18.5852367   19.2139429   18.9893776
| 17>     S       18.8840031   20.6150764   19.8156452
| 18>     N       19.1298369   18.0161479   19.3806320
| 19>     C       18.8017688   16.7038884   18.7911369
| 20>     C       17.9923268   15.8612821   19.7732619
| 21>     C       18.4279813   14.5738140   20.1367607
| 22>     C       17.6759592   13.7873937   21.0254833
| 23>     C       16.4759693   14.2912458   21.5553946
| 24>     C       16.0361944   15.5713491   21.1925495
| 25>     O       14.8724571   16.0568576   21.6933603
| 26>     C       16.7865088   16.3515049   20.3073275
| 27>     H       14.8795783   13.9751265   14.8678794
| 28>     H       14.0623892   15.4332215   15.4806737
| 29>     H       13.7438026   13.8523793   16.2298161
| 30>     H       15.3157979   15.2068161   17.6709352
| 31>     H       16.1068350   13.7392686   17.0388012
| 32>     H       17.2651764   17.8594652   14.9480202
| 33>     H       16.8389090   19.4549634   15.5655173
| 34>     H       15.7680647   18.0749718   15.8715282
| 35>     H       17.3907327   20.0768187   17.6090356
| 36>     H       19.6950590   18.0591344   20.2189557
| 37>     H       19.7473412   16.1828325   18.5820082
| 38>     H       19.3455326   14.1738338   19.7118061
| 39>     H       18.0216271   12.7906438   21.2940269
| 40>     H       15.8910854   13.6859557   22.2400146
| 41>     H       14.5368578   15.4071806   22.3294221
| 42>     H       16.4292231   17.3406540   20.0421799
| 43> *
| 44>
| 45>                          ****END OF INPUT****

CARTESIAN COORDINATES (ANGSTROEM)
---------------------------------
  C     14.518944   14.479645   15.773077
  C     15.675495   14.710739   16.759448
  O     16.653028   15.526741   16.093857
  C     17.887827   15.601962   16.664088
  O     18.503218   14.588048   16.947411
  C     18.046728   16.856005   17.468104
  C     17.556365   18.060865   17.084292
  C     16.818468   18.384103   15.801960
  N     17.780673   19.188124   17.880214
  C     18.585237   19.213943   18.989378
  S     18.884003   20.615076   19.815645
  N     19.129837   18.016148   19.380632
  C     18.801769   16.703888   18.791137
  C     17.992327   15.861282   19.773262
  C     18.427981   14.573814   20.136761
  C     17.675959   13.787394   21.025483
  C     16.475969   14.291246   21.555395
  C     16.036194   15.571349   21.192549
  O     14.872457   16.056858   21.693360
  C     16.786509   16.351505   20.307327
  H     14.879578   13.975126   14.867879
  H     14.062389   15.433222   15.480674
  H     13.743803   13.852379   16.229816
  H     15.315798   15.206816   17.670935
  H     16.106835   13.739269   17.038801
  H     17.265176   17.859465   14.948020
  H     16.838909   19.454963   15.565517
  H     15.768065   18.074972   15.871528
  H     17.390733   20.076819   17.609036
  H     19.695059   18.059134   20.218956
  H     19.747341   16.182832   18.582008
  H     19.345533   14.173834   19.711806
  H     18.021627   12.790644   21.294027
  H     15.891085   13.685956   22.240015
  H     14.536858   15.407181   22.329422
  H     16.429223   17.340654   20.042180

 Total Charge           Charge          ....    0
 Multiplicity           Mult            ....    1
 Number of Electrons    NEL             ....  154
 Basis Dimension        Dim             ....  828

ORBITAL ENERGIES
----------------

  NO   OCC          E(Eh)            E(eV)
   0   2.0000     -91.888965     -2500.4259
   1   2.0000     -20.596233      -560.4520
   2   2.0000     -20.584916      -560.1441
   3   2.0000     -20.555769      -559.3509
   4   2.0000     -15.628602      -425.2759
   5   2.0000     -15.608470      -424.7281
   6   2.0000     -11.394015      -310.0469
   7   2.0000     -11.384492      -309.7878
   8   2.0000     -11.333312      -308.3951
   9   2.0000     -11.312296      -307.8232
  10   2.0000     -11.308748      -307.7267
  11   2.0000     -11.297483      -307.4202
  12   2.0000     -11.260649      -306.4178
  13   2.0000     -11.259504      -306.3867
  14   2.0000     -11.257744      -306.3388
  15   2.0000     -11.252351      -306.1920
  16   2.0000     -11.241988      -305.9101
  17   2.0000     -11.237867      -305.7979
  18   2.0000     -11.235114      -305.7230
  19   2.0000     -11.231049      -305.6124
  20   2.0000      -8.894043      -242.0192
  21   2.0000      -6.575621      -178.9317
  22   2.0000      -6.573611      -178.8771
  23   2.0000      -6.573027      -178.8612
  24   2.0000      -1.453622       -39.5551
  25   2.0000      -1.416020       -38.5319
  26   2.0000      -1.357160       -36.9302
  27   2.0000      -1.339692       -36.4549
  28   2.0000      -1.237973       -33.6870
  29   2.0000      -1.156392       -31.4670
  30   2.0000      -1.121477       -30.5169
  31   2.0000      -1.045002       -28.4359
  32   2.0000      -1.035247       -28.1705
  33   2.0000      -1.013871       -27.5888
  34   2.0000      -0.999426       -27.1958
  35   2.0000      -0.984945       -26.8017
  36   2.0000      -0.923456       -25.1285
  37   2.0000      -0.880653       -23.9638
  38   2.0000      -0.848565       -23.0906
  39   2.0000      -0.838870       -22.8268
  40   2.0000      -0.832424       -22.6514
  41   2.0000      -0.826617       -22.4934
  42   2.0000      -0.757484       -20.6122
  43   2.0000      -0.735938       -20.0259
  44   2.0000      -0.728474       -19.8228
  45   2.0000      -0.694140       -18.8885
  46   2.0000      -0.686313       -18.6755
  47   2.0000      -0.681390       -18.5416
  48   2.0000      -0.674927       -18.3657
  49   2.0000      -0.656898       -17.8751
  50   2.0000      -0.649311       -17.6687
  51   2.0000      -0.641407       -17.4536
  52   2.0000      -0.630002       -17.1432
  53   2.0000      -0.622818       -16.9478
  54   2.0000      -0.604747       -16.4560
  55   2.0000      -0.603131       -16.4120
  56   2.0000      -0.599686       -16.3183
  57   2.0000      -0.578387       -15.7387
  58   2.0000      -0.576074       -15.6758
  59   2.0000      -0.563904       -15.3446
  60   2.0000      -0.558178       -15.1888
  61   2.0000      -0.548260       -14.9189
  62   2.0000      -0.534680       -14.5494
  63   2.0000      -0.522052       -14.2058
  64   2.0000      -0.521545       -14.1920
  65   2.0000      -0.512148       -13.9363
  66   2.0000      -0.503246       -13.6940
  67   2.0000      -0.497703       -13.5432
  68   2.0000      -0.482640       -13.1333
  69   2.0000      -0.465120       -12.6566
  70   2.0000      -0.459846       -12.5130
  71   2.0000      -0.451089       -12.2748
  72   2.0000      -0.354472        -9.6457
  73   2.0000      -0.348033        -9.4705
  74   2.0000      -0.328291        -8.9332
  75   2.0000      -0.319421        -8.6919
  76   2.0000      -0.315892        -8.5959
  77   0.0000       0.070572         1.9204
  78   0.0000       0.104339         2.8392
  79   0.0000       0.118493         3.2244
  80   0.0000       0.131949         3.5905
  81   0.0000       0.135236         3.6800

MULLIKEN ATOMIC CHARGES
-----------------------
   0 C :   -0.261260
   1 C :    0.034866
   2 O :   -0.371743
   3 C :    0.467727
   4 O :   -0.398683
   5 C :   -0.209856
   6 C :    0.138368
   7 C :   -0.281631
   8 N :   -0.124528
   9 C :    0.203084
  10 S :   -0.439527
  11 N :   -0.201283
  12 C :    0.054726
  13 C :    0.053056
  14 C :   -0.161207
  15 C :   -0.133206
  16 C :   -0.279733
  17 C :    0.319482
  18 O :   -0.360201
  19 C :   -0.297517
  20 H :    0.102006
  21 H :    0.089564
  22 H :    0.091069
  23 H :    0.094027
  24 H :    0.112743
  25 H :    0.124218
  26 H :    0.105419
  27 H :    0.124421
  28 H :    0.197197
  29 H :    0.194288
  30 H :    0.155169
  31 H :    0.156513
  32 H :    0.161020
  33 H :    0.130559
  34 H :    0.241057
  35 H :    0.169795
Sum of atomic charges:   -0.0000000

LOEWDIN ATOMIC CHARGES
----------------------
   0 C :    0.109106
   1 C :   -0.017705
   2 O :    0.291281
   3 C :   -0.416610
   4 O :    0.129631
   5 C :   -0.094380
   6 C :   -0.075071
   7 C :    0.126198
   8 N :    0.404078
   9 C :   -0.457376
  10 S :   -0.036184
  11 N :    0.397017
  12 C :   -0.045437
  13 C :   -0.040500
  14 C :    0.021968
  15 C :    0.042135
  16 C :   -0.002009
  17 C :   -0.194582
  18 O :    0.393324
  19 C :    0.028011
  20 H :   -0.024047
  21 H :   -0.030543
  22 H :   -0.024569
  23 H :   -0.033638
  24 H :   -0.025894
  25 H :   -0.007733
  26 H :   -0.019377
  27 H :   -0.010445
  28 H :   -0.058697
  29 H :   -0.064091
  30 H :   -0.004618
  31 H :   -0.024556
  32 H :   -0.020279
  33 H :   -0.035629
  34 H :   -0.153901
  35 H :   -0.024881

  Mayer bond orders larger than 0.100000
B(  0-C ,  1-C ) :   0.9785 B(  0-C , 20-H ) :   0.9781 B(  0-C , 21-H ) :   0.9793
B(  0-C , 22-H ) :   0.9764 B(  1-C ,  2-O ) :   0.8889 B(  1-C , 23-H ) :   0.9676
B(  1-C , 24-H ) :   0.9761 B(  2-O ,  3-C ) :   1.0952 B(  3-C ,  4-O ) :   2.0305
B(  3-C ,  5-C ) :   1.0220 B(  5-C ,  6-C ) :   1.6680 B(  5-C , 12-C ) :   0.9634
B(  6-C ,  7-C ) :   0.9522 B(  6-C ,  8-N ) :   1.1389 B(  7-C , 25-H ) :   0.9708
B(  7-C , 26-H ) :   0.9876 B(  7-C , 27-H ) :   0.9632 B(  8-N ,  9-C ) :   1.1842
B(  8-N , 28-H ) :   0.9498 B(  9-C , 10-S ) :   1.6111 B(  9-C , 11-N ) :   1.2997
B( 11-N , 12-C ) :   0.9929 B( 11-N , 29-H ) :   0.9517 B( 12-C , 13-C ) :   0.9450
B( 12-C , 30-H ) :   0.9986 B( 13-C , 14-C ) :   1.3785 B( 13-C , 19-C ) :   1.3594
B( 14-C , 15-C ) :   1.3939 B( 14-C , 31-H ) :   0.9636 B( 15-C , 16-C ) :   1.3642
B( 15-C , 32-H ) :   0.9708 B( 16-C , 17-C ) :   1.3315 B( 16-C , 33-H ) :   0.9849
B( 17-C , 18-O ) :   1.1085 B( 17-C , 19-C ) :   1.3695 B( 18-O , 34-H ) :   0.9798
B( 19-C , 35-H ) :   0.9590

MP2 TOTAL ENERGY:    -1274.325178708 Eh
FINAL SINGLE POINT ENERGY     -1274.325178707645

DIPOLE MOMENT
-------------
                                X             Y             Z
Electronic contribution:     11.32359       9.58638       8.26108
Nuclear contribution   :    -12.65775     -10.87246      -8.79358
                        -----------------------------------------
Total Dipole Moment    :     -1.33416      -1.28607      -0.53250
                        -----------------------------------------
Magnitude (a.u.)       :      1.92809
Magnitude (Debye)      :      4.90080

Rotational constants in cm-1:     0.011296     0.009132     0.006490
Rotational constants in MHz :   338.639946   273.775809   194.551000

                             ****ORCA TERMINATED NORMALLY****
TOTAL RUN TIME: 0 days 1 hours 41 minutes 51 seconds 341 msec
