                         Program Version 4.2.0 -  RELEASE  -
|  1> ! ri-mp2 cc-pvtz cc-pvtz/c TightSCF  NoKeepInts
|  2>
|  3> %scf
|  4>   MaxCore 4096
|  5> end
|  6> *xyz  0  1
|  7>     C       14.4708245   15.7071750   16.2679933
|  8>     C       15.5069864   15.2651048   17.3168938
|  9>     O       16.7379055   14.9407600   16.6388883
| 10>     C       17.7924627   15.7992351   16.4496470
| 11>     O       18.8090687   15.3802463   15.9297801
| 12>     C       17.8795252   16.9234426   17.4249815
| 13>     C       17.3865665   18.1507772   17.1499289
| 14>     C       16.6921733   18.5857532   15.8796163
| 15>     N       17.5554193   19.1898448   18.0672219
| 16>     C       18.2844765   19.0967734   19.2244360
| 17>     S       18.4665354   20.3871635   20.2421126
| 18>     N       18.8516411   17.8766402   19.5016681
| 19>     C       18.6722130   16.6466974   18.7037075
| 20>     C       18.0451190   15.5266071   19.5290136
| 21>     C       18.4844889   14.2008713   19.3583961
| 22>     C       17.9014631   13.1527831   20.0895475
| 23>     C       16.8684490   13.4308298   21.0004259
| 24>     C       16.4252842   14.7489120   21.1717511
| 25>     O       15.4183624   15.0193832   22.0394969
| 26>     C       17.0063103   15.7908191   20.4418379
| 27>     H       14.8087990   16.5818228   15.7065114
| 28>     H       13.5187227   15.9565676   16.7521909
| 29>     H       14.2852063   14.8960404   15.5525314
| 30>     H       15.6337586   16.0403223   18.0813372
| 31>     H       15.1326223   14.3647455   17.8215262
| 32>     H       16.7630005   17.8304082   15.0873222
| 33>     H       17.1493199   19.5000212   15.4799180
| 34>     H       15.6305852   18.7927570   16.0613747
| 35>     H       17.1617998   20.0976551   17.8745953
| 36>     H       19.3703363   17.8349422   20.3700463
| 37>     H       19.6725574   16.3094892   18.3936934
| 38>     H       19.2711967   13.9798622   18.6398150
| 39>     H       18.2472285   12.1307884   19.9427832
| 40>     H       16.4137261   12.6232035   21.5647065
| 41>     H       15.1916067   14.1914217   22.4898142
| 42>     H       16.6412590   16.8021334   20.5884896
| 43> *
| 44>
| 45>                          ****END OF INPUT****

CARTESIAN COORDINATES (ANGSTROEM)
---------------------------------
  C     14.470825   15.707175   16.267993
  C     15.506986   15.265105   17.316894
  O     16.737906   14.940760   16.638888
  C     17.792463   15.799235   16.449647
  O     18.809069   15.380246   15.929780
  C     17.879525   16.923443   17.424981
  C     17.386567   18.150777   17.149929
  C     16.692173   18.585753   15.879616
  N     17.555419   19.189845   18.067222
  C     18.284476   19.096773   19.224436
  S     18.466535   20.387163   20.242113
  N     18.851641   17.876640   19.501668
  C     18.672213   16.646697   18.703708
  C     18.045119   15.526607   19.529014
  C     18.484489   14.200871   19.358396
  C     17.901463   13.152783   20.089547
  C     16.868449   13.430830   21.000426
  C     16.425284   14.748912   21.171751
  O     15.418362   15.019383   22.039497
  C     17.006310   15.790819   20.441838
  H     14.808799   16.581823   15.706511
  H     13.518723   15.956568   16.752191
  H     14.285206   14.896040   15.552531
  H     15.633759   16.040322   18.081337
  H     15.132622   14.364745   17.821526
  H     16.763001   17.830408   15.087322
  H     17.149320   19.500021   15.479918
  H     15.630585   18.792757   16.061375
  H     17.161800   20.097655   17.874595
  H     19.370336   17.834942   20.370046
  H     19.672557   16.309489   18.393693
  H     19.271197   13.979862   18.639815
  H     18.247228   12.130788   19.942783
  H     16.413726   12.623204   21.564706
  H     15.191607   14.191422   22.489814
  H     16.641259   16.802133   20.588490

 Total Charge           Charge          ....    0
 Multiplicity           Mult            ....    1
 Number of Electrons    NEL             ....  154
 Basis Dimension        Dim             ....  828

ORBITAL ENERGIES
----------------

  NO   OCC          E(Eh)            E(eV)
   0   2.0000     -91.888867     -2500.4232
   1   2.0000     -20.601886      -560.6058
   2   2.0000     -20.601081      -560.5839
   3   2.0000     -20.553600      -559.2919
   4   2.0000     -15.623862      -425.1469
   5   2.0000     -15.611998      -424.8241
   6   2.0000     -11.398534      -310.1699
   7   2.0000     -11.385936      -309.8271
   8   2.0000     -11.323893      -308.1388
   9   2.0000     -11.318378      -307.9887
  10   2.0000     -11.318038      -307.9795
  11   2.0000     -11.302846      -307.5661
  12   2.0000     -11.268012      -306.6182
  13   2.0000     -11.265426      -306.5478
  14   2.0000     -11.265212      -306.5420
  15   2.0000     -11.258294      -306.3538
  16   2.0000     -11.247446      -306.0586
  17   2.0000     -11.243412      -305.9488
  18   2.0000     -11.241071      -305.8851
  19   2.0000     -11.235388      -305.7305
  20   2.0000      -8.894004      -242.0182
  21   2.0000      -6.575600      -178.9312
  22   2.0000      -6.573565      -178.8758
  23   2.0000      -6.572998      -178.8604
  24   2.0000      -1.449970       -39.4557
  25   2.0000      -1.420909       -38.6649
  26   2.0000      -1.360943       -37.0331
  27   2.0000      -1.338649       -36.4265
  28   2.0000      -1.239469       -33.7277
  29   2.0000      -1.162407       -31.6307
  30   2.0000      -1.125600       -30.6291
  31   2.0000      -1.049750       -28.5651
  32   2.0000      -1.040319       -28.3085
  33   2.0000      -1.020289       -27.7635
  34   2.0000      -1.005448       -27.3596
  35   2.0000      -0.989237       -26.9185
  36   2.0000      -0.928307       -25.2605
  37   2.0000      -0.893067       -24.3016
  38   2.0000      -0.852914       -23.2090
  39   2.0000      -0.841591       -22.9009
  40   2.0000      -0.838179       -22.8080
  41   2.0000      -0.836410       -22.7599
  42   2.0000      -0.755160       -20.5490
  43   2.0000      -0.734201       -19.9786
  44   2.0000      -0.731612       -19.9082
  45   2.0000      -0.698707       -19.0128
  46   2.0000      -0.690578       -18.7916
  47   2.0000      -0.680407       -18.5148
  48   2.0000      -0.678176       -18.4541
  49   2.0000      -0.668515       -18.1912
  50   2.0000      -0.653665       -17.7871
  51   2.0000      -0.641163       -17.4469
  52   2.0000      -0.638237       -17.3673
  53   2.0000      -0.619182       -16.8488
  54   2.0000      -0.610215       -16.6048
  55   2.0000      -0.608145       -16.5485
  56   2.0000      -0.604420       -16.4471
  57   2.0000      -0.589136       -16.0312
  58   2.0000      -0.578850       -15.7513
  59   2.0000      -0.569115       -15.4864
  60   2.0000      -0.567492       -15.4422
  61   2.0000      -0.558206       -15.1896
  62   2.0000      -0.544559       -14.8182
  63   2.0000      -0.536059       -14.5869
  64   2.0000      -0.523234       -14.2379
  65   2.0000      -0.515754       -14.0344
  66   2.0000      -0.503182       -13.6923
  67   2.0000      -0.502657       -13.6780
  68   2.0000      -0.488168       -13.2837
  69   2.0000      -0.471258       -12.8236
  70   2.0000      -0.452569       -12.3150
  71   2.0000      -0.450154       -12.2493
  72   2.0000      -0.356477        -9.7002
  73   2.0000      -0.351894        -9.5755
  74   2.0000      -0.328800        -8.9471
  75   2.0000      -0.325541        -8.8584
  76   2.0000      -0.317825        -8.6485
  77   0.0000       0.093402         2.5416
  78   0.0000       0.104613         2.8467
  79   0.0000       0.112491         3.0610
  80   0.0000       0.126841         3.4515
  81   0.0000       0.128256         3.4900

MULLIKEN ATOMIC CHARGES
-----------------------
   0 C :   -0.275765
   1 C :    0.021479
   2 O :   -0.313542
   3 C :    0.381780
   4 O :   -0.372943
   5 C :   -0.166259
   6 C :    0.135592
   7 C :   -0.341916
   8 N :   -0.138120
   9 C :    0.210526
  10 S :   -0.444232
  11 N :   -0.224004
  12 C :    0.079913
  13 C :    0.007345
  14 C :   -0.183448
  15 C :   -0.133939
  16 C :   -0.277333
  17 C :    0.316116
  18 O :   -0.356357
  19 C :   -0.275234
  20 H :    0.083936
  21 H :    0.096634
  22 H :    0.111505
  23 H :    0.099157
  24 H :    0.126215
  25 H :    0.120929
  26 H :    0.140997
  27 H :    0.124737
  28 H :    0.195422
  29 H :    0.201730
  30 H :    0.165493
  31 H :    0.162569
  32 H :    0.163864
  33 H :    0.133392
  34 H :    0.241852
  35 H :    0.181908
Sum of atomic charges:   -0.0000000

LOEWDIN ATOMIC CHARGES
----------------------
   0 C :    0.104491
   1 C :   -0.019853
   2 O :    0.314922
   3 C :   -0.420332
   4 O :    0.129484
   5 C :   -0.077686
   6 C :   -0.111142
   7 C :    0.122757
   8 N :    0.400123
   9 C :   -0.455304
  10 S :   -0.040380
  11 N :    0.397524
  12 C :   -0.042718
  13 C :   -0.042871
  14 C :    0.024574
  15 C :    0.045947
  16 C :   -0.000497
  17 C :   -0.194147
  18 O :    0.395161
  19 C :    0.027224
  20 H :   -0.035755
  21 H :   -0.024843
  22 H :   -0.022997
  23 H :   -0.040404
  24 H :   -0.019094
  25 H :   -0.010466
  26 H :   -0.009931
  27 H :   -0.016970
  28 H :   -0.058671
  29 H :   -0.063767
  30 H :   -0.002286
  31 H :   -0.022061
  32 H :   -0.018196
  33 H :   -0.034446
  34 H :   -0.152723
  35 H :   -0.024667

  Mayer bond orders larger than 0.100000
B(  0-C ,  1-C ) :   0.9764 B(  0-C , 20-H ) :   0.9774 B(  0-C , 21-H ) :   0.9760
B(  0-C , 22-H ) :   0.9797 B(  1-C ,  2-O ) :   0.8942 B(  1-C , 23-H ) :   0.9583
B(  1-C , 24-H ) :   0.9778 B(  2-O ,  3-C ) :   1.1619 B(  3-C ,  4-O ) :   2.1016
B(  3-C ,  5-C ) :   0.9076 B(  5-C ,  6-C ) :   1.7134 B(  5-C , 12-C ) :   0.9587
B(  6-C ,  7-C ) :   0.9420 B(  6-C ,  8-N ) :   1.1058 B(  7-C , 25-H ) :   0.9826
B(  7-C , 26-H ) :   0.9707 B(  7-C , 27-H ) :   0.9667 B(  8-N ,  9-C ) :   1.2036
B(  8-N , 28-H ) :   0.9535 B(  9-C , 10-S ) :   1.6065 B(  9-C , 11-N ) :   1.2828
B( 11-N , 12-C ) :   0.9922 B( 11-N , 29-H ) :   0.9466 B( 12-C , 13-C ) :   0.9438
B( 12-C , 30-H ) :   0.9979 B( 13-C , 14-C ) :   1.3878 B( 13-C , 19-C ) :   1.3391
B( 14-C , 15-C ) :   1.3994 B( 14-C , 31-H ) :   0.9648 B( 15-C , 16-C ) :   1.3606
B( 15-C , 32-H ) :   0.9697 B( 16-C , 17-C ) :   1.3306 B( 16-C , 33-H ) :   0.9841
B( 17-C , 18-O ) :   1.1108 B( 17-C , 19-C ) :   1.3666 B( 18-O , 34-H ) :   0.9789
B( 19-C , 35-H ) :   0.9563

MP2 TOTAL ENERGY:    -1274.326204210 Eh
FINAL SINGLE POINT ENERGY     -1274.326204210157

DIPOLE MOMENT
-------------
                                X             Y             Z
Electronic contribution:     10.94471       5.32867       7.89767
Nuclear contribution   :    -12.56456      -6.52007      -8.18960
                        -----------------------------------------
Total Dipole Moment    :     -1.61985      -1.19140      -0.29194
                        -----------------------------------------
Magnitude (a.u.)       :      2.03188
Magnitude (Debye)      :      5.16464

Rotational constants in cm-1:     0.011835     0.009256     0.006756
Rotational constants in MHz :   354.795686   277.494901   202.532221

                             ****ORCA TERMINATED NORMALLY****
TOTAL RUN TIME: 0 days 1 hours 43 minutes 56 seconds 10 msec
