                         Program Version 4.2.0 -  RELEASE  -
|  1> ! ri-mp2 cc-pvtz cc-pvtz/c TightSCF  NoKeepInts
|  2>
|  3> %scf
|  4>   MaxCore 4096
|  5> end
|  6> *xyz  0  1
|  7>     C       14.9497398   13.9511759   15.4268698
|  8>     C       15.3165842   14.8833978   16.5937944
|  9>     O       16.3230855   15.7964080   16.1218890
| 10>     C       17.5697083   15.7182611   16.6689189
| 11>     O       18.1014655   14.6389760   16.8701250
| 12>     C       17.9026542   16.9212126   17.4988819
| 13>     C       17.4964695   18.1818047   17.2035056
| 14>     C       16.6887925   18.6320290   16.0039654
| 15>     N       17.8932060   19.2481378   18.0163218
| 16>     C       18.7937548   19.1546197   19.0449157
| 17>     S       19.2957545   20.4868101   19.8867054
| 18>     N       19.2577881   17.8974109   19.3410141
| 19>     C       18.7533174   16.6467545   18.7425597
| 20>     C       17.9616476   15.8420405   19.7700928
| 21>     C       18.3032526   14.5052309   20.0458268
| 22>     C       17.5694879   13.7564147   20.9810746
| 23>     C       16.4830488   14.3483862   21.6472868
| 24>     C       16.1367288   15.6782468   21.3725945
| 25>     O       15.0827986   16.2502233   22.0075497
| 26>     C       16.8683544   16.4206935   20.4404575
| 27>     H       15.8254644   13.3693401   15.1119442
| 28>     H       14.5888832   14.5283299   14.5666297
| 29>     H       14.1623386   13.2493789   15.7271146
| 30>     H       14.4269189   15.4451133   16.9060540
| 31>     H       15.6691145   14.2965352   17.4541892
| 32>     H       17.0295702   18.1293525   15.0900870
| 33>     H       16.7700245   19.7109750   15.8242138
| 34>     H       15.6266238   18.3940899   16.1411222
| 35>     H       17.5645407   20.1789559   17.8143293
| 36>     H       19.8976430   17.8531459   20.1237454
| 37>     H       19.6227581   16.0502046   18.4303229
| 38>     H       19.1314375   14.0391940   19.5172959
| 39>     H       17.8410423   12.7213442   21.1808258
| 40>     H       15.9126812   13.7729645   22.3688419
| 41>     H       14.7453329   15.6056011   22.6475783
| 42>     H       16.5849871   17.4492412   20.2453564
| 43> *
| 44>
| 45>                          ****END OF INPUT****

CARTESIAN COORDINATES (ANGSTROEM)
---------------------------------
  C     14.949740   13.951176   15.426870
  C     15.316584   14.883398   16.593794
  O     16.323086   15.796408   16.121889
  C     17.569708   15.718261   16.668919
  O     18.101465   14.638976   16.870125
  C     17.902654   16.921213   17.498882
  C     17.496469   18.181805   17.203506
  C     16.688793   18.632029   16.003965
  N     17.893206   19.248138   18.016322
  C     18.793755   19.154620   19.044916
  S     19.295755   20.486810   19.886705
  N     19.257788   17.897411   19.341014
  C     18.753317   16.646755   18.742560
  C     17.961648   15.842040   19.770093
  C     18.303253   14.505231   20.045827
  C     17.569488   13.756415   20.981075
  C     16.483049   14.348386   21.647287
  C     16.136729   15.678247   21.372595
  O     15.082799   16.250223   22.007550
  C     16.868354   16.420693   20.440457
  H     15.825464   13.369340   15.111944
  H     14.588883   14.528330   14.566630
  H     14.162339   13.249379   15.727115
  H     14.426919   15.445113   16.906054
  H     15.669114   14.296535   17.454189
  H     17.029570   18.129352   15.090087
  H     16.770025   19.710975   15.824214
  H     15.626624   18.394090   16.141122
  H     17.564541   20.178956   17.814329
  H     19.897643   17.853146   20.123745
  H     19.622758   16.050205   18.430323
  H     19.131438   14.039194   19.517296
  H     17.841042   12.721344   21.180826
  H     15.912681   13.772965   22.368842
  H     14.745333   15.605601   22.647578
  H     16.584987   17.449241   20.245356

 Total Charge           Charge          ....    0
 Multiplicity           Mult            ....    1
 Number of Electrons    NEL             ....  154
 Basis Dimension        Dim             ....  828

ORBITAL ENERGIES
----------------

  NO   OCC          E(Eh)            E(eV)
   0   2.0000     -91.888626     -2500.4166
   1   2.0000     -20.594928      -560.4165
   2   2.0000     -20.588398      -560.2388
   3   2.0000     -20.553884      -559.2996
   4   2.0000     -15.628336      -425.2686
   5   2.0000     -15.607983      -424.7148
   6   2.0000     -11.395577      -310.0894
   7   2.0000     -11.383997      -309.7743
   8   2.0000     -11.333679      -308.4051
   9   2.0000     -11.311106      -307.7909
  10   2.0000     -11.308089      -307.7087
  11   2.0000     -11.299247      -307.4681
  12   2.0000     -11.259918      -306.3979
  13   2.0000     -11.259840      -306.3958
  14   2.0000     -11.256801      -306.3131
  15   2.0000     -11.251315      -306.1638
  16   2.0000     -11.240921      -305.8810
  17   2.0000     -11.236847      -305.7702
  18   2.0000     -11.234078      -305.6948
  19   2.0000     -11.224591      -305.4366
  20   2.0000      -8.893698      -242.0098
  21   2.0000      -6.575276      -178.9224
  22   2.0000      -6.573267      -178.8677
  23   2.0000      -6.572683      -178.8518
  24   2.0000      -1.453489       -39.5515
  25   2.0000      -1.414686       -38.4956
  26   2.0000      -1.357206       -36.9315
  27   2.0000      -1.339437       -36.4479
  28   2.0000      -1.237616       -33.6772
  29   2.0000      -1.155365       -31.4391
  30   2.0000      -1.121010       -30.5042
  31   2.0000      -1.044041       -28.4098
  32   2.0000      -1.033599       -28.1257
  33   2.0000      -1.012776       -27.5590
  34   2.0000      -0.998602       -27.1733
  35   2.0000      -0.983900       -26.7733
  36   2.0000      -0.922849       -25.1120
  37   2.0000      -0.883662       -24.0457
  38   2.0000      -0.848420       -23.0867
  39   2.0000      -0.838063       -22.8049
  40   2.0000      -0.831364       -22.6226
  41   2.0000      -0.824585       -22.4381
  42   2.0000      -0.755655       -20.5624
  43   2.0000      -0.735011       -20.0007
  44   2.0000      -0.727626       -19.7997
  45   2.0000      -0.693274       -18.8650
  46   2.0000      -0.686228       -18.6732
  47   2.0000      -0.680778       -18.5249
  48   2.0000      -0.673067       -18.3151
  49   2.0000      -0.660181       -17.9645
  50   2.0000      -0.647037       -17.6068
  51   2.0000      -0.641388       -17.4531
  52   2.0000      -0.631515       -17.1844
  53   2.0000      -0.610927       -16.6242
  54   2.0000      -0.603073       -16.4105
  55   2.0000      -0.601945       -16.3798
  56   2.0000      -0.598175       -16.2772
  57   2.0000      -0.582383       -15.8474
  58   2.0000      -0.575785       -15.6679
  59   2.0000      -0.565551       -15.3894
  60   2.0000      -0.562402       -15.3037
  61   2.0000      -0.548553       -14.9269
  62   2.0000      -0.534156       -14.5351
  63   2.0000      -0.520528       -14.1643
  64   2.0000      -0.515592       -14.0300
  65   2.0000      -0.511511       -13.9189
  66   2.0000      -0.502951       -13.6860
  67   2.0000      -0.497419       -13.5355
  68   2.0000      -0.482094       -13.1184
  69   2.0000      -0.464025       -12.6268
  70   2.0000      -0.457761       -12.4563
  71   2.0000      -0.452416       -12.3109
  72   2.0000      -0.353952        -9.6315
  73   2.0000      -0.347114        -9.4454
  74   2.0000      -0.327898        -8.9226
  75   2.0000      -0.318280        -8.6608
  76   2.0000      -0.315496        -8.5851
  77   0.0000       0.072246         1.9659
  78   0.0000       0.106987         2.9113
  79   0.0000       0.119763         3.2589
  80   0.0000       0.133377         3.6294
  81   0.0000       0.137081         3.7302

MULLIKEN ATOMIC CHARGES
-----------------------
   0 C :   -0.264150
   1 C :    0.047158
   2 O :   -0.370564
   3 C :    0.435192
   4 O :   -0.405954
   5 C :   -0.174018
   6 C :    0.138420
   7 C :   -0.280805
   8 N :   -0.124320
   9 C :    0.202976
  10 S :   -0.439745
  11 N :   -0.200713
  12 C :    0.051360
  13 C :    0.047752
  14 C :   -0.165030
  15 C :   -0.134136
  16 C :   -0.280781
  17 C :    0.312110
  18 O :   -0.358394
  19 C :   -0.276153
  20 H :    0.107187
  21 H :    0.090646
  22 H :    0.087060
  23 H :    0.094225
  24 H :    0.106848
  25 H :    0.124160
  26 H :    0.103400
  27 H :    0.125785
  28 H :    0.197141
  29 H :    0.194151
  30 H :    0.154576
  31 H :    0.156072
  32 H :    0.160820
  33 H :    0.130036
  34 H :    0.240600
  35 H :    0.167088
Sum of atomic charges:   -0.0000000

LOEWDIN ATOMIC CHARGES
----------------------
   0 C :    0.105277
   1 C :   -0.013710
   2 O :    0.295355
   3 C :   -0.417067
   4 O :    0.121550
   5 C :   -0.092971
   6 C :   -0.072522
   7 C :    0.126017
   8 N :    0.404206
   9 C :   -0.457706
  10 S :   -0.036353
  11 N :    0.397167
  12 C :   -0.045561
  13 C :   -0.040320
  14 C :    0.020945
  15 C :    0.040660
  16 C :   -0.002321
  17 C :   -0.193377
  18 O :    0.393371
  19 C :    0.028299
  20 H :   -0.022906
  21 H :   -0.029243
  22 H :   -0.028437
  23 H :   -0.030490
  24 H :   -0.024746
  25 H :   -0.008099
  26 H :   -0.019768
  27 H :   -0.009731
  28 H :   -0.058763
  29 H :   -0.064006
  30 H :   -0.004786
  31 H :   -0.024842
  32 H :   -0.020587
  33 H :   -0.035837
  34 H :   -0.154301
  35 H :   -0.024399

  Mayer bond orders larger than 0.100000
B(  0-C ,  1-C ) :   0.9782 B(  0-C , 20-H ) :   0.9767 B(  0-C , 21-H ) :   0.9787
B(  0-C , 22-H ) :   0.9761 B(  1-C ,  2-O ) :   0.8844 B(  1-C , 23-H ) :   0.9804
B(  1-C , 24-H ) :   0.9694 B(  2-O ,  3-C ) :   1.0908 B(  3-C ,  4-O ) :   2.0081
B(  3-C ,  5-C ) :   1.0410 B(  5-C ,  6-C ) :   1.6632 B(  5-C , 12-C ) :   0.9651
B(  6-C ,  7-C ) :   0.9521 B(  6-C ,  8-N ) :   1.1390 B(  7-C , 25-H ) :   0.9698
B(  7-C , 26-H ) :   0.9887 B(  7-C , 27-H ) :   0.9634 B(  8-N ,  9-C ) :   1.1836
B(  8-N , 28-H ) :   0.9497 B(  9-C , 10-S ) :   1.6106 B(  9-C , 11-N ) :   1.3005
B( 11-N , 12-C ) :   0.9923 B( 11-N , 29-H ) :   0.9516 B( 12-C , 13-C ) :   0.9446
B( 12-C , 30-H ) :   0.9984 B( 13-C , 14-C ) :   1.3768 B( 13-C , 19-C ) :   1.3687
B( 14-C , 15-C ) :   1.3942 B( 14-C , 31-H ) :   0.9640 B( 15-C , 16-C ) :   1.3633
B( 15-C , 32-H ) :   0.9709 B( 16-C , 17-C ) :   1.3307 B( 16-C , 33-H ) :   0.9853
B( 17-C , 18-O ) :   1.1093 B( 17-C , 19-C ) :   1.3762 B( 18-O , 34-H ) :   0.9801
B( 19-C , 35-H ) :   0.9579

MP2 TOTAL ENERGY:    -1274.328549512 Eh
FINAL SINGLE POINT ENERGY     -1274.328549512048

DIPOLE MOMENT
-------------
                                X             Y             Z
Electronic contribution:     10.99948      10.40478       9.17777
Nuclear contribution   :    -12.47490     -11.60998      -9.75744
                        -----------------------------------------
Total Dipole Moment    :     -1.47542      -1.20520      -0.57967
                        -----------------------------------------
Magnitude (a.u.)       :      1.99133
Magnitude (Debye)      :      5.06156

Rotational constants in cm-1:     0.011228     0.009016     0.006179
Rotational constants in MHz :   336.616115   270.288542   185.243280

                             ****ORCA TERMINATED NORMALLY****
TOTAL RUN TIME: 0 days 1 hours 40 minutes 31 seconds 452 msec
