                         Program Version 4.2.0 -  RELEASE  -
|  1> ! ri-mp2 cc-pvtz cc-pvtz/c TightSCF  NoKeepInts
|  2>
|  3> %scf
|  4>   MaxCore 4096
|  5> end
|  6> *xyz  0  1
|  7>     C       14.3196731   15.1455512   16.5270978
|  8>     C       15.7002395   14.6684230   16.0457278
|  9>     O       16.5296998   15.8354349   15.9092908
| 10>     C       17.7549906   15.8404018   16.5078775
| 11>     O       18.4219548   14.8231817   16.6033950
| 12>     C       17.9283151   16.9904916   17.4537993
| 13>     C       17.3642404   18.2128098   17.2802821
| 14>     C       16.5078546   18.6788952   16.1211987
| 15>     N       17.6160780   19.2316437   18.2043316
| 16>     C       18.5110432   19.1471525   19.2384132
| 17>     S       18.8300991   20.4381819   20.2217775
| 18>     N       19.1296601   17.9351842   19.4160408
| 19>     C       18.7982286   16.7002485   18.6803638
| 20>     C       18.1095102   15.6976474   19.6022021
| 21>     C       18.6415998   14.4070244   19.7778976
| 22>     C       18.0021751   13.4765312   20.6141363
| 23>     C       16.8187004   13.8381266   21.2800406
| 24>     C       16.2830434   15.1211472   21.1040668
| 25>     O       15.1353995   15.4705431   21.7381476
| 26>     C       16.9220801   16.0453138   20.2718152
| 27>     H       14.4029466   15.6488621   17.4988087
| 28>     H       13.6374089   14.2942799   16.6402712
| 29>     H       13.8787214   15.8465293   15.8076772
| 30>     H       16.1106802   13.9642055   16.7833340
| 31>     H       15.6142736   14.1506113   15.0816919
| 32>     H       16.9212280   18.3346650   15.1649419
| 33>     H       16.4364219   19.7718348   16.0638286
| 34>     H       15.4892206   18.2809211   16.2090297
| 35>     H       17.1722049   20.1289897   18.0908436
| 36>     H       19.7611859   17.8912232   20.2054669
| 37>     H       19.7404591   16.2569504   18.3269822
| 38>     H       19.5459912   14.1185810   19.2477770
| 39>     H       18.4210683   12.4793637   20.7370438
| 40>     H       16.3203277   13.1215501   21.9243464
| 41>     H       14.8778174   14.7256357   22.3018385
| 42>     H       16.4924591   17.0338636   20.1522160
| 43> *
| 44>
| 45>                          ****END OF INPUT****

CARTESIAN COORDINATES (ANGSTROEM)
---------------------------------
  C     14.319673   15.145551   16.527098
  C     15.700239   14.668423   16.045728
  O     16.529700   15.835435   15.909291
  C     17.754991   15.840402   16.507877
  O     18.421955   14.823182   16.603395
  C     17.928315   16.990492   17.453799
  C     17.364240   18.212810   17.280282
  C     16.507855   18.678895   16.121199
  N     17.616078   19.231644   18.204332
  C     18.511043   19.147152   19.238413
  S     18.830099   20.438182   20.221778
  N     19.129660   17.935184   19.416041
  C     18.798229   16.700249   18.680364
  C     18.109510   15.697647   19.602202
  C     18.641600   14.407024   19.777898
  C     18.002175   13.476531   20.614136
  C     16.818700   13.838127   21.280041
  C     16.283043   15.121147   21.104067
  O     15.135399   15.470543   21.738148
  C     16.922080   16.045314   20.271815
  H     14.402947   15.648862   17.498809
  H     13.637409   14.294280   16.640271
  H     13.878721   15.846529   15.807677
  H     16.110680   13.964206   16.783334
  H     15.614274   14.150611   15.081692
  H     16.921228   18.334665   15.164942
  H     16.436422   19.771835   16.063829
  H     15.489221   18.280921   16.209030
  H     17.172205   20.128990   18.090844
  H     19.761186   17.891223   20.205467
  H     19.740459   16.256950   18.326982
  H     19.545991   14.118581   19.247777
  H     18.421068   12.479364   20.737044
  H     16.320328   13.121550   21.924346
  H     14.877817   14.725636   22.301838
  H     16.492459   17.033864   20.152216

 Total Charge           Charge          ....    0
 Multiplicity           Mult            ....    1
 Number of Electrons    NEL             ....  154
 Basis Dimension        Dim             ....  828

ORBITAL ENERGIES
----------------

  NO   OCC          E(Eh)            E(eV)
   0   2.0000     -91.888297     -2500.4077
   1   2.0000     -20.595030      -560.4193
   2   2.0000     -20.593457      -560.3765
   3   2.0000     -20.550679      -559.2124
   4   2.0000     -15.627985      -425.2591
   5   2.0000     -15.607716      -424.7075
   6   2.0000     -11.394875      -310.0703
   7   2.0000     -11.383673      -309.7655
   8   2.0000     -11.333554      -308.4017
   9   2.0000     -11.311003      -307.7880
  10   2.0000     -11.307691      -307.6979
  11   2.0000     -11.298615      -307.4509
  12   2.0000     -11.259866      -306.3965
  13   2.0000     -11.259316      -306.3816
  14   2.0000     -11.256510      -306.3052
  15   2.0000     -11.251100      -306.1580
  16   2.0000     -11.240675      -305.8743
  17   2.0000     -11.236674      -305.7655
  18   2.0000     -11.233876      -305.6893
  19   2.0000     -11.231597      -305.6273
  20   2.0000      -8.893374      -242.0010
  21   2.0000      -6.574953      -178.9136
  22   2.0000      -6.572943      -178.8589
  23   2.0000      -6.572360      -178.8430
  24   2.0000      -1.453569       -39.5536
  25   2.0000      -1.414769       -38.4978
  26   2.0000      -1.356959       -36.9247
  27   2.0000      -1.339187       -36.4411
  28   2.0000      -1.237396       -33.6713
  29   2.0000      -1.155206       -31.4348
  30   2.0000      -1.120773       -30.4978
  31   2.0000      -1.044469       -28.4215
  32   2.0000      -1.036456       -28.2034
  33   2.0000      -1.012585       -27.5538
  34   2.0000      -0.998829       -27.1795
  35   2.0000      -0.984436       -26.7879
  36   2.0000      -0.922632       -25.1061
  37   2.0000      -0.887646       -24.1541
  38   2.0000      -0.847322       -23.0568
  39   2.0000      -0.837104       -22.7788
  40   2.0000      -0.831134       -22.6163
  41   2.0000      -0.819223       -22.2922
  42   2.0000      -0.759460       -20.6660
  43   2.0000      -0.736255       -20.0345
  44   2.0000      -0.727196       -19.7880
  45   2.0000      -0.693390       -18.8681
  46   2.0000      -0.684943       -18.6382
  47   2.0000      -0.679545       -18.4914
  48   2.0000      -0.676825       -18.4174
  49   2.0000      -0.660513       -17.9735
  50   2.0000      -0.651371       -17.7247
  51   2.0000      -0.644736       -17.5441
  52   2.0000      -0.635961       -17.3054
  53   2.0000      -0.603924       -16.4336
  54   2.0000      -0.602146       -16.3852
  55   2.0000      -0.598411       -16.2836
  56   2.0000      -0.593463       -16.1490
  57   2.0000      -0.578497       -15.7417
  58   2.0000      -0.575664       -15.6646
  59   2.0000      -0.568180       -15.4610
  60   2.0000      -0.559979       -15.2378
  61   2.0000      -0.556067       -15.1314
  62   2.0000      -0.541928       -14.7466
  63   2.0000      -0.520338       -14.1591
  64   2.0000      -0.517402       -14.0792
  65   2.0000      -0.511581       -13.9208
  66   2.0000      -0.501653       -13.6507
  67   2.0000      -0.497444       -13.5361
  68   2.0000      -0.482571       -13.1314
  69   2.0000      -0.463228       -12.6051
  70   2.0000      -0.457186       -12.4407
  71   2.0000      -0.456683       -12.4270
  72   2.0000      -0.353716        -9.6251
  73   2.0000      -0.346939        -9.4407
  74   2.0000      -0.327607        -8.9146
  75   2.0000      -0.318091        -8.6557
  76   2.0000      -0.315183        -8.5766
  77   0.0000       0.074082         2.0159
  78   0.0000       0.106607         2.9009
  79   0.0000       0.119426         3.2497
  80   0.0000       0.133278         3.6267
  81   0.0000       0.140510         3.8235

MULLIKEN ATOMIC CHARGES
-----------------------
   0 C :   -0.284480
   1 C :    0.044607
   2 O :   -0.359444
   3 C :    0.439684
   4 O :   -0.409501
   5 C :   -0.181395
   6 C :    0.139752
   7 C :   -0.285325
   8 N :   -0.124916
   9 C :    0.204625
  10 S :   -0.440464
  11 N :   -0.200351
  12 C :    0.051906
  13 C :    0.051951
  14 C :   -0.160934
  15 C :   -0.132645
  16 C :   -0.280912
  17 C :    0.314811
  18 O :   -0.359813
  19 C :   -0.284611
  20 H :    0.103671
  21 H :    0.103510
  22 H :    0.091924
  23 H :    0.104158
  24 H :    0.100016
  25 H :    0.125031
  26 H :    0.105159
  27 H :    0.125788
  28 H :    0.197039
  29 H :    0.194211
  30 H :    0.154008
  31 H :    0.154167
  32 H :    0.160500
  33 H :    0.129715
  34 H :    0.240877
  35 H :    0.167678
Sum of atomic charges:    0.0000000

LOEWDIN ATOMIC CHARGES
----------------------
   0 C :    0.104095
   1 C :   -0.012958
   2 O :    0.300310
   3 C :   -0.416564
   4 O :    0.116506
   5 C :   -0.092967
   6 C :   -0.072655
   7 C :    0.125714
   8 N :    0.404181
   9 C :   -0.457522
  10 S :   -0.036764
  11 N :    0.397273
  12 C :   -0.045693
  13 C :   -0.039776
  14 C :    0.021798
  15 C :    0.041353
  16 C :   -0.002258
  17 C :   -0.193604
  18 O :    0.393111
  19 C :    0.028120
  20 H :   -0.026270
  21 H :   -0.023885
  22 H :   -0.030564
  23 H :   -0.024608
  24 H :   -0.029505
  25 H :   -0.008096
  26 H :   -0.019991
  27 H :   -0.010401
  28 H :   -0.058899
  29 H :   -0.063996
  30 H :   -0.004830
  31 H :   -0.024962
  32 H :   -0.020630
  33 H :   -0.035925
  34 H :   -0.154282
  35 H :   -0.024858

  Mayer bond orders larger than 0.100000
B(  0-C ,  1-C ) :   0.9695 B(  0-C , 20-H ) :   0.9748 B(  0-C , 21-H ) :   0.9784
B(  0-C , 22-H ) :   0.9780 B(  1-C ,  2-O ) :   0.8946 B(  1-C , 23-H ) :   0.9704
B(  1-C , 24-H ) :   0.9850 B(  2-O ,  3-C ) :   1.1207 B(  3-C ,  4-O ) :   2.0146
B(  3-C ,  5-C ) :   1.0316 B(  5-C ,  6-C ) :   1.6635 B(  5-C , 12-C ) :   0.9659
B(  6-C ,  7-C ) :   0.9541 B(  6-C ,  8-N ) :   1.1417 B(  7-C , 25-H ) :   0.9693
B(  7-C , 26-H ) :   0.9887 B(  7-C , 27-H ) :   0.9637 B(  8-N ,  9-C ) :   1.1838
B(  8-N , 28-H ) :   0.9495 B(  9-C , 10-S ) :   1.6095 B(  9-C , 11-N ) :   1.3015
B( 11-N , 12-C ) :   0.9924 B( 11-N , 29-H ) :   0.9517 B( 12-C , 13-C ) :   0.9442
B( 12-C , 30-H ) :   0.9983 B( 13-C , 14-C ) :   1.3758 B( 13-C , 19-C ) :   1.3677
B( 14-C , 15-C ) :   1.3938 B( 14-C , 31-H ) :   0.9648 B( 15-C , 16-C ) :   1.3635
B( 15-C , 32-H ) :   0.9710 B( 16-C , 17-C ) :   1.3317 B( 16-C , 33-H ) :   0.9853
B( 17-C , 18-O ) :   1.1078 B( 17-C , 19-C ) :   1.3743 B( 18-O , 34-H ) :   0.9802
B( 19-C , 35-H ) :   0.9582

MP2 TOTAL ENERGY:    -1274.334789943 Eh
FINAL SINGLE POINT ENERGY     -1274.334789942716

DIPOLE MOMENT
-------------
                                X             Y             Z
Electronic contribution:     11.56309       8.22891       7.58918
Nuclear contribution   :    -12.91999      -9.56797      -8.36157
                        -----------------------------------------
Total Dipole Moment    :     -1.35690      -1.33906      -0.77239
                        -----------------------------------------
Magnitude (a.u.)       :      2.05690
Magnitude (Debye)      :      5.22823

Rotational constants in cm-1:     0.011243     0.009215     0.006599
Rotational constants in MHz :   337.060955   276.269802   197.829877

                             ****ORCA TERMINATED NORMALLY****
TOTAL RUN TIME: 0 days 1 hours 48 minutes 11 seconds 455 msec
