                         Program Version 4.2.0 -  RELEASE  -
|  1> ! ri-mp2 cc-pvtz cc-pvtz/c TightSCF  NoKeepInts
|  2>
|  3> %scf
|  4>   MaxCore 4096
|  5> end
|  6> *xyz  0  1
|  7>     C       15.0021548   14.4462412   14.5144861
|  8>     C       15.2706716   14.6058963   16.0203330
|  9>     O       16.2151260   15.6819259   16.1746045
| 10>     C       17.3434625   15.5064948   16.9235472
| 11>     O       17.7920354   14.4007741   17.1783462
| 12>     C       17.7941065   16.7391428   17.6546542
| 13>     C       17.4610274   18.0122508   17.3145954
| 14>     C       16.6050161   18.4755120   16.1533610
| 15>     N       17.9929008   19.0854415   18.0373641
| 16>     C       18.9675197   18.9801248   18.9942019
| 17>     S       19.6361253   20.3137928   19.7082923
| 18>     N       19.3603062   17.7091374   19.3283548
| 19>     C       18.7045047   16.4740665   18.8594518
| 20>     C       17.9298952   15.8160478   19.9985637
| 21>     C       18.1766879   14.4750810   20.3464640
| 22>     C       17.4652610   13.8632908   21.3921792
| 23>     C       16.4973613   14.5980450   22.0978016
| 24>     C       16.2455798   15.9326806   21.7522301
| 25>     O       15.3071381   16.6430353   22.4275895
| 26>     C       16.9549086   16.5386968   20.7105525
| 27>     H       14.6078570   15.3775135   14.0894055
| 28>     H       14.2698604   13.6492974   14.3368148
| 29>     H       15.9269606   14.1861161   13.9842837
| 30>     H       14.3387202   14.8485064   16.5469819
| 31>     H       15.6516234   13.6566083   16.4207071
| 32>     H       16.9219365   17.9952811   15.2191192
| 33>     H       16.6611643   19.5587867   15.9915391
| 34>     H       15.5514656   18.2209370   16.3235018
| 35>     H       17.7177763   20.0266259   17.8062127
| 36>     H       20.0579087   17.6570875   20.0594924
| 37>     H       19.4949041   15.7813284   18.5359959
| 38>     H       18.9126501   13.8993463   19.7904261
| 39>     H       17.6618066   12.8234609   21.6470056
| 40>     H       15.9444308   14.1289213   22.9047052
| 41>     H       14.9594316   16.0707130   23.1278118
| 42>     H       16.7467150   17.5737921   20.4630242
| 43> *
| 44>
| 45>                          ****END OF INPUT****

CARTESIAN COORDINATES (ANGSTROEM)
---------------------------------
  C     15.002155   14.446241   14.514486
  C     15.270672   14.605896   16.020333
  O     16.215126   15.681926   16.174605
  C     17.343462   15.506495   16.923547
  O     17.792035   14.400774   17.178346
  C     17.794107   16.739143   17.654654
  C     17.461027   18.012251   17.314595
  C     16.605016   18.475512   16.153361
  N     17.992901   19.085441   18.037364
  C     18.967520   18.980125   18.994202
  S     19.636125   20.313793   19.708292
  N     19.360306   17.709137   19.328355
  C     18.704505   16.474066   18.859452
  C     17.929895   15.816048   19.998564
  C     18.176688   14.475081   20.346464
  C     17.465261   13.863291   21.392179
  C     16.497361   14.598045   22.097802
  C     16.245580   15.932681   21.752230
  O     15.307138   16.643035   22.427589
  C     16.954909   16.538697   20.710552
  H     14.607857   15.377513   14.089405
  H     14.269860   13.649297   14.336815
  H     15.926961   14.186116   13.984284
  H     14.338720   14.848506   16.546982
  H     15.651623   13.656608   16.420707
  H     16.921937   17.995281   15.219119
  H     16.661164   19.558787   15.991539
  H     15.551466   18.220937   16.323502
  H     17.717776   20.026626   17.806213
  H     20.057909   17.657087   20.059492
  H     19.494904   15.781328   18.535996
  H     18.912650   13.899346   19.790426
  H     17.661807   12.823461   21.647006
  H     15.944431   14.128921   22.904705
  H     14.959432   16.070713   23.127812
  H     16.746715   17.573792   20.463024

 Total Charge           Charge          ....    0
 Multiplicity           Mult            ....    1
 Number of Electrons    NEL             ....  154
 Basis Dimension        Dim             ....  828

ORBITAL ENERGIES
----------------

  NO   OCC          E(Eh)            E(eV)
   0   2.0000     -91.887991     -2500.3993
   1   2.0000     -20.600661      -560.5725
   2   2.0000     -20.591716      -560.3291
   3   2.0000     -20.546951      -559.1110
   4   2.0000     -15.628294      -425.2675
   5   2.0000     -15.606658      -424.6788
   6   2.0000     -11.396452      -310.1132
   7   2.0000     -11.382924      -309.7451
   8   2.0000     -11.335916      -308.4660
   9   2.0000     -11.307531      -307.6936
  10   2.0000     -11.305647      -307.6423
  11   2.0000     -11.298782      -307.4555
  12   2.0000     -11.260407      -306.4112
  13   2.0000     -11.259062      -306.3747
  14   2.0000     -11.253457      -306.2221
  15   2.0000     -11.247671      -306.0647
  16   2.0000     -11.237308      -305.7827
  17   2.0000     -11.233424      -305.6770
  18   2.0000     -11.231102      -305.6138
  19   2.0000     -11.230429      -305.5955
  20   2.0000      -8.893057      -241.9924
  21   2.0000      -6.574635      -178.9049
  22   2.0000      -6.572627      -178.8503
  23   2.0000      -6.572042      -178.8344
  24   2.0000      -1.453270       -39.5455
  25   2.0000      -1.411449       -38.4075
  26   2.0000      -1.357488       -36.9391
  27   2.0000      -1.339234       -36.4424
  28   2.0000      -1.236877       -33.6571
  29   2.0000      -1.152111       -31.3505
  30   2.0000      -1.119497       -30.4631
  31   2.0000      -1.043834       -28.4042
  32   2.0000      -1.036327       -28.1999
  33   2.0000      -1.009494       -27.4697
  34   2.0000      -0.997483       -27.1429
  35   2.0000      -0.982974       -26.7481
  36   2.0000      -0.921080       -25.0639
  37   2.0000      -0.888466       -24.1764
  38   2.0000      -0.847277       -23.0556
  39   2.0000      -0.835229       -22.7277
  40   2.0000      -0.827871       -22.5275
  41   2.0000      -0.819093       -22.2886
  42   2.0000      -0.760378       -20.6909
  43   2.0000      -0.735833       -20.0230
  44   2.0000      -0.724958       -19.7271
  45   2.0000      -0.690394       -18.7866
  46   2.0000      -0.684779       -18.6338
  47   2.0000      -0.680020       -18.5043
  48   2.0000      -0.673126       -18.3167
  49   2.0000      -0.654202       -17.8017
  50   2.0000      -0.648689       -17.6517
  51   2.0000      -0.641929       -17.4678
  52   2.0000      -0.630407       -17.1542
  53   2.0000      -0.614722       -16.7274
  54   2.0000      -0.600588       -16.3428
  55   2.0000      -0.599879       -16.3235
  56   2.0000      -0.595024       -16.1914
  57   2.0000      -0.581096       -15.8124
  58   2.0000      -0.573235       -15.5985
  59   2.0000      -0.563036       -15.3210
  60   2.0000      -0.561551       -15.2806
  61   2.0000      -0.545471       -14.8430
  62   2.0000      -0.535865       -14.5816
  63   2.0000      -0.530407       -14.4331
  64   2.0000      -0.517222       -14.0743
  65   2.0000      -0.509557       -13.8658
  66   2.0000      -0.499805       -13.6004
  67   2.0000      -0.495270       -13.4770
  68   2.0000      -0.480892       -13.0857
  69   2.0000      -0.462608       -12.5882
  70   2.0000      -0.460384       -12.5277
  71   2.0000      -0.453118       -12.3300
  72   2.0000      -0.354063        -9.6345
  73   2.0000      -0.343980        -9.3602
  74   2.0000      -0.327130        -8.9017
  75   2.0000      -0.315566        -8.5870
  76   2.0000      -0.313844        -8.5401
  77   0.0000       0.075389         2.0514
  78   0.0000       0.112524         3.0619
  79   0.0000       0.120751         3.2858
  80   0.0000       0.135676         3.6919
  81   0.0000       0.139172         3.7871

MULLIKEN ATOMIC CHARGES
-----------------------
   0 C :   -0.265094
   1 C :    0.023113
   2 O :   -0.352813
   3 C :    0.455229
   4 O :   -0.424842
   5 C :   -0.183038
   6 C :    0.143413
   7 C :   -0.285456
   8 N :   -0.122735
   9 C :    0.201371
  10 S :   -0.439511
  11 N :   -0.197396
  12 C :    0.037228
  13 C :    0.055536
  14 C :   -0.161408
  15 C :   -0.133959
  16 C :   -0.279048
  17 C :    0.311254
  18 O :   -0.359134
  19 C :   -0.271902
  20 H :    0.089936
  21 H :    0.092535
  22 H :    0.099901
  23 H :    0.100145
  24 H :    0.120710
  25 H :    0.126473
  26 H :    0.103031
  27 H :    0.126712
  28 H :    0.196840
  29 H :    0.193710
  30 H :    0.153832
  31 H :    0.153567
  32 H :    0.159083
  33 H :    0.128021
  34 H :    0.240059
  35 H :    0.164637
Sum of atomic charges:   -0.0000000

LOEWDIN ATOMIC CHARGES
----------------------
   0 C :    0.104373
   1 C :   -0.011208
   2 O :    0.304917
   3 C :   -0.413946
   4 O :    0.106078
   5 C :   -0.091430
   6 C :   -0.066836
   7 C :    0.124895
   8 N :    0.404727
   9 C :   -0.458808
  10 S :   -0.036162
  11 N :    0.397759
  12 C :   -0.046324
  13 C :   -0.038913
  14 C :    0.021948
  15 C :    0.040831
  16 C :   -0.002360
  17 C :   -0.192679
  18 O :    0.392959
  19 C :    0.028418
  20 H :   -0.030104
  21 H :   -0.025775
  22 H :   -0.024850
  23 H :   -0.030634
  24 H :   -0.026849
  25 H :   -0.008560
  26 H :   -0.020824
  27 H :   -0.009909
  28 H :   -0.059125
  29 H :   -0.063718
  30 H :   -0.004971
  31 H :   -0.025298
  32 H :   -0.021244
  33 H :   -0.036417
  34 H :   -0.154901
  35 H :   -0.025062

  Mayer bond orders larger than 0.100000
B(  0-C ,  1-C ) :   0.9732 B(  0-C , 20-H ) :   0.9796 B(  0-C , 21-H ) :   0.9762
B(  0-C , 22-H ) :   0.9782 B(  1-C ,  2-O ) :   0.8834 B(  1-C , 23-H ) :   0.9793
B(  1-C , 24-H ) :   0.9728 B(  2-O ,  3-C ) :   1.1430 B(  3-C ,  4-O ) :   1.9927
B(  3-C ,  5-C ) :   1.0481 B(  5-C ,  6-C ) :   1.6518 B(  5-C , 12-C ) :   0.9645
B(  6-C ,  7-C ) :   0.9537 B(  6-C ,  8-N ) :   1.1455 B(  7-C , 25-H ) :   0.9668
B(  7-C , 26-H ) :   0.9911 B(  7-C , 27-H ) :   0.9637 B(  8-N ,  9-C ) :   1.1795
B(  8-N , 28-H ) :   0.9490 B(  9-C , 10-S ) :   1.6106 B(  9-C , 11-N ) :   1.3038
B( 11-N , 12-C ) :   0.9917 B( 11-N , 29-H ) :   0.9519 B( 12-C , 13-C ) :   0.9478
B( 12-C , 30-H ) :   0.9995 B( 13-C , 14-C ) :   1.3762 B( 13-C , 19-C ) :   1.3691
B( 14-C , 15-C ) :   1.3946 B( 14-C , 31-H ) :   0.9648 B( 15-C , 16-C ) :   1.3627
B( 15-C , 32-H ) :   0.9714 B( 16-C , 17-C ) :   1.3314 B( 16-C , 33-H ) :   0.9860
B( 17-C , 18-O ) :   1.1080 B( 17-C , 19-C ) :   1.3790 B( 18-O , 34-H ) :   0.9806
B( 19-C , 35-H ) :   0.9585

MP2 TOTAL ENERGY:    -1274.342934299 Eh
FINAL SINGLE POINT ENERGY     -1274.342934299087

DIPOLE MOMENT
-------------
                                X             Y             Z
Electronic contribution:     11.13907       9.19467      11.75012
Nuclear contribution   :    -12.77978     -10.40654     -12.57952
                        -----------------------------------------
Total Dipole Moment    :     -1.64071      -1.21186      -0.82940
                        -----------------------------------------
Magnitude (a.u.)       :      2.20192
Magnitude (Debye)      :      5.59683

Rotational constants in cm-1:     0.010469     0.008824     0.005788
Rotational constants in MHz :   313.850249   264.532172   173.515111

                             ****ORCA TERMINATED NORMALLY****
TOTAL RUN TIME: 0 days 1 hours 40 minutes 20 seconds 908 msec
