                         Program Version 5.0.0 -  RELEASE  -
|  1> ! ri-mp2 cc-pvtz cc-pvtz/c TightSCF NoKeepInts
|  2>
|  3> %scf
|  4>   MaxCore 4096
|  5> end
|  6> *xyz  0  1
|  7>     C       15.3465685   14.1090648   15.0166158
|  8>     C       15.7481052   14.0685863   16.5074905
|  9>     O       16.7331721   15.0758698   16.8207941
| 10>     C       16.4801372   16.4187041   16.7193927
| 11>     O       15.4979403   16.8708736   16.1576959
| 12>     C       17.4062517   17.2376471   17.5776194
| 13>     C       17.3504443   18.5935207   17.6208869
| 14>     C       16.4022227   19.4981297   16.8629086
| 15>     N       18.2645207   19.3087238   18.4005823
| 16>     C       19.3269137   18.7577658   19.0658877
| 17>     S       20.4259270   19.6866339   19.8815862
| 18>     N       19.4368795   17.3916465   19.0174570
| 19>     C       18.4371289   16.4800548   18.4317227
| 20>     C       17.7730606   15.6666546   19.5394775
| 21>     C       18.0012425   14.2813533   19.6416261
| 22>     C       17.3899983   13.5289900   20.6587645
| 23>     C       16.5458976   14.1670464   21.5836053
| 24>     C       16.3201963   15.5471002   21.4877461
| 25>     O       15.5070131   16.1662231   22.3801990
| 26>     C       16.9296111   16.2930656   20.4742450
| 27>     H       14.6896935   14.9582033   14.7944519
| 28>     H       14.8021042   13.1961326   14.7471979
| 29>     H       16.2344586   14.1772004   14.3761388
| 30>     H       14.8569041   14.2047942   17.1346940
| 31>     H       16.1706225   13.0816766   16.7352439
| 32>     H       15.3648698   19.3080579   17.1671262
| 33>     H       16.4662272   19.3086218   15.7839219
| 34>     H       16.6050083   20.5635171   17.0229087
| 35>     H       18.1997157   20.3130759   18.4463381
| 36>     H       20.2091129   17.0117187   19.5495098
| 37>     H       18.9758472   15.7888347   17.7684676
| 38>     H       18.6501480   13.7850612   18.9250654
| 39>     H       17.5715583   12.4579324   20.7286341
| 40>     H       16.0721024   13.5906736   22.3713744
| 41>     H       15.2078475   15.4978112   23.0145839
| 42>     H       16.7475483   17.3610341   20.4220398
| 43> *
| 44>
| 45>                          ****END OF INPUT****

CARTESIAN COORDINATES (ANGSTROEM)
---------------------------------
  C     15.346568   14.109065   15.016616
  C     15.748105   14.068586   16.507490
  O     16.733172   15.075870   16.820794
  C     16.480137   16.418704   16.719393
  O     15.497940   16.870874   16.157696
  C     17.406252   17.237647   17.577619
  C     17.350444   18.593521   17.620887
  C     16.402223   19.498130   16.862909
  N     18.264521   19.308724   18.400582
  C     19.326914   18.757766   19.065888
  S     20.425927   19.686634   19.881586
  N     19.436879   17.391646   19.017457
  C     18.437129   16.480055   18.431723
  C     17.773061   15.666655   19.539478
  C     18.001243   14.281353   19.641626
  C     17.389998   13.528990   20.658765
  C     16.545898   14.167046   21.583605
  C     16.320196   15.547100   21.487746
  O     15.507013   16.166223   22.380199
  C     16.929611   16.293066   20.474245
  H     14.689694   14.958203   14.794452
  H     14.802104   13.196133   14.747198
  H     16.234459   14.177200   14.376139
  H     14.856904   14.204794   17.134694
  H     16.170623   13.081677   16.735244
  H     15.364870   19.308058   17.167126
  H     16.466227   19.308622   15.783922
  H     16.605008   20.563517   17.022909
  H     18.199716   20.313076   18.446338
  H     20.209113   17.011719   19.549510
  H     18.975847   15.788835   17.768468
  H     18.650148   13.785061   18.925065
  H     17.571558   12.457932   20.728634
  H     16.072102   13.590674   22.371374
  H     15.207847   15.497811   23.014584
  H     16.747548   17.361034   20.422040

 Total Charge           Charge          ....    0
 Multiplicity           Mult            ....    1
 Number of Electrons    NEL             ....  154
 Basis Dimension        Dim             ....  828

ORBITAL ENERGIES
----------------

  NO   OCC          E(Eh)            E(eV)
   0   2.0000     -91.888310     -2500.4080
   1   2.0000     -20.599369      -560.5373
   2   2.0000     -20.595662      -560.4365
   3   2.0000     -20.542549      -558.9912
   4   2.0000     -15.628472      -425.2723
   5   2.0000     -15.607534      -424.7026
   6   2.0000     -11.396591      -310.1170
   7   2.0000     -11.383336      -309.7563
   8   2.0000     -11.335165      -308.4455
   9   2.0000     -11.312715      -307.8346
  10   2.0000     -11.308251      -307.7131
  11   2.0000     -11.300440      -307.5006
  12   2.0000     -11.258650      -306.3634
  13   2.0000     -11.258636      -306.3631
  14   2.0000     -11.254248      -306.2436
  15   2.0000     -11.251752      -306.1757
  16   2.0000     -11.241905      -305.9078
  17   2.0000     -11.237274      -305.7818
  18   2.0000     -11.237113      -305.7774
  19   2.0000     -11.220857      -305.3350
  20   2.0000      -8.893375      -242.0010
  21   2.0000      -6.574951      -178.9135
  22   2.0000      -6.572946      -178.8589
  23   2.0000      -6.572360      -178.8430
  24   2.0000      -1.448390       -39.4127
  25   2.0000      -1.415300       -38.5123
  26   2.0000      -1.355403       -36.8824
  27   2.0000      -1.339480       -36.4491
  28   2.0000      -1.237869       -33.6841
  29   2.0000      -1.156483       -31.4695
  30   2.0000      -1.119440       -30.4615
  31   2.0000      -1.041786       -28.3484
  32   2.0000      -1.035314       -28.1723
  33   2.0000      -1.013994       -27.5922
  34   2.0000      -0.994533       -27.0626
  35   2.0000      -0.983072       -26.7508
  36   2.0000      -0.921773       -25.0827
  37   2.0000      -0.894556       -24.3421
  38   2.0000      -0.846665       -23.0389
  39   2.0000      -0.837136       -22.7796
  40   2.0000      -0.833004       -22.6672
  41   2.0000      -0.818687       -22.2776
  42   2.0000      -0.752115       -20.4661
  43   2.0000      -0.730603       -19.8807
  44   2.0000      -0.721226       -19.6255
  45   2.0000      -0.694839       -18.9075
  46   2.0000      -0.687901       -18.7187
  47   2.0000      -0.680428       -18.5154
  48   2.0000      -0.669335       -18.2135
  49   2.0000      -0.652249       -17.7486
  50   2.0000      -0.650434       -17.6992
  51   2.0000      -0.644853       -17.5473
  52   2.0000      -0.632566       -17.2130
  53   2.0000      -0.607099       -16.5200
  54   2.0000      -0.605322       -16.4717
  55   2.0000      -0.598541       -16.2871
  56   2.0000      -0.597918       -16.2702
  57   2.0000      -0.580584       -15.7985
  58   2.0000      -0.573256       -15.5991
  59   2.0000      -0.570420       -15.5219
  60   2.0000      -0.562255       -15.2997
  61   2.0000      -0.538425       -14.6513
  62   2.0000      -0.536004       -14.5854
  63   2.0000      -0.524186       -14.2638
  64   2.0000      -0.520609       -14.1665
  65   2.0000      -0.512639       -13.9496
  66   2.0000      -0.501787       -13.6543
  67   2.0000      -0.498983       -13.5780
  68   2.0000      -0.484258       -13.1773
  69   2.0000      -0.463605       -12.6153
  70   2.0000      -0.455933       -12.4066
  71   2.0000      -0.442224       -12.0335
  72   2.0000      -0.353619        -9.6225
  73   2.0000      -0.348356        -9.4792
  74   2.0000      -0.327664        -8.9162
  75   2.0000      -0.320320        -8.7164
  76   2.0000      -0.315363        -8.5815
  77   0.0000       0.076333         2.0771
  78   0.0000       0.107988         2.9385
  79   0.0000       0.125245         3.4081
  80   0.0000       0.133083         3.6214
  81   0.0000       0.137718         3.7475

MULLIKEN ATOMIC CHARGES
-----------------------
   0 C :   -0.297092
   1 C :    0.048595
   2 O :   -0.359236
   3 C :    0.465570
   4 O :   -0.434552
   5 C :   -0.208162
   6 C :    0.147796
   7 C :   -0.274507
   8 N :   -0.120226
   9 C :    0.211764
  10 S :   -0.440741
  11 N :   -0.203714
  12 C :    0.051429
  13 C :    0.071993
  14 C :   -0.187226
  15 C :   -0.130346
  16 C :   -0.279222
  17 C :    0.315718
  18 O :   -0.356742
  19 C :   -0.270026
  20 H :    0.127420
  21 H :    0.094422
  22 H :    0.091398
  23 H :    0.091832
  24 H :    0.103253
  25 H :    0.132775
  26 H :    0.129096
  27 H :    0.095315
  28 H :    0.197148
  29 H :    0.194249
  30 H :    0.149320
  31 H :    0.148419
  32 H :    0.159696
  33 H :    0.129490
  34 H :    0.240567
  35 H :    0.164526
Sum of atomic charges:    0.0000000

LOEWDIN ATOMIC CHARGES
----------------------
   0 C :    0.104423
   1 C :   -0.012114
   2 O :    0.300680
   3 C :   -0.412230
   4 O :    0.103945
   5 C :   -0.093557
   6 C :   -0.059449
   7 C :    0.130902
   8 N :    0.406420
   9 C :   -0.456644
  10 S :   -0.036055
  11 N :    0.396394
  12 C :   -0.052605
  13 C :   -0.037817
  14 C :    0.013824
  15 C :    0.038680
  16 C :   -0.002200
  17 C :   -0.189463
  18 O :    0.395100
  19 C :    0.031317
  20 H :   -0.026547
  21 H :   -0.029128
  22 H :   -0.028927
  23 H :   -0.028096
  24 H :   -0.024838
  25 H :   -0.004676
  26 H :   -0.004508
  27 H :   -0.023448
  28 H :   -0.057700
  29 H :   -0.064732
  30 H :   -0.010901
  31 H :   -0.030583
  32 H :   -0.021632
  33 H :   -0.035833
  34 H :   -0.154080
  35 H :   -0.023925

  Mayer bond orders larger than 0.100000
B(  0-C ,  1-C ) :   0.9736 B(  0-C , 20-H ) :   0.9714 B(  0-C , 21-H ) :   0.9784
B(  0-C , 22-H ) :   0.9753 B(  1-C ,  2-O ) :   0.8976 B(  1-C , 23-H ) :   0.9751
B(  1-C , 24-H ) :   0.9835 B(  2-O ,  3-C ) :   1.1526 B(  3-C ,  4-O ) :   1.9585
B(  3-C ,  5-C ) :   1.0614 B(  5-C ,  6-C ) :   1.6568 B(  5-C , 12-C ) :   0.9739
B(  6-C ,  7-C ) :   0.9677 B(  6-C ,  8-N ) :   1.1633 B(  7-C , 25-H ) :   0.9598
B(  7-C , 26-H ) :   0.9609 B(  7-C , 27-H ) :   0.9909 B(  8-N ,  9-C ) :   1.1827
B(  8-N , 28-H ) :   0.9481 B(  9-C , 10-S ) :   1.6066 B(  9-C , 11-N ) :   1.3054
B( 11-N , 12-C ) :   0.9859 B( 11-N , 29-H ) :   0.9518 B( 12-C , 13-C ) :   0.9365
B( 12-C , 30-H ) :   1.0025 B( 13-C , 14-C ) :   1.3546 B( 13-C , 19-C ) :   1.3835
B( 14-C , 15-C ) :   1.3919 B( 14-C , 31-H ) :   0.9719 B( 15-C , 16-C ) :   1.3643
B( 15-C , 32-H ) :   0.9708 B( 16-C , 17-C ) :   1.3317 B( 16-C , 33-H ) :   0.9852
B( 17-C , 18-O ) :   1.1101 B( 17-C , 19-C ) :   1.3729 B( 18-O , 34-H ) :   0.9800
B( 19-C , 35-H ) :   0.9583

MP2 TOTAL ENERGY:    -1274.344447002 Eh
FINAL SINGLE POINT ENERGY     -1274.344447002129

DIPOLE MOMENT
-------------
                                X             Y             Z
Electronic contribution:     10.14996       9.59143       9.73684
Nuclear contribution   :    -11.24734     -11.27499     -10.06986
                        -----------------------------------------
Total Dipole Moment    :     -1.09737      -1.68356      -0.33302
                        -----------------------------------------
Magnitude (a.u.)       :      2.03703
Magnitude (Debye)      :      5.17771

Rotational constants in cm-1:     0.011137     0.008797     0.006033
Rotational constants in MHz :   333.875027   263.735229   180.864839

                             ****ORCA TERMINATED NORMALLY****
TOTAL RUN TIME: 0 days 1 hours 47 minutes 45 seconds 829 msec
