                         Program Version 4.2.0 -  RELEASE  -
|  1> ! ri-mp2 cc-pvtz cc-pvtz/c TightSCF  NoKeepInts
|  2>
|  3> %scf
|  4>   MaxCore 4096
|  5> end
|  6> *xyz  0  1
|  7>     C       15.0046667   14.7031960   16.6124185
|  8>     C       16.4292908   14.1299916   16.7809249
|  9>     O       17.4567990   14.9960276   16.2355231
| 10>     C       17.2844999   16.3468351   16.1070420
| 11>     O       16.7097940   16.7990279   15.1331303
| 12>     C       17.6916031   17.1626019   17.3062203
| 13>     C       17.3966861   18.4848483   17.4120952
| 14>     C       16.5645830   19.3229288   16.4650288
| 15>     N       17.9246592   19.2366737   18.4667059
| 16>     C       18.9203994   18.8051185   19.3024542
| 17>     S       19.6463159   19.8103395   20.3971618
| 18>     N       19.3004231   17.4941410   19.1666791
| 19>     C       18.5569008   16.4893074   18.3860690
| 20>     C       17.7633611   15.6201104   19.3549158
| 21>     C       18.3076434   14.4039443   19.8101827
| 22>     C       17.5911700   13.5889878   20.7026714
| 23>     C       16.3229740   13.9959978   21.1504617
| 24>     C       15.7845948   15.2134079   20.7125299
| 25>     O       14.5619135   15.6114286   21.1446897
| 26>     C       16.4991908   16.0225843   19.8241160
| 27>     H       14.8738803   15.6268466   17.1897576
| 28>     H       14.2613159   13.9801098   16.9690581
| 29>     H       14.7899839   14.9138357   15.5567545
| 30>     H       16.6054824   13.9389451   17.8429590
| 31>     H       16.4856125   13.1587886   16.2727518
| 32>     H       15.5838431   18.8599465   16.2972677
| 33>     H       17.0586046   19.4039068   15.4881412
| 34>     H       16.3883405   20.3400142   16.8341729
| 35>     H       17.6683772   20.2062523   18.5638332
| 36>     H       20.0236442   17.1979665   19.8091763
| 37>     H       19.2914559   15.8516852   17.8736466
| 38>     H       19.2889466   14.0867024   19.4667380
| 39>     H       18.0198827   12.6491116   21.0470770
| 40>     H       15.7663427   13.3703585   21.8407713
| 41>     H       14.2580895   14.9642023   21.7992345
| 42>     H       16.0657293   16.9658293   19.5116400
| 43> *
| 44>
| 45>                          ****END OF INPUT****

CARTESIAN COORDINATES (ANGSTROEM)
---------------------------------
  C     15.004667   14.703196   16.612419
  C     16.429291   14.129992   16.780925
  O     17.456799   14.996028   16.235523
  C     17.284500   16.346835   16.107042
  O     16.709794   16.799028   15.133130
  C     17.691603   17.162602   17.306220
  C     17.396686   18.484848   17.412095
  C     16.564583   19.322929   16.465029
  N     17.924659   19.236674   18.466706
  C     18.920399   18.805118   19.302454
  S     19.646316   19.810339   20.397162
  N     19.300423   17.494141   19.166679
  C     18.556901   16.489307   18.386069
  C     17.763361   15.620110   19.354916
  C     18.307643   14.403944   19.810183
  C     17.591170   13.588988   20.702671
  C     16.322974   13.995998   21.150462
  C     15.784595   15.213408   20.712530
  O     14.561913   15.611429   21.144690
  C     16.499191   16.022584   19.824116
  H     14.873880   15.626847   17.189758
  H     14.261316   13.980110   16.969058
  H     14.789984   14.913836   15.556754
  H     16.605482   13.938945   17.842959
  H     16.485612   13.158789   16.272752
  H     15.583843   18.859946   16.297268
  H     17.058605   19.403907   15.488141
  H     16.388341   20.340014   16.834173
  H     17.668377   20.206252   18.563833
  H     20.023644   17.197966   19.809176
  H     19.291456   15.851685   17.873647
  H     19.288947   14.086702   19.466738
  H     18.019883   12.649112   21.047077
  H     15.766343   13.370358   21.840771
  H     14.258090   14.964202   21.799234
  H     16.065729   16.965829   19.511640

 Total Charge           Charge          ....    0
 Multiplicity           Mult            ....    1
 Number of Electrons    NEL             ....  154
 Basis Dimension        Dim             ....  828

ORBITAL ENERGIES
----------------

  NO   OCC          E(Eh)            E(eV)
   0   2.0000     -91.891020     -2500.4818
   1   2.0000     -20.603980      -560.6628
   2   2.0000     -20.580085      -560.0126
   3   2.0000     -20.545199      -559.0633
   4   2.0000     -15.631680      -425.3596
   5   2.0000     -15.610037      -424.7707
   6   2.0000     -11.392646      -310.0097
   7   2.0000     -11.385545      -309.8164
   8   2.0000     -11.338065      -308.5244
   9   2.0000     -11.321711      -308.0794
  10   2.0000     -11.312646      -307.8327
  11   2.0000     -11.296652      -307.3975
  12   2.0000     -11.266356      -306.5731
  13   2.0000     -11.263189      -306.4870
  14   2.0000     -11.259247      -306.3797
  15   2.0000     -11.253725      -306.2294
  16   2.0000     -11.250280      -306.1357
  17   2.0000     -11.244941      -305.9904
  18   2.0000     -11.244694      -305.9837
  19   2.0000     -11.225030      -305.4486
  20   2.0000      -8.896038      -242.0735
  21   2.0000      -6.577602      -178.9857
  22   2.0000      -6.575609      -178.9314
  23   2.0000      -6.575014      -178.9152
  24   2.0000      -1.440776       -39.2055
  25   2.0000      -1.423572       -38.7374
  26   2.0000      -1.349131       -36.7117
  27   2.0000      -1.342872       -36.5414
  28   2.0000      -1.241360       -33.7791
  29   2.0000      -1.164201       -31.6795
  30   2.0000      -1.121850       -30.5271
  31   2.0000      -1.047571       -28.5058
  32   2.0000      -1.030023       -28.0284
  33   2.0000      -1.022678       -27.8285
  34   2.0000      -0.999633       -27.2014
  35   2.0000      -0.986642       -26.8479
  36   2.0000      -0.926454       -25.2101
  37   2.0000      -0.893101       -24.3025
  38   2.0000      -0.850314       -23.1382
  39   2.0000      -0.845271       -23.0010
  40   2.0000      -0.840009       -22.8578
  41   2.0000      -0.824044       -22.4234
  42   2.0000      -0.746895       -20.3241
  43   2.0000      -0.736495       -20.0411
  44   2.0000      -0.715606       -19.4726
  45   2.0000      -0.702467       -19.1151
  46   2.0000      -0.692408       -18.8414
  47   2.0000      -0.674184       -18.3455
  48   2.0000      -0.669771       -18.2254
  49   2.0000      -0.662375       -18.0241
  50   2.0000      -0.654399       -17.8071
  51   2.0000      -0.648196       -17.6383
  52   2.0000      -0.638880       -17.3848
  53   2.0000      -0.622722       -16.9451
  54   2.0000      -0.614712       -16.7272
  55   2.0000      -0.605395       -16.4736
  56   2.0000      -0.602199       -16.3867
  57   2.0000      -0.583763       -15.8850
  58   2.0000      -0.572926       -15.5901
  59   2.0000      -0.567577       -15.4446
  60   2.0000      -0.546244       -14.8641
  61   2.0000      -0.540518       -14.7082
  62   2.0000      -0.537062       -14.6142
  63   2.0000      -0.532471       -14.4893
  64   2.0000      -0.526223       -14.3192
  65   2.0000      -0.516455       -14.0535
  66   2.0000      -0.507174       -13.8009
  67   2.0000      -0.494553       -13.4575
  68   2.0000      -0.483430       -13.1548
  69   2.0000      -0.464094       -12.6286
  70   2.0000      -0.452799       -12.3213
  71   2.0000      -0.440971       -11.9994
  72   2.0000      -0.358905        -9.7663
  73   2.0000      -0.356595        -9.7034
  74   2.0000      -0.332309        -9.0426
  75   2.0000      -0.327673        -8.9164
  76   2.0000      -0.318062        -8.6549
  77   0.0000       0.069991         1.9046
  78   0.0000       0.100981         2.7478
  79   0.0000       0.120376         3.2756
  80   0.0000       0.125825         3.4239
  81   0.0000       0.130213         3.5433

MULLIKEN ATOMIC CHARGES
-----------------------
   0 C :   -0.310062
   1 C :    0.029661
   2 O :   -0.392208
   3 C :    0.500499
   4 O :   -0.403552
   5 C :   -0.280218
   6 C :    0.156425
   7 C :   -0.270568
   8 N :   -0.123594
   9 C :    0.217754
  10 S :   -0.438370
  11 N :   -0.205920
  12 C :    0.057082
  13 C :    0.054115
  14 C :   -0.202260
  15 C :   -0.128505
  16 C :   -0.276155
  17 C :    0.313923
  18 O :   -0.357151
  19 C :   -0.258361
  20 H :    0.093255
  21 H :    0.107054
  22 H :    0.125244
  23 H :    0.105768
  24 H :    0.117433
  25 H :    0.127609
  26 H :    0.137891
  27 H :    0.094781
  28 H :    0.198510
  29 H :    0.192134
  30 H :    0.152790
  31 H :    0.150182
  32 H :    0.163176
  33 H :    0.133693
  34 H :    0.242876
  35 H :    0.175070
Sum of atomic charges:   -0.0000000

LOEWDIN ATOMIC CHARGES
----------------------
   0 C :    0.105210
   1 C :   -0.011079
   2 O :    0.277836
   3 C :   -0.421739
   4 O :    0.120499
   5 C :   -0.099416
   6 C :   -0.057709
   7 C :    0.130845
   8 N :    0.408035
   9 C :   -0.454592
  10 S :   -0.032902
  11 N :    0.396136
  12 C :   -0.052850
  13 C :   -0.037124
  14 C :    0.010288
  15 C :    0.043193
  16 C :   -0.000925
  17 C :   -0.189317
  18 O :    0.396777
  19 C :    0.031120
  20 H :   -0.031896
  21 H :   -0.023792
  22 H :   -0.022763
  23 H :   -0.036216
  24 H :   -0.024561
  25 H :   -0.006246
  26 H :   -0.002277
  27 H :   -0.023218
  28 H :   -0.057216
  29 H :   -0.066440
  30 H :   -0.006040
  31 H :   -0.029769
  32 H :   -0.019034
  33 H :   -0.033981
  34 H :   -0.151890
  35 H :   -0.026945

  Mayer bond orders larger than 0.100000
B(  0-C ,  1-C ) :   0.9705 B(  0-C , 20-H ) :   0.9727 B(  0-C , 21-H ) :   0.9748
B(  0-C , 22-H ) :   0.9715 B(  1-C ,  2-O ) :   0.8957 B(  1-C , 23-H ) :   0.9682
B(  1-C , 24-H ) :   0.9829 B(  2-O ,  3-C ) :   1.0948 B(  3-C ,  4-O ) :   2.0234
B(  3-C ,  5-C ) :   1.0544 B(  5-C ,  6-C ) :   1.6456 B(  5-C , 12-C ) :   0.9710
B(  6-C ,  7-C ) :   0.9714 B(  6-C ,  8-N ) :   1.1593 B(  7-C , 25-H ) :   0.9640
B(  7-C , 26-H ) :   0.9559 B(  7-C , 27-H ) :   0.9883 B(  8-N ,  9-C ) :   1.1816
B(  8-N , 28-H ) :   0.9480 B(  9-C , 10-S ) :   1.6075 B(  9-C , 11-N ) :   1.3041
B( 11-N , 12-C ) :   0.9561 B( 11-N , 29-H ) :   0.9537 B( 12-C , 13-C ) :   0.9557
B( 12-C , 30-H ) :   0.9991 B( 13-C , 14-C ) :   1.3447 B( 13-C , 19-C ) :   1.3642
B( 14-C , 15-C ) :   1.3989 B( 14-C , 31-H ) :   0.9743 B( 15-C , 16-C ) :   1.3627
B( 15-C , 32-H ) :   0.9698 B( 16-C , 17-C ) :   1.3308 B( 16-C , 33-H ) :   0.9838
B( 17-C , 18-O ) :   1.1148 B( 17-C , 19-C ) :   1.3687 B( 18-O , 34-H ) :   0.9787
B( 19-C , 35-H ) :   0.9536

MP2 TOTAL ENERGY:    -1274.330915105 Eh
FINAL SINGLE POINT ENERGY     -1274.330915104624

DIPOLE MOMENT
-------------
                                X             Y             Z
Electronic contribution:     10.06754       8.32142       5.45237
Nuclear contribution   :    -11.15602      -9.90564      -5.01899
                        -----------------------------------------
Total Dipole Moment    :     -1.08848      -1.58422       0.43338
                        -----------------------------------------
Magnitude (a.u.)       :      1.97037
Magnitude (Debye)      :      5.00828

Rotational constants in cm-1:     0.011962     0.009422     0.006673
Rotational constants in MHz :   358.599668   282.464089   200.051858

                             ****ORCA TERMINATED NORMALLY****
TOTAL RUN TIME: 0 days 1 hours 48 minutes 20 seconds 665 msec
