                         Program Version 5.0.0 -  RELEASE  -
|  1> ! ri-mp2 cc-pvtz cc-pvtz/c TightSCF NoKeepInts
|  2>
|  3> %scf
|  4>   MaxCore 4096
|  5> end
|  6> *xyz  0  1
|  7>     C       14.6616107   16.1154445   16.9876778
|  8>     C       15.6649012   14.9479623   16.9386524
|  9>     O       16.7493849   15.1807731   16.0114110
| 10>     C       17.9515088   15.7343435   16.3760862
| 11>     O       18.9643847   15.0702072   16.2545160
| 12>     C       17.8971853   16.8570763   17.3585822
| 13>     C       17.3222705   18.0442913   17.0564270
| 14>     C       16.6722062   18.4400791   15.7473456
| 15>     N       17.3911100   19.1026310   17.9648658
| 16>     C       18.1231647   19.0886458   19.1234926
| 17>     S       18.2122343   20.4118476   20.1110252
| 18>     N       18.7808971   17.9208619   19.4232096
| 19>     C       18.6670475   16.6584731   18.6654892
| 20>     C       18.0284972   15.5608791   19.5098330
| 21>     C       18.5413575   14.2515218   19.4673873
| 22>     C       17.9439408   13.2236186   20.2155230
| 23>     C       16.8211805   13.5054549   21.0120781
| 24>     C       16.3032315   14.8068215   21.0531915
| 25>     O       15.2101370   15.0792870   21.8088349
| 26>     C       16.8987185   15.8280825   20.3061016
| 27>     H       15.0145098   16.9242236   17.6351474
| 28>     H       13.7084894   15.7672279   17.4044038
| 29>     H       14.4636325   16.5072723   15.9827537
| 30>     H       16.0385108   14.7074956   17.9408252
| 31>     H       15.1191542   14.0630990   16.5862734
| 32>     H       16.5947462   17.6038724   15.0427959
| 33>     H       17.2569895   19.2233980   15.2486029
| 34>     H       15.6588365   18.8274183   15.9087518
| 35>     H       16.9353737   19.9759320   17.7510248
| 36>     H       19.3001075   17.9348649   20.2920421
| 37>     H       19.6858087   16.3350103   18.4049147
| 38>     H       19.3996277   14.0269252   18.8370503
| 39>     H       18.3494875   12.2140496   20.1711929
| 40>     H       16.3558432   12.7134483   21.5897596
| 41>     H       14.9853205   14.2731157   22.2978649
| 42>     H       16.4755933   16.8263449   20.3488666
| 43> *
| 44>
| 45>                          ****END OF INPUT****

CARTESIAN COORDINATES (ANGSTROEM)
---------------------------------
  C     14.661611   16.115444   16.987678
  C     15.664901   14.947962   16.938652
  O     16.749385   15.180773   16.011411
  C     17.951509   15.734343   16.376086
  O     18.964385   15.070207   16.254516
  C     17.897185   16.857076   17.358582
  C     17.322270   18.044291   17.056427
  C     16.672206   18.440079   15.747346
  N     17.391110   19.102631   17.964866
  C     18.123165   19.088646   19.123493
  S     18.212234   20.411848   20.111025
  N     18.780897   17.920862   19.423210
  C     18.667047   16.658473   18.665489
  C     18.028497   15.560879   19.509833
  C     18.541358   14.251522   19.467387
  C     17.943941   13.223619   20.215523
  C     16.821181   13.505455   21.012078
  C     16.303231   14.806821   21.053191
  O     15.210137   15.079287   21.808835
  C     16.898719   15.828083   20.306102
  H     15.014510   16.924224   17.635147
  H     13.708489   15.767228   17.404404
  H     14.463632   16.507272   15.982754
  H     16.038511   14.707496   17.940825
  H     15.119154   14.063099   16.586273
  H     16.594746   17.603872   15.042796
  H     17.256989   19.223398   15.248603
  H     15.658836   18.827418   15.908752
  H     16.935374   19.975932   17.751025
  H     19.300107   17.934865   20.292042
  H     19.685809   16.335010   18.404915
  H     19.399628   14.026925   18.837050
  H     18.349487   12.214050   20.171193
  H     16.355843   12.713448   21.589760
  H     14.985321   14.273116   22.297865
  H     16.475593   16.826345   20.348867

 Total Charge           Charge          ....    0
 Multiplicity           Mult            ....    1
 Number of Electrons    NEL             ....  154
 Basis Dimension        Dim             ....  828

ORBITAL ENERGIES
----------------

  NO   OCC          E(Eh)            E(eV)
   0   2.0000     -91.890838     -2500.4768
   1   2.0000     -20.601500      -560.5953
   2   2.0000     -20.586897      -560.1980
   3   2.0000     -20.554025      -559.3034
   4   2.0000     -15.628168      -425.2641
   5   2.0000     -15.611970      -424.8233
   6   2.0000     -11.396310      -310.1094
   7   2.0000     -11.387355      -309.8657
   8   2.0000     -11.331091      -308.3347
   9   2.0000     -11.318980      -308.0051
  10   2.0000     -11.314796      -307.8912
  11   2.0000     -11.301774      -307.5369
  12   2.0000     -11.264952      -306.5349
  13   2.0000     -11.264940      -306.5346
  14   2.0000     -11.263314      -306.4904
  15   2.0000     -11.259219      -306.3789
  16   2.0000     -11.248388      -306.0842
  17   2.0000     -11.243734      -305.9576
  18   2.0000     -11.240994      -305.8830
  19   2.0000     -11.233021      -305.6661
  20   2.0000      -8.895931      -242.0706
  21   2.0000      -6.577515      -178.9833
  22   2.0000      -6.575495      -178.9283
  23   2.0000      -6.574914      -178.9125
  24   2.0000      -1.445180       -39.3253
  25   2.0000      -1.421327       -38.6763
  26   2.0000      -1.355346       -36.8808
  27   2.0000      -1.341322       -36.4992
  28   2.0000      -1.240786       -33.7635
  29   2.0000      -1.163044       -31.6480
  30   2.0000      -1.125710       -30.6321
  31   2.0000      -1.049630       -28.5619
  32   2.0000      -1.036673       -28.2093
  33   2.0000      -1.020562       -27.7709
  34   2.0000      -1.004772       -27.3412
  35   2.0000      -0.990398       -26.9501
  36   2.0000      -0.928402       -25.2631
  37   2.0000      -0.890184       -24.2232
  38   2.0000      -0.852704       -23.2032
  39   2.0000      -0.842761       -22.9327
  40   2.0000      -0.838756       -22.8237
  41   2.0000      -0.832619       -22.6567
  42   2.0000      -0.754172       -20.5221
  43   2.0000      -0.735651       -20.0181
  44   2.0000      -0.731389       -19.9021
  45   2.0000      -0.699377       -19.0310
  46   2.0000      -0.689556       -18.7638
  47   2.0000      -0.679237       -18.4830
  48   2.0000      -0.675684       -18.3863
  49   2.0000      -0.663063       -18.0429
  50   2.0000      -0.654739       -17.8164
  51   2.0000      -0.642181       -17.4746
  52   2.0000      -0.637903       -17.3582
  53   2.0000      -0.614052       -16.7092
  54   2.0000      -0.608803       -16.5664
  55   2.0000      -0.607360       -16.5271
  56   2.0000      -0.604406       -16.4467
  57   2.0000      -0.587016       -15.9735
  58   2.0000      -0.582421       -15.8485
  59   2.0000      -0.577895       -15.7253
  60   2.0000      -0.566179       -15.4065
  61   2.0000      -0.556460       -15.1421
  62   2.0000      -0.540457       -14.7066
  63   2.0000      -0.530029       -14.4228
  64   2.0000      -0.522793       -14.2259
  65   2.0000      -0.514865       -14.0102
  66   2.0000      -0.503628       -13.7044
  67   2.0000      -0.492252       -13.3948
  68   2.0000      -0.490107       -13.3365
  69   2.0000      -0.465851       -12.6764
  70   2.0000      -0.456415       -12.4197
  71   2.0000      -0.449065       -12.2197
  72   2.0000      -0.357617        -9.7312
  73   2.0000      -0.353578        -9.6213
  74   2.0000      -0.330462        -8.9923
  75   2.0000      -0.327015        -8.8985
  76   2.0000      -0.319619        -8.6973
  77   0.0000       0.082064         2.2331
  78   0.0000       0.100914         2.7460
  79   0.0000       0.117398         3.1946
  80   0.0000       0.126261         3.4357
  81   0.0000       0.129026         3.5110

MULLIKEN ATOMIC CHARGES
-----------------------
   0 C :   -0.319943
   1 C :    0.029894
   2 O :   -0.349602
   3 C :    0.410969
   4 O :   -0.371787
   5 C :   -0.169302
   6 C :    0.103578
   7 C :   -0.328828
   8 N :   -0.128908
   9 C :    0.198435
  10 S :   -0.439031
  11 N :   -0.214153
  12 C :    0.073986
  13 C :    0.004152
  14 C :   -0.191483
  15 C :   -0.135029
  16 C :   -0.274591
  17 C :    0.311108
  18 O :   -0.356854
  19 C :   -0.259244
  20 H :    0.097471
  21 H :    0.122396
  22 H :    0.106311
  23 H :    0.107747
  24 H :    0.125907
  25 H :    0.128883
  26 H :    0.148905
  27 H :    0.119004
  28 H :    0.197538
  29 H :    0.198419
  30 H :    0.165347
  31 H :    0.171427
  32 H :    0.164727
  33 H :    0.133868
  34 H :    0.241800
  35 H :    0.176879
Sum of atomic charges:   -0.0000000

LOEWDIN ATOMIC CHARGES
----------------------
   0 C :    0.103610
   1 C :   -0.012932
   2 O :    0.282738
   3 C :   -0.416518
   4 O :    0.132981
   5 C :   -0.085445
   6 C :   -0.094495
   7 C :    0.125553
   8 N :    0.403494
   9 C :   -0.456863
  10 S :   -0.036175
  11 N :    0.397424
  12 C :   -0.044308
  13 C :   -0.045860
  14 C :    0.019754
  15 C :    0.044751
  16 C :   -0.000564
  17 C :   -0.194506
  18 O :    0.395892
  19 C :    0.027022
  20 H :   -0.035302
  21 H :   -0.021566
  22 H :   -0.027844
  23 H :   -0.030067
  24 H :   -0.020203
  25 H :   -0.010464
  26 H :   -0.009763
  27 H :   -0.016520
  28 H :   -0.056712
  29 H :   -0.063731
  30 H :   -0.002773
  31 H :   -0.021642
  32 H :   -0.018038
  33 H :   -0.034142
  34 H :   -0.152705
  35 H :   -0.024084

  Mayer bond orders larger than 0.100000
B(  0-C ,  1-C ) :   0.9580 B(  0-C , 20-H ) :   0.9757 B(  0-C , 21-H ) :   0.9785
B(  0-C , 22-H ) :   0.9739 B(  1-C ,  2-O ) :   0.8952 B(  1-C , 23-H ) :   0.9675
B(  1-C , 24-H ) :   0.9864 B(  2-O ,  3-C ) :   1.1471 B(  3-C ,  4-O ) :   2.0982
B(  3-C ,  5-C ) :   0.9238 B(  5-C ,  6-C ) :   1.6943 B(  5-C , 12-C ) :   0.9511
B(  6-C ,  7-C ) :   0.9518 B(  6-C ,  8-N ) :   1.1055 B(  7-C , 25-H ) :   0.9771
B(  7-C , 26-H ) :   0.9665 B(  7-C , 27-H ) :   0.9666 B(  8-N ,  9-C ) :   1.1932
B(  8-N , 28-H ) :   0.9510 B(  9-C , 10-S ) :   1.6142 B(  9-C , 11-N ) :   1.2880
B( 11-N , 12-C ) :   0.9941 B( 11-N , 29-H ) :   0.9493 B( 12-C , 13-C ) :   0.9445
B( 12-C , 30-H ) :   0.9978 B( 13-C , 14-C ) :   1.3933 B( 13-C , 19-C ) :   1.3459
B( 14-C , 15-C ) :   1.3951 B( 14-C , 31-H ) :   0.9595 B( 15-C , 16-C ) :   1.3630
B( 15-C , 32-H ) :   0.9700 B( 16-C , 17-C ) :   1.3285 B( 16-C , 33-H ) :   0.9840
B( 17-C , 18-O ) :   1.1133 B( 17-C , 19-C ) :   1.3693 B( 18-O , 34-H ) :   0.9789
B( 19-C , 35-H ) :   0.9570

MP2 TOTAL ENERGY:    -1274.325029922 Eh
FINAL SINGLE POINT ENERGY     -1274.325029921504

DIPOLE MOMENT
-------------
                                X             Y             Z
Electronic contribution:     10.20831       5.36460       6.12788
Nuclear contribution   :    -11.58692      -6.55289      -6.37385
                        -----------------------------------------
Total Dipole Moment    :     -1.37861      -1.18829      -0.24597
                        -----------------------------------------
Magnitude (a.u.)       :      1.83660
Magnitude (Debye)      :      4.66826

Rotational constants in cm-1:     0.012043     0.009395     0.007030
Rotational constants in MHz :   361.039215   281.655894   210.750995

                             ****ORCA TERMINATED NORMALLY****
TOTAL RUN TIME: 0 days 2 hours 22 minutes 23 seconds 250 msec
