                         Program Version 4.2.0 -  RELEASE  -
|  1> ! ri-mp2 cc-pvtz cc-pvtz/c TightSCF  NoKeepInts
|  2>
|  3> %scf
|  4>   MaxCore 4096
|  5> end
|  6> *xyz  0  1
|  7>     C       15.2724588   13.9265645   15.3124342
|  8>     C       15.7699486   14.2149128   16.7433702
|  9>     O       16.8618524   15.1525718   16.6990239
| 10>     C       16.6132442   16.4945221   16.6044846
| 11>     O       15.6208369   16.9361036   16.0515070
| 12>     C       17.4840602   17.3027025   17.5279643
| 13>     C       17.4009732   18.6554476   17.6061985
| 14>     C       16.4749385   19.5641745   16.8261027
| 15>     N       18.2609144   19.3635063   18.4510857
| 16>     C       19.2957361   18.8113899   19.1575779
| 17>     S       20.3312741   19.7344790   20.0583864
| 18>     N       19.4340535   17.4493898   19.0763817
| 19>     C       18.4878314   16.5378634   18.4077873
| 20>     C       17.7896952   15.6693510   19.4509681
| 21>     C       18.0777581   14.2944054   19.5410276
| 22>     C       17.4314490   13.4892930   20.4940073
| 23>     C       16.4919488   14.0639686   21.3669243
| 24>     C       16.2072480   15.4339214   21.2842128
| 25>     O       15.3018457   15.9919560   22.1266338
| 26>     C       16.8511941   16.2323165   20.3339939
| 27>     H       14.8138096   14.8147469   14.8613304
| 28>     H       14.5187343   13.1301932   15.3240444
| 29>     H       16.1023029   13.6032053   14.6721646
| 30>     H       14.9514438   14.6005110   17.3665919
| 31>     H       16.1229681   13.2769111   17.1906434
| 32>     H       15.4284117   19.3627675   17.0887711
| 33>     H       16.5801040   19.3906328   15.7476366
| 34>     H       16.6644873   20.6285248   17.0078957
| 35>     H       18.1749673   20.3648513   18.5218261
| 36>     H       20.1839624   17.0677559   19.6383528
| 37>     H       19.0751346   15.8833523   17.7484003
| 38>     H       18.8008456   13.8470043   18.8642063
| 39>     H       17.6603940   12.4267195   20.5552958
| 40>     H       15.9911472   13.4468367   22.1056841
| 41>     H       14.9976215   15.2976393   22.7301529
| 42>     H       16.6214047   17.2915083   20.2909317
| 43> *
| 44>
| 45>                          ****END OF INPUT****

CARTESIAN COORDINATES (ANGSTROEM)
---------------------------------
  C     15.272459   13.926564   15.312434
  C     15.769949   14.214913   16.743370
  O     16.861852   15.152572   16.699024
  C     16.613244   16.494522   16.604485
  O     15.620837   16.936104   16.051507
  C     17.484060   17.302702   17.527964
  C     17.400973   18.655448   17.606199
  C     16.474939   19.564175   16.826103
  N     18.260914   19.363506   18.451086
  C     19.295736   18.811390   19.157578
  S     20.331274   19.734479   20.058386
  N     19.434053   17.449390   19.076382
  C     18.487831   16.537863   18.407787
  C     17.789695   15.669351   19.450968
  C     18.077758   14.294405   19.541028
  C     17.431449   13.489293   20.494007
  C     16.491949   14.063969   21.366924
  C     16.207248   15.433921   21.284213
  O     15.301846   15.991956   22.126634
  C     16.851194   16.232316   20.333994
  H     14.813810   14.814747   14.861330
  H     14.518734   13.130193   15.324044
  H     16.102303   13.603205   14.672165
  H     14.951444   14.600511   17.366592
  H     16.122968   13.276911   17.190643
  H     15.428412   19.362768   17.088771
  H     16.580104   19.390633   15.747637
  H     16.664487   20.628525   17.007896
  H     18.174967   20.364851   18.521826
  H     20.183962   17.067756   19.638353
  H     19.075135   15.883352   17.748400
  H     18.800846   13.847004   18.864206
  H     17.660394   12.426720   20.555296
  H     15.991147   13.446837   22.105684
  H     14.997621   15.297639   22.730153
  H     16.621405   17.291508   20.290932

 Total Charge           Charge          ....    0
 Multiplicity           Mult            ....    1
 Number of Electrons    NEL             ....  154
 Basis Dimension        Dim             ....  828

ORBITAL ENERGIES
----------------

  NO   OCC          E(Eh)            E(eV)
   0   2.0000     -91.889068     -2500.4287
   1   2.0000     -20.597609      -560.4894
   2   2.0000     -20.594732      -560.4112
   3   2.0000     -20.544697      -559.0496
   4   2.0000     -15.629289      -425.2946
   5   2.0000     -15.608433      -424.7271
   6   2.0000     -11.395809      -310.0957
   7   2.0000     -11.384163      -309.7788
   8   2.0000     -11.335843      -308.4640
   9   2.0000     -11.314939      -307.8951
  10   2.0000     -11.309484      -307.7467
  11   2.0000     -11.297584      -307.4229
  12   2.0000     -11.260689      -306.4189
  13   2.0000     -11.259027      -306.3737
  14   2.0000     -11.256418      -306.3027
  15   2.0000     -11.252569      -306.1980
  16   2.0000     -11.243977      -305.9642
  17   2.0000     -11.239263      -305.8359
  18   2.0000     -11.239027      -305.8295
  19   2.0000     -11.218662      -305.2753
  20   2.0000      -8.894130      -242.0216
  21   2.0000      -6.575704      -178.9340
  22   2.0000      -6.573700      -178.8795
  23   2.0000      -6.573112      -178.8635
  24   2.0000      -1.449726       -39.4490
  25   2.0000      -1.417255       -38.5655
  26   2.0000      -1.355120       -36.8747
  27   2.0000      -1.340290       -36.4711
  28   2.0000      -1.238798       -33.7094
  29   2.0000      -1.158407       -31.5218
  30   2.0000      -1.120385       -30.4872
  31   2.0000      -1.043196       -28.3868
  32   2.0000      -1.033826       -28.1318
  33   2.0000      -1.016132       -27.6504
  34   2.0000      -0.995257       -27.0823
  35   2.0000      -0.983864       -26.7723
  36   2.0000      -0.922994       -25.1160
  37   2.0000      -0.889509       -24.2048
  38   2.0000      -0.847598       -23.0643
  39   2.0000      -0.838767       -22.8240
  40   2.0000      -0.834955       -22.7203
  41   2.0000      -0.821023       -22.3412
  42   2.0000      -0.755505       -20.5583
  43   2.0000      -0.732449       -19.9310
  44   2.0000      -0.722375       -19.6568
  45   2.0000      -0.696569       -18.9546
  46   2.0000      -0.688913       -18.7463
  47   2.0000      -0.680491       -18.5171
  48   2.0000      -0.670445       -18.2437
  49   2.0000      -0.654169       -17.8009
  50   2.0000      -0.647714       -17.6252
  51   2.0000      -0.645959       -17.5774
  52   2.0000      -0.632405       -17.2086
  53   2.0000      -0.608127       -16.5480
  54   2.0000      -0.604674       -16.4540
  55   2.0000      -0.599433       -16.3114
  56   2.0000      -0.599265       -16.3068
  57   2.0000      -0.581222       -15.8159
  58   2.0000      -0.574083       -15.6216
  59   2.0000      -0.570870       -15.5342
  60   2.0000      -0.563901       -15.3445
  61   2.0000      -0.539014       -14.6673
  62   2.0000      -0.535524       -14.5724
  63   2.0000      -0.525748       -14.3063
  64   2.0000      -0.517631       -14.0855
  65   2.0000      -0.513351       -13.9690
  66   2.0000      -0.501406       -13.6440
  67   2.0000      -0.498555       -13.5664
  68   2.0000      -0.486666       -13.2429
  69   2.0000      -0.463991       -12.6258
  70   2.0000      -0.455514       -12.3952
  71   2.0000      -0.443935       -12.0801
  72   2.0000      -0.354243        -9.6394
  73   2.0000      -0.350318        -9.5326
  74   2.0000      -0.328535        -8.9399
  75   2.0000      -0.322446        -8.7742
  76   2.0000      -0.316325        -8.6076
  77   0.0000       0.074003         2.0137
  78   0.0000       0.105048         2.8585
  79   0.0000       0.124785         3.3956
  80   0.0000       0.131923         3.5898
  81   0.0000       0.137668         3.7461

MULLIKEN ATOMIC CHARGES
-----------------------
   0 C :   -0.284383
   1 C :    0.044360
   2 O :   -0.367463
   3 C :    0.455173
   4 O :   -0.426677
   5 C :   -0.214469
   6 C :    0.153900
   7 C :   -0.272638
   8 N :   -0.121724
   9 C :    0.212634
  10 S :   -0.440050
  11 N :   -0.205814
  12 C :    0.063312
  13 C :    0.060970
  14 C :   -0.193588
  15 C :   -0.127299
  16 C :   -0.281073
  17 C :    0.315875
  18 O :   -0.356142
  19 C :   -0.267713
  20 H :    0.121814
  21 H :    0.091043
  22 H :    0.090185
  23 H :    0.094405
  24 H :    0.105471
  25 H :    0.132710
  26 H :    0.129291
  27 H :    0.095597
  28 H :    0.197369
  29 H :    0.194785
  30 H :    0.149816
  31 H :    0.150690
  32 H :    0.162154
  33 H :    0.130854
  34 H :    0.240938
  35 H :    0.165687
Sum of atomic charges:   -0.0000000

LOEWDIN ATOMIC CHARGES
----------------------
   0 C :    0.104879
   1 C :   -0.015371
   2 O :    0.299955
   3 C :   -0.413543
   4 O :    0.106832
   5 C :   -0.095218
   6 C :   -0.059283
   7 C :    0.131202
   8 N :    0.406584
   9 C :   -0.456286
  10 S :   -0.035419
  11 N :    0.396242
  12 C :   -0.052259
  13 C :   -0.037692
  14 C :    0.014591
  15 C :    0.038842
  16 C :   -0.002402
  17 C :   -0.189619
  18 O :    0.395523
  19 C :    0.030940
  20 H :   -0.026052
  21 H :   -0.029691
  22 H :   -0.029636
  23 H :   -0.028366
  24 H :   -0.025858
  25 H :   -0.004692
  26 H :   -0.004293
  27 H :   -0.023238
  28 H :   -0.057551
  29 H :   -0.064709
  30 H :   -0.010227
  31 H :   -0.030019
  32 H :   -0.021234
  33 H :   -0.035502
  34 H :   -0.153697
  35 H :   -0.023733

  Mayer bond orders larger than 0.100000
B(  0-C ,  1-C ) :   0.9787 B(  0-C , 20-H ) :   0.9732 B(  0-C , 21-H ) :   0.9782
B(  0-C , 22-H ) :   0.9760 B(  1-C ,  2-O ) :   0.8859 B(  1-C , 23-H ) :   0.9717
B(  1-C , 24-H ) :   0.9804 B(  2-O ,  3-C ) :   1.1308 B(  3-C ,  4-O ) :   1.9698
B(  3-C ,  5-C ) :   1.0638 B(  5-C ,  6-C ) :   1.6526 B(  5-C , 12-C ) :   0.9725
B(  6-C ,  7-C ) :   0.9670 B(  6-C ,  8-N ) :   1.1614 B(  7-C , 25-H ) :   0.9593
B(  7-C , 26-H ) :   0.9614 B(  7-C , 27-H ) :   0.9908 B(  8-N ,  9-C ) :   1.1829
B(  8-N , 28-H ) :   0.9478 B(  9-C , 10-S ) :   1.6068 B(  9-C , 11-N ) :   1.3060
B( 11-N , 12-C ) :   0.9820 B( 11-N , 29-H ) :   0.9516 B( 12-C , 13-C ) :   0.9353
B( 12-C , 30-H ) :   1.0022 B( 13-C , 14-C ) :   1.3531 B( 13-C , 19-C ) :   1.3830
B( 14-C , 15-C ) :   1.3888 B( 14-C , 31-H ) :   0.9727 B( 15-C , 16-C ) :   1.3639
B( 15-C , 32-H ) :   0.9703 B( 16-C , 17-C ) :   1.3309 B( 16-C , 33-H ) :   0.9847
B( 17-C , 18-O ) :   1.1110 B( 17-C , 19-C ) :   1.3714 B( 18-O , 34-H ) :   0.9796
B( 19-C , 35-H ) :   0.9582

MP2 TOTAL ENERGY:    -1274.341742994 Eh
FINAL SINGLE POINT ENERGY     -1274.341742993635

DIPOLE MOMENT
-------------
                                X             Y             Z
Electronic contribution:     10.31549       9.97441       8.87324
Nuclear contribution   :    -11.35980     -11.58797      -9.08394
                        -----------------------------------------
Total Dipole Moment    :     -1.04431      -1.61356      -0.21070
                        -----------------------------------------
Magnitude (a.u.)       :      1.93353
Magnitude (Debye)      :      4.91466

Rotational constants in cm-1:     0.011727     0.008687     0.006126
Rotational constants in MHz :   351.557709   260.426231   183.650393

                             ****ORCA TERMINATED NORMALLY****
TOTAL RUN TIME: 0 days 1 hours 40 minutes 55 seconds 159 msec
