                         Program Version 4.2.0 -  RELEASE  -
|  1> ! ri-mp2 cc-pvtz cc-pvtz/c TightSCF  NoKeepInts
|  2>
|  3> %scf
|  4>   MaxCore 4096
|  5> end
|  6> *xyz  0  1
|  7>     C       15.6027854   14.2413893   14.7811312
|  8>     C       15.6354464   14.0735329   16.3161846
|  9>     O       16.5148547   15.0412046   16.9251236
| 10>     C       16.2777228   16.3885814   16.8565957
| 11>     O       15.3052420   16.8623992   16.2946676
| 12>     C       17.2859156   17.1907502   17.6333090
| 13>     C       17.2740511   18.5480213   17.6582544
| 14>     C       16.2990034   19.4703663   16.9580684
| 15>     N       18.2638109   19.2451645   18.3578110
| 16>     C       19.3542641   18.6702321   18.9539744
| 17>     S       20.5381620   19.5754034   19.6716269
| 18>     N       19.4175627   17.3005953   18.9220102
| 19>     C       18.3497587   16.4131411   18.4258922
| 20>     C       17.7389284   15.6412965   19.5921813
| 21>     C       17.9067795   14.2472347   19.6913015
| 22>     C       17.3464185   13.5340091   20.7644374
| 23>     C       16.6144043   14.2201824   21.7484515
| 24>     C       16.4487056   15.6088599   21.6550652
| 25>     O       15.7436107   16.2743668   22.6043126
| 26>     C       17.0075700   16.3159040   20.5860361
| 27>     H       15.0684673   15.1506291   14.4814475
| 28>     H       15.0874950   13.3907864   14.3190275
| 29>     H       16.6201765   14.2847146   14.3734904
| 30>     H       14.6201731   14.1782217   16.7219935
| 31>     H       15.9935705   13.0650595   16.5593732
| 32>     H       15.2775668   19.2956970   17.3199051
| 33>     H       16.2990410   19.2838565   15.8766566
| 34>     H       16.5270300   20.5317855   17.1102293
| 35>     H       18.2340503   20.2516820   18.3902044
| 36>     H       20.2138531   16.9038365   19.4039738
| 37>     H       18.8178801   15.6934103   17.7398401
| 38>     H       18.4681347   13.7136852   18.9291169
| 39>     H       17.4797404   12.4557216   20.8310284
| 40>     H       16.1797998   13.6739387   22.5790733
| 41>     H       15.4608608   15.6251972   23.2656162
| 42>     H       16.8741638   17.3911432   20.5365887
| 43> *
| 44>
| 45>                          ****END OF INPUT****

CARTESIAN COORDINATES (ANGSTROEM)
---------------------------------
  C     15.602785   14.241389   14.781131
  C     15.635446   14.073533   16.316185
  O     16.514855   15.041205   16.925124
  C     16.277723   16.388581   16.856596
  O     15.305242   16.862399   16.294668
  C     17.285916   17.190750   17.633309
  C     17.274051   18.548021   17.658254
  C     16.299003   19.470366   16.958068
  N     18.263811   19.245165   18.357811
  C     19.354264   18.670232   18.953974
  S     20.538162   19.575403   19.671627
  N     19.417563   17.300595   18.922010
  C     18.349759   16.413141   18.425892
  C     17.738928   15.641296   19.592181
  C     17.906779   14.247235   19.691302
  C     17.346418   13.534009   20.764437
  C     16.614404   14.220182   21.748452
  C     16.448706   15.608860   21.655065
  O     15.743611   16.274367   22.604313
  C     17.007570   16.315904   20.586036
  H     15.068467   15.150629   14.481447
  H     15.087495   13.390786   14.319028
  H     16.620176   14.284715   14.373490
  H     14.620173   14.178222   16.721993
  H     15.993571   13.065060   16.559373
  H     15.277567   19.295697   17.319905
  H     16.299041   19.283856   15.876657
  H     16.527030   20.531786   17.110229
  H     18.234050   20.251682   18.390204
  H     20.213853   16.903837   19.403974
  H     18.817880   15.693410   17.739840
  H     18.468135   13.713685   18.929117
  H     17.479740   12.455722   20.831028
  H     16.179800   13.673939   22.579073
  H     15.460861   15.625197   23.265616
  H     16.874164   17.391143   20.536589

 Total Charge           Charge          ....    0
 Multiplicity           Mult            ....    1
 Number of Electrons    NEL             ....  154
 Basis Dimension        Dim             ....  828

ORBITAL ENERGIES
----------------

  NO   OCC          E(Eh)            E(eV)
   0   2.0000     -91.888284     -2500.4073
   1   2.0000     -20.601623      -560.5987
   2   2.0000     -20.594706      -560.4104
   3   2.0000     -20.541882      -558.9730
   4   2.0000     -15.628524      -425.2737
   5   2.0000     -15.607453      -424.7004
   6   2.0000     -11.396423      -310.1124
   7   2.0000     -11.383308      -309.7556
   8   2.0000     -11.335438      -308.4530
   9   2.0000     -11.311640      -307.8054
  10   2.0000     -11.307955      -307.7051
  11   2.0000     -11.300622      -307.5055
  12   2.0000     -11.258735      -306.3657
  13   2.0000     -11.257684      -306.3372
  14   2.0000     -11.253120      -306.2130
  15   2.0000     -11.251723      -306.1750
  16   2.0000     -11.240991      -305.8829
  17   2.0000     -11.236487      -305.7603
  18   2.0000     -11.236302      -305.7553
  19   2.0000     -11.223574      -305.4090
  20   2.0000      -8.893348      -242.0003
  21   2.0000      -6.574923      -178.9128
  22   2.0000      -6.572919      -178.8582
  23   2.0000      -6.572332      -178.8423
  24   2.0000      -1.449520       -39.4434
  25   2.0000      -1.414348       -38.4864
  26   2.0000      -1.355223       -36.8775
  27   2.0000      -1.339467       -36.4488
  28   2.0000      -1.237773       -33.6815
  29   2.0000      -1.155753       -31.4496
  30   2.0000      -1.119460       -30.4620
  31   2.0000      -1.041518       -28.3412
  32   2.0000      -1.036139       -28.1948
  33   2.0000      -1.013028       -27.5659
  34   2.0000      -0.994690       -27.0669
  35   2.0000      -0.983235       -26.7552
  36   2.0000      -0.921493       -25.0751
  37   2.0000      -0.896425       -24.3930
  38   2.0000      -0.846503       -23.0345
  39   2.0000      -0.836389       -22.7593
  40   2.0000      -0.832114       -22.6430
  41   2.0000      -0.817537       -22.2463
  42   2.0000      -0.753047       -20.4915
  43   2.0000      -0.730237       -19.8707
  44   2.0000      -0.721830       -19.6420
  45   2.0000      -0.694115       -18.8878
  46   2.0000      -0.687517       -18.7083
  47   2.0000      -0.680133       -18.5073
  48   2.0000      -0.669969       -18.2308
  49   2.0000      -0.653455       -17.7814
  50   2.0000      -0.648849       -17.6561
  51   2.0000      -0.644516       -17.5382
  52   2.0000      -0.631662       -17.1884
  53   2.0000      -0.612258       -16.6604
  54   2.0000      -0.604878       -16.4596
  55   2.0000      -0.598286       -16.2802
  56   2.0000      -0.597218       -16.2511
  57   2.0000      -0.578671       -15.7464
  58   2.0000      -0.571196       -15.5430
  59   2.0000      -0.570203       -15.5160
  60   2.0000      -0.561959       -15.2917
  61   2.0000      -0.538277       -14.6473
  62   2.0000      -0.537330       -14.6215
  63   2.0000      -0.525175       -14.2907
  64   2.0000      -0.523198       -14.2369
  65   2.0000      -0.512639       -13.9496
  66   2.0000      -0.501069       -13.6348
  67   2.0000      -0.498446       -13.5634
  68   2.0000      -0.483839       -13.1659
  69   2.0000      -0.463178       -12.6037
  70   2.0000      -0.456290       -12.4163
  71   2.0000      -0.444450       -12.0941
  72   2.0000      -0.353781        -9.6269
  73   2.0000      -0.347607        -9.4589
  74   2.0000      -0.327560        -8.9133
  75   2.0000      -0.319352        -8.6900
  76   2.0000      -0.315157        -8.5759
  77   0.0000       0.076897         2.0925
  78   0.0000       0.109337         2.9752
  79   0.0000       0.124683         3.3928
  80   0.0000       0.133499         3.6327
  81   0.0000       0.137076         3.7300

MULLIKEN ATOMIC CHARGES
-----------------------
   0 C :   -0.300915
   1 C :    0.043259
   2 O :   -0.351255
   3 C :    0.471334
   4 O :   -0.439262
   5 C :   -0.210618
   6 C :    0.146940
   7 C :   -0.275112
   8 N :   -0.119775
   9 C :    0.210960
  10 S :   -0.440535
  11 N :   -0.202816
  12 C :    0.044787
  13 C :    0.072664
  14 C :   -0.177534
  15 C :   -0.132523
  16 C :   -0.277838
  17 C :    0.315127
  18 O :   -0.357066
  19 C :   -0.268706
  20 H :    0.126484
  21 H :    0.095520
  22 H :    0.090696
  23 H :    0.094308
  24 H :    0.106313
  25 H :    0.132828
  26 H :    0.129512
  27 H :    0.095289
  28 H :    0.197157
  29 H :    0.194108
  30 H :    0.149146
  31 H :    0.145632
  32 H :    0.158667
  33 H :    0.128801
  34 H :    0.240433
  35 H :    0.163990
Sum of atomic charges:    0.0000000

LOEWDIN ATOMIC CHARGES
----------------------
   0 C :    0.104726
   1 C :   -0.012959
   2 O :    0.303935
   3 C :   -0.411537
   4 O :    0.098930
   5 C :   -0.093238
   6 C :   -0.059146
   7 C :    0.131116
   8 N :    0.406458
   9 C :   -0.456762
  10 S :   -0.035949
  11 N :    0.396530
  12 C :   -0.052919
  13 C :   -0.038199
  14 C :    0.014032
  15 C :    0.039258
  16 C :   -0.001560
  17 C :   -0.189417
  18 O :    0.394904
  19 C :    0.031562
  20 H :   -0.026045
  21 H :   -0.027600
  22 H :   -0.030376
  23 H :   -0.027871
  24 H :   -0.024847
  25 H :   -0.004499
  26 H :   -0.004514
  27 H :   -0.023463
  28 H :   -0.057682
  29 H :   -0.064660
  30 H :   -0.011530
  31 H :   -0.030795
  32 H :   -0.021757
  33 H :   -0.035865
  34 H :   -0.154198
  35 H :   -0.024062

  Mayer bond orders larger than 0.100000
B(  0-C ,  1-C ) :   0.9671 B(  0-C , 20-H ) :   0.9719 B(  0-C , 21-H ) :   0.9775
B(  0-C , 22-H ) :   0.9759 B(  1-C ,  2-O ) :   0.9034 B(  1-C , 23-H ) :   0.9780
B(  1-C , 24-H ) :   0.9839 B(  2-O ,  3-C ) :   1.1658 B(  3-C ,  4-O ) :   1.9524
B(  3-C ,  5-C ) :   1.0611 B(  5-C ,  6-C ) :   1.6565 B(  5-C , 12-C ) :   0.9734
B(  6-C ,  7-C ) :   0.9675 B(  6-C ,  8-N ) :   1.1645 B(  7-C , 25-H ) :   0.9605
B(  7-C , 26-H ) :   0.9604 B(  7-C , 27-H ) :   0.9907 B(  8-N ,  9-C ) :   1.1823
B(  8-N , 28-H ) :   0.9481 B(  9-C , 10-S ) :   1.6070 B(  9-C , 11-N ) :   1.3052
B( 11-N , 12-C ) :   0.9872 B( 11-N , 29-H ) :   0.9518 B( 12-C , 13-C ) :   0.9384
B( 12-C , 30-H ) :   1.0028 B( 13-C , 14-C ) :   1.3559 B( 13-C , 19-C ) :   1.3822
B( 14-C , 15-C ) :   1.3939 B( 14-C , 31-H ) :   0.9722 B( 15-C , 16-C ) :   1.3645
B( 15-C , 32-H ) :   0.9711 B( 16-C , 17-C ) :   1.3317 B( 16-C , 33-H ) :   0.9854
B( 17-C , 18-O ) :   1.1096 B( 17-C , 19-C ) :   1.3743 B( 18-O , 34-H ) :   0.9801
B( 19-C , 35-H ) :   0.9583

MP2 TOTAL ENERGY:    -1274.348202313 Eh
FINAL SINGLE POINT ENERGY     -1274.348202313445

DIPOLE MOMENT
-------------
                                X             Y             Z
Electronic contribution:      9.61274       9.06315      10.37503
Nuclear contribution   :    -10.73219     -10.72571     -10.74988
                        -----------------------------------------
Total Dipole Moment    :     -1.11945      -1.66256      -0.37485
                        -----------------------------------------
Magnitude (a.u.)       :      2.03907
Magnitude (Debye)      :      5.18289

Rotational constants in cm-1:     0.010651     0.008946     0.006004
Rotational constants in MHz :   319.311910   268.191059   180.007374

                             ****ORCA TERMINATED NORMALLY****
TOTAL RUN TIME: 0 days 1 hours 41 minutes 5 seconds 47 msec
