                         Program Version 4.2.0 -  RELEASE  -
|  1> ! ri-mp2 cc-pvtz cc-pvtz/c TightSCF  NoKeepInts
|  2>
|  3> %scf
|  4>   MaxCore 4096
|  5> end
|  6> *xyz  0  1
|  7>     C       15.0437873   14.5777021   16.8008588
|  8>     C       16.4812897   14.0207966   16.6809831
|  9>     O       17.4951642   15.0246262   16.4167983
| 10>     C       17.2103644   16.3494496   16.2342009
| 11>     O       16.5069404   16.7274745   15.3138929
| 12>     C       17.7094556   17.2298955   17.3483294
| 13>     C       17.4568349   18.5635944   17.3867574
| 14>     C       16.6413159   19.3733717   16.4014131
| 15>     N       18.0047191   19.3521146   18.4030277
| 16>     C       18.9217765   18.9169029   19.3218388
| 17>     S       19.6211855   19.9421271   20.4152708
| 18>     N       19.2401169   17.5836460   19.2823218
| 19>     C       18.5565816   16.5747337   18.4533118
| 20>     C       17.7443092   15.6534220   19.3576517
| 21>     C       18.2358110   14.3771879   19.6909729
| 22>     C       17.4949358   13.5203567   20.5223211
| 23>     C       16.2553396   13.9451877   21.0299037
| 24>     C       15.7700918   15.2210804   20.7123586
| 25>     O       14.5751231   15.6357501   21.2026406
| 26>     C       16.5100626   16.0720918   19.8859703
| 27>     H       14.9807062   15.3663855   17.5600746
| 28>     H       14.3541464   13.7772923   17.0943528
| 29>     H       14.6926991   14.9798699   15.8422703
| 30>     H       16.7328939   13.4927734   17.6087115
| 31>     H       16.5011491   13.2781859   15.8729649
| 32>     H       15.6170779   18.9844276   16.3366350
| 33>     H       17.0782362   19.3110883   15.3964742
| 34>     H       16.5751187   20.4346407   16.6680648
| 35>     H       17.7886706   20.3354963   18.4404589
| 36>     H       19.8963034   17.2869687   19.9930427
| 37>     H       19.3332078   15.9741053   17.9588700
| 38>     H       19.1936723   14.0457347   19.2985168
| 39>     H       17.8823284   12.5340127   20.7725757
| 40>     H       15.6794176   13.2872470   21.6725991
| 41>     H       14.2455437   14.9429026   21.7947881
| 42>     H       16.1206236   17.0593576   19.6627770
| 43> *
| 44>
| 45>                          ****END OF INPUT****

CARTESIAN COORDINATES (ANGSTROEM)
---------------------------------
  C     15.043787   14.577702   16.800859
  C     16.481290   14.020797   16.680983
  O     17.495164   15.024626   16.416798
  C     17.210364   16.349450   16.234201
  O     16.506940   16.727474   15.313893
  C     17.709456   17.229896   17.348329
  C     17.456835   18.563594   17.386757
  C     16.641316   19.373372   16.401413
  N     18.004719   19.352115   18.403028
  C     18.921776   18.916903   19.321839
  S     19.621185   19.942127   20.415271
  N     19.240117   17.583646   19.282322
  C     18.556582   16.574734   18.453312
  C     17.744309   15.653422   19.357652
  C     18.235811   14.377188   19.690973
  C     17.494936   13.520357   20.522321
  C     16.255340   13.945188   21.029904
  C     15.770092   15.221080   20.712359
  O     14.575123   15.635750   21.202641
  C     16.510063   16.072092   19.885970
  H     14.980706   15.366385   17.560075
  H     14.354146   13.777292   17.094353
  H     14.692699   14.979870   15.842270
  H     16.732894   13.492773   17.608711
  H     16.501149   13.278186   15.872965
  H     15.617078   18.984428   16.336635
  H     17.078236   19.311088   15.396474
  H     16.575119   20.434641   16.668065
  H     17.788671   20.335496   18.440459
  H     19.896303   17.286969   19.993043
  H     19.333208   15.974105   17.958870
  H     19.193672   14.045735   19.298517
  H     17.882328   12.534013   20.772576
  H     15.679418   13.287247   21.672599
  H     14.245544   14.942903   21.794788
  H     16.120624   17.059358   19.662777

 Total Charge           Charge          ....    0
 Multiplicity           Mult            ....    1
 Number of Electrons    NEL             ....  154
 Basis Dimension        Dim             ....  828

ORBITAL ENERGIES
----------------

  NO   OCC          E(Eh)            E(eV)
   0   2.0000     -91.890026     -2500.4547
   1   2.0000     -20.602097      -560.6116
   2   2.0000     -20.583418      -560.1033
   3   2.0000     -20.543677      -559.0219
   4   2.0000     -15.630419      -425.3253
   5   2.0000     -15.609361      -424.7523
   6   2.0000     -11.393454      -310.0316
   7   2.0000     -11.384955      -309.8004
   8   2.0000     -11.337092      -308.4980
   9   2.0000     -11.319458      -308.0181
  10   2.0000     -11.310831      -307.7833
  11   2.0000     -11.297937      -307.4325
  12   2.0000     -11.264479      -306.5221
  13   2.0000     -11.260891      -306.4244
  14   2.0000     -11.258692      -306.3646
  15   2.0000     -11.252963      -306.2087
  16   2.0000     -11.248445      -306.0857
  17   2.0000     -11.243118      -305.9408
  18   2.0000     -11.243073      -305.9396
  19   2.0000     -11.223782      -305.4146
  20   2.0000      -8.895075      -242.0473
  21   2.0000      -6.576647      -178.9596
  22   2.0000      -6.574645      -178.9052
  23   2.0000      -6.574056      -178.8891
  24   2.0000      -1.441403       -39.2226
  25   2.0000      -1.421724       -38.6871
  26   2.0000      -1.349701       -36.7272
  27   2.0000      -1.341530       -36.5049
  28   2.0000      -1.240179       -33.7470
  29   2.0000      -1.162356       -31.6293
  30   2.0000      -1.121269       -30.5113
  31   2.0000      -1.046030       -28.4639
  32   2.0000      -1.031033       -28.0558
  33   2.0000      -1.020733       -27.7756
  34   2.0000      -0.997953       -27.1557
  35   2.0000      -0.985858       -26.8266
  36   2.0000      -0.925047       -25.1718
  37   2.0000      -0.895676       -24.3726
  38   2.0000      -0.849086       -23.1048
  39   2.0000      -0.842672       -22.9303
  40   2.0000      -0.838723       -22.8228
  41   2.0000      -0.819691       -22.3049
  42   2.0000      -0.744377       -20.2555
  43   2.0000      -0.734709       -19.9925
  44   2.0000      -0.719051       -19.5664
  45   2.0000      -0.700643       -19.0655
  46   2.0000      -0.690580       -18.7916
  47   2.0000      -0.673131       -18.3168
  48   2.0000      -0.670614       -18.2483
  49   2.0000      -0.659332       -17.9413
  50   2.0000      -0.654364       -17.8061
  51   2.0000      -0.644476       -17.5371
  52   2.0000      -0.637698       -17.3526
  53   2.0000      -0.623239       -16.9592
  54   2.0000      -0.612568       -16.6688
  55   2.0000      -0.604207       -16.4413
  56   2.0000      -0.601284       -16.3618
  57   2.0000      -0.581806       -15.8317
  58   2.0000      -0.571910       -15.5625
  59   2.0000      -0.567134       -15.4325
  60   2.0000      -0.547390       -14.8952
  61   2.0000      -0.541525       -14.7356
  62   2.0000      -0.534916       -14.5558
  63   2.0000      -0.529971       -14.4212
  64   2.0000      -0.523891       -14.2558
  65   2.0000      -0.515222       -14.0199
  66   2.0000      -0.504388       -13.7251
  67   2.0000      -0.493175       -13.4200
  68   2.0000      -0.488097       -13.2818
  69   2.0000      -0.463013       -12.5992
  70   2.0000      -0.454912       -12.3788
  71   2.0000      -0.441252       -12.0071
  72   2.0000      -0.355760        -9.6807
  73   2.0000      -0.354414        -9.6441
  74   2.0000      -0.330326        -8.9886
  75   2.0000      -0.326330        -8.8799
  76   2.0000      -0.317571        -8.6415
  77   0.0000       0.072034         1.9601
  78   0.0000       0.100773         2.7422
  79   0.0000       0.121556         3.3077
  80   0.0000       0.129136         3.5140
  81   0.0000       0.132409         3.6030

MULLIKEN ATOMIC CHARGES
-----------------------
   0 C :   -0.326181
   1 C :    0.037014
   2 O :   -0.394327
   3 C :    0.496968
   4 O :   -0.415242
   5 C :   -0.276902
   6 C :    0.165938
   7 C :   -0.270865
   8 N :   -0.123606
   9 C :    0.215089
  10 S :   -0.439745
  11 N :   -0.207724
  12 C :    0.069465
  13 C :    0.074493
  14 C :   -0.202502
  15 C :   -0.127757
  16 C :   -0.274387
  17 C :    0.326961
  18 O :   -0.358643
  19 C :   -0.302115
  20 H :    0.103033
  21 H :    0.105561
  22 H :    0.128620
  23 H :    0.109162
  24 H :    0.116979
  25 H :    0.129585
  26 H :    0.134525
  27 H :    0.095242
  28 H :    0.197764
  29 H :    0.194625
  30 H :    0.151034
  31 H :    0.151248
  32 H :    0.165035
  33 H :    0.133521
  34 H :    0.242052
  35 H :    0.176082
Sum of atomic charges:   -0.0000000

LOEWDIN ATOMIC CHARGES
----------------------
   0 C :    0.104912
   1 C :   -0.008954
   2 O :    0.283431
   3 C :   -0.419742
   4 O :    0.113096
   5 C :   -0.098913
   6 C :   -0.058332
   7 C :    0.131452
   8 N :    0.407185
   9 C :   -0.455520
  10 S :   -0.034624
  11 N :    0.396263
  12 C :   -0.052620
  13 C :   -0.036585
  14 C :    0.014169
  15 C :    0.040704
  16 C :   -0.001955
  17 C :   -0.189306
  18 O :    0.396489
  19 C :    0.032356
  20 H :   -0.031142
  21 H :   -0.024120
  22 H :   -0.025169
  23 H :   -0.030654
  24 H :   -0.027856
  25 H :   -0.005432
  26 H :   -0.002970
  27 H :   -0.023355
  28 H :   -0.057375
  29 H :   -0.065274
  30 H :   -0.008613
  31 H :   -0.029326
  32 H :   -0.020060
  33 H :   -0.034558
  34 H :   -0.152478
  35 H :   -0.025124

  Mayer bond orders larger than 0.100000
B(  0-C ,  1-C ) :   0.9640 B(  0-C , 20-H ) :   0.9720 B(  0-C , 21-H ) :   0.9752
B(  0-C , 22-H ) :   0.9716 B(  1-C ,  2-O ) :   0.8856 B(  1-C , 23-H ) :   0.9716
B(  1-C , 24-H ) :   0.9853 B(  2-O ,  3-C ) :   1.1073 B(  3-C ,  4-O ) :   2.0035
B(  3-C ,  5-C ) :   1.0608 B(  5-C ,  6-C ) :   1.6459 B(  5-C , 12-C ) :   0.9727
B(  6-C ,  7-C ) :   0.9668 B(  6-C ,  8-N ) :   1.1622 B(  7-C , 25-H ) :   0.9619
B(  7-C , 26-H ) :   0.9583 B(  7-C , 27-H ) :   0.9898 B(  8-N ,  9-C ) :   1.1824
B(  8-N , 28-H ) :   0.9478 B(  9-C , 10-S ) :   1.6056 B(  9-C , 11-N ) :   1.3075
B( 11-N , 12-C ) :   0.9707 B( 11-N , 29-H ) :   0.9523 B( 12-C , 13-C ) :   0.9429
B( 12-C , 30-H ) :   1.0014 B( 13-C , 14-C ) :   1.3481 B( 13-C , 19-C ) :   1.3574
B( 14-C , 15-C ) :   1.3897 B( 14-C , 31-H ) :   0.9751 B( 15-C , 16-C ) :   1.3609
B( 15-C , 32-H ) :   0.9695 B( 16-C , 17-C ) :   1.3319 B( 16-C , 33-H ) :   0.9837
B( 17-C , 18-O ) :   1.1101 B( 17-C , 19-C ) :   1.3619 B( 18-O , 34-H ) :   0.9792
B( 19-C , 35-H ) :   0.9570

MP2 TOTAL ENERGY:    -1274.334907554 Eh
FINAL SINGLE POINT ENERGY     -1274.334907553958

DIPOLE MOMENT
-------------
                                X             Y             Z
Electronic contribution:      9.74505       9.03384       5.82516
Nuclear contribution   :    -10.73811     -10.69949      -5.70948
                        -----------------------------------------
Total Dipole Moment    :     -0.99305      -1.66565       0.11567
                        -----------------------------------------
Magnitude (a.u.)       :      1.94266
Magnitude (Debye)      :      4.93785

Rotational constants in cm-1:     0.012557     0.009049     0.006598
Rotational constants in MHz :   376.447094   271.290948   197.810875

                             ****ORCA TERMINATED NORMALLY****
TOTAL RUN TIME: 0 days 1 hours 57 minutes 55 seconds 923 msec
