                         Program Version 4.2.0 -  RELEASE  -
|  1> ! ri-mp2 cc-pvtz cc-pvtz/c TightSCF  NoKeepInts
|  2>
|  3> %scf
|  4>   MaxCore 4096
|  5> end
|  6> *xyz  0  1
|  7>     C       14.7701827   16.1236320   16.9032208
|  8>     C       15.6443414   14.8696000   17.0939349
|  9>     O       16.8606285   14.8940613   16.3117728
| 10>     C       17.9103895   15.7791498   16.3799006
| 11>     O       18.9681528   15.5068544   15.8452214
| 12>     C       17.8466831   16.8807445   17.3795690
| 13>     C       17.3941066   18.1068122   17.0332453
| 14>     C       16.8258672   18.5184037   15.6921594
| 15>     N       17.4856829   19.1666123   17.9372576
| 16>     C       18.1265542   19.1038356   19.1470030
| 17>     S       18.2265990   20.4163499   20.1477089
| 18>     N       18.6820068   17.8951968   19.4894044
| 19>     C       18.5709592   16.6472480   18.7068865
| 20>     C       17.9328609   15.5301522   19.5241177
| 21>     C       18.4094265   14.2120741   19.3990506
| 22>     C       17.8216824   13.1660822   20.1295552
| 23>     C       16.7477239   13.4389751   20.9936677
| 24>     C       16.2682294   14.7496019   21.1200837
| 25>     O       15.2232073   15.0141519   21.9433431
| 26>     C       16.8526192   15.7892138   20.3894051
| 27>     H       15.0911738   16.9428864   17.5540776
| 28>     H       13.7321514   15.8940323   17.1736387
| 29>     H       14.7759854   16.4537998   15.8576689
| 30>     H       15.8607110   14.7190833   18.1560347
| 31>     H       15.0610716   13.9988828   16.7674688
| 32>     H       16.7853587   17.6857064   14.9794541
| 33>     H       17.4469950   19.2980952   15.2330926
| 34>     H       15.8079999   18.9133250   15.7972345
| 35>     H       17.1079097   20.0683419   17.6918290
| 36>     H       19.1375553   17.8769802   20.3932513
| 37>     H       19.5939769   16.3273825   18.4583711
| 38>     H       19.2331659   13.9956908   18.7216985
| 39>     H       18.1981309   12.1499083   20.0220504
| 40>     H       16.2908539   12.6332179   21.5591222
| 41>     H       14.9984870   14.1916908   22.4045777
| 42>     H       16.4575697   16.7942247   20.4979222
| 43> *
| 44>
| 45>                          ****END OF INPUT****

CARTESIAN COORDINATES (ANGSTROEM)
---------------------------------
  C     14.770183   16.123632   16.903221
  C     15.644341   14.869600   17.093935
  O     16.860629   14.894061   16.311773
  C     17.910389   15.779150   16.379901
  O     18.968153   15.506854   15.845221
  C     17.846683   16.880744   17.379569
  C     17.394107   18.106812   17.033245
  C     16.825867   18.518404   15.692159
  N     17.485683   19.166612   17.937258
  C     18.126554   19.103836   19.147003
  S     18.226599   20.416350   20.147709
  N     18.682007   17.895197   19.489404
  C     18.570959   16.647248   18.706886
  C     17.932861   15.530152   19.524118
  C     18.409426   14.212074   19.399051
  C     17.821682   13.166082   20.129555
  C     16.747724   13.438975   20.993668
  C     16.268229   14.749602   21.120084
  O     15.223207   15.014152   21.943343
  C     16.852619   15.789214   20.389405
  H     15.091174   16.942886   17.554078
  H     13.732151   15.894032   17.173639
  H     14.775985   16.453800   15.857669
  H     15.860711   14.719083   18.156035
  H     15.061072   13.998883   16.767469
  H     16.785359   17.685706   14.979454
  H     17.446995   19.298095   15.233093
  H     15.808000   18.913325   15.797235
  H     17.107910   20.068342   17.691829
  H     19.137555   17.876980   20.393251
  H     19.593977   16.327382   18.458371
  H     19.233166   13.995691   18.721698
  H     18.198131   12.149908   20.022050
  H     16.290854   12.633218   21.559122
  H     14.998487   14.191691   22.404578
  H     16.457570   16.794225   20.497922

 Total Charge           Charge          ....    0
 Multiplicity           Mult            ....    1
 Number of Electrons    NEL             ....  154
 Basis Dimension        Dim             ....  828

ORBITAL ENERGIES
----------------

  NO   OCC          E(Eh)            E(eV)
   0   2.0000     -91.889248     -2500.4336
   1   2.0000     -20.604248      -560.6701
   2   2.0000     -20.597945      -560.4986
   3   2.0000     -20.550991      -559.2209
   4   2.0000     -15.624352      -425.1602
   5   2.0000     -15.612296      -424.8322
   6   2.0000     -11.398700      -310.1744
   7   2.0000     -11.386200      -309.8342
   8   2.0000     -11.324060      -308.1433
   9   2.0000     -11.322435      -308.0991
  10   2.0000     -11.318811      -308.0005
  11   2.0000     -11.302785      -307.5644
  12   2.0000     -11.269229      -306.6513
  13   2.0000     -11.264699      -306.5280
  14   2.0000     -11.263285      -306.4896
  15   2.0000     -11.262598      -306.4709
  16   2.0000     -11.251645      -306.1728
  17   2.0000     -11.246733      -306.0392
  18   2.0000     -11.245479      -306.0050
  19   2.0000     -11.234952      -305.7186
  20   2.0000      -8.894372      -242.0282
  21   2.0000      -6.575966      -178.9411
  22   2.0000      -6.573934      -178.8858
  23   2.0000      -6.573365      -178.8703
  24   2.0000      -1.444383       -39.3037
  25   2.0000      -1.424063       -38.7507
  26   2.0000      -1.357839       -36.9487
  27   2.0000      -1.338990       -36.4358
  28   2.0000      -1.239940       -33.7405
  29   2.0000      -1.166128       -31.7320
  30   2.0000      -1.126035       -30.6410
  31   2.0000      -1.051636       -28.6165
  32   2.0000      -1.038938       -28.2709
  33   2.0000      -1.024103       -27.8673
  34   2.0000      -1.005624       -27.3644
  35   2.0000      -0.990123       -26.9426
  36   2.0000      -0.929315       -25.2880
  37   2.0000      -0.898042       -24.4370
  38   2.0000      -0.852604       -23.2005
  39   2.0000      -0.843750       -22.9596
  40   2.0000      -0.841543       -22.8995
  41   2.0000      -0.833080       -22.6692
  42   2.0000      -0.752213       -20.4687
  43   2.0000      -0.737314       -20.0633
  44   2.0000      -0.727640       -19.8001
  45   2.0000      -0.702056       -19.1039
  46   2.0000      -0.691728       -18.8229
  47   2.0000      -0.679697       -18.4955
  48   2.0000      -0.676781       -18.4161
  49   2.0000      -0.664444       -18.0804
  50   2.0000      -0.655636       -17.8408
  51   2.0000      -0.643997       -17.5240
  52   2.0000      -0.640676       -17.4337
  53   2.0000      -0.618192       -16.8219
  54   2.0000      -0.612080       -16.6556
  55   2.0000      -0.609756       -16.5923
  56   2.0000      -0.607244       -16.5240
  57   2.0000      -0.585998       -15.9458
  58   2.0000      -0.581749       -15.8302
  59   2.0000      -0.577594       -15.7171
  60   2.0000      -0.567765       -15.4497
  61   2.0000      -0.555705       -15.1215
  62   2.0000      -0.538413       -14.6510
  63   2.0000      -0.536731       -14.6052
  64   2.0000      -0.526102       -14.3160
  65   2.0000      -0.516315       -14.0496
  66   2.0000      -0.505010       -13.7420
  67   2.0000      -0.502036       -13.6611
  68   2.0000      -0.490358       -13.3433
  69   2.0000      -0.465338       -12.6625
  70   2.0000      -0.452644       -12.3171
  71   2.0000      -0.449713       -12.2373
  72   2.0000      -0.356532        -9.7017
  73   2.0000      -0.354889        -9.6570
  74   2.0000      -0.331191        -9.0122
  75   2.0000      -0.328714        -8.9448
  76   2.0000      -0.317879        -8.6499
  77   0.0000       0.091822         2.4986
  78   0.0000       0.101645         2.7659
  79   0.0000       0.118910         3.2357
  80   0.0000       0.126221         3.4346
  81   0.0000       0.128128         3.4865

MULLIKEN ATOMIC CHARGES
-----------------------
   0 C :   -0.332102
   1 C :    0.039162
   2 O :   -0.320319
   3 C :    0.388216
   4 O :   -0.377167
   5 C :   -0.160859
   6 C :    0.118584
   7 C :   -0.329108
   8 N :   -0.137919
   9 C :    0.209975
  10 S :   -0.444022
  11 N :   -0.225684
  12 C :    0.077015
  13 C :   -0.006547
  14 C :   -0.196438
  15 C :   -0.136806
  16 C :   -0.270058
  17 C :    0.306586
  18 O :   -0.355820
  19 C :   -0.248916
  20 H :    0.106005
  21 H :    0.120955
  22 H :    0.106498
  23 H :    0.102602
  24 H :    0.125004
  25 H :    0.120852
  26 H :    0.146873
  27 H :    0.121495
  28 H :    0.196973
  29 H :    0.201932
  30 H :    0.166150
  31 H :    0.165473
  32 H :    0.165621
  33 H :    0.134933
  34 H :    0.242004
  35 H :    0.178860
Sum of atomic charges:    0.0000000

LOEWDIN ATOMIC CHARGES
----------------------
   0 C :    0.102726
   1 C :   -0.014963
   2 O :    0.299630
   3 C :   -0.418579
   4 O :    0.125928
   5 C :   -0.078959
   6 C :   -0.105146
   7 C :    0.125527
   8 N :    0.401776
   9 C :   -0.455339
  10 S :   -0.039730
  11 N :    0.397535
  12 C :   -0.045816
  13 C :   -0.045620
  14 C :    0.019400
  15 C :    0.046426
  16 C :    0.000147
  17 C :   -0.193607
  18 O :    0.397178
  19 C :    0.026997
  20 H :   -0.034008
  21 H :   -0.022017
  22 H :   -0.028592
  23 H :   -0.033120
  24 H :   -0.019437
  25 H :   -0.009417
  26 H :   -0.008916
  27 H :   -0.016783
  28 H :   -0.057505
  29 H :   -0.064304
  30 H :   -0.002840
  31 H :   -0.022263
  32 H :   -0.017306
  33 H :   -0.033565
  34 H :   -0.152134
  35 H :   -0.023306

  Mayer bond orders larger than 0.100000
B(  0-C ,  1-C ) :   0.9533 B(  0-C , 20-H ) :   0.9762 B(  0-C , 21-H ) :   0.9786
B(  0-C , 22-H ) :   0.9735 B(  1-C ,  2-O ) :   0.9040 B(  1-C , 23-H ) :   0.9647
B(  1-C , 24-H ) :   0.9857 B(  2-O ,  3-C ) :   1.1906 B(  3-C ,  4-O ) :   2.1112
B(  3-C ,  5-C ) :   0.8926 B(  5-C ,  6-C ) :   1.7317 B(  5-C , 12-C ) :   0.9499
B(  6-C ,  7-C ) :   0.9539 B(  6-C ,  8-N ) :   1.0946 B(  7-C , 25-H ) :   0.9804
B(  7-C , 26-H ) :   0.9681 B(  7-C , 27-H ) :   0.9656 B(  8-N ,  9-C ) :   1.2055
B(  8-N , 28-H ) :   0.9521 B(  9-C , 10-S ) :   1.6071 B(  9-C , 11-N ) :   1.2822
B( 11-N , 12-C ) :   0.9917 B( 11-N , 29-H ) :   0.9464 B( 12-C , 13-C ) :   0.9441
B( 12-C , 30-H ) :   0.9969 B( 13-C , 14-C ) :   1.3898 B( 13-C , 19-C ) :   1.3458
B( 14-C , 15-C ) :   1.3970 B( 14-C , 31-H ) :   0.9647 B( 15-C , 16-C ) :   1.3616
B( 15-C , 32-H ) :   0.9693 B( 16-C , 17-C ) :   1.3281 B( 16-C , 33-H ) :   0.9838
B( 17-C , 18-O ) :   1.1131 B( 17-C , 19-C ) :   1.3663 B( 18-O , 34-H ) :   0.9784
B( 19-C , 35-H ) :   0.9573

MP2 TOTAL ENERGY:    -1274.328163603 Eh
FINAL SINGLE POINT ENERGY     -1274.328163603245

DIPOLE MOMENT
-------------
                                X             Y             Z
Electronic contribution:      9.72494       5.12909       6.61011
Nuclear contribution   :    -11.26953      -6.54812      -6.68424
                        -----------------------------------------
Total Dipole Moment    :     -1.54459      -1.41903      -0.07413
                        -----------------------------------------
Magnitude (a.u.)       :      2.09879
Magnitude (Debye)      :      5.33469

Rotational constants in cm-1:     0.012199     0.009289     0.006797
Rotational constants in MHz :   365.706272   278.477456   203.783340

                             ****ORCA TERMINATED NORMALLY****
TOTAL RUN TIME: 0 days 1 hours 54 minutes 48 seconds 857 msec
