                         Program Version 5.0.0 -  RELEASE  -
|  1> ! ri-mp2 cc-pvtz cc-pvtz/c TightSCF NoKeepInts
|  2>
|  3> %scf
|  4>   MaxCore 4096
|  5> end
|  6> *xyz  0  1
|  7>     C       14.9314008   15.8336858   17.2242010
|  8>     C       15.7545927   14.8450891   16.3744358
|  9>     O       16.8901306   15.4391625   15.7018500
| 10>     C       18.0350175   15.7899725   16.3677035
| 11>     O       18.9286230   14.9679592   16.4595094
| 12>     C       17.9158241   16.9039935   17.3596874
| 13>     C       17.3106111   18.0820829   17.0699970
| 14>     C       16.6936338   18.5094971   15.7537784
| 15>     N       17.3168938   19.1154323   18.0100925
| 16>     C       18.0471884   19.1103540   19.1695898
| 17>     S       18.0934604   20.4227907   20.1743824
| 18>     N       18.7413258   17.9604515   19.4535832
| 19>     C       18.6304730   16.6948811   18.7011697
| 20>     C       17.9542845   15.6104442   19.5409890
| 21>     C       18.4302490   14.2864673   19.5008488
| 22>     C       17.8123231   13.2761231   20.2561559
| 23>     C       16.7074182   13.5897589   21.0649087
| 24>     C       16.2312591   14.9063875   21.1136485
| 25>     O       15.1598090   15.2122687   21.8875649
| 26>     C       16.8490542   15.9100678   20.3609292
| 27>     H       15.4929510   16.2213086   18.0763582
| 28>     H       14.0487208   15.3241856   17.6297232
| 29>     H       14.5747078   16.6704260   16.6149638
| 30>     H       16.0998433   14.0188333   17.0113679
| 31>     H       15.0911384   14.4129257   15.6142666
| 32>     H       15.6022247   18.5728152   15.8274610
| 33>     H       16.9359415   17.8261066   14.9320977
| 34>     H       17.0642991   19.4970887   15.4513869
| 35>     H       16.8260248   19.9731288   17.8120092
| 36>     H       19.2585914   17.9783905   20.3234245
| 37>     H       19.6534982   16.3554518   18.4814907
| 38>     H       19.2803221   14.0360356   18.8698512
| 39>     H       18.1902442   12.2561460   20.2096457
| 40>     H       16.2260360   12.8120556   21.6486048
| 41>     H       14.9109016   14.4096415   22.3703084
| 42>     H       16.4579831   16.9205906   20.4160151
| 43> *
| 44>
| 45>                          ****END OF INPUT****

CARTESIAN COORDINATES (ANGSTROEM)
---------------------------------
  C     14.931401   15.833686   17.224201
  C     15.754593   14.845089   16.374436
  O     16.890131   15.439162   15.701850
  C     18.035017   15.789972   16.367704
  O     18.928623   14.967959   16.459509
  C     17.915824   16.903993   17.359687
  C     17.310611   18.082083   17.069997
  C     16.693634   18.509497   15.753778
  N     17.316894   19.115432   18.010092
  C     18.047188   19.110354   19.169590
  S     18.093460   20.422791   20.174382
  N     18.741326   17.960452   19.453583
  C     18.630473   16.694881   18.701170
  C     17.954284   15.610444   19.540989
  C     18.430249   14.286467   19.500849
  C     17.812323   13.276123   20.256156
  C     16.707418   13.589759   21.064909
  C     16.231259   14.906387   21.113649
  O     15.159809   15.212269   21.887565
  C     16.849054   15.910068   20.360929
  H     15.492951   16.221309   18.076358
  H     14.048721   15.324186   17.629723
  H     14.574708   16.670426   16.614964
  H     16.099843   14.018833   17.011368
  H     15.091138   14.412926   15.614267
  H     15.602225   18.572815   15.827461
  H     16.935941   17.826107   14.932098
  H     17.064299   19.497089   15.451387
  H     16.826025   19.973129   17.812009
  H     19.258591   17.978390   20.323425
  H     19.653498   16.355452   18.481491
  H     19.280322   14.036036   18.869851
  H     18.190244   12.256146   20.209646
  H     16.226036   12.812056   21.648605
  H     14.910902   14.409641   22.370308
  H     16.457983   16.920591   20.416015

 Total Charge           Charge          ....    0
 Multiplicity           Mult            ....    1
 Number of Electrons    NEL             ....  154
 Basis Dimension        Dim             ....  828

ORBITAL ENERGIES
----------------

  NO   OCC          E(Eh)            E(eV)
   0   2.0000     -91.891084     -2500.4835
   1   2.0000     -20.597934      -560.4983
   2   2.0000     -20.581935      -560.0629
   3   2.0000     -20.555134      -559.3336
   4   2.0000     -15.629605      -425.3032
   5   2.0000     -15.610881      -424.7937
   6   2.0000     -11.395780      -310.0950
   7   2.0000     -11.386997      -309.8559
   8   2.0000     -11.334386      -308.4243
   9   2.0000     -11.314619      -307.8864
  10   2.0000     -11.312855      -307.8384
  11   2.0000     -11.305560      -307.6399
  12   2.0000     -11.263629      -306.4989
  13   2.0000     -11.263101      -306.4846
  14   2.0000     -11.262015      -306.4550
  15   2.0000     -11.254655      -306.2547
  16   2.0000     -11.244228      -305.9710
  17   2.0000     -11.240479      -305.8690
  18   2.0000     -11.236469      -305.7599
  19   2.0000     -11.229560      -305.5719
  20   2.0000      -8.896158      -242.0768
  21   2.0000      -6.577738      -178.9894
  22   2.0000      -6.575724      -178.9345
  23   2.0000      -6.575138      -178.9186
  24   2.0000      -1.446433       -39.3594
  25   2.0000      -1.417755       -38.5791
  26   2.0000      -1.353799       -36.8388
  27   2.0000      -1.341888       -36.5146
  28   2.0000      -1.240446       -33.7542
  29   2.0000      -1.158696       -31.5297
  30   2.0000      -1.123627       -30.5754
  31   2.0000      -1.046294       -28.4711
  32   2.0000      -1.034928       -28.1618
  33   2.0000      -1.016888       -27.6709
  34   2.0000      -1.003488       -27.3063
  35   2.0000      -0.989501       -26.9257
  36   2.0000      -0.926753       -25.2182
  37   2.0000      -0.892128       -24.2760
  38   2.0000      -0.851625       -23.1739
  39   2.0000      -0.841153       -22.8889
  40   2.0000      -0.834902       -22.7188
  41   2.0000      -0.825912       -22.4742
  42   2.0000      -0.751908       -20.4605
  43   2.0000      -0.734907       -19.9978
  44   2.0000      -0.729714       -19.8565
  45   2.0000      -0.696497       -18.9526
  46   2.0000      -0.687621       -18.7111
  47   2.0000      -0.676639       -18.4123
  48   2.0000      -0.674047       -18.3417
  49   2.0000      -0.662466       -18.0266
  50   2.0000      -0.653738       -17.7891
  51   2.0000      -0.646828       -17.6011
  52   2.0000      -0.640600       -17.4316
  53   2.0000      -0.611647       -16.6438
  54   2.0000      -0.606073       -16.4921
  55   2.0000      -0.602001       -16.3813
  56   2.0000      -0.596657       -16.2359
  57   2.0000      -0.593342       -16.1456
  58   2.0000      -0.575617       -15.6633
  59   2.0000      -0.572071       -15.5668
  60   2.0000      -0.563903       -15.3446
  61   2.0000      -0.554783       -15.0964
  62   2.0000      -0.543648       -14.7934
  63   2.0000      -0.527064       -14.3421
  64   2.0000      -0.520682       -14.1685
  65   2.0000      -0.513420       -13.9709
  66   2.0000      -0.501570       -13.6484
  67   2.0000      -0.488996       -13.3063
  68   2.0000      -0.485474       -13.2104
  69   2.0000      -0.466395       -12.6913
  70   2.0000      -0.457340       -12.4448
  71   2.0000      -0.451004       -12.2725
  72   2.0000      -0.356958        -9.7133
  73   2.0000      -0.349357        -9.5065
  74   2.0000      -0.330414        -8.9910
  75   2.0000      -0.322630        -8.7792
  76   2.0000      -0.319227        -8.6866
  77   0.0000       0.074128         2.0171
  78   0.0000       0.104378         2.8403
  79   0.0000       0.118945         3.2367
  80   0.0000       0.129077         3.5124
  81   0.0000       0.131025         3.5654

MULLIKEN ATOMIC CHARGES
-----------------------
   0 C :   -0.335487
   1 C :    0.051941
   2 O :   -0.375111
   3 C :    0.450416
   4 O :   -0.382855
   5 C :   -0.227761
   6 C :    0.164243
   7 C :   -0.314049
   8 N :   -0.133017
   9 C :    0.194157
  10 S :   -0.436433
  11 N :   -0.217463
  12 C :    0.079067
  13 C :    0.031815
  14 C :   -0.209443
  15 C :   -0.136730
  16 C :   -0.277417
  17 C :    0.323904
  18 O :   -0.356863
  19 C :   -0.284032
  20 H :    0.117350
  21 H :    0.125141
  22 H :    0.095557
  23 H :    0.100664
  24 H :    0.116780
  25 H :    0.120139
  26 H :    0.134248
  27 H :    0.129575
  28 H :    0.198220
  29 H :    0.198533
  30 H :    0.164326
  31 H :    0.173950
  32 H :    0.164287
  33 H :    0.131920
  34 H :    0.240868
  35 H :    0.179563
Sum of atomic charges:   -0.0000000

LOEWDIN ATOMIC CHARGES
----------------------
   0 C :    0.105912
   1 C :   -0.011784
   2 O :    0.274052
   3 C :   -0.416261
   4 O :    0.134744
   5 C :   -0.088643
   6 C :   -0.079148
   7 C :    0.126542
   8 N :    0.405006
   9 C :   -0.458462
  10 S :   -0.034869
  11 N :    0.397212
  12 C :   -0.043527
  13 C :   -0.042340
  14 C :    0.020398
  15 C :    0.041504
  16 C :   -0.001849
  17 C :   -0.193690
  18 O :    0.394986
  19 C :    0.027580
  20 H :   -0.037194
  21 H :   -0.020705
  22 H :   -0.033785
  23 H :   -0.027046
  24 H :   -0.019745
  25 H :   -0.017988
  26 H :   -0.009534
  27 H :   -0.012899
  28 H :   -0.056255
  29 H :   -0.063658
  30 H :   -0.002674
  31 H :   -0.022902
  32 H :   -0.019266
  33 H :   -0.035106
  34 H :   -0.153548
  35 H :   -0.025057

  Mayer bond orders larger than 0.100000
B(  0-C ,  1-C ) :   0.9612 B(  0-C , 20-H ) :   0.9679 B(  0-C , 21-H ) :   0.9780
B(  0-C , 22-H ) :   0.9783 B(  1-C ,  2-O ) :   0.8974 B(  1-C , 23-H ) :   0.9753
B(  1-C , 24-H ) :   0.9827 B(  2-O ,  3-C ) :   1.1084 B(  3-C ,  4-O ) :   2.0641
B(  3-C ,  5-C ) :   0.9791 B(  5-C ,  6-C ) :   1.6569 B(  5-C , 12-C ) :   0.9542
B(  6-C ,  7-C ) :   0.9546 B(  6-C ,  8-N ) :   1.1291 B(  7-C , 25-H ) :   0.9639
B(  7-C , 26-H ) :   0.9720 B(  7-C , 27-H ) :   0.9749 B(  8-N ,  9-C ) :   1.1879
B(  8-N , 28-H ) :   0.9516 B(  9-C , 10-S ) :   1.6149 B(  9-C , 11-N ) :   1.2900
B( 11-N , 12-C ) :   0.9845 B( 11-N , 29-H ) :   0.9503 B( 12-C , 13-C ) :   0.9488
B( 12-C , 30-H ) :   0.9972 B( 13-C , 14-C ) :   1.3872 B( 13-C , 19-C ) :   1.3399
B( 14-C , 15-C ) :   1.4007 B( 14-C , 31-H ) :   0.9579 B( 15-C , 16-C ) :   1.3596
B( 15-C , 32-H ) :   0.9700 B( 16-C , 17-C ) :   1.3317 B( 16-C , 33-H ) :   0.9846
B( 17-C , 18-O ) :   1.1114 B( 17-C , 19-C ) :   1.3673 B( 18-O , 34-H ) :   0.9798
B( 19-C , 35-H ) :   0.9564

MP2 TOTAL ENERGY:    -1274.322162373 Eh
FINAL SINGLE POINT ENERGY     -1274.322162372657

DIPOLE MOMENT
-------------
                                X             Y             Z
Electronic contribution:      9.58035       6.38806       6.15343
Nuclear contribution   :    -10.90172      -7.58509      -6.67402
                        -----------------------------------------
Total Dipole Moment    :     -1.32137      -1.19704      -0.52059
                        -----------------------------------------
Magnitude (a.u.)       :      1.85740
Magnitude (Debye)      :      4.72113

Rotational constants in cm-1:     0.011759     0.009687     0.006894
Rotational constants in MHz :   352.530890   290.400507   206.671648

                             ****ORCA TERMINATED NORMALLY****
TOTAL RUN TIME: 0 days 1 hours 51 minutes 56 seconds 902 msec
