                         Program Version 4.2.0 -  RELEASE  -
|  1> ! ri-mp2 cc-pvtz cc-pvtz/c TightSCF  NoKeepInts
|  2>
|  3> %scf
|  4>   MaxCore 4096
|  5> end
|  6> *xyz  0  1
|  7>     C       14.2626585   15.0881067   16.1283260
|  8>     C       15.6201838   15.0881957   16.8504190
|  9>     O       16.5895388   15.6569633   15.9547078
| 10>     C       17.8464087   15.8336350   16.4489769
| 11>     O       18.6132118   14.8888536   16.5045953
| 12>     C       17.9367772   16.9736808   17.4176610
| 13>     C       17.2958005   18.1553574   17.2423420
| 14>     C       16.4311012   18.5621757   16.0680507
| 15>     N       17.4668398   19.1834429   18.1738712
| 16>     C       18.3599629   19.1539371   19.2131745
| 17>     S       18.5823700   20.4572182   20.2063735
| 18>     N       19.0581668   17.9850029   19.3897292
| 19>     C       18.8121897   16.7321710   18.6495026
| 20>     C       18.1734165   15.6838534   19.5568638
| 21>     C       18.7172570   14.3891508   19.6421276
| 22>     C       18.1197322   13.4128675   20.4566500
| 23>     C       16.9660286   13.7320392   21.1925423
| 24>     C       16.4183045   15.0189271   21.1074428
| 25>     O       15.2969301   15.3274823   21.8058789
| 26>     C       17.0148478   15.9884265   20.2953179
| 27>     H       13.4866115   14.6532239   16.7699382
| 28>     H       14.3174686   14.4949089   15.2068150
| 29>     H       13.9595144   16.1086550   15.8655821
| 30>     H       15.5442127   15.6785734   17.7732053
| 31>     H       15.9074581   14.0617345   17.1172964
| 32>     H       15.4082494   18.1863741   16.1894977
| 33>     H       16.8263306   18.1599526   15.1266436
| 34>     H       16.3775647   19.6513937   15.9492848
| 35>     H       16.9665097   20.0507235   18.0591483
| 36>     H       19.6909388   17.9818017   20.1796501
| 37>     H       19.7835923   16.3485315   18.3046733
| 38>     H       19.5976204   14.1331417   19.0569262
| 39>     H       18.5479251   12.4132428   20.5084335
| 40>     H       16.4999468   12.9797147   21.8202886
| 41>     H       15.0766725   14.5599632   22.3553711
| 42>     H       16.5746580   16.9785777   20.2466930
| 43> *
| 44>
| 45>                          ****END OF INPUT****

CARTESIAN COORDINATES (ANGSTROEM)
---------------------------------
  C     14.262659   15.088107   16.128326
  C     15.620184   15.088196   16.850419
  O     16.589539   15.656963   15.954708
  C     17.846409   15.833635   16.448977
  O     18.613212   14.888854   16.504595
  C     17.936777   16.973681   17.417661
  C     17.295800   18.155357   17.242342
  C     16.431101   18.562176   16.068051
  N     17.466840   19.183443   18.173871
  C     18.359963   19.153937   19.213174
  S     18.582370   20.457218   20.206374
  N     19.058167   17.985003   19.389729
  C     18.812190   16.732171   18.649503
  C     18.173416   15.683853   19.556864
  C     18.717257   14.389151   19.642128
  C     18.119732   13.412868   20.456650
  C     16.966029   13.732039   21.192542
  C     16.418305   15.018927   21.107443
  O     15.296930   15.327482   21.805879
  C     17.014848   15.988426   20.295318
  H     13.486612   14.653224   16.769938
  H     14.317469   14.494909   15.206815
  H     13.959514   16.108655   15.865582
  H     15.544213   15.678573   17.773205
  H     15.907458   14.061735   17.117296
  H     15.408249   18.186374   16.189498
  H     16.826331   18.159953   15.126644
  H     16.377565   19.651394   15.949285
  H     16.966510   20.050724   18.059148
  H     19.690939   17.981802   20.179650
  H     19.783592   16.348531   18.304673
  H     19.597620   14.133142   19.056926
  H     18.547925   12.413243   20.508433
  H     16.499947   12.979715   21.820289
  H     15.076673   14.559963   22.355371
  H     16.574658   16.978578   20.246693

 Total Charge           Charge          ....    0
 Multiplicity           Mult            ....    1
 Number of Electrons    NEL             ....  154
 Basis Dimension        Dim             ....  828

ORBITAL ENERGIES
----------------

  NO   OCC          E(Eh)            E(eV)
   0   2.0000     -91.890507     -2500.4678
   1   2.0000     -20.597491      -560.4862
   2   2.0000     -20.582907      -560.0894
   3   2.0000     -20.557004      -559.3845
   4   2.0000     -15.630279      -425.3215
   5   2.0000     -15.609860      -424.7659
   6   2.0000     -11.393464      -310.0319
   7   2.0000     -11.386083      -309.8311
   8   2.0000     -11.335239      -308.4475
   9   2.0000     -11.313640      -307.8598
  10   2.0000     -11.310060      -307.7624
  11   2.0000     -11.300124      -307.4920
  12   2.0000     -11.263343      -306.4911
  13   2.0000     -11.260842      -306.4231
  14   2.0000     -11.259210      -306.3787
  15   2.0000     -11.253529      -306.2241
  16   2.0000     -11.243232      -305.9439
  17   2.0000     -11.239244      -305.8354
  18   2.0000     -11.236065      -305.7489
  19   2.0000     -11.233861      -305.6889
  20   2.0000      -8.895573      -242.0608
  21   2.0000      -6.577149      -178.9733
  22   2.0000      -6.575140      -178.9187
  23   2.0000      -6.574553      -178.9027
  24   2.0000      -1.452656       -39.5288
  25   2.0000      -1.417295       -38.5665
  26   2.0000      -1.358021       -36.9536
  27   2.0000      -1.341379       -36.5008
  28   2.0000      -1.239489       -33.7282
  29   2.0000      -1.157838       -31.5064
  30   2.0000      -1.122918       -30.5561
  31   2.0000      -1.046024       -28.4638
  32   2.0000      -1.036570       -28.2065
  33   2.0000      -1.015385       -27.6300
  34   2.0000      -1.001604       -27.2550
  35   2.0000      -0.987309       -26.8661
  36   2.0000      -0.925110       -25.1735
  37   2.0000      -0.879091       -23.9213
  38   2.0000      -0.851380       -23.1672
  39   2.0000      -0.841542       -22.8995
  40   2.0000      -0.833829       -22.6896
  41   2.0000      -0.831973       -22.6391
  42   2.0000      -0.757534       -20.6135
  43   2.0000      -0.736484       -20.0407
  44   2.0000      -0.729965       -19.8634
  45   2.0000      -0.695527       -18.9262
  46   2.0000      -0.687676       -18.7126
  47   2.0000      -0.682390       -18.5688
  48   2.0000      -0.675558       -18.3829
  49   2.0000      -0.657933       -17.9033
  50   2.0000      -0.650931       -17.7127
  51   2.0000      -0.642669       -17.4879
  52   2.0000      -0.631044       -17.1716
  53   2.0000      -0.626195       -17.0396
  54   2.0000      -0.606060       -16.4917
  55   2.0000      -0.605006       -16.4631
  56   2.0000      -0.601080       -16.3562
  57   2.0000      -0.580569       -15.7981
  58   2.0000      -0.576609       -15.6903
  59   2.0000      -0.565632       -15.3916
  60   2.0000      -0.558694       -15.2028
  61   2.0000      -0.550476       -14.9792
  62   2.0000      -0.538644       -14.6572
  63   2.0000      -0.524614       -14.2755
  64   2.0000      -0.523124       -14.2349
  65   2.0000      -0.514255       -13.9936
  66   2.0000      -0.502825       -13.6826
  67   2.0000      -0.498261       -13.5584
  68   2.0000      -0.482428       -13.1275
  69   2.0000      -0.466103       -12.6833
  70   2.0000      -0.459831       -12.5126
  71   2.0000      -0.453639       -12.3441
  72   2.0000      -0.356619        -9.7041
  73   2.0000      -0.349220        -9.5028
  74   2.0000      -0.329749        -8.9729
  75   2.0000      -0.320918        -8.7326
  76   2.0000      -0.317832        -8.6487
  77   0.0000       0.069679         1.8960
  78   0.0000       0.103367         2.8128
  79   0.0000       0.118174         3.2157
  80   0.0000       0.131220         3.5707
  81   0.0000       0.134556         3.6615

MULLIKEN ATOMIC CHARGES
-----------------------
   0 C :   -0.263269
   1 C :    0.018671
   2 O :   -0.366836
   3 C :    0.477545
   4 O :   -0.386385
   5 C :   -0.245157
   6 C :    0.151593
   7 C :   -0.289200
   8 N :   -0.124446
   9 C :    0.198039
  10 S :   -0.437053
  11 N :   -0.202003
  12 C :    0.055325
  13 C :    0.055073
  14 C :   -0.168753
  15 C :   -0.133207
  16 C :   -0.278998
  17 C :    0.321688
  18 O :   -0.359486
  19 C :   -0.310661
  20 H :    0.094894
  21 H :    0.106195
  22 H :    0.089866
  23 H :    0.097363
  24 H :    0.116897
  25 H :    0.119872
  26 H :    0.130590
  27 H :    0.112415
  28 H :    0.197484
  29 H :    0.194552
  30 H :    0.157901
  31 H :    0.160427
  32 H :    0.161972
  33 H :    0.131141
  34 H :    0.241359
  35 H :    0.174594
Sum of atomic charges:   -0.0000000

LOEWDIN ATOMIC CHARGES
----------------------
   0 C :    0.110931
   1 C :   -0.020514
   2 O :    0.288514
   3 C :   -0.420249
   4 O :    0.135990
   5 C :   -0.095312
   6 C :   -0.077244
   7 C :    0.127246
   8 N :    0.404291
   9 C :   -0.457965
  10 S :   -0.034487
  11 N :    0.397065
  12 C :   -0.045655
  13 C :   -0.041430
  14 C :    0.022247
  15 C :    0.042940
  16 C :   -0.001636
  17 C :   -0.195104
  18 O :    0.393470
  19 C :    0.027412
  20 H :   -0.023406
  21 H :   -0.023514
  22 H :   -0.031817
  23 H :   -0.036623
  24 H :   -0.025007
  25 H :   -0.012514
  26 H :   -0.006339
  27 H :   -0.017811
  28 H :   -0.058358
  29 H :   -0.063857
  30 H :   -0.003726
  31 H :   -0.023629
  32 H :   -0.019722
  33 H :   -0.035297
  34 H :   -0.153473
  35 H :   -0.025416

  Mayer bond orders larger than 0.100000
B(  0-C ,  1-C ) :   0.9781 B(  0-C , 20-H ) :   0.9760 B(  0-C , 21-H ) :   0.9788
B(  0-C , 22-H ) :   0.9780 B(  1-C ,  2-O ) :   0.8923 B(  1-C , 23-H ) :   0.9631
B(  1-C , 24-H ) :   0.9782 B(  2-O ,  3-C ) :   1.1063 B(  3-C ,  4-O ) :   2.0620
B(  3-C ,  5-C ) :   0.9903 B(  5-C ,  6-C ) :   1.6615 B(  5-C , 12-C ) :   0.9623
B(  6-C ,  7-C ) :   0.9531 B(  6-C ,  8-N ) :   1.1364 B(  7-C , 25-H ) :   0.9637
B(  7-C , 26-H ) :   0.9697 B(  7-C , 27-H ) :   0.9864 B(  8-N ,  9-C ) :   1.1831
B(  8-N , 28-H ) :   0.9498 B(  9-C , 10-S ) :   1.6145 B(  9-C , 11-N ) :   1.2980
B( 11-N , 12-C ) :   0.9936 B( 11-N , 29-H ) :   0.9518 B( 12-C , 13-C ) :   0.9448
B( 12-C , 30-H ) :   0.9988 B( 13-C , 14-C ) :   1.3830 B( 13-C , 19-C ) :   1.3466
B( 14-C , 15-C ) :   1.3951 B( 14-C , 31-H ) :   0.9618 B( 15-C , 16-C ) :   1.3645
B( 15-C , 32-H ) :   0.9704 B( 16-C , 17-C ) :   1.3309 B( 16-C , 33-H ) :   0.9847
B( 17-C , 18-O ) :   1.1107 B( 17-C , 19-C ) :   1.3672 B( 18-O , 34-H ) :   0.9797
B( 19-C , 35-H ) :   0.9585

MP2 TOTAL ENERGY:    -1274.325084992 Eh
FINAL SINGLE POINT ENERGY     -1274.325084992046

DIPOLE MOMENT
-------------
                                X             Y             Z
Electronic contribution:     11.77588       7.80961       7.47723
Nuclear contribution   :    -13.10121      -8.94932      -7.90122
                        -----------------------------------------
Total Dipole Moment    :     -1.32533      -1.13971      -0.42399
                        -----------------------------------------
Magnitude (a.u.)       :      1.79867
Magnitude (Debye)      :      4.57185

Rotational constants in cm-1:     0.011251     0.009364     0.006759
Rotational constants in MHz :   337.306306   280.719736   202.623703

                             ****ORCA TERMINATED NORMALLY****
TOTAL RUN TIME: 0 days 1 hours 56 minutes 35 seconds 189 msec
