                         Program Version 5.0.0 -  RELEASE  -
|  1> ! ri-mp2 cc-pvtz cc-pvtz/c TightSCF NoKeepInts
|  2>
|  3> %scf
|  4>   MaxCore 4096
|  5> end
|  6> *xyz  0  1
|  7>     C       14.6630778   14.4558689   17.1726333
|  8>     C       15.5926654   15.6100128   16.7653475
|  9>     O       16.8725059   15.0248129   16.4591339
| 10>     C       18.0811669   15.6705981   16.5450477
| 11>     O       19.1021918   15.0202882   16.4210251
| 12>     C       18.0862255   16.9023562   17.3870199
| 13>     C       17.5884502   18.0812094   16.9509581
| 14>     C       16.9877454   18.3640574   15.5912713
| 15>     N       17.6542097   19.2089193   17.7717299
| 16>     C       18.2744033   19.2469299   18.9941886
| 17>     S       18.3473155   20.6374032   19.8858312
| 18>     N       18.8246829   18.0715830   19.4459694
| 19>     C       18.7263448   16.7640579   18.7660094
| 20>     C       17.9547650   15.7498517   19.6049619
| 21>     C       18.4107762   14.4225028   19.7011332
| 22>     C       17.6882380   13.4682555   20.4363966
| 23>     C       16.4954632   13.8420292   21.0782140
| 24>     C       16.0334445   15.1610596   20.9784350
| 25>     O       14.8730156   15.5215081   21.5816903
| 26>     C       16.7553307   16.1097224   20.2473946
| 27>     H       15.0654195   13.9310485   18.0488261
| 28>     H       14.5614351   13.7326567   16.3538453
| 29>     H       13.6653195   14.8333004   17.4269982
| 30>     H       15.1885063   16.1398621   15.8936755
| 31>     H       15.6501990   16.3028555   17.6137053
| 32>     H       17.1288874   17.5310891   14.8914653
| 33>     H       17.4591710   19.2426871   15.1323352
| 34>     H       15.9115017   18.5613609   15.6683360
| 35>     H       17.2686834   20.0847050   17.4544293
| 36>     H       19.2559467   18.1256506   20.3602292
| 37>     H       19.7484094   16.3833932   18.6217598
| 38>     H       19.3204858   14.1243264   19.1840804
| 39>     H       18.0493813   12.4429712   20.4969244
| 40>     H       15.9319634   13.1061697   21.6422796
| 41>     H       14.5545973   14.7534040   22.0798950
| 42>     H       16.3750748   17.1234932   20.1808245
| 43> *
| 44>
| 45>                          ****END OF INPUT****

CARTESIAN COORDINATES (ANGSTROEM)
---------------------------------
  C     14.663078   14.455869   17.172633
  C     15.592665   15.610013   16.765348
  O     16.872506   15.024813   16.459134
  C     18.081167   15.670598   16.545048
  O     19.102192   15.020288   16.421025
  C     18.086226   16.902356   17.387020
  C     17.588450   18.081209   16.950958
  C     16.987745   18.364057   15.591271
  N     17.654210   19.208919   17.771730
  C     18.274403   19.246930   18.994189
  S     18.347316   20.637403   19.885831
  N     18.824683   18.071583   19.445969
  C     18.726345   16.764058   18.766009
  C     17.954765   15.749852   19.604962
  C     18.410776   14.422503   19.701133
  C     17.688238   13.468255   20.436397
  C     16.495463   13.842029   21.078214
  C     16.033445   15.161060   20.978435
  O     14.873016   15.521508   21.581690
  C     16.755331   16.109722   20.247395
  H     15.065419   13.931048   18.048826
  H     14.561435   13.732657   16.353845
  H     13.665319   14.833300   17.426998
  H     15.188506   16.139862   15.893676
  H     15.650199   16.302855   17.613705
  H     17.128887   17.531089   14.891465
  H     17.459171   19.242687   15.132335
  H     15.911502   18.561361   15.668336
  H     17.268683   20.084705   17.454429
  H     19.255947   18.125651   20.360229
  H     19.748409   16.383393   18.621760
  H     19.320486   14.124326   19.184080
  H     18.049381   12.442971   20.496924
  H     15.931963   13.106170   21.642280
  H     14.554597   14.753404   22.079895
  H     16.375075   17.123493   20.180824

 Total Charge           Charge          ....    0
 Multiplicity           Mult            ....    1
 Number of Electrons    NEL             ....  154
 Basis Dimension        Dim             ....  828

ORBITAL ENERGIES
----------------

  NO   OCC          E(Eh)            E(eV)
   0   2.0000     -91.889755     -2500.4474
   1   2.0000     -20.602764      -560.6297
   2   2.0000     -20.600238      -560.5610
   3   2.0000     -20.550571      -559.2095
   4   2.0000     -15.626200      -425.2105
   5   2.0000     -15.611906      -424.8216
   6   2.0000     -11.397137      -310.1319
   7   2.0000     -11.386763      -309.8496
   8   2.0000     -11.326998      -308.2233
   9   2.0000     -11.316977      -307.9506
  10   2.0000     -11.315850      -307.9199
  11   2.0000     -11.303170      -307.5749
  12   2.0000     -11.270686      -306.6910
  13   2.0000     -11.264396      -306.5198
  14   2.0000     -11.263851      -306.5050
  15   2.0000     -11.256800      -306.3131
  16   2.0000     -11.246066      -306.0210
  17   2.0000     -11.242542      -305.9251
  18   2.0000     -11.239303      -305.8370
  19   2.0000     -11.230069      -305.5857
  20   2.0000      -8.894878      -242.0419
  21   2.0000      -6.576469      -178.9548
  22   2.0000      -6.574440      -178.8996
  23   2.0000      -6.573868      -178.8840
  24   2.0000      -1.449574       -39.4449
  25   2.0000      -1.420041       -38.6413
  26   2.0000      -1.359852       -37.0034
  27   2.0000      -1.339745       -36.4563
  28   2.0000      -1.239797       -33.7366
  29   2.0000      -1.161614       -31.6091
  30   2.0000      -1.125899       -30.6373
  31   2.0000      -1.049482       -28.5579
  32   2.0000      -1.039637       -28.2900
  33   2.0000      -1.019046       -27.7296
  34   2.0000      -1.005398       -27.3583
  35   2.0000      -0.989429       -26.9237
  36   2.0000      -0.928178       -25.2570
  37   2.0000      -0.881058       -23.9748
  38   2.0000      -0.855355       -23.2754
  39   2.0000      -0.841760       -22.9054
  40   2.0000      -0.837142       -22.7798
  41   2.0000      -0.836815       -22.7709
  42   2.0000      -0.757093       -20.6015
  43   2.0000      -0.739907       -20.1339
  44   2.0000      -0.731617       -19.9083
  45   2.0000      -0.698532       -19.0080
  46   2.0000      -0.689011       -18.7489
  47   2.0000      -0.682136       -18.5619
  48   2.0000      -0.677341       -18.4314
  49   2.0000      -0.660370       -17.9696
  50   2.0000      -0.658060       -17.9067
  51   2.0000      -0.649219       -17.6661
  52   2.0000      -0.640061       -17.4170
  53   2.0000      -0.612298       -16.6615
  54   2.0000      -0.608527       -16.5589
  55   2.0000      -0.604556       -16.4508
  56   2.0000      -0.598955       -16.2984
  57   2.0000      -0.584745       -15.9117
  58   2.0000      -0.578226       -15.7343
  59   2.0000      -0.569424       -15.4948
  60   2.0000      -0.561631       -15.2828
  61   2.0000      -0.556582       -15.1454
  62   2.0000      -0.550371       -14.9763
  63   2.0000      -0.528681       -14.3862
  64   2.0000      -0.518868       -14.1191
  65   2.0000      -0.515224       -14.0200
  66   2.0000      -0.504186       -13.7196
  67   2.0000      -0.502401       -13.6710
  68   2.0000      -0.488544       -13.2940
  69   2.0000      -0.470860       -12.8127
  70   2.0000      -0.452955       -12.3255
  71   2.0000      -0.450963       -12.2713
  72   2.0000      -0.356400        -9.6981
  73   2.0000      -0.352131        -9.5820
  74   2.0000      -0.329500        -8.9661
  75   2.0000      -0.324583        -8.8323
  76   2.0000      -0.318088        -8.6556
  77   0.0000       0.087466         2.3801
  78   0.0000       0.103950         2.8286
  79   0.0000       0.110314         3.0018
  80   0.0000       0.126940         3.4542
  81   0.0000       0.132745         3.6122

MULLIKEN ATOMIC CHARGES
-----------------------
   0 C :   -0.260856
   1 C :    0.002449
   2 O :   -0.304077
   3 C :    0.389564
   4 O :   -0.379743
   5 C :   -0.172183
   6 C :    0.128062
   7 C :   -0.327644
   8 N :   -0.135832
   9 C :    0.205148
  10 S :   -0.441680
  11 N :   -0.215158
  12 C :    0.068965
  13 C :    0.034924
  14 C :   -0.191105
  15 C :   -0.127157
  16 C :   -0.281426
  17 C :    0.314566
  18 O :   -0.359795
  19 C :   -0.286476
  20 H :    0.109584
  21 H :    0.105193
  22 H :    0.088681
  23 H :    0.102842
  24 H :    0.103010
  25 H :    0.124164
  26 H :    0.138686
  27 H :    0.123142
  28 H :    0.195798
  29 H :    0.198739
  30 H :    0.164918
  31 H :    0.165489
  32 H :    0.163624
  33 H :    0.133112
  34 H :    0.242005
  35 H :    0.180466
Sum of atomic charges:    0.0000000

LOEWDIN ATOMIC CHARGES
----------------------
   0 C :    0.112349
   1 C :   -0.026002
   2 O :    0.315561
   3 C :   -0.419110
   4 O :    0.125848
   5 C :   -0.081584
   6 C :   -0.106780
   7 C :    0.124160
   8 N :    0.400559
   9 C :   -0.455437
  10 S :   -0.038459
  11 N :    0.397273
  12 C :   -0.043543
  13 C :   -0.041921
  14 C :    0.024657
  15 C :    0.046246
  16 C :   -0.000339
  17 C :   -0.193832
  18 O :    0.394776
  19 C :    0.027081
  20 H :   -0.022022
  21 H :   -0.026004
  22 H :   -0.025262
  23 H :   -0.037594
  24 H :   -0.038000
  25 H :   -0.009011
  26 H :   -0.009744
  27 H :   -0.016671
  28 H :   -0.058357
  29 H :   -0.063646
  30 H :   -0.002222
  31 H :   -0.021883
  32 H :   -0.018387
  33 H :   -0.034785
  34 H :   -0.152853
  35 H :   -0.025063

  Mayer bond orders larger than 0.100000
B(  0-C ,  1-C ) :   0.9831 B(  0-C , 20-H ) :   0.9742 B(  0-C , 21-H ) :   0.9803
B(  0-C , 22-H ) :   0.9764 B(  1-C ,  2-O ) :   0.9153 B(  1-C , 23-H ) :   0.9748
B(  1-C , 24-H ) :   0.9589 B(  2-O ,  3-C ) :   1.1725 B(  3-C ,  4-O ) :   2.0931
B(  3-C ,  5-C ) :   0.9198 B(  5-C ,  6-C ) :   1.6933 B(  5-C , 12-C ) :   0.9627
B(  6-C ,  7-C ) :   0.9415 B(  6-C ,  8-N ) :   1.1124 B(  7-C , 25-H ) :   0.9821
B(  7-C , 26-H ) :   0.9705 B(  7-C , 27-H ) :   0.9659 B(  8-N ,  9-C ) :   1.1968
B(  8-N , 28-H ) :   0.9528 B(  9-C , 10-S ) :   1.6107 B(  9-C , 11-N ) :   1.2862
B( 11-N , 12-C ) :   0.9976 B( 11-N , 29-H ) :   0.9487 B( 12-C , 13-C ) :   0.9438
B( 12-C , 30-H ) :   0.9971 B( 13-C , 14-C ) :   1.3877 B( 13-C , 19-C ) :   1.3397
B( 14-C , 15-C ) :   1.3975 B( 14-C , 31-H ) :   0.9622 B( 15-C , 16-C ) :   1.3613
B( 15-C , 32-H ) :   0.9702 B( 16-C , 17-C ) :   1.3297 B( 16-C , 33-H ) :   0.9846
B( 17-C , 18-O ) :   1.1069 B( 17-C , 19-C ) :   1.3683 B( 18-O , 34-H ) :   0.9790
B( 19-C , 35-H ) :   0.9556

MP2 TOTAL ENERGY:    -1274.330662294 Eh
FINAL SINGLE POINT ENERGY     -1274.330662293680

DIPOLE MOMENT
-------------
                                X             Y             Z
Electronic contribution:     10.51563       8.12034       6.28080
Nuclear contribution   :    -12.05687      -9.12526      -6.78283
                        -----------------------------------------
Total Dipole Moment    :     -1.54124      -1.00492      -0.50203
                        -----------------------------------------
Magnitude (a.u.)       :      1.90717
Magnitude (Debye)      :      4.84764

Rotational constants in cm-1:     0.012564     0.009004     0.006916
Rotational constants in MHz :   376.656534   269.940208   207.329563

                             ****ORCA TERMINATED NORMALLY****
TOTAL RUN TIME: 0 days 2 hours 6 minutes 26 seconds 423 msec
