                         Program Version 4.2.0 -  RELEASE  -
|  1> ! ri-mp2 cc-pvtz cc-pvtz/c TightSCF  NoKeepInts
|  2>
|  3> %scf
|  4>   MaxCore 4096
|  5> end
|  6> *xyz  0  1
|  7>     C       14.9992797   14.4536542   16.7381027
|  8>     C       16.4721222   13.9967184   16.6318376
|  9>     O       17.4297924   15.0736448   16.4651273
| 10>     C       17.0844709   16.3906984   16.3293001
| 11>     O       16.3137582   16.7716477   15.4657257
| 12>     C       17.6899090   17.2730515   17.3871107
| 13>     C       17.4903386   18.6157442   17.4138087
| 14>     C       16.6643014   19.4404788   16.4498482
| 15>     N       18.1055295   19.3975593   18.3959173
| 16>     C       19.0068745   18.9343533   19.3163011
| 17>     S       19.7594794   19.9432246   20.3894920
| 18>     N       19.2597207   17.5867909   19.3004734
| 19>     C       18.5520037   16.5978324   18.4677972
| 20>     C       17.7434472   15.6668546   19.3664059
| 21>     C       18.2308389   14.3830020   19.6753308
| 22>     C       17.4894566   13.5146189   20.4941109
| 23>     C       16.2525199   13.9347067   21.0120214
| 24>     C       15.7698707   15.2168390   20.7162587
| 25>     O       14.5769534   15.6263196   21.2158860
| 26>     C       16.5103364   16.0793914   19.9023444
| 27>     H       14.8700183   15.2006814   17.5310710
| 28>     H       14.3567173   13.5981336   16.9779614
| 29>     H       14.6438076   14.8760337   15.7899796
| 30>     H       16.7298243   13.4312481   17.5360204
| 31>     H       16.5633014   13.3070691   15.7828389
| 32>     H       15.6167297   19.1133179   16.4623723
| 33>     H       17.0323749   19.3172810   15.4232260
| 34>     H       16.6790426   20.5123622   16.6792449
| 35>     H       17.9349294   20.3902273   18.4199459
| 36>     H       19.9017170   17.2709425   20.0158718
| 37>     H       19.3152524   15.9993714   17.9504629
| 38>     H       19.1858670   14.0548156   19.2734358
| 39>     H       17.8741193   12.5228314   20.7262795
| 40>     H       15.6761542   13.2678542   21.6450276
| 41>     H       14.2441141   14.9221814   21.7926120
| 42>     H       16.1220271   17.0705184   19.6944498
| 43> *
| 44>
| 45>                          ****END OF INPUT****

CARTESIAN COORDINATES (ANGSTROEM)
---------------------------------
  C     14.999280   14.453654   16.738103
  C     16.472122   13.996718   16.631838
  O     17.429792   15.073645   16.465127
  C     17.084471   16.390698   16.329300
  O     16.313758   16.771648   15.465726
  C     17.689909   17.273052   17.387111
  C     17.490339   18.615744   17.413809
  C     16.664301   19.440479   16.449848
  N     18.105529   19.397559   18.395917
  C     19.006874   18.934353   19.316301
  S     19.759479   19.943225   20.389492
  N     19.259721   17.586791   19.300473
  C     18.552004   16.597832   18.467797
  C     17.743447   15.666855   19.366406
  C     18.230839   14.383002   19.675331
  C     17.489457   13.514619   20.494111
  C     16.252520   13.934707   21.012021
  C     15.769871   15.216839   20.716259
  O     14.576953   15.626320   21.215886
  C     16.510336   16.079391   19.902344
  H     14.870018   15.200681   17.531071
  H     14.356717   13.598134   16.977961
  H     14.643808   14.876034   15.789980
  H     16.729824   13.431248   17.536020
  H     16.563301   13.307069   15.782839
  H     15.616730   19.113318   16.462372
  H     17.032375   19.317281   15.423226
  H     16.679043   20.512362   16.679245
  H     17.934929   20.390227   18.419946
  H     19.901717   17.270943   20.015872
  H     19.315252   15.999371   17.950463
  H     19.185867   14.054816   19.273436
  H     17.874119   12.522831   20.726280
  H     15.676154   13.267854   21.645028
  H     14.244114   14.922181   21.792612
  H     16.122027   17.070518   19.694450

 Total Charge           Charge          ....    0
 Multiplicity           Mult            ....    1
 Number of Electrons    NEL             ....  154
 Basis Dimension        Dim             ....  828

ORBITAL ENERGIES
----------------

  NO   OCC          E(Eh)            E(eV)
   0   2.0000     -91.889482     -2500.4399
   1   2.0000     -20.601587      -560.5977
   2   2.0000     -20.586281      -560.1812
   3   2.0000     -20.542507      -558.9900
   4   2.0000     -15.629698      -425.3057
   5   2.0000     -15.609035      -424.7434
   6   2.0000     -11.393795      -310.0409
   7   2.0000     -11.384597      -309.7906
   8   2.0000     -11.336514      -308.4822
   9   2.0000     -11.318964      -308.0047
  10   2.0000     -11.310137      -307.7645
  11   2.0000     -11.298188      -307.4393
  12   2.0000     -11.264263      -306.5162
  13   2.0000     -11.260490      -306.4135
  14   2.0000     -11.258233      -306.3521
  15   2.0000     -11.252531      -306.1969
  16   2.0000     -11.247872      -306.0702
  17   2.0000     -11.242642      -305.9278
  18   2.0000     -11.242538      -305.9250
  19   2.0000     -11.223167      -305.3979
  20   2.0000      -8.894544      -242.0329
  21   2.0000      -6.576118      -178.9453
  22   2.0000      -6.574113      -178.8907
  23   2.0000      -6.573527      -178.8748
  24   2.0000      -1.441408       -39.2227
  25   2.0000      -1.421215       -38.6732
  26   2.0000      -1.350261       -36.7425
  27   2.0000      -1.340836       -36.4860
  28   2.0000      -1.239617       -33.7317
  29   2.0000      -1.161906       -31.6171
  30   2.0000      -1.121002       -30.5040
  31   2.0000      -1.045566       -28.4513
  32   2.0000      -1.031755       -28.0755
  33   2.0000      -1.020167       -27.7602
  34   2.0000      -0.997212       -27.1355
  35   2.0000      -0.985286       -26.8110
  36   2.0000      -0.924493       -25.1567
  37   2.0000      -0.895888       -24.3783
  38   2.0000      -0.848721       -23.0949
  39   2.0000      -0.841721       -22.9044
  40   2.0000      -0.838176       -22.8079
  41   2.0000      -0.819077       -22.2882
  42   2.0000      -0.744148       -20.2493
  43   2.0000      -0.734176       -19.9779
  44   2.0000      -0.719219       -19.5710
  45   2.0000      -0.699998       -19.0479
  46   2.0000      -0.689565       -18.7640
  47   2.0000      -0.673514       -18.3272
  48   2.0000      -0.670761       -18.2523
  49   2.0000      -0.659328       -17.9412
  50   2.0000      -0.653740       -17.7892
  51   2.0000      -0.644022       -17.5247
  52   2.0000      -0.637771       -17.3546
  53   2.0000      -0.620063       -16.8728
  54   2.0000      -0.612020       -16.6539
  55   2.0000      -0.603870       -16.4321
  56   2.0000      -0.600897       -16.3512
  57   2.0000      -0.581245       -15.8165
  58   2.0000      -0.571600       -15.5540
  59   2.0000      -0.567275       -15.4363
  60   2.0000      -0.549998       -14.9662
  61   2.0000      -0.540910       -14.7189
  62   2.0000      -0.534575       -14.5465
  63   2.0000      -0.529295       -14.4029
  64   2.0000      -0.522102       -14.2071
  65   2.0000      -0.514767       -14.0075
  66   2.0000      -0.503543       -13.7021
  67   2.0000      -0.493608       -13.4318
  68   2.0000      -0.489101       -13.3091
  69   2.0000      -0.463197       -12.6042
  70   2.0000      -0.454485       -12.3672
  71   2.0000      -0.441039       -12.0013
  72   2.0000      -0.355040        -9.6611
  73   2.0000      -0.353529        -9.6200
  74   2.0000      -0.329842        -8.9755
  75   2.0000      -0.325870        -8.8674
  76   2.0000      -0.317281        -8.6337
  77   0.0000       0.073831         2.0090
  78   0.0000       0.100706         2.7403
  79   0.0000       0.122119         3.3230
  80   0.0000       0.130146         3.5415
  81   0.0000       0.133049         3.6205

MULLIKEN ATOMIC CHARGES
-----------------------
   0 C :   -0.319854
   1 C :    0.036649
   2 O :   -0.386822
   3 C :    0.477339
   4 O :   -0.415902
   5 C :   -0.266601
   6 C :    0.167890
   7 C :   -0.270386
   8 N :   -0.123523
   9 C :    0.216123
  10 S :   -0.441194
  11 N :   -0.210946
  12 C :    0.079761
  13 C :    0.071685
  14 C :   -0.210383
  15 C :   -0.125776
  16 C :   -0.275811
  17 C :    0.326278
  18 O :   -0.358658
  19 C :   -0.293978
  20 H :    0.103776
  21 H :    0.102762
  22 H :    0.127785
  23 H :    0.107101
  24 H :    0.115402
  25 H :    0.130134
  26 H :    0.133266
  27 H :    0.095357
  28 H :    0.197223
  29 H :    0.195563
  30 H :    0.150011
  31 H :    0.151515
  32 H :    0.165086
  33 H :    0.133238
  34 H :    0.241864
  35 H :    0.174023
Sum of atomic charges:   -0.0000000

LOEWDIN ATOMIC CHARGES
----------------------
   0 C :    0.104559
   1 C :   -0.009565
   2 O :    0.287531
   3 C :   -0.418545
   4 O :    0.110635
   5 C :   -0.098021
   6 C :   -0.058577
   7 C :    0.131527
   8 N :    0.407048
   9 C :   -0.455131
  10 S :   -0.035720
  11 N :    0.396054
  12 C :   -0.052269
  13 C :   -0.036313
  14 C :    0.014124
  15 C :    0.040592
  16 C :   -0.002230
  17 C :   -0.189366
  18 O :    0.396431
  19 C :    0.031526
  20 H :   -0.029847
  21 H :   -0.025026
  22 H :   -0.025026
  23 H :   -0.030059
  24 H :   -0.028167
  25 H :   -0.005222
  26 H :   -0.003242
  27 H :   -0.023406
  28 H :   -0.057450
  29 H :   -0.065184
  30 H :   -0.009870
  31 H :   -0.029448
  32 H :   -0.020194
  33 H :   -0.034738
  34 H :   -0.152632
  35 H :   -0.024781

  Mayer bond orders larger than 0.100000
B(  0-C ,  1-C ) :   0.9654 B(  0-C , 20-H ) :   0.9724 B(  0-C , 21-H ) :   0.9752
B(  0-C , 22-H ) :   0.9717 B(  1-C ,  2-O ) :   0.8871 B(  1-C , 23-H ) :   0.9721
B(  1-C , 24-H ) :   0.9850 B(  2-O ,  3-C ) :   1.1216 B(  3-C ,  4-O ) :   2.0026
B(  3-C ,  5-C ) :   1.0520 B(  5-C ,  6-C ) :   1.6455 B(  5-C , 12-C ) :   0.9722
B(  6-C ,  7-C ) :   0.9656 B(  6-C ,  8-N ) :   1.1632 B(  7-C , 25-H ) :   0.9609
B(  7-C , 26-H ) :   0.9594 B(  7-C , 27-H ) :   0.9903 B(  8-N ,  9-C ) :   1.1842
B(  8-N , 28-H ) :   0.9477 B(  9-C , 10-S ) :   1.6028 B(  9-C , 11-N ) :   1.3087
B( 11-N , 12-C ) :   0.9726 B( 11-N , 29-H ) :   0.9515 B( 12-C , 13-C ) :   0.9423
B( 12-C , 30-H ) :   1.0009 B( 13-C , 14-C ) :   1.3481 B( 13-C , 19-C ) :   1.3608
B( 14-C , 15-C ) :   1.3890 B( 14-C , 31-H ) :   0.9748 B( 15-C , 16-C ) :   1.3603
B( 15-C , 32-H ) :   0.9695 B( 16-C , 17-C ) :   1.3323 B( 16-C , 33-H ) :   0.9838
B( 17-C , 18-O ) :   1.1083 B( 17-C , 19-C ) :   1.3624 B( 18-O , 34-H ) :   0.9793
B( 19-C , 35-H ) :   0.9578

MP2 TOTAL ENERGY:    -1274.337252914 Eh
FINAL SINGLE POINT ENERGY     -1274.337252913530

DIPOLE MOMENT
-------------
                                X             Y             Z
Electronic contribution:      9.77276       9.36513       6.14129
Nuclear contribution   :    -10.73595     -11.07572      -6.13353
                        -----------------------------------------
Total Dipole Moment    :     -0.96319      -1.71059       0.00775
                        -----------------------------------------
Magnitude (a.u.)       :      1.96313
Magnitude (Debye)      :      4.98989

Rotational constants in cm-1:     0.012774     0.008809     0.006512
Rotational constants in MHz :   382.945886   264.077780   195.226309

                             ****ORCA TERMINATED NORMALLY****
TOTAL RUN TIME: 0 days 1 hours 53 minutes 30 seconds 712 msec
