                         Program Version 5.0.0 -  RELEASE  -
|  1> ! ri-mp2 cc-pvtz cc-pvtz/c TightSCF NoKeepInts
|  2>
|  3> %scf
|  4>   MaxCore 4096
|  5> end
|  6> *xyz  0  1
|  7>     C       15.7886361   13.9026852   14.7999980
|  8>     C       15.0354919   15.0033733   15.5803218
|  9>     O       15.9067746   15.9845331   16.1937232
| 10>     C       17.0619703   15.7027206   16.8740890
| 11>     O       17.4991469   14.5747576   17.0246952
| 12>     C       17.6037857   16.8655697   17.6585450
| 13>     C       17.2974988   18.1714874   17.4357827
| 14>     C       16.3834991   18.7520441   16.3756680
| 15>     N       17.9190668   19.1695720   18.1940749
| 16>     C       18.9560652   18.9621382   19.0645684
| 17>     S       19.7265467   20.2169085   19.8180206
| 18>     N       19.3221941   17.6577296   19.2771053
| 19>     C       18.5830169   16.4840918   18.7758334
| 20>     C       17.8624273   15.7785426   19.9220986
| 21>     C       18.0717929   14.4071693   20.1580946
| 22>     C       17.4108046   13.7517055   21.2104204
| 23>     C       16.5316491   14.4730365   22.0358423
| 24>     C       16.3171349   15.8381213   21.8021753
| 25>     O       15.4641502   16.5361024   22.5938364
| 26>     C       16.9762016   16.4876624   20.7537396
| 27>     H       16.6050333   14.3308780   14.2053651
| 28>     H       15.1030514   13.3891271   14.1153651
| 29>     H       16.2031007   13.1427308   15.4735066
| 30>     H       14.3507757   15.5228142   14.8977932
| 31>     H       14.4250108   14.5237909   16.3567872
| 32>     H       15.3359135   18.5095254   16.5936471
| 33>     H       16.6270257   18.3459923   15.3860310
| 34>     H       16.4602529   19.8435955   16.3016151
| 35>     H       17.6640490   20.1337992   18.0523971
| 36>     H       20.0682352   17.5281979   19.9482817
| 37>     H       19.3195532   15.7861131   18.3521455
| 38>     H       18.7377435   13.8430411   19.5096247
| 39>     H       17.5768076   12.6890638   21.3776229
| 40>     H       16.0175539   13.9703439   22.8481435
| 41>     H       15.1369489   15.9277208   23.2731595
| 42>     H       16.7980911   17.5453151   20.5938820
| 43> *
| 44>
| 45>                          ****END OF INPUT****

CARTESIAN COORDINATES (ANGSTROEM)
---------------------------------
  C     15.788636   13.902685   14.799998
  C     15.035492   15.003373   15.580322
  O     15.906775   15.984533   16.193723
  C     17.061970   15.702721   16.874089
  O     17.499147   14.574758   17.024695
  C     17.603786   16.865570   17.658545
  C     17.297499   18.171487   17.435783
  C     16.383499   18.752044   16.375668
  N     17.919067   19.169572   18.194075
  C     18.956065   18.962138   19.064568
  S     19.726547   20.216908   19.818021
  N     19.322194   17.657730   19.277105
  C     18.583017   16.484092   18.775833
  C     17.862427   15.778543   19.922099
  C     18.071793   14.407169   20.158095
  C     17.410805   13.751705   21.210420
  C     16.531649   14.473036   22.035842
  C     16.317135   15.838121   21.802175
  O     15.464150   16.536102   22.593836
  C     16.976202   16.487662   20.753740
  H     16.605033   14.330878   14.205365
  H     15.103051   13.389127   14.115365
  H     16.203101   13.142731   15.473507
  H     14.350776   15.522814   14.897793
  H     14.425011   14.523791   16.356787
  H     15.335914   18.509525   16.593647
  H     16.627026   18.345992   15.386031
  H     16.460253   19.843595   16.301615
  H     17.664049   20.133799   18.052397
  H     20.068235   17.528198   19.948282
  H     19.319553   15.786113   18.352145
  H     18.737743   13.843041   19.509625
  H     17.576808   12.689064   21.377623
  H     16.017554   13.970344   22.848143
  H     15.136949   15.927721   23.273159
  H     16.798091   17.545315   20.593882

 Total Charge           Charge          ....    0
 Multiplicity           Mult            ....    1
 Number of Electrons    NEL             ....  154
 Basis Dimension        Dim             ....  828

ORBITAL ENERGIES
----------------

  NO   OCC          E(Eh)            E(eV)
   0   2.0000     -91.887255     -2500.3793
   1   2.0000     -20.601984      -560.6085
   2   2.0000     -20.590618      -560.2992
   3   2.0000     -20.544892      -559.0549
   4   2.0000     -15.627277      -425.2398
   5   2.0000     -15.605859      -424.6570
   6   2.0000     -11.398078      -310.1575
   7   2.0000     -11.382050      -309.7213
   8   2.0000     -11.334909      -308.4386
   9   2.0000     -11.306394      -307.6626
  10   2.0000     -11.305450      -307.6369
  11   2.0000     -11.304635      -307.6148
  12   2.0000     -11.259727      -306.3928
  13   2.0000     -11.258099      -306.3484
  14   2.0000     -11.252352      -306.1921
  15   2.0000     -11.246611      -306.0358
  16   2.0000     -11.236214      -305.7529
  17   2.0000     -11.232253      -305.6451
  18   2.0000     -11.229328      -305.5655
  19   2.0000     -11.224708      -305.4398
  20   2.0000      -8.892325      -241.9725
  21   2.0000      -6.573905      -178.8850
  22   2.0000      -6.571897      -178.8304
  23   2.0000      -6.571313      -178.8145
  24   2.0000      -1.448384       -39.4125
  25   2.0000      -1.410347       -38.3775
  26   2.0000      -1.357322       -36.9346
  27   2.0000      -1.338404       -36.4198
  28   2.0000      -1.236032       -33.6341
  29   2.0000      -1.150923       -31.3182
  30   2.0000      -1.118179       -30.4272
  31   2.0000      -1.041366       -28.3370
  32   2.0000      -1.034111       -28.1396
  33   2.0000      -1.008357       -27.4388
  34   2.0000      -0.996166       -27.1071
  35   2.0000      -0.981682       -26.7129
  36   2.0000      -0.920606       -25.0510
  37   2.0000      -0.896279       -24.3890
  38   2.0000      -0.847171       -23.0527
  39   2.0000      -0.834827       -22.7168
  40   2.0000      -0.826815       -22.4988
  41   2.0000      -0.816994       -22.2315
  42   2.0000      -0.745616       -20.2892
  43   2.0000      -0.729299       -19.8452
  44   2.0000      -0.723824       -19.6962
  45   2.0000      -0.689970       -18.7750
  46   2.0000      -0.684021       -18.6131
  47   2.0000      -0.678387       -18.4599
  48   2.0000      -0.670087       -18.2340
  49   2.0000      -0.664843       -18.0913
  50   2.0000      -0.644953       -17.5501
  51   2.0000      -0.641883       -17.4665
  52   2.0000      -0.633279       -17.2324
  53   2.0000      -0.606735       -16.5101
  54   2.0000      -0.598938       -16.2979
  55   2.0000      -0.598060       -16.2740
  56   2.0000      -0.593707       -16.1556
  57   2.0000      -0.586254       -15.9528
  58   2.0000      -0.571702       -15.5568
  59   2.0000      -0.567511       -15.4428
  60   2.0000      -0.559192       -15.2164
  61   2.0000      -0.543578       -14.7915
  62   2.0000      -0.536394       -14.5960
  63   2.0000      -0.521894       -14.2015
  64   2.0000      -0.516351       -14.0506
  65   2.0000      -0.510733       -13.8978
  66   2.0000      -0.500681       -13.6242
  67   2.0000      -0.494559       -13.4576
  68   2.0000      -0.479565       -13.0496
  69   2.0000      -0.461414       -12.5557
  70   2.0000      -0.456244       -12.4150
  71   2.0000      -0.447878       -12.1874
  72   2.0000      -0.353198        -9.6110
  73   2.0000      -0.342884        -9.3303
  74   2.0000      -0.326411        -8.8821
  75   2.0000      -0.314723        -8.5640
  76   2.0000      -0.312751        -8.5104
  77   0.0000       0.077374         2.1055
  78   0.0000       0.114453         3.1144
  79   0.0000       0.121290         3.3005
  80   0.0000       0.136772         3.7217
  81   0.0000       0.140434         3.8214

MULLIKEN ATOMIC CHARGES
-----------------------
   0 C :   -0.299680
   1 C :    0.050292
   2 O :   -0.352106
   3 C :    0.443167
   4 O :   -0.432499
   5 C :   -0.153078
   6 C :    0.138544
   7 C :   -0.285826
   8 N :   -0.120783
   9 C :    0.201109
  10 S :   -0.440506
  11 N :   -0.196275
  12 C :    0.031821
  13 C :    0.058430
  14 C :   -0.162019
  15 C :   -0.134119
  16 C :   -0.278973
  17 C :    0.311534
  18 O :   -0.359120
  19 C :   -0.270659
  20 H :    0.094405
  21 H :    0.095955
  22 H :    0.127125
  23 H :    0.099473
  24 H :    0.092436
  25 H :    0.128749
  26 H :    0.123431
  27 H :    0.102265
  28 H :    0.196530
  29 H :    0.193155
  30 H :    0.153727
  31 H :    0.153175
  32 H :    0.158552
  33 H :    0.127618
  34 H :    0.239840
  35 H :    0.164309
Sum of atomic charges:    0.0000000

LOEWDIN ATOMIC CHARGES
----------------------
   0 C :    0.103018
   1 C :   -0.009867
   2 O :    0.296512
   3 C :   -0.413271
   4 O :    0.111350
   5 C :   -0.089786
   6 C :   -0.066201
   7 C :    0.124441
   8 N :    0.404552
   9 C :   -0.459143
  10 S :   -0.036947
  11 N :    0.397850
  12 C :   -0.046380
  13 C :   -0.038484
  14 C :    0.021650
  15 C :    0.040590
  16 C :   -0.002452
  17 C :   -0.192399
  18 O :    0.392995
  19 C :    0.028922
  20 H :   -0.027540
  21 H :   -0.028823
  22 H :   -0.024923
  23 H :   -0.025367
  24 H :   -0.027872
  25 H :   -0.009505
  26 H :   -0.009418
  27 H :   -0.021214
  28 H :   -0.059388
  29 H :   -0.063743
  30 H :   -0.005388
  31 H :   -0.025570
  32 H :   -0.021469
  33 H :   -0.036562
  34 H :   -0.155081
  35 H :   -0.025085

  Mayer bond orders larger than 0.100000
B(  0-C ,  1-C ) :   0.9685 B(  0-C , 20-H ) :   0.9760 B(  0-C , 21-H ) :   0.9767
B(  0-C , 22-H ) :   0.9713 B(  1-C ,  2-O ) :   0.9038 B(  1-C , 23-H ) :   0.9835
B(  1-C , 24-H ) :   0.9800 B(  2-O ,  3-C ) :   1.1547 B(  3-C ,  4-O ) :   1.9638
B(  3-C ,  5-C ) :   1.0619 B(  5-C ,  6-C ) :   1.6460 B(  5-C , 12-C ) :   0.9653
B(  6-C ,  7-C ) :   0.9557 B(  6-C ,  8-N ) :   1.1482 B(  7-C , 25-H ) :   0.9631
B(  7-C , 26-H ) :   0.9665 B(  7-C , 27-H ) :   0.9920 B(  8-N ,  9-C ) :   1.1787
B(  8-N , 28-H ) :   0.9492 B(  9-C , 10-S ) :   1.6098 B(  9-C , 11-N ) :   1.3041
B( 11-N , 12-C ) :   0.9940 B( 11-N , 29-H ) :   0.9521 B( 12-C , 13-C ) :   0.9477
B( 12-C , 30-H ) :   1.0000 B( 13-C , 14-C ) :   1.3753 B( 13-C , 19-C ) :   1.3701
B( 14-C , 15-C ) :   1.3949 B( 14-C , 31-H ) :   0.9651 B( 15-C , 16-C ) :   1.3627
B( 15-C , 32-H ) :   0.9715 B( 16-C , 17-C ) :   1.3314 B( 16-C , 33-H ) :   0.9861
B( 17-C , 18-O ) :   1.1079 B( 17-C , 19-C ) :   1.3794 B( 18-O , 34-H ) :   0.9808
B( 19-C , 35-H ) :   0.9584

MP2 TOTAL ENERGY:    -1274.340118773 Eh
FINAL SINGLE POINT ENERGY     -1274.340118772930

DIPOLE MOMENT
-------------
                                X             Y             Z
Electronic contribution:      9.58776       9.86403      11.63641
Nuclear contribution   :    -11.27017     -11.01251     -12.65447
                        -----------------------------------------
Total Dipole Moment    :     -1.68242      -1.14848      -1.01806
                        -----------------------------------------
Magnitude (a.u.)       :      2.27727
Magnitude (Debye)      :      5.78837

Rotational constants in cm-1:     0.010585     0.008834     0.005795
Rotational constants in MHz :   317.331801   264.825832   173.724880

                             ****ORCA TERMINATED NORMALLY****
TOTAL RUN TIME: 0 days 1 hours 58 minutes 17 seconds 256 msec
