                         Program Version 4.2.0 -  RELEASE  -
|  1> ! ri-mp2 cc-pvtz cc-pvtz/c TightSCF  NoKeepInts
|  2>
|  3> %scf
|  4>   MaxCore 4096
|  5> end
|  6> *xyz  0  1
|  7>     C       15.1506062   15.2615147   17.5229236
|  8>     C       15.5390102   15.4435594   16.0432771
|  9>     O       16.9333324   15.1360659   15.8090928
| 10>     C       18.0405099   15.6008714   16.4820175
| 11>     O       19.0443352   14.9131427   16.5163947
| 12>     C       17.9089459   16.8011471   17.3688948
| 13>     C       17.4075759   17.9882503   16.9476697
| 14>     C       16.9575687   18.3610025   15.5507386
| 15>     N       17.4152318   19.0919576   17.8037301
| 16>     C       18.0500591   19.1360265   19.0165519
| 17>     S       18.0893956   20.5154196   19.9273827
| 18>     N       18.6589964   17.9791490   19.4329553
| 19>     C       18.5622503   16.6726044   18.7522319
| 20>     C       17.8599167   15.6378331   19.6307577
| 21>     C       18.2933910   14.2987712   19.6216782
| 22>     C       17.6548529   13.3306601   20.4141319
| 23>     C       16.5723500   13.7023739   21.2285915
| 24>     C       16.1381778   15.0342493   21.2456153
| 25>     O       15.0878244   15.3955231   22.0245414
| 26>     C       16.7760512   15.9963731   20.4560684
| 27>     H       15.6526552   14.3881119   17.9591160
| 28>     H       14.0685930   15.1073110   17.6137419
| 29>     H       15.4002031   16.1497145   18.1117163
| 30>     H       14.9399355   14.7469840   15.4423069
| 31>     H       15.2744450   16.4504757   15.7111735
| 32>     H       17.1529220   17.5669898   14.8200928
| 33>     H       17.5024899   19.2446992   15.1941063
| 34>     H       15.8875824   18.6001545   15.5255478
| 35>     H       16.9975889   19.9592165   17.5047283
| 36>     H       19.1113343   18.0359202   20.3367859
| 37>     H       19.5911232   16.3169904   18.5925961
| 38>     H       19.1260256   14.0034068   18.9865498
| 39>     H       17.9989670   12.2979752   20.3910893
| 40>     H       16.0749306   12.9570124   21.8403308
| 41>     H       14.8131361   14.6115852   22.5237621
| 42>     H       16.4146869   17.0189580   20.4851110
| 43> *
| 44>
| 45>                          ****END OF INPUT****

CARTESIAN COORDINATES (ANGSTROEM)
---------------------------------
  C     15.150606   15.261515   17.522924
  C     15.539010   15.443559   16.043277
  O     16.933332   15.136066   15.809093
  C     18.040510   15.600871   16.482018
  O     19.044335   14.913143   16.516395
  C     17.908946   16.801147   17.368895
  C     17.407576   17.988250   16.947670
  C     16.957569   18.361003   15.550739
  N     17.415232   19.091958   17.803730
  C     18.050059   19.136026   19.016552
  S     18.089396   20.515420   19.927383
  N     18.658996   17.979149   19.432955
  C     18.562250   16.672604   18.752232
  C     17.859917   15.637833   19.630758
  C     18.293391   14.298771   19.621678
  C     17.654853   13.330660   20.414132
  C     16.572350   13.702374   21.228592
  C     16.138178   15.034249   21.245615
  O     15.087824   15.395523   22.024541
  C     16.776051   15.996373   20.456068
  H     15.652655   14.388112   17.959116
  H     14.068593   15.107311   17.613742
  H     15.400203   16.149715   18.111716
  H     14.939936   14.746984   15.442307
  H     15.274445   16.450476   15.711173
  H     17.152922   17.566990   14.820093
  H     17.502490   19.244699   15.194106
  H     15.887582   18.600154   15.525548
  H     16.997589   19.959216   17.504728
  H     19.111334   18.035920   20.336786
  H     19.591123   16.316990   18.592596
  H     19.126026   14.003407   18.986550
  H     17.998967   12.297975   20.391089
  H     16.074931   12.957012   21.840331
  H     14.813136   14.611585   22.523762
  H     16.414687   17.018958   20.485111

 Total Charge           Charge          ....    0
 Multiplicity           Mult            ....    1
 Number of Electrons    NEL             ....  154
 Basis Dimension        Dim             ....  828

ORBITAL ENERGIES
----------------

  NO   OCC          E(Eh)            E(eV)
   0   2.0000     -91.891007     -2500.4814
   1   2.0000     -20.599095      -560.5299
   2   2.0000     -20.597481      -560.4860
   3   2.0000     -20.548693      -559.1584
   4   2.0000     -15.629060      -425.2883
   5   2.0000     -15.611359      -424.8067
   6   2.0000     -11.400778      -310.2309
   7   2.0000     -11.387220      -309.8620
   8   2.0000     -11.334670      -308.4320
   9   2.0000     -11.314053      -307.8710
  10   2.0000     -11.313777      -307.8635
  11   2.0000     -11.308746      -307.7266
  12   2.0000     -11.270138      -306.6760
  13   2.0000     -11.268710      -306.6372
  14   2.0000     -11.261570      -306.4429
  15   2.0000     -11.254338      -306.2461
  16   2.0000     -11.243785      -305.9589
  17   2.0000     -11.239355      -305.8384
  18   2.0000     -11.235805      -305.7418
  19   2.0000     -11.228981      -305.5561
  20   2.0000      -8.896108      -242.0754
  21   2.0000      -6.577695      -178.9882
  22   2.0000      -6.575669      -178.9331
  23   2.0000      -6.575091      -178.9173
  24   2.0000      -1.444953       -39.3192
  25   2.0000      -1.417300       -38.5667
  26   2.0000      -1.357638       -36.9432
  27   2.0000      -1.342419       -36.5291
  28   2.0000      -1.241169       -33.7739
  29   2.0000      -1.158749       -31.5312
  30   2.0000      -1.125199       -30.6182
  31   2.0000      -1.047453       -28.5027
  32   2.0000      -1.038301       -28.2536
  33   2.0000      -1.017221       -27.6800
  34   2.0000      -1.006107       -27.3776
  35   2.0000      -0.990224       -26.9454
  36   2.0000      -0.928082       -25.2544
  37   2.0000      -0.897128       -24.4121
  38   2.0000      -0.855587       -23.2817
  39   2.0000      -0.841016       -22.8852
  40   2.0000      -0.834298       -22.7024
  41   2.0000      -0.829525       -22.5725
  42   2.0000      -0.746122       -20.3030
  43   2.0000      -0.739805       -20.1311
  44   2.0000      -0.730381       -19.8747
  45   2.0000      -0.695364       -18.9218
  46   2.0000      -0.687081       -18.6964
  47   2.0000      -0.680259       -18.5108
  48   2.0000      -0.675466       -18.3804
  49   2.0000      -0.661234       -17.9931
  50   2.0000      -0.654646       -17.8138
  51   2.0000      -0.650711       -17.7067
  52   2.0000      -0.639581       -17.4039
  53   2.0000      -0.621572       -16.9138
  54   2.0000      -0.610513       -16.6129
  55   2.0000      -0.605692       -16.4817
  56   2.0000      -0.601650       -16.3717
  57   2.0000      -0.589336       -16.0367
  58   2.0000      -0.577040       -15.7021
  59   2.0000      -0.567876       -15.4527
  60   2.0000      -0.565884       -15.3985
  61   2.0000      -0.553630       -15.0651
  62   2.0000      -0.539205       -14.6725
  63   2.0000      -0.534898       -14.5553
  64   2.0000      -0.520659       -14.1679
  65   2.0000      -0.512997       -13.9594
  66   2.0000      -0.501281       -13.6406
  67   2.0000      -0.499670       -13.5967
  68   2.0000      -0.482700       -13.1349
  69   2.0000      -0.468277       -12.7425
  70   2.0000      -0.456114       -12.4115
  71   2.0000      -0.450093       -12.2476
  72   2.0000      -0.358682        -9.7602
  73   2.0000      -0.348211        -9.4753
  74   2.0000      -0.330544        -8.9946
  75   2.0000      -0.322917        -8.7870
  76   2.0000      -0.319632        -8.6976
  77   0.0000       0.080254         2.1838
  78   0.0000       0.107444         2.9237
  79   0.0000       0.113638         3.0922
  80   0.0000       0.130653         3.5552
  81   0.0000       0.131220         3.5707

MULLIKEN ATOMIC CHARGES
-----------------------
   0 C :   -0.331517
   1 C :    0.024999
   2 O :   -0.327237
   3 C :    0.430517
   4 O :   -0.387061
   5 C :   -0.244174
   6 C :    0.174555
   7 C :   -0.336017
   8 N :   -0.137713
   9 C :    0.200629
  10 S :   -0.439486
  11 N :   -0.223791
  12 C :    0.088986
  13 C :    0.019478
  14 C :   -0.215283
  15 C :   -0.135867
  16 C :   -0.277720
  17 C :    0.323252
  18 O :   -0.358099
  19 C :   -0.272915
  20 H :    0.129216
  21 H :    0.115276
  22 H :    0.108979
  23 H :    0.130222
  24 H :    0.086667
  25 H :    0.133123
  26 H :    0.141346
  27 H :    0.120168
  28 H :    0.196922
  29 H :    0.202116
  30 H :    0.166464
  31 H :    0.177456
  32 H :    0.164285
  33 H :    0.131801
  34 H :    0.241005
  35 H :    0.179417
Sum of atomic charges:   -0.0000000

LOEWDIN ATOMIC CHARGES
----------------------
   0 C :    0.104150
   1 C :   -0.019303
   2 O :    0.296152
   3 C :   -0.413741
   4 O :    0.121991
   5 C :   -0.079967
   6 C :   -0.093635
   7 C :    0.121897
   8 N :    0.402911
   9 C :   -0.458986
  10 S :   -0.036538
  11 N :    0.398210
  12 C :   -0.042586
  13 C :   -0.042417
  14 C :    0.019805
  15 C :    0.042455
  16 C :   -0.001504
  17 C :   -0.193042
  18 O :    0.395210
  19 C :    0.028386
  20 H :   -0.018056
  21 H :   -0.024620
  22 H :   -0.035269
  23 H :   -0.018753
  24 H :   -0.039705
  25 H :   -0.007812
  26 H :   -0.008679
  27 H :   -0.019050
  28 H :   -0.056988
  29 H :   -0.063045
  30 H :   -0.002008
  31 H :   -0.022266
  32 H :   -0.018816
  33 H :   -0.035025
  34 H :   -0.153551
  35 H :   -0.025808

  Mayer bond orders larger than 0.100000
B(  0-C ,  1-C ) :   0.9539 B(  0-C , 20-H ) :   0.9672 B(  0-C , 21-H ) :   0.9771
B(  0-C , 22-H ) :   0.9725 B(  1-C ,  2-O ) :   0.9036 B(  1-C , 23-H ) :   0.9830
B(  1-C , 24-H ) :   0.9732 B(  2-O ,  3-C ) :   1.1830 B(  3-C ,  4-O ) :   2.0769
B(  3-C ,  5-C ) :   0.9323 B(  5-C ,  6-C ) :   1.6822 B(  5-C , 12-C ) :   0.9490
B(  6-C ,  7-C ) :   0.9444 B(  6-C ,  8-N ) :   1.1137 B(  7-C , 25-H ) :   0.9787
B(  7-C , 26-H ) :   0.9690 B(  7-C , 27-H ) :   0.9665 B(  8-N ,  9-C ) :   1.1937
B(  8-N , 28-H ) :   0.9521 B(  9-C , 10-S ) :   1.6101 B(  9-C , 11-N ) :   1.2907
B( 11-N , 12-C ) :   0.9886 B( 11-N , 29-H ) :   0.9482 B( 12-C , 13-C ) :   0.9529
B( 12-C , 30-H ) :   0.9952 B( 13-C , 14-C ) :   1.3904 B( 13-C , 19-C ) :   1.3368
B( 14-C , 15-C ) :   1.4005 B( 14-C , 31-H ) :   0.9571 B( 15-C , 16-C ) :   1.3584
B( 15-C , 32-H ) :   0.9701 B( 16-C , 17-C ) :   1.3314 B( 16-C , 33-H ) :   0.9848
B( 17-C , 18-O ) :   1.1093 B( 17-C , 19-C ) :   1.3664 B( 18-O , 34-H ) :   0.9797
B( 19-C , 35-H ) :   0.9570

MP2 TOTAL ENERGY:    -1274.331513227 Eh
FINAL SINGLE POINT ENERGY     -1274.331513227139

DIPOLE MOMENT
-------------
                                X             Y             Z
Electronic contribution:      8.94938       6.43720       6.19847
Nuclear contribution   :    -10.47452      -7.39333      -6.82377
                        -----------------------------------------
Total Dipole Moment    :     -1.52513      -0.95613      -0.62530
                        -----------------------------------------
Magnitude (a.u.)       :      1.90558
Magnitude (Debye)      :      4.84359

Rotational constants in cm-1:     0.011737     0.009608     0.006740
Rotational constants in MHz :   351.852051   288.048436   202.070995

                             ****ORCA TERMINATED NORMALLY****
TOTAL RUN TIME: 0 days 1 hours 49 minutes 44 seconds 243 msec
