                         Program Version 4.2.0 -  RELEASE  -
|  1> ! ri-mp2 cc-pvtz cc-pvtz/c TightSCF  NoKeepInts
|  2>
|  3> %scf
|  4>   MaxCore 4096
|  5> end
|  6> *xyz  0  1
|  7>     C       15.1318500   14.6221434   16.9853554
|  8>     C       16.4615859   13.9801298   16.5256647
|  9>     O       17.5592165   14.9205536   16.4349599
| 10>     C       17.3582204   16.2454057   16.1703258
| 11>     O       16.7027081   16.6005800   15.2063175
| 12>     C       17.7558853   17.1445697   17.3103149
| 13>     C       17.4818658   18.4744381   17.3164505
| 14>     C       16.7086527   19.2585111   16.2778164
| 15>     N       17.9777940   19.2861603   18.3416701
| 16>     C       18.8959253   18.8863903   19.2762889
| 17>     S       19.5616281   19.9442687   20.3594303
| 18>     N       19.2417090   17.5589103   19.2620170
| 19>     C       18.5611210   16.5221231   18.4643549
| 20>     C       17.7024122   15.6595179   19.3844464
| 21>     C       18.0035978   14.2969107   19.5690360
| 22>     C       17.2175910   13.4988350   20.4171465
| 23>     C       16.1256735   14.0691858   21.0932127
| 24>     C       15.8304285   15.4285795   20.9224627
| 25>     O       14.7774084   15.9825841   21.5741009
| 26>     C       16.6136287   16.2199122   20.0766213
| 27>     H       15.2603965   15.1853443   17.9152942
| 28>     H       14.3829117   13.8425078   17.1687103
| 29>     H       14.7239393   15.2944203   16.2205699
| 30>     H       16.7364401   13.1720698   17.2154254
| 31>     H       16.2993420   13.5289627   15.5379859
| 32>     H       17.2090034   19.2043023   15.3024693
| 33>     H       16.5972519   20.3183141   16.5350127
| 34>     H       15.7011515   18.8419307   16.1517139
| 35>     H       17.7413762   20.2654342   18.3588666
| 36>     H       19.8992498   17.2867694   19.9813750
| 37>     H       19.3399952   15.8855428   18.0213648
| 38>     H       18.8466135   13.8528993   19.0460443
| 39>     H       17.4570444   12.4452147   20.5507688
| 40>     H       15.5160622   13.4572939   21.7500650
| 41>     H       14.3956921   15.3001472   22.1464745
| 42>     H       16.3716277   17.2711374   19.9638667
| 43> *
| 44>
| 45>                          ****END OF INPUT****

CARTESIAN COORDINATES (ANGSTROEM)
---------------------------------
  C     15.131850   14.622143   16.985355
  C     16.461586   13.980130   16.525665
  O     17.559217   14.920554   16.434960
  C     17.358220   16.245406   16.170326
  O     16.702708   16.600580   15.206318
  C     17.755885   17.144570   17.310315
  C     17.481866   18.474438   17.316450
  C     16.708653   19.258511   16.277816
  N     17.977794   19.286160   18.341670
  C     18.895925   18.886390   19.276289
  S     19.561628   19.944269   20.359430
  N     19.241709   17.558910   19.262017
  C     18.561121   16.522123   18.464355
  C     17.702412   15.659518   19.384446
  C     18.003598   14.296911   19.569036
  C     17.217591   13.498835   20.417146
  C     16.125674   14.069186   21.093213
  C     15.830428   15.428579   20.922463
  O     14.777408   15.982584   21.574101
  C     16.613629   16.219912   20.076621
  H     15.260396   15.185344   17.915294
  H     14.382912   13.842508   17.168710
  H     14.723939   15.294420   16.220570
  H     16.736440   13.172070   17.215425
  H     16.299342   13.528963   15.537986
  H     17.209003   19.204302   15.302469
  H     16.597252   20.318314   16.535013
  H     15.701151   18.841931   16.151714
  H     17.741376   20.265434   18.358867
  H     19.899250   17.286769   19.981375
  H     19.339995   15.885543   18.021365
  H     18.846614   13.852899   19.046044
  H     17.457044   12.445215   20.550769
  H     15.516062   13.457294   21.750065
  H     14.395692   15.300147   22.146474
  H     16.371628   17.271137   19.963867

 Total Charge           Charge          ....    0
 Multiplicity           Mult            ....    1
 Number of Electrons    NEL             ....  154
 Basis Dimension        Dim             ....  828

ORBITAL ENERGIES
----------------

  NO   OCC          E(Eh)            E(eV)
   0   2.0000     -91.890519     -2500.4681
   1   2.0000     -20.599854      -560.5505
   2   2.0000     -20.585013      -560.1467
   3   2.0000     -20.544660      -559.0486
   4   2.0000     -15.630855      -425.3372
   5   2.0000     -15.609306      -424.7508
   6   2.0000     -11.394026      -310.0472
   7   2.0000     -11.385186      -309.8067
   8   2.0000     -11.337213      -308.5012
   9   2.0000     -11.317345      -307.9606
  10   2.0000     -11.310923      -307.7859
  11   2.0000     -11.299339      -307.4707
  12   2.0000     -11.262747      -306.4749
  13   2.0000     -11.259452      -306.3853
  14   2.0000     -11.259169      -306.3776
  15   2.0000     -11.253062      -306.2114
  16   2.0000     -11.246923      -306.0443
  17   2.0000     -11.241609      -305.8997
  18   2.0000     -11.241523      -305.8974
  19   2.0000     -11.222744      -305.3864
  20   2.0000      -8.895550      -242.0602
  21   2.0000      -6.577117      -178.9724
  22   2.0000      -6.575121      -178.9181
  23   2.0000      -6.574526      -178.9020
  24   2.0000      -1.444580       -39.3090
  25   2.0000      -1.419582       -38.6288
  26   2.0000      -1.350613       -36.7521
  27   2.0000      -1.341779       -36.5117
  28   2.0000      -1.240025       -33.7428
  29   2.0000      -1.160652       -31.5829
  30   2.0000      -1.121133       -30.5076
  31   2.0000      -1.044949       -28.4345
  32   2.0000      -1.031509       -28.0688
  33   2.0000      -1.018960       -27.7273
  34   2.0000      -0.997739       -27.1499
  35   2.0000      -0.986103       -26.8332
  36   2.0000      -0.924540       -25.1580
  37   2.0000      -0.896757       -24.4020
  38   2.0000      -0.848425       -23.0868
  39   2.0000      -0.841994       -22.9118
  40   2.0000      -0.837663       -22.7940
  41   2.0000      -0.817523       -22.2459
  42   2.0000      -0.745568       -20.2879
  43   2.0000      -0.734175       -19.9779
  44   2.0000      -0.721846       -19.6424
  45   2.0000      -0.699077       -19.0228
  46   2.0000      -0.691220       -18.8090
  47   2.0000      -0.673620       -18.3301
  48   2.0000      -0.670269       -18.2389
  49   2.0000      -0.661776       -18.0078
  50   2.0000      -0.651839       -17.7374
  51   2.0000      -0.643313       -17.5054
  52   2.0000      -0.635826       -17.3017
  53   2.0000      -0.624229       -16.9861
  54   2.0000      -0.610188       -16.6041
  55   2.0000      -0.602843       -16.4042
  56   2.0000      -0.600466       -16.3395
  57   2.0000      -0.580425       -15.7942
  58   2.0000      -0.571601       -15.5540
  59   2.0000      -0.565819       -15.3967
  60   2.0000      -0.548039       -14.9129
  61   2.0000      -0.544545       -14.8178
  62   2.0000      -0.534109       -14.5338
  63   2.0000      -0.528075       -14.3697
  64   2.0000      -0.527535       -14.3550
  65   2.0000      -0.515409       -14.0250
  66   2.0000      -0.503528       -13.7017
  67   2.0000      -0.498253       -13.5582
  68   2.0000      -0.482630       -13.1330
  69   2.0000      -0.463560       -12.6141
  70   2.0000      -0.454868       -12.3776
  71   2.0000      -0.442926       -12.0526
  72   2.0000      -0.356242        -9.6938
  73   2.0000      -0.352226        -9.5846
  74   2.0000      -0.329935        -8.9780
  75   2.0000      -0.325446        -8.8558
  76   2.0000      -0.317488        -8.6393
  77   0.0000       0.070201         1.9103
  78   0.0000       0.102675         2.7939
  79   0.0000       0.122687         3.3385
  80   0.0000       0.129677         3.5287
  81   0.0000       0.134939         3.6719

MULLIKEN ATOMIC CHARGES
-----------------------
   0 C :   -0.332973
   1 C :    0.034839
   2 O :   -0.395317
   3 C :    0.510548
   4 O :   -0.423394
   5 C :   -0.247915
   6 C :    0.149864
   7 C :   -0.271711
   8 N :   -0.123184
   9 C :    0.205034
  10 S :   -0.435577
  11 N :   -0.197915
  12 C :    0.044287
  13 C :    0.052830
  14 C :   -0.193447
  15 C :   -0.128243
  16 C :   -0.274312
  17 C :    0.313919
  18 O :   -0.358871
  19 C :   -0.271600
  20 H :    0.110187
  21 H :    0.105449
  22 H :    0.124262
  23 H :    0.110958
  24 H :    0.120934
  25 H :    0.134254
  26 H :    0.094990
  27 H :    0.130124
  28 H :    0.198413
  29 H :    0.192566
  30 H :    0.152793
  31 H :    0.160385
  32 H :    0.164687
  33 H :    0.132901
  34 H :    0.241014
  35 H :    0.169219
Sum of atomic charges:   -0.0000000

LOEWDIN ATOMIC CHARGES
----------------------
   0 C :    0.106691
   1 C :   -0.011744
   2 O :    0.284520
   3 C :   -0.419131
   4 O :    0.110712
   5 C :   -0.097613
   6 C :   -0.057806
   7 C :    0.131464
   8 N :    0.406782
   9 C :   -0.457919
  10 S :   -0.032635
  11 N :    0.396663
  12 C :   -0.052387
  13 C :   -0.039483
  14 C :    0.017365
  15 C :    0.039802
  16 C :   -0.001290
  17 C :   -0.190802
  18 O :    0.396506
  19 C :    0.031672
  20 H :   -0.030855
  21 H :   -0.024012
  22 H :   -0.026815
  23 H :   -0.027915
  24 H :   -0.028501
  25 H :   -0.003090
  26 H :   -0.023318
  27 H :   -0.005404
  28 H :   -0.057510
  29 H :   -0.064848
  30 H :   -0.007699
  31 H :   -0.028549
  32 H :   -0.020701
  33 H :   -0.034819
  34 H :   -0.153194
  35 H :   -0.024136

  Mayer bond orders larger than 0.100000
B(  0-C ,  1-C ) :   0.9553 B(  0-C , 20-H ) :   0.9690 B(  0-C , 21-H ) :   0.9774
B(  0-C , 22-H ) :   0.9730 B(  1-C ,  2-O ) :   0.8820 B(  1-C , 23-H ) :   0.9780
B(  1-C , 24-H ) :   0.9866 B(  2-O ,  3-C ) :   1.1095 B(  3-C ,  4-O ) :   1.9942
B(  3-C ,  5-C ) :   1.0639 B(  5-C ,  6-C ) :   1.6534 B(  5-C , 12-C ) :   0.9688
B(  6-C ,  7-C ) :   0.9684 B(  6-C ,  8-N ) :   1.1552 B(  7-C , 25-H ) :   0.9582
B(  7-C , 26-H ) :   0.9896 B(  7-C , 27-H ) :   0.9626 B(  8-N ,  9-C ) :   1.1790
B(  8-N , 28-H ) :   0.9481 B(  9-C , 10-S ) :   1.6153 B(  9-C , 11-N ) :   1.3017
B( 11-N , 12-C ) :   0.9853 B( 11-N , 29-H ) :   0.9533 B( 12-C , 13-C ) :   0.9384
B( 12-C , 30-H ) :   1.0024 B( 13-C , 14-C ) :   1.3526 B( 13-C , 19-C ) :   1.3742
B( 14-C , 15-C ) :   1.3804 B( 14-C , 31-H ) :   0.9698 B( 15-C , 16-C ) :   1.3679
B( 15-C , 32-H ) :   0.9694 B( 16-C , 17-C ) :   1.3291 B( 16-C , 33-H ) :   0.9837
B( 17-C , 18-O ) :   1.1114 B( 17-C , 19-C ) :   1.3729 B( 18-O , 34-H ) :   0.9796
B( 19-C , 35-H ) :   0.9590

MP2 TOTAL ENERGY:    -1274.335805962 Eh
FINAL SINGLE POINT ENERGY     -1274.335805961537

DIPOLE MOMENT
-------------
                                X             Y             Z
Electronic contribution:      9.98954       8.97044       5.87622
Nuclear contribution   :    -11.05180     -10.62205      -5.85723
                        -----------------------------------------
Total Dipole Moment    :     -1.06226      -1.65161       0.01899
                        -----------------------------------------
Magnitude (a.u.)       :      1.96382
Magnitude (Debye)      :      4.99163

Rotational constants in cm-1:     0.012225     0.009374     0.006592
Rotational constants in MHz :   366.498503   281.027914   197.619904

                             ****ORCA TERMINATED NORMALLY****
TOTAL RUN TIME: 0 days 2 hours 22 minutes 4 seconds 154 msec
