                         Program Version 4.2.0 -  RELEASE  -
|  1> ! ri-mp2 cc-pvtz cc-pvtz/c TightSCF  NoKeepInts
|  2>
|  3> %scf
|  4>   MaxCore 4096
|  5> end
|  6> *xyz  0  1
|  7>     C       14.2128710   14.9639534   15.1833621
|  8>     C       15.5616112   14.5878740   15.8193051
|  9>     O       16.2805450   15.8079555   16.0584472
| 10>     C       17.4700991   15.7399268   16.7220480
| 11>     O       18.0989106   14.6975869   16.8091349
| 12>     C       17.7557580   16.9254522   17.5988895
| 13>     C       17.1949645   18.1546850   17.4522040
| 14>     C       16.2016324   18.6082439   16.4018267
| 15>     N       17.5854681   19.2006073   18.2951054
| 16>     C       18.6218907   19.1417444   19.1889882
| 17>     S       19.1034728   20.4665845   20.0541403
| 18>     N       19.2401534   17.9251967   19.3280151
| 19>     C       18.7702925   16.6668878   18.7186826
| 20>     C       18.1867845   15.7433327   19.7850428
| 21>     C       18.6756430   14.4326247   19.9373584
| 22>     C       18.1404228   13.5771104   20.9148951
| 23>     C       17.1063654   14.0350566   21.7489270
| 24>     C       16.6138592   15.3384381   21.5982665
| 25>     O       15.6111047   15.7815985   22.3979373
| 26>     C       17.1482512   16.1874337   20.6240511
| 27>     H       13.6346836   15.6097740   15.8557730
| 28>     H       13.6207000   14.0637390   14.9784675
| 29>     H       14.3669323   15.4965851   14.2366855
| 30>     H       15.3920956   14.0533114   16.7640607
| 31>     H       16.1301270   13.9338953   15.1440963
| 32>     H       16.5338329   18.3150648   15.3980974
| 33>     H       16.0656821   19.6964301   16.3892895
| 34>     H       15.2184149   18.1541808   16.5777584
| 35>     H       17.1439577   20.1019485   18.2078185
| 36>     H       19.9807479   17.8999742   20.0170831
| 37>     H       19.6426779   16.1684046   18.2718454
| 38>     H       19.4635192   14.0702107   19.2815046
| 39>     H       18.5236474   12.5635464   21.0180459
| 40>     H       16.6889507   13.3771034   22.5037572
| 41>     H       15.4062277   15.0721747   23.0252348
| 42>     H       16.7547029   17.1933636   20.5278551
| 43> *
| 44>
| 45>                          ****END OF INPUT****

CARTESIAN COORDINATES (ANGSTROEM)
---------------------------------
  C     14.212871   14.963953   15.183362
  C     15.561611   14.587874   15.819305
  O     16.280545   15.807955   16.058447
  C     17.470099   15.739927   16.722048
  O     18.098911   14.697587   16.809135
  C     17.755758   16.925452   17.598889
  C     17.194965   18.154685   17.452204
  C     16.201632   18.608244   16.401827
  N     17.585468   19.200607   18.295105
  C     18.621891   19.141744   19.188988
  S     19.103473   20.466584   20.054140
  N     19.240153   17.925197   19.328015
  C     18.770293   16.666888   18.718683
  C     18.186785   15.743333   19.785043
  C     18.675643   14.432625   19.937358
  C     18.140423   13.577110   20.914895
  C     17.106365   14.035057   21.748927
  C     16.613859   15.338438   21.598266
  O     15.611105   15.781598   22.397937
  C     17.148251   16.187434   20.624051
  H     13.634684   15.609774   15.855773
  H     13.620700   14.063739   14.978468
  H     14.366932   15.496585   14.236685
  H     15.392096   14.053311   16.764061
  H     16.130127   13.933895   15.144096
  H     16.533833   18.315065   15.398097
  H     16.065682   19.696430   16.389290
  H     15.218415   18.154181   16.577758
  H     17.143958   20.101948   18.207818
  H     19.980748   17.899974   20.017083
  H     19.642678   16.168405   18.271845
  H     19.463519   14.070211   19.281505
  H     18.523647   12.563546   21.018046
  H     16.688951   13.377103   22.503757
  H     15.406228   15.072175   23.025235
  H     16.754703   17.193364   20.527855

 Total Charge           Charge          ....    0
 Multiplicity           Mult            ....    1
 Number of Electrons    NEL             ....  154
 Basis Dimension        Dim             ....  828

ORBITAL ENERGIES
----------------

  NO   OCC          E(Eh)            E(eV)
   0   2.0000     -91.888085     -2500.4019
   1   2.0000     -20.601272      -560.5891
   2   2.0000     -20.591918      -560.3346
   3   2.0000     -20.547123      -559.1157
   4   2.0000     -15.628394      -425.2702
   5   2.0000     -15.606780      -424.6821
   6   2.0000     -11.394799      -310.0682
   7   2.0000     -11.383043      -309.7484
   8   2.0000     -11.335935      -308.4665
   9   2.0000     -11.307718      -307.6986
  10   2.0000     -11.305829      -307.6473
  11   2.0000     -11.299263      -307.4686
  12   2.0000     -11.260455      -306.4126
  13   2.0000     -11.259135      -306.3766
  14   2.0000     -11.253612      -306.2263
  15   2.0000     -11.247810      -306.0685
  16   2.0000     -11.237486      -305.7876
  17   2.0000     -11.235225      -305.7260
  18   2.0000     -11.233608      -305.6820
  19   2.0000     -11.230564      -305.5992
  20   2.0000      -8.893150      -241.9949
  21   2.0000      -6.574728      -178.9074
  22   2.0000      -6.572721      -178.8528
  23   2.0000      -6.572135      -178.8369
  24   2.0000      -1.455523       -39.6068
  25   2.0000      -1.411655       -38.4131
  26   2.0000      -1.357264       -36.9330
  27   2.0000      -1.339315       -36.4446
  28   2.0000      -1.236975       -33.6598
  29   2.0000      -1.152291       -31.3554
  30   2.0000      -1.119700       -30.4686
  31   2.0000      -1.044723       -28.4284
  32   2.0000      -1.037073       -28.2202
  33   2.0000      -1.009660       -27.4743
  34   2.0000      -0.997773       -27.1508
  35   2.0000      -0.983441       -26.7608
  36   2.0000      -0.921160       -25.0660
  37   2.0000      -0.887835       -24.1592
  38   2.0000      -0.846982       -23.0475
  39   2.0000      -0.835100       -22.7242
  40   2.0000      -0.828007       -22.5312
  41   2.0000      -0.818676       -22.2773
  42   2.0000      -0.761490       -20.7212
  43   2.0000      -0.735879       -20.0243
  44   2.0000      -0.725012       -19.7286
  45   2.0000      -0.690691       -18.7946
  46   2.0000      -0.683094       -18.5879
  47   2.0000      -0.682559       -18.5734
  48   2.0000      -0.676252       -18.4018
  49   2.0000      -0.658314       -17.9136
  50   2.0000      -0.650468       -17.7001
  51   2.0000      -0.643471       -17.5097
  52   2.0000      -0.634913       -17.2769
  53   2.0000      -0.601368       -16.3641
  54   2.0000      -0.600759       -16.3475
  55   2.0000      -0.599294       -16.3076
  56   2.0000      -0.595272       -16.1982
  57   2.0000      -0.578305       -15.7365
  58   2.0000      -0.573376       -15.6023
  59   2.0000      -0.564171       -15.3519
  60   2.0000      -0.561840       -15.2884
  61   2.0000      -0.552165       -15.0252
  62   2.0000      -0.541705       -14.7405
  63   2.0000      -0.519547       -14.1376
  64   2.0000      -0.516975       -14.0676
  65   2.0000      -0.510830       -13.9004
  66   2.0000      -0.506218       -13.7749
  67   2.0000      -0.495746       -13.4899
  68   2.0000      -0.481057       -13.0902
  69   2.0000      -0.462140       -12.5755
  70   2.0000      -0.461968       -12.5708
  71   2.0000      -0.454708       -12.3732
  72   2.0000      -0.354126        -9.6363
  73   2.0000      -0.344152        -9.3649
  74   2.0000      -0.327223        -8.9042
  75   2.0000      -0.315655        -8.5894
  76   2.0000      -0.313976        -8.5437
  77   0.0000       0.075456         2.0533
  78   0.0000       0.112306         3.0560
  79   0.0000       0.120258         3.2724
  80   0.0000       0.135637         3.6909
  81   0.0000       0.138608         3.7717

MULLIKEN ATOMIC CHARGES
-----------------------
   0 C :   -0.276266
   1 C :    0.050886
   2 O :   -0.340373
   3 C :    0.430497
   4 O :   -0.420458
   5 C :   -0.170592
   6 C :    0.143501
   7 C :   -0.288101
   8 N :   -0.123155
   9 C :    0.201770
  10 S :   -0.439368
  11 N :   -0.197573
  12 C :    0.038244
  13 C :    0.055913
  14 C :   -0.160265
  15 C :   -0.134028
  16 C :   -0.279441
  17 C :    0.311184
  18 O :   -0.359154
  19 C :   -0.273079
  20 H :    0.093492
  21 H :    0.101000
  22 H :    0.096839
  23 H :    0.090259
  24 H :    0.100302
  25 H :    0.126741
  26 H :    0.104270
  27 H :    0.127024
  28 H :    0.196867
  29 H :    0.193681
  30 H :    0.153674
  31 H :    0.153427
  32 H :    0.159234
  33 H :    0.128185
  34 H :    0.240097
  35 H :    0.164764
Sum of atomic charges:   -0.0000000

LOEWDIN ATOMIC CHARGES
----------------------
   0 C :    0.107363
   1 C :   -0.018134
   2 O :    0.304367
   3 C :   -0.414743
   4 O :    0.107656
   5 C :   -0.091663
   6 C :   -0.067149
   7 C :    0.125181
   8 N :    0.404695
   9 C :   -0.458684
  10 S :   -0.036062
  11 N :    0.397727
  12 C :   -0.046233
  13 C :   -0.038940
  14 C :    0.022200
  15 C :    0.040902
  16 C :   -0.002475
  17 C :   -0.192850
  18 O :    0.392930
  19 C :    0.028212
  20 H :   -0.028790
  21 H :   -0.022787
  22 H :   -0.027083
  23 H :   -0.027482
  24 H :   -0.028148
  25 H :   -0.008469
  26 H :   -0.020742
  27 H :   -0.010334
  28 H :   -0.059111
  29 H :   -0.063732
  30 H :   -0.004845
  31 H :   -0.025229
  32 H :   -0.021165
  33 H :   -0.036400
  34 H :   -0.154894
  35 H :   -0.025092

  Mayer bond orders larger than 0.100000
B(  0-C ,  1-C ) :   0.9700 B(  0-C , 20-H ) :   0.9781 B(  0-C , 21-H ) :   0.9786
B(  0-C , 22-H ) :   0.9771 B(  1-C ,  2-O ) :   0.9063 B(  1-C , 23-H ) :   0.9740
B(  1-C , 24-H ) :   0.9796 B(  2-O ,  3-C ) :   1.1517 B(  3-C ,  4-O ) :   1.9967
B(  3-C ,  5-C ) :   1.0460 B(  5-C ,  6-C ) :   1.6505 B(  5-C , 12-C ) :   0.9666
B(  6-C ,  7-C ) :   0.9537 B(  6-C ,  8-N ) :   1.1431 B(  7-C , 25-H ) :   0.9666
B(  7-C , 26-H ) :   0.9917 B(  7-C , 27-H ) :   0.9628 B(  8-N ,  9-C ) :   1.1797
B(  8-N , 28-H ) :   0.9489 B(  9-C , 10-S ) :   1.6107 B(  9-C , 11-N ) :   1.3037
B( 11-N , 12-C ) :   0.9915 B( 11-N , 29-H ) :   0.9520 B( 12-C , 13-C ) :   0.9473
B( 12-C , 30-H ) :   0.9996 B( 13-C , 14-C ) :   1.3761 B( 13-C , 19-C ) :   1.3693
B( 14-C , 15-C ) :   1.3947 B( 14-C , 31-H ) :   0.9648 B( 15-C , 16-C ) :   1.3626
B( 15-C , 32-H ) :   0.9714 B( 16-C , 17-C ) :   1.3314 B( 16-C , 33-H ) :   0.9860
B( 17-C , 18-O ) :   1.1080 B( 17-C , 19-C ) :   1.3789 B( 18-O , 34-H ) :   0.9806
B( 19-C , 35-H ) :   0.9585

MP2 TOTAL ENERGY:    -1274.345150627 Eh
FINAL SINGLE POINT ENERGY     -1274.345150627227

DIPOLE MOMENT
-------------
                                X             Y             Z
Electronic contribution:     12.08813       8.70825      10.54360
Nuclear contribution   :    -13.58353     -10.04285     -11.44373
                        -----------------------------------------
Total Dipole Moment    :     -1.49540      -1.33460      -0.90012
                        -----------------------------------------
Magnitude (a.u.)       :      2.19718
Magnitude (Debye)      :      5.58478

Rotational constants in cm-1:     0.010331     0.009000     0.005970
Rotational constants in MHz :   309.708513   269.826317   178.975055

                             ****ORCA TERMINATED NORMALLY****
TOTAL RUN TIME: 0 days 1 hours 50 minutes 37 seconds 582 msec
