                         Program Version 5.0.0 -  RELEASE  -
|  1> ! ri-mp2 cc-pvtz cc-pvtz/c TightSCF NoKeepInts
|  2>
|  3> %scf
|  4>   MaxCore 4096
|  5> end
|  6> *xyz  0  1
|  7>     C       15.2238080   13.8480862   16.7925977
|  8>     C       16.5299484   14.0198656   15.9902826
|  9>     O       17.3089512   15.0759018   16.5811848
| 10>     C       16.9028939   16.3777159   16.4700796
| 11>     O       16.0641454   16.7336764   15.6592933
| 12>     C       17.6037739   17.2881989   17.4395902
| 13>     C       17.4418232   18.6354472   17.4214520
| 14>     C       16.5835037   19.4421304   16.4707502
| 15>     N       18.1341867   19.4373957   18.3335612
| 16>     C       19.0611374   18.9824068   19.2328036
| 17>     S       19.8928659   20.0099276   20.2269915
| 18>     N       19.2669858   17.6269129   19.2677716
| 19>     C       18.5003446   16.6286119   18.5001501
| 20>     C       17.6962001   15.7489946   19.4535544
| 21>     C       18.0271423   14.3912806   19.6220860
| 22>     C       17.2819228   13.5760990   20.4905746
| 23>     C       16.1980830   14.1230878   21.1983587
| 24>     C       15.8688630   15.4758862   21.0366245
| 25>     O       14.8233387   16.0070137   21.7190363
| 26>     C       16.6125720   16.2847326   20.1719537
| 27>     H       15.4410215   13.6906322   17.8567198
| 28>     H       14.6605688   12.9818069   16.4256022
| 29>     H       14.5810551   14.7321865   16.6981987
| 30>     H       17.1009513   13.0835409   16.0296092
| 31>     H       16.3067095   14.2411149   14.9375606
| 32>     H       16.8737485   19.2494547   15.4300870
| 33>     H       16.6559628   20.5229800   16.6389509
| 34>     H       15.5276138   19.1604280   16.5729644
| 35>     H       17.9958964   20.4352932   18.3230386
| 36>     H       19.9270681   17.3183391   19.9698404
| 37>     H       19.2275795   15.9952937   17.9729038
| 38>     H       18.8600069   13.9642326   19.0700035
| 39>     H       17.5442051   12.5265950   20.6120965
| 40>     H       15.6193350   13.4976952   21.8700775
| 41>     H       14.4576557   15.3085151   22.2822037
| 42>     H       16.3451321   17.3305201   20.0654469
| 43> *
| 44>
| 45>                          ****END OF INPUT****

CARTESIAN COORDINATES (ANGSTROEM)
---------------------------------
  C     15.223808   13.848086   16.792598
  C     16.529948   14.019866   15.990283
  O     17.308951   15.075902   16.581185
  C     16.902894   16.377716   16.470080
  O     16.064145   16.733676   15.659293
  C     17.603774   17.288199   17.439590
  C     17.441823   18.635447   17.421452
  C     16.583504   19.442130   16.470750
  N     18.134187   19.437396   18.333561
  C     19.061137   18.982407   19.232804
  S     19.892866   20.009928   20.226992
  N     19.266986   17.626913   19.267772
  C     18.500345   16.628612   18.500150
  C     17.696200   15.748995   19.453554
  C     18.027142   14.391281   19.622086
  C     17.281923   13.576099   20.490575
  C     16.198083   14.123088   21.198359
  C     15.868863   15.475886   21.036624
  O     14.823339   16.007014   21.719036
  C     16.612572   16.284733   20.171954
  H     15.441021   13.690632   17.856720
  H     14.660569   12.981807   16.425602
  H     14.581055   14.732186   16.698199
  H     17.100951   13.083541   16.029609
  H     16.306710   14.241115   14.937561
  H     16.873749   19.249455   15.430087
  H     16.655963   20.522980   16.638951
  H     15.527614   19.160428   16.572964
  H     17.995896   20.435293   18.323039
  H     19.927068   17.318339   19.969840
  H     19.227579   15.995294   17.972904
  H     18.860007   13.964233   19.070003
  H     17.544205   12.526595   20.612096
  H     15.619335   13.497695   21.870077
  H     14.457656   15.308515   22.282204
  H     16.345132   17.330520   20.065447

 Total Charge           Charge          ....    0
 Multiplicity           Mult            ....    1
 Number of Electrons    NEL             ....  154
 Basis Dimension        Dim             ....  828

ORBITAL ENERGIES
----------------

  NO   OCC          E(Eh)            E(eV)
   0   2.0000     -91.888824     -2500.4220
   1   2.0000     -20.600071      -560.5564
   2   2.0000     -20.597083      -560.4751
   3   2.0000     -20.541603      -558.9654
   4   2.0000     -15.628982      -425.2862
   5   2.0000     -15.608328      -424.7242
   6   2.0000     -11.395138      -310.0775
   7   2.0000     -11.384046      -309.7756
   8   2.0000     -11.335961      -308.4672
   9   2.0000     -11.314434      -307.8814
  10   2.0000     -11.308904      -307.7309
  11   2.0000     -11.296840      -307.4027
  12   2.0000     -11.260090      -306.4026
  13   2.0000     -11.258865      -306.3693
  14   2.0000     -11.255677      -306.2825
  15   2.0000     -11.252089      -306.1849
  16   2.0000     -11.243790      -305.9591
  17   2.0000     -11.239078      -305.8309
  18   2.0000     -11.238551      -305.8165
  19   2.0000     -11.221417      -305.3503
  20   2.0000      -8.893888      -242.0150
  21   2.0000      -6.575464      -178.9275
  22   2.0000      -6.573458      -178.8729
  23   2.0000      -6.572872      -178.8569
  24   2.0000      -1.450490       -39.4698
  25   2.0000      -1.416763       -38.5521
  26   2.0000      -1.354197       -36.8496
  27   2.0000      -1.339951       -36.4619
  28   2.0000      -1.238507       -33.7015
  29   2.0000      -1.158240       -31.5173
  30   2.0000      -1.120659       -30.4947
  31   2.0000      -1.043084       -28.3838
  32   2.0000      -1.034691       -28.1554
  33   2.0000      -1.015631       -27.6367
  34   2.0000      -0.995328       -27.0843
  35   2.0000      -0.984209       -26.7817
  36   2.0000      -0.922697       -25.1079
  37   2.0000      -0.894579       -24.3427
  38   2.0000      -0.847058       -23.0496
  39   2.0000      -0.838051       -22.8045
  40   2.0000      -0.834519       -22.7084
  41   2.0000      -0.815644       -22.1948
  42   2.0000      -0.754506       -20.5311
  43   2.0000      -0.732864       -19.9422
  44   2.0000      -0.723291       -19.6817
  45   2.0000      -0.696236       -18.9455
  46   2.0000      -0.688761       -18.7422
  47   2.0000      -0.678535       -18.4639
  48   2.0000      -0.670894       -18.2560
  49   2.0000      -0.660735       -17.9795
  50   2.0000      -0.648666       -17.6511
  51   2.0000      -0.641069       -17.4444
  52   2.0000      -0.632049       -17.1989
  53   2.0000      -0.611636       -16.6435
  54   2.0000      -0.607269       -16.5246
  55   2.0000      -0.600213       -16.3326
  56   2.0000      -0.599045       -16.3008
  57   2.0000      -0.577907       -15.7256
  58   2.0000      -0.570733       -15.5304
  59   2.0000      -0.568129       -15.4596
  60   2.0000      -0.559632       -15.2284
  61   2.0000      -0.543397       -14.7866
  62   2.0000      -0.533676       -14.5221
  63   2.0000      -0.528173       -14.3723
  64   2.0000      -0.525159       -14.2903
  65   2.0000      -0.513257       -13.9664
  66   2.0000      -0.501437       -13.6448
  67   2.0000      -0.499785       -13.5999
  68   2.0000      -0.481431       -13.1004
  69   2.0000      -0.464496       -12.6396
  70   2.0000      -0.454682       -12.3725
  71   2.0000      -0.446521       -12.1505
  72   2.0000      -0.354217        -9.6387
  73   2.0000      -0.350115        -9.5271
  74   2.0000      -0.328278        -8.9329
  75   2.0000      -0.321861        -8.7583
  76   2.0000      -0.316218        -8.6047
  77   0.0000       0.076313         2.0766
  78   0.0000       0.106026         2.8851
  79   0.0000       0.124994         3.4013
  80   0.0000       0.132434         3.6037
  81   0.0000       0.138242         3.7617

MULLIKEN ATOMIC CHARGES
-----------------------
   0 C :   -0.306525
   1 C :    0.018969
   2 O :   -0.357501
   3 C :    0.467441
   4 O :   -0.436145
   5 C :   -0.226899
   6 C :    0.153214
   7 C :   -0.273046
   8 N :   -0.120802
   9 C :    0.212187
  10 S :   -0.440402
  11 N :   -0.206080
  12 C :    0.063323
  13 C :    0.058610
  14 C :   -0.186746
  15 C :   -0.136986
  16 C :   -0.276686
  17 C :    0.314046
  18 O :   -0.356473
  19 C :   -0.262208
  20 H :    0.108722
  21 H :    0.098064
  22 H :    0.113836
  23 H :    0.112604
  24 H :    0.116122
  25 H :    0.131003
  26 H :    0.095324
  27 H :    0.131971
  28 H :    0.197067
  29 H :    0.195132
  30 H :    0.150392
  31 H :    0.150396
  32 H :    0.160683
  33 H :    0.130748
  34 H :    0.240735
  35 H :    0.165913
Sum of atomic charges:    0.0000000

LOEWDIN ATOMIC CHARGES
----------------------
   0 C :    0.105008
   1 C :   -0.017900
   2 O :    0.306671
   3 C :   -0.413552
   4 O :    0.095941
   5 C :   -0.094162
   6 C :   -0.059287
   7 C :    0.131640
   8 N :    0.406569
   9 C :   -0.456072
  10 S :   -0.035764
  11 N :    0.396466
  12 C :   -0.051869
  13 C :   -0.039184
  14 C :    0.013818
  15 C :    0.038795
  16 C :   -0.002163
  17 C :   -0.189716
  18 O :    0.395636
  19 C :    0.031813
  20 H :   -0.026202
  21 H :   -0.027867
  22 H :   -0.025860
  23 H :   -0.025494
  24 H :   -0.027849
  25 H :   -0.003907
  26 H :   -0.023383
  27 H :   -0.004647
  28 H :   -0.057573
  29 H :   -0.064541
  30 H :   -0.011237
  31 H :   -0.029992
  32 H :   -0.021378
  33 H :   -0.035439
  34 H :   -0.153794
  35 H :   -0.023525

  Mayer bond orders larger than 0.100000
B(  0-C ,  1-C ) :   0.9593 B(  0-C , 20-H ) :   0.9706 B(  0-C , 21-H ) :   0.9776
B(  0-C , 22-H ) :   0.9757 B(  1-C ,  2-O ) :   0.8947 B(  1-C , 23-H ) :   0.9846
B(  1-C , 24-H ) :   0.9812 B(  2-O ,  3-C ) :   1.1626 B(  3-C ,  4-O ) :   1.9643
B(  3-C ,  5-C ) :   1.0614 B(  5-C ,  6-C ) :   1.6546 B(  5-C , 12-C ) :   0.9720
B(  6-C ,  7-C ) :   0.9661 B(  6-C ,  8-N ) :   1.1656 B(  7-C , 25-H ) :   0.9606
B(  7-C , 26-H ) :   0.9904 B(  7-C , 27-H ) :   0.9602 B(  8-N ,  9-C ) :   1.1835
B(  8-N , 28-H ) :   0.9478 B(  9-C , 10-S ) :   1.6064 B(  9-C , 11-N ) :   1.3059
B( 11-N , 12-C ) :   0.9871 B( 11-N , 29-H ) :   0.9513 B( 12-C , 13-C ) :   0.9354
B( 12-C , 30-H ) :   1.0019 B( 13-C , 14-C ) :   1.3546 B( 13-C , 19-C ) :   1.3835
B( 14-C , 15-C ) :   1.3921 B( 14-C , 31-H ) :   0.9720 B( 15-C , 16-C ) :   1.3593
B( 15-C , 32-H ) :   0.9715 B( 16-C , 17-C ) :   1.3316 B( 16-C , 33-H ) :   0.9851
B( 17-C , 18-O ) :   1.1109 B( 17-C , 19-C ) :   1.3706 B( 18-O , 34-H ) :   0.9798
B( 19-C , 35-H ) :   0.9577

MP2 TOTAL ENERGY:    -1274.351657358 Eh
FINAL SINGLE POINT ENERGY     -1274.351657358098

DIPOLE MOMENT
-------------
                                X             Y             Z
Electronic contribution:      9.40619      10.67762       7.12591
Nuclear contribution   :    -10.28791     -12.44759      -7.52886
                        -----------------------------------------
Total Dipole Moment    :     -0.88172      -1.76998      -0.40294
                        -----------------------------------------
Magnitude (a.u.)       :      2.01807
Magnitude (Debye)      :      5.12953

Rotational constants in cm-1:     0.012339     0.008682     0.006294
Rotational constants in MHz :   369.917062   260.274782   188.687460

                             ****ORCA TERMINATED NORMALLY****
TOTAL RUN TIME: 0 days 2 hours 1 minutes 6 seconds 849 msec
