                         Program Version 4.2.0 -  RELEASE  -
|  1> ! ri-mp2 cc-pvtz cc-pvtz/c TightSCF  NoKeepInts
|  2>
|  3> %scf
|  4>   MaxCore 4096
|  5> end
|  6> *xyz  0  1
|  7>     C       15.2593380   14.1076398   17.0820263
|  8>     C       15.3207863   15.5631085   16.5785124
|  9>     O       16.5220617   15.7620969   15.8056291
| 10>     C       17.7232530   15.7453266   16.4526411
| 11>     O       18.3691733   14.7172090   16.5520720
| 12>     C       17.9566690   16.9298098   17.3409206
| 13>     C       17.5263061   18.1848597   17.0594642
| 14>     C       16.8010884   18.6510052   15.8143232
| 15>     N       17.8122957   19.2312973   17.9409486
| 16>     C       18.6117439   19.1249397   19.0488003
| 17>     S       18.9691522   20.4354587   19.9918317
| 18>     N       19.0980426   17.8743726   19.3377756
| 19>     C       18.7271711   16.6343695   18.6295689
| 20>     C       17.9111801   15.7195332   19.5376751
| 21>     C       18.3161822   14.3910328   19.7618062
| 22>     C       17.5519162   13.5371279   20.5745340
| 23>     C       16.3701234   14.0140654   21.1666688
| 24>     C       15.9615982   15.3356400   20.9427631
| 25>     O       14.8143178   15.7961644   21.5015366
| 26>     C       16.7251448   16.1839446   20.1350256
| 27>     H       16.0538490   13.9063957   17.8113795
| 28>     H       15.3726241   13.4041842   16.2476391
| 29>     H       14.2976972   13.9103505   17.5705448
| 30>     H       14.4486573   15.7545747   15.9402516
| 31>     H       15.2775890   16.2562216   17.4291643
| 32>     H       17.1785516   18.1365048   14.9213800
| 33>     H       16.9316140   19.7256365   15.6363818
| 34>     H       15.7254276   18.4519152   15.8881858
| 35>     H       17.4702725   20.1586269   17.7441198
| 36>     H       19.6622177   17.8198767   20.1763053
| 37>     H       19.6556269   16.1131177   18.3539171
| 38>     H       19.2171707   14.0125329   19.2846781
| 39>     H       17.8725851   12.5090422   20.7340164
| 40>     H       15.7747100   13.3559283   21.7908068
| 41>     H       14.4678989   15.0937060   22.0726332
| 42>     H       16.3929643   17.2043844   19.9780727
| 43> *
| 44>
| 45>                          ****END OF INPUT****

CARTESIAN COORDINATES (ANGSTROEM)
---------------------------------
  C     15.259338   14.107640   17.082026
  C     15.320786   15.563109   16.578512
  O     16.522062   15.762097   15.805629
  C     17.723253   15.745327   16.452641
  O     18.369173   14.717209   16.552072
  C     17.956669   16.929810   17.340921
  C     17.526306   18.184860   17.059464
  C     16.801088   18.651005   15.814323
  N     17.812296   19.231297   17.940949
  C     18.611744   19.124940   19.048800
  S     18.969152   20.435459   19.991832
  N     19.098043   17.874373   19.337776
  C     18.727171   16.634369   18.629569
  C     17.911180   15.719533   19.537675
  C     18.316182   14.391033   19.761806
  C     17.551916   13.537128   20.574534
  C     16.370123   14.014065   21.166669
  C     15.961598   15.335640   20.942763
  O     14.814318   15.796164   21.501537
  C     16.725145   16.183945   20.135026
  H     16.053849   13.906396   17.811380
  H     15.372624   13.404184   16.247639
  H     14.297697   13.910350   17.570545
  H     14.448657   15.754575   15.940252
  H     15.277589   16.256222   17.429164
  H     17.178552   18.136505   14.921380
  H     16.931614   19.725636   15.636382
  H     15.725428   18.451915   15.888186
  H     17.470273   20.158627   17.744120
  H     19.662218   17.819877   20.176305
  H     19.655627   16.113118   18.353917
  H     19.217171   14.012533   19.284678
  H     17.872585   12.509042   20.734016
  H     15.774710   13.355928   21.790807
  H     14.467899   15.093706   22.072633
  H     16.392964   17.204384   19.978073

 Total Charge           Charge          ....    0
 Multiplicity           Mult            ....    1
 Number of Electrons    NEL             ....  154
 Basis Dimension        Dim             ....  828

ORBITAL ENERGIES
----------------

  NO   OCC          E(Eh)            E(eV)
   0   2.0000     -91.890743     -2500.4742
   1   2.0000     -20.598807      -560.5220
   2   2.0000     -20.585103      -560.1491
   3   2.0000     -20.554799      -559.3245
   4   2.0000     -15.630670      -425.3322
   5   2.0000     -15.610293      -424.7777
   6   2.0000     -11.394478      -310.0595
   7   2.0000     -11.386423      -309.8403
   8   2.0000     -11.336687      -308.4869
   9   2.0000     -11.315146      -307.9008
  10   2.0000     -11.310074      -307.7628
  11   2.0000     -11.303671      -307.5885
  12   2.0000     -11.263410      -306.4930
  13   2.0000     -11.261124      -306.4308
  14   2.0000     -11.260404      -306.4112
  15   2.0000     -11.254864      -306.2604
  16   2.0000     -11.244531      -305.9792
  17   2.0000     -11.240828      -305.8785
  18   2.0000     -11.237600      -305.7907
  19   2.0000     -11.220904      -305.3363
  20   2.0000      -8.895817      -242.0675
  21   2.0000      -6.577392      -178.9799
  22   2.0000      -6.575383      -178.9253
  23   2.0000      -6.574796      -178.9093
  24   2.0000      -1.449117       -39.4325
  25   2.0000      -1.418581       -38.6015
  26   2.0000      -1.358168       -36.9576
  27   2.0000      -1.341888       -36.5146
  28   2.0000      -1.240132       -33.7457
  29   2.0000      -1.159374       -31.5482
  30   2.0000      -1.123425       -30.5699
  31   2.0000      -1.046541       -28.4778
  32   2.0000      -1.030340       -28.0370
  33   2.0000      -1.016751       -27.6672
  34   2.0000      -1.002559       -27.2810
  35   2.0000      -0.987582       -26.8735
  36   2.0000      -0.926111       -25.2008
  37   2.0000      -0.885990       -24.1090
  38   2.0000      -0.852883       -23.2081
  39   2.0000      -0.841506       -22.8985
  40   2.0000      -0.835221       -22.7275
  41   2.0000      -0.830269       -22.5928
  42   2.0000      -0.747298       -20.3350
  43   2.0000      -0.732781       -19.9400
  44   2.0000      -0.730281       -19.8719
  45   2.0000      -0.696915       -18.9640
  46   2.0000      -0.687128       -18.6977
  47   2.0000      -0.680424       -18.5153
  48   2.0000      -0.675644       -18.3852
  49   2.0000      -0.666315       -18.1314
  50   2.0000      -0.651130       -17.7181
  51   2.0000      -0.648885       -17.6570
  52   2.0000      -0.639014       -17.3884
  53   2.0000      -0.611277       -16.6337
  54   2.0000      -0.607790       -16.5388
  55   2.0000      -0.603893       -16.4328
  56   2.0000      -0.600266       -16.3341
  57   2.0000      -0.580375       -15.7928
  58   2.0000      -0.575978       -15.6732
  59   2.0000      -0.569535       -15.4978
  60   2.0000      -0.557344       -15.1661
  61   2.0000      -0.553354       -15.0575
  62   2.0000      -0.537678       -14.6310
  63   2.0000      -0.526718       -14.3327
  64   2.0000      -0.520431       -14.1616
  65   2.0000      -0.512955       -13.9582
  66   2.0000      -0.501872       -13.6566
  67   2.0000      -0.491198       -13.3662
  68   2.0000      -0.485399       -13.2084
  69   2.0000      -0.468087       -12.7373
  70   2.0000      -0.459114       -12.4931
  71   2.0000      -0.448533       -12.2052
  72   2.0000      -0.357076        -9.7165
  73   2.0000      -0.350982        -9.5507
  74   2.0000      -0.330087        -8.9821
  75   2.0000      -0.322413        -8.7733
  76   2.0000      -0.318393        -8.6639
  77   0.0000       0.070745         1.9251
  78   0.0000       0.102734         2.7955
  79   0.0000       0.118361         3.2208
  80   0.0000       0.129126         3.5137
  81   0.0000       0.136843         3.7237

MULLIKEN ATOMIC CHARGES
-----------------------
   0 C :   -0.273091
   1 C :    0.001556
   2 O :   -0.368157
   3 C :    0.463567
   4 O :   -0.386713
   5 C :   -0.251088
   6 C :    0.166580
   7 C :   -0.289999
   8 N :   -0.125707
   9 C :    0.202669
  10 S :   -0.437670
  11 N :   -0.202658
  12 C :    0.061955
  13 C :    0.040226
  14 C :   -0.167667
  15 C :   -0.131529
  16 C :   -0.276322
  17 C :    0.315906
  18 O :   -0.360286
  19 C :   -0.294751
  20 H :    0.112169
  21 H :    0.109177
  22 H :    0.092013
  23 H :    0.120637
  24 H :    0.094824
  25 H :    0.134985
  26 H :    0.111071
  27 H :    0.120996
  28 H :    0.197367
  29 H :    0.195018
  30 H :    0.155973
  31 H :    0.158100
  32 H :    0.162297
  33 H :    0.131720
  34 H :    0.241880
  35 H :    0.174953
Sum of atomic charges:   -0.0000000

LOEWDIN ATOMIC CHARGES
----------------------
   0 C :    0.109994
   1 C :   -0.023929
   2 O :    0.288015
   3 C :   -0.419124
   4 O :    0.132783
   5 C :   -0.095273
   6 C :   -0.076256
   7 C :    0.127597
   8 N :    0.404373
   9 C :   -0.457569
  10 S :   -0.034499
  11 N :    0.397231
  12 C :   -0.046211
  13 C :   -0.042864
  14 C :    0.022005
  15 C :    0.043180
  16 C :   -0.000372
  17 C :   -0.193701
  18 O :    0.393816
  19 C :    0.028072
  20 H :   -0.025077
  21 H :   -0.022927
  22 H :   -0.027851
  23 H :   -0.023948
  24 H :   -0.038901
  25 H :   -0.005740
  26 H :   -0.017723
  27 H :   -0.012199
  28 H :   -0.058201
  29 H :   -0.063641
  30 H :   -0.004255
  31 H :   -0.023846
  32 H :   -0.019576
  33 H :   -0.034993
  34 H :   -0.153123
  35 H :   -0.025267

  Mayer bond orders larger than 0.100000
B(  0-C ,  1-C ) :   0.9840 B(  0-C , 20-H ) :   0.9669 B(  0-C , 21-H ) :   0.9768
B(  0-C , 22-H ) :   0.9758 B(  1-C ,  2-O ) :   0.8966 B(  1-C , 23-H ) :   0.9783
B(  1-C , 24-H ) :   0.9655 B(  2-O ,  3-C ) :   1.1082 B(  3-C ,  4-O ) :   2.0655
B(  3-C ,  5-C ) :   0.9819 B(  5-C ,  6-C ) :   1.6612 B(  5-C , 12-C ) :   0.9664
B(  6-C ,  7-C ) :   0.9496 B(  6-C ,  8-N ) :   1.1430 B(  7-C , 25-H ) :   0.9686
B(  7-C , 26-H ) :   0.9861 B(  7-C , 27-H ) :   0.9646 B(  8-N ,  9-C ) :   1.1834
B(  8-N , 28-H ) :   0.9493 B(  9-C , 10-S ) :   1.6128 B(  9-C , 11-N ) :   1.2997
B( 11-N , 12-C ) :   0.9949 B( 11-N , 29-H ) :   0.9516 B( 12-C , 13-C ) :   0.9420
B( 12-C , 30-H ) :   0.9982 B( 13-C , 14-C ) :   1.3814 B( 13-C , 19-C ) :   1.3556
B( 14-C , 15-C ) :   1.3918 B( 14-C , 31-H ) :   0.9639 B( 15-C , 16-C ) :   1.3633
B( 15-C , 32-H ) :   0.9711 B( 16-C , 17-C ) :   1.3318 B( 16-C , 33-H ) :   0.9846
B( 17-C , 18-O ) :   1.1101 B( 17-C , 19-C ) :   1.3673 B( 18-O , 34-H ) :   0.9794
B( 19-C , 35-H ) :   0.9572

MP2 TOTAL ENERGY:    -1274.332454173 Eh
FINAL SINGLE POINT ENERGY     -1274.332454172531

DIPOLE MOMENT
-------------
                                X             Y             Z
Electronic contribution:     10.09155       9.00894       5.62630
Nuclear contribution   :    -11.54120      -9.94055      -5.98946
                        -----------------------------------------
Total Dipole Moment    :     -1.44965      -0.93162      -0.36317
                        -----------------------------------------
Magnitude (a.u.)       :      1.76104
Magnitude (Debye)      :      4.47622

Rotational constants in cm-1:     0.012497     0.009237     0.006791
Rotational constants in MHz :   374.643343   276.919490   203.598844

                             ****ORCA TERMINATED NORMALLY****
TOTAL RUN TIME: 0 days 1 hours 52 minutes 39 seconds 671 msec
