                         Program Version 4.2.0 -  RELEASE  -
|  1> ! ri-mp2 cc-pvtz cc-pvtz/c TightSCF  NoKeepInts
|  2>
|  3> %scf
|  4>   MaxCore 4096
|  5> end
|  6> *xyz  0  1
|  7>     C       14.1728035   14.9955079   15.5557587
|  8>     C       15.6095236   14.6132776   15.9489549
|  9>     O       16.3772703   15.8255470   16.0081439
| 10>     C       17.5859434   15.7902269   16.6382387
| 11>     O       18.2273819   14.7561370   16.7298617
| 12>     C       17.8236407   16.9588201   17.5498505
| 13>     C       17.2544108   18.1830793   17.3996549
| 14>     C       16.3075674   18.6408189   16.3091526
| 15>     N       17.5909930   19.2177350   18.2786144
| 16>     C       18.5828280   19.1530658   19.2215016
| 17>     S       19.0030665   20.4655855   20.1359736
| 18>     N       19.2102464   17.9417075   19.3667911
| 19>     C       18.7912999   16.6903975   18.7076260
| 20>     C       18.1747056   15.7325313   19.7238368
| 21>     C       18.6806646   14.4278545   19.8717523
| 22>     C       18.1135531   13.5404105   20.8016769
| 23>     C       17.0299277   13.9599809   21.5918292
| 24>     C       16.5203329   15.2572221   21.4450728
| 25>     O       15.4696815   15.6632348   22.2017891
| 26>     C       17.0865641   16.1380418   20.5182715
| 27>     H       13.7371446   15.6770732   16.2968575
| 28>     H       13.5399758   14.1015316   15.4977840
| 29>     H       14.1586286   15.4905502   14.5768099
| 30>     H       15.5984071   14.1198268   16.9308766
| 31>     H       16.0420684   13.9206592   15.2144622
| 32>     H       16.6707698   18.3319396   15.3209805
| 33>     H       16.1910642   19.7309895   16.2809063
| 34>     H       15.3115901   18.2037563   16.4533481
| 35>     H       17.1420826   20.1150524   18.1873146
| 36>     H       19.9163962   17.9119777   20.0909587
| 37>     H       19.6913393   16.2168212   18.2894675
| 38>     H       19.5073679   14.0951115   19.2487808
| 39>     H       18.5108603   12.5319668   20.9018942
| 40>     H       16.5878776   13.2772719   22.3097700
| 41>     H       15.2501828   14.9377675   22.8053873
| 42>     H       16.6788397   17.1385228   20.4240506
| 43> *
| 44>
| 45>                          ****END OF INPUT****

CARTESIAN COORDINATES (ANGSTROEM)
---------------------------------
  C     14.172803   14.995508   15.555759
  C     15.609524   14.613278   15.948955
  O     16.377270   15.825547   16.008144
  C     17.585943   15.790227   16.638239
  O     18.227382   14.756137   16.729862
  C     17.823641   16.958820   17.549850
  C     17.254411   18.183079   17.399655
  C     16.307567   18.640819   16.309153
  N     17.590993   19.217735   18.278614
  C     18.582828   19.153066   19.221502
  S     19.003066   20.465585   20.135974
  N     19.210246   17.941707   19.366791
  C     18.791300   16.690397   18.707626
  C     18.174706   15.732531   19.723837
  C     18.680665   14.427854   19.871752
  C     18.113553   13.540410   20.801677
  C     17.029928   13.959981   21.591829
  C     16.520333   15.257222   21.445073
  O     15.469682   15.663235   22.201789
  C     17.086564   16.138042   20.518272
  H     13.737145   15.677073   16.296858
  H     13.539976   14.101532   15.497784
  H     14.158629   15.490550   14.576810
  H     15.598407   14.119827   16.930877
  H     16.042068   13.920659   15.214462
  H     16.670770   18.331940   15.320980
  H     16.191064   19.730989   16.280906
  H     15.311590   18.203756   16.453348
  H     17.142083   20.115052   18.187315
  H     19.916396   17.911978   20.090959
  H     19.691339   16.216821   18.289468
  H     19.507368   14.095111   19.248781
  H     18.510860   12.531967   20.901894
  H     16.587878   13.277272   22.309770
  H     15.250183   14.937767   22.805387
  H     16.678840   17.138523   20.424051

 Total Charge           Charge          ....    0
 Multiplicity           Mult            ....    1
 Number of Electrons    NEL             ....  154
 Basis Dimension        Dim             ....  828

ORBITAL ENERGIES
----------------

  NO   OCC          E(Eh)            E(eV)
   0   2.0000     -91.888202     -2500.4051
   1   2.0000     -20.598050      -560.5014
   2   2.0000     -20.592812      -560.3589
   3   2.0000     -20.548706      -559.1587
   4   2.0000     -15.628326      -425.2684
   5   2.0000     -15.607085      -424.6904
   6   2.0000     -11.394577      -310.0622
   7   2.0000     -11.383272      -309.7546
   8   2.0000     -11.335177      -308.4459
   9   2.0000     -11.308682      -307.7249
  10   2.0000     -11.306470      -307.6647
  11   2.0000     -11.299263      -307.4686
  12   2.0000     -11.260322      -306.4089
  13   2.0000     -11.259269      -306.3803
  14   2.0000     -11.254490      -306.2502
  15   2.0000     -11.248778      -306.0948
  16   2.0000     -11.238449      -305.8137
  17   2.0000     -11.234824      -305.7151
  18   2.0000     -11.234518      -305.7068
  19   2.0000     -11.231527      -305.6254
  20   2.0000      -8.893267      -241.9981
  21   2.0000      -6.574845      -178.9106
  22   2.0000      -6.572837      -178.8560
  23   2.0000      -6.572253      -178.8401
  24   2.0000      -1.455192       -39.5978
  25   2.0000      -1.412555       -38.4376
  26   2.0000      -1.357152       -36.9300
  27   2.0000      -1.339307       -36.4444
  28   2.0000      -1.237121       -33.6638
  29   2.0000      -1.153125       -31.3781
  30   2.0000      -1.120049       -30.4781
  31   2.0000      -1.044544       -28.4235
  32   2.0000      -1.037152       -28.2223
  33   2.0000      -1.010514       -27.4975
  34   2.0000      -0.998100       -27.1597
  35   2.0000      -0.983773       -26.7698
  36   2.0000      -0.921602       -25.0781
  37   2.0000      -0.887153       -24.1407
  38   2.0000      -0.847100       -23.0508
  39   2.0000      -0.835775       -22.7426
  40   2.0000      -0.828928       -22.5563
  41   2.0000      -0.819615       -22.3029
  42   2.0000      -0.760734       -20.7006
  43   2.0000      -0.735902       -20.0249
  44   2.0000      -0.725704       -19.7474
  45   2.0000      -0.691419       -18.8145
  46   2.0000      -0.683183       -18.5903
  47   2.0000      -0.682536       -18.5728
  48   2.0000      -0.676384       -18.4053
  49   2.0000      -0.658378       -17.9154
  50   2.0000      -0.650955       -17.7134
  51   2.0000      -0.643749       -17.5173
  52   2.0000      -0.635254       -17.2861
  53   2.0000      -0.602253       -16.3881
  54   2.0000      -0.601030       -16.3549
  55   2.0000      -0.600425       -16.3384
  56   2.0000      -0.596180       -16.2229
  57   2.0000      -0.576820       -15.6961
  58   2.0000      -0.574167       -15.6239
  59   2.0000      -0.564652       -15.3650
  60   2.0000      -0.560898       -15.2628
  61   2.0000      -0.553320       -15.0566
  62   2.0000      -0.542213       -14.7544
  63   2.0000      -0.518761       -14.1162
  64   2.0000      -0.516441       -14.0531
  65   2.0000      -0.511504       -13.9187
  66   2.0000      -0.506266       -13.7762
  67   2.0000      -0.496319       -13.5055
  68   2.0000      -0.481282       -13.0963
  69   2.0000      -0.462550       -12.5866
  70   2.0000      -0.460990       -12.5442
  71   2.0000      -0.455129       -12.3847
  72   2.0000      -0.354035        -9.6338
  73   2.0000      -0.344963        -9.3869
  74   2.0000      -0.327376        -8.9084
  75   2.0000      -0.316107        -8.6017
  76   2.0000      -0.314643        -8.5619
  77   0.0000       0.074767         2.0345
  78   0.0000       0.110674         3.0116
  79   0.0000       0.119904         3.2628
  80   0.0000       0.135059         3.6751
  81   0.0000       0.138840         3.7780

MULLIKEN ATOMIC CHARGES
-----------------------
   0 C :   -0.279986
   1 C :    0.055216
   2 O :   -0.346359
   3 C :    0.428496
   4 O :   -0.414167
   5 C :   -0.172077
   6 C :    0.142819
   7 C :   -0.286895
   8 N :   -0.123979
   9 C :    0.202191
  10 S :   -0.439608
  11 N :   -0.198493
  12 C :    0.042439
  13 C :    0.053901
  14 C :   -0.161075
  15 C :   -0.133803
  16 C :   -0.280025
  17 C :    0.311316
  18 O :   -0.359005
  19 C :   -0.274151
  20 H :    0.094137
  21 H :    0.102197
  22 H :    0.097085
  23 H :    0.090702
  24 H :    0.099367
  25 H :    0.126343
  26 H :    0.104551
  27 H :    0.126310
  28 H :    0.197021
  29 H :    0.193845
  30 H :    0.153930
  31 H :    0.153930
  32 H :    0.159657
  33 H :    0.128665
  34 H :    0.240243
  35 H :    0.165261
Sum of atomic charges:   -0.0000000

LOEWDIN ATOMIC CHARGES
----------------------
   0 C :    0.107231
   1 C :   -0.017812
   2 O :    0.302077
   3 C :   -0.415458
   4 O :    0.111782
   5 C :   -0.092146
   6 C :   -0.068889
   7 C :    0.125395
   8 N :    0.404518
   9 C :   -0.458374
  10 S :   -0.036234
  11 N :    0.397557
  12 C :   -0.045996
  13 C :   -0.039211
  14 C :    0.021988
  15 C :    0.040913
  16 C :   -0.002515
  17 C :   -0.193075
  18 O :    0.392986
  19 C :    0.028008
  20 H :   -0.028515
  21 H :   -0.022760
  22 H :   -0.027361
  23 H :   -0.026654
  24 H :   -0.028622
  25 H :   -0.008269
  26 H :   -0.020452
  27 H :   -0.010420
  28 H :   -0.059016
  29 H :   -0.063817
  30 H :   -0.004768
  31 H :   -0.025118
  32 H :   -0.021009
  33 H :   -0.036272
  34 H :   -0.154763
  35 H :   -0.024927

  Mayer bond orders larger than 0.100000
B(  0-C ,  1-C ) :   0.9698 B(  0-C , 20-H ) :   0.9778 B(  0-C , 21-H ) :   0.9785
B(  0-C , 22-H ) :   0.9770 B(  1-C ,  2-O ) :   0.9067 B(  1-C , 23-H ) :   0.9727
B(  1-C , 24-H ) :   0.9810 B(  2-O ,  3-C ) :   1.1348 B(  3-C ,  4-O ) :   2.0063
B(  3-C ,  5-C ) :   1.0401 B(  5-C ,  6-C ) :   1.6554 B(  5-C , 12-C ) :   0.9664
B(  6-C ,  7-C ) :   0.9532 B(  6-C ,  8-N ) :   1.1408 B(  7-C , 25-H ) :   0.9676
B(  7-C , 26-H ) :   0.9908 B(  7-C , 27-H ) :   0.9630 B(  8-N ,  9-C ) :   1.1812
B(  8-N , 28-H ) :   0.9491 B(  9-C , 10-S ) :   1.6105 B(  9-C , 11-N ) :   1.3028
B( 11-N , 12-C ) :   0.9912 B( 11-N , 29-H ) :   0.9519 B( 12-C , 13-C ) :   0.9465
B( 12-C , 30-H ) :   0.9991 B( 13-C , 14-C ) :   1.3764 B( 13-C , 19-C ) :   1.3693
B( 14-C , 15-C ) :   1.3947 B( 14-C , 31-H ) :   0.9646 B( 15-C , 16-C ) :   1.3627
B( 15-C , 32-H ) :   0.9713 B( 16-C , 17-C ) :   1.3312 B( 16-C , 33-H ) :   0.9858
B( 17-C , 18-O ) :   1.1083 B( 17-C , 19-C ) :   1.3783 B( 18-O , 34-H ) :   0.9804
B( 19-C , 35-H ) :   0.9584

MP2 TOTAL ENERGY:    -1274.340911158 Eh
FINAL SINGLE POINT ENERGY     -1274.340911157839

DIPOLE MOMENT
-------------
                                X             Y             Z
Electronic contribution:     12.08623       8.65346       9.66564
Nuclear contribution   :    -13.53925      -9.99022     -10.51964
                        -----------------------------------------
Total Dipole Moment    :     -1.45301      -1.33677      -0.85400
                        -----------------------------------------
Magnitude (a.u.)       :      2.15116
Magnitude (Debye)      :      5.46783

Rotational constants in cm-1:     0.010455     0.009148     0.006157
Rotational constants in MHz :   313.431447   274.258733   184.578566

                             ****ORCA TERMINATED NORMALLY****
TOTAL RUN TIME: 0 days 1 hours 34 minutes 13 seconds 979 msec
