                         Program Version 4.2.0 -  RELEASE  -
|  1> ! ri-mp2 cc-pvtz cc-pvtz/c TightSCF  NoKeepInts
|  2>
|  3> %scf
|  4>   MaxCore 4096
|  5> end
|  6> *xyz  0  1
|  7>     C       15.8373606   13.6783669   15.0924649
|  8>     C       15.4984328   14.3566073   16.4305772
|  9>     O       16.5658138   15.2720962   16.7352948
| 10>     C       16.3305532   16.6188260   16.7611255
| 11>     O       15.3630328   17.1241572   16.2175804
| 12>     C       17.3181496   17.3629807   17.6171166
| 13>     C       17.3014815   18.7145369   17.7405366
| 14>     C       16.3422276   19.6832575   17.0826185
| 15>     N       18.2682952   19.3596553   18.5176253
| 16>     C       19.3378528   18.7425381   19.1094916
| 17>     S       20.4927696   19.5929978   19.9333693
| 18>     N       19.4051709   17.3786305   18.9818127
| 19>     C       18.3621317   16.5291460   18.3782045
| 20>     C       17.7195363   15.6583709   19.4544190
| 21>     C       17.8943738   14.2616778   19.4406207
| 22>     C       17.3007565   13.4568789   20.4275692
| 23>     C       16.5283036   14.0533151   21.4387781
| 24>     C       16.3557500   15.4441927   21.4581385
| 25>     O       15.6113638   16.0230713   22.4337298
| 26>     C       16.9471826   16.2423918   20.4741680
| 27>     H       15.8858673   14.4218952   14.2868490
| 28>     H       15.0703643   12.9395054   14.8305585
| 29>     H       16.8051622   13.1652364   15.1509153
| 30>     H       14.5231192   14.8582852   16.3678271
| 31>     H       15.4366973   13.5951740   17.2188679
| 32>     H       15.3129416   19.4863543   17.4089580
| 33>     H       16.3663582   19.5699168   15.9913232
| 34>     H       16.5672662   20.7316890   17.3105230
| 35>     H       18.2356722   20.3613056   18.6210282
| 36>     H       20.1850922   16.9480269   19.4615462
| 37>     H       18.8584956   15.8721171   17.6501899
| 38>     H       18.4868116   13.7977312   18.6565280
| 39>     H       17.4405610   12.3774787   20.4073505
| 40>     H       16.0684484   13.4362831   22.2036994
| 41>     H       15.3164734   15.3199335   23.0315706
| 42>     H       16.8071307   17.3173726   20.5110239
| 43> *
| 44>
| 45>                          ****END OF INPUT****

CARTESIAN COORDINATES (ANGSTROEM)
---------------------------------
  C     15.837361   13.678367   15.092465
  C     15.498433   14.356607   16.430577
  O     16.565814   15.272096   16.735295
  C     16.330553   16.618826   16.761125
  O     15.363033   17.124157   16.217580
  C     17.318150   17.362981   17.617117
  C     17.301482   18.714537   17.740537
  C     16.342228   19.683257   17.082618
  N     18.268295   19.359655   18.517625
  C     19.337853   18.742538   19.109492
  S     20.492770   19.592998   19.933369
  N     19.405171   17.378630   18.981813
  C     18.362132   16.529146   18.378204
  C     17.719536   15.658371   19.454419
  C     17.894374   14.261678   19.440621
  C     17.300756   13.456879   20.427569
  C     16.528304   14.053315   21.438778
  C     16.355750   15.444193   21.458139
  O     15.611364   16.023071   22.433730
  C     16.947183   16.242392   20.474168
  H     15.885867   14.421895   14.286849
  H     15.070364   12.939505   14.830559
  H     16.805162   13.165236   15.150915
  H     14.523119   14.858285   16.367827
  H     15.436697   13.595174   17.218868
  H     15.312942   19.486354   17.408958
  H     16.366358   19.569917   15.991323
  H     16.567266   20.731689   17.310523
  H     18.235672   20.361306   18.621028
  H     20.185092   16.948027   19.461546
  H     18.858496   15.872117   17.650190
  H     18.486812   13.797731   18.656528
  H     17.440561   12.377479   20.407350
  H     16.068448   13.436283   22.203699
  H     15.316473   15.319933   23.031571
  H     16.807131   17.317373   20.511024

 Total Charge           Charge          ....    0
 Multiplicity           Mult            ....    1
 Number of Electrons    NEL             ....  154
 Basis Dimension        Dim             ....  828

ORBITAL ENERGIES
----------------

  NO   OCC          E(Eh)            E(eV)
   0   2.0000     -91.888907     -2500.4243
   1   2.0000     -20.600195      -560.5598
   2   2.0000     -20.596283      -560.4534
   3   2.0000     -20.542093      -558.9788
   4   2.0000     -15.629107      -425.2896
   5   2.0000     -15.608242      -424.7218
   6   2.0000     -11.395386      -310.0842
   7   2.0000     -11.384010      -309.7746
   8   2.0000     -11.335965      -308.4673
   9   2.0000     -11.313483      -307.8555
  10   2.0000     -11.308964      -307.7326
  11   2.0000     -11.295269      -307.3599
  12   2.0000     -11.259460      -306.3855
  13   2.0000     -11.258799      -306.3675
  14   2.0000     -11.255049      -306.2655
  15   2.0000     -11.252035      -306.1834
  16   2.0000     -11.242813      -305.9325
  17   2.0000     -11.238223      -305.8076
  18   2.0000     -11.238035      -305.8025
  19   2.0000     -11.226894      -305.4993
  20   2.0000      -8.893966      -242.0171
  21   2.0000      -6.575540      -178.9295
  22   2.0000      -6.573536      -178.8750
  23   2.0000      -6.572949      -178.8590
  24   2.0000      -1.451045       -39.4849
  25   2.0000      -1.415933       -38.5295
  26   2.0000      -1.354866       -36.8678
  27   2.0000      -1.340045       -36.4645
  28   2.0000      -1.238484       -33.7009
  29   2.0000      -1.157406       -31.4946
  30   2.0000      -1.120343       -30.4861
  31   2.0000      -1.042892       -28.3785
  32   2.0000      -1.038263       -28.2526
  33   2.0000      -1.014856       -27.6156
  34   2.0000      -0.995514       -27.0893
  35   2.0000      -0.984130       -26.7796
  36   2.0000      -0.922446       -25.1010
  37   2.0000      -0.890012       -24.2185
  38   2.0000      -0.846916       -23.0458
  39   2.0000      -0.837540       -22.7906
  40   2.0000      -0.833833       -22.6898
  41   2.0000      -0.818572       -22.2745
  42   2.0000      -0.762469       -20.7478
  43   2.0000      -0.732354       -19.9284
  44   2.0000      -0.723051       -19.6752
  45   2.0000      -0.695359       -18.9217
  46   2.0000      -0.687796       -18.7159
  47   2.0000      -0.680140       -18.5076
  48   2.0000      -0.672233       -18.2924
  49   2.0000      -0.654499       -17.8098
  50   2.0000      -0.646224       -17.5847
  51   2.0000      -0.643738       -17.5170
  52   2.0000      -0.629905       -17.1406
  53   2.0000      -0.613925       -16.7057
  54   2.0000      -0.606535       -16.5047
  55   2.0000      -0.599368       -16.3096
  56   2.0000      -0.598492       -16.2858
  57   2.0000      -0.578370       -15.7382
  58   2.0000      -0.571041       -15.5388
  59   2.0000      -0.568171       -15.4607
  60   2.0000      -0.563650       -15.3377
  61   2.0000      -0.539793       -14.6885
  62   2.0000      -0.534552       -14.5459
  63   2.0000      -0.530551       -14.4370
  64   2.0000      -0.524798       -14.2805
  65   2.0000      -0.513437       -13.9713
  66   2.0000      -0.501398       -13.6437
  67   2.0000      -0.496784       -13.5182
  68   2.0000      -0.486503       -13.2384
  69   2.0000      -0.464230       -12.6323
  70   2.0000      -0.453972       -12.3532
  71   2.0000      -0.449198       -12.2233
  72   2.0000      -0.354310        -9.6413
  73   2.0000      -0.349179        -9.5017
  74   2.0000      -0.328238        -8.9318
  75   2.0000      -0.321210        -8.7406
  76   2.0000      -0.316030        -8.5996
  77   0.0000       0.075952         2.0668
  78   0.0000       0.106477         2.8974
  79   0.0000       0.124391         3.3848
  80   0.0000       0.132341         3.6012
  81   0.0000       0.136183         3.7057

MULLIKEN ATOMIC CHARGES
-----------------------
   0 C :   -0.268020
   1 C :    0.025507
   2 O :   -0.357010
   3 C :    0.468793
   4 O :   -0.433338
   5 C :   -0.226454
   6 C :    0.152172
   7 C :   -0.273373
   8 N :   -0.121014
   9 C :    0.210575
  10 S :   -0.439633
  11 N :   -0.203838
  12 C :    0.053718
  13 C :    0.068064
  14 C :   -0.189308
  15 C :   -0.131616
  16 C :   -0.279484
  17 C :    0.316187
  18 O :   -0.356521
  19 C :   -0.268743
  20 H :    0.101832
  21 H :    0.090386
  22 H :    0.090695
  23 H :    0.114220
  24 H :    0.107970
  25 H :    0.132345
  26 H :    0.130531
  27 H :    0.095039
  28 H :    0.197480
  29 H :    0.194587
  30 H :    0.150748
  31 H :    0.151039
  32 H :    0.161061
  33 H :    0.129932
  34 H :    0.240627
  35 H :    0.164840
Sum of atomic charges:   -0.0000000

LOEWDIN ATOMIC CHARGES
----------------------
   0 C :    0.104555
   1 C :   -0.013524
   2 O :    0.309993
   3 C :   -0.414466
   4 O :    0.095649
   5 C :   -0.094892
   6 C :   -0.058790
   7 C :    0.131575
   8 N :    0.406579
   9 C :   -0.456568
  10 S :   -0.035275
  11 N :    0.396500
  12 C :   -0.052537
  13 C :   -0.038597
  14 C :    0.014401
  15 C :    0.038258
  16 C :   -0.001961
  17 C :   -0.189415
  18 O :    0.395225
  19 C :    0.031555
  20 H :   -0.024755
  21 H :   -0.026799
  22 H :   -0.029591
  23 H :   -0.028014
  24 H :   -0.029249
  25 H :   -0.004481
  26 H :   -0.004016
  27 H :   -0.023402
  28 H :   -0.057555
  29 H :   -0.064560
  30 H :   -0.010892
  31 H :   -0.030183
  32 H :   -0.021520
  33 H :   -0.035645
  34 H :   -0.153940
  35 H :   -0.023663

  Mayer bond orders larger than 0.100000
B(  0-C ,  1-C ) :   0.9736 B(  0-C , 20-H ) :   0.9788 B(  0-C , 21-H ) :   0.9755
B(  0-C , 22-H ) :   0.9790 B(  1-C ,  2-O ) :   0.8800 B(  1-C , 23-H ) :   0.9739
B(  1-C , 24-H ) :   0.9777 B(  2-O ,  3-C ) :   1.1640 B(  3-C ,  4-O ) :   1.9701
B(  3-C ,  5-C ) :   1.0616 B(  5-C ,  6-C ) :   1.6553 B(  5-C , 12-C ) :   0.9722
B(  6-C ,  7-C ) :   0.9671 B(  6-C ,  8-N ) :   1.1641 B(  7-C , 25-H ) :   0.9600
B(  7-C , 26-H ) :   0.9606 B(  7-C , 27-H ) :   0.9905 B(  8-N ,  9-C ) :   1.1827
B(  8-N , 28-H ) :   0.9479 B(  9-C , 10-S ) :   1.6079 B(  9-C , 11-N ) :   1.3048
B( 11-N , 12-C ) :   0.9885 B( 11-N , 29-H ) :   0.9517 B( 12-C , 13-C ) :   0.9360
B( 12-C , 30-H ) :   1.0027 B( 13-C , 14-C ) :   1.3530 B( 13-C , 19-C ) :   1.3829
B( 14-C , 15-C ) :   1.3899 B( 14-C , 31-H ) :   0.9717 B( 15-C , 16-C ) :   1.3633
B( 15-C , 32-H ) :   0.9705 B( 16-C , 17-C ) :   1.3315 B( 16-C , 33-H ) :   0.9851
B( 17-C , 18-O ) :   1.1101 B( 17-C , 19-C ) :   1.3724 B( 18-O , 34-H ) :   0.9799
B( 19-C , 35-H ) :   0.9582

MP2 TOTAL ENERGY:    -1274.348599777 Eh
FINAL SINGLE POINT ENERGY     -1274.348599777422

DIPOLE MOMENT
-------------
                                X             Y             Z
Electronic contribution:      9.31611      10.22104       9.64759
Nuclear contribution   :    -10.46154     -11.84844      -9.95589
                        -----------------------------------------
Total Dipole Moment    :     -1.14543      -1.62740      -0.30830
                        -----------------------------------------
Magnitude (a.u.)       :      2.01383
Magnitude (Debye)      :      5.11874

Rotational constants in cm-1:     0.011243     0.008626     0.006071
Rotational constants in MHz :   337.051867   258.604411   181.997549

                             ****ORCA TERMINATED NORMALLY****
TOTAL RUN TIME: 0 days 1 hours 40 minutes 13 seconds 818 msec
