                         Program Version 5.0.0 -  RELEASE  -
|  1> ! ri-mp2 cc-pvtz cc-pvtz/c TightSCF NoKeepInts
|  2>
|  3> %scf
|  4>   MaxCore 4096
|  5> end
|  6> *xyz  0  1
|  7>     C       15.1039706   13.8803995   16.0855278
|  8>     C       16.2279161   14.5506176   16.8923670
|  9>     O       17.0408370   15.2757643   15.9562831
| 10>     C       17.1533938   16.6376922   16.0054884
| 11>     O       16.9060388   17.2862025   15.0062560
| 12>     C       17.5518690   17.2646715   17.3191984
| 13>     C       17.3040754   18.5761906   17.5728465
| 14>     C       16.4568693   19.5262530   16.7542668
| 15>     N       17.9193678   19.2051044   18.6604690
| 16>     C       19.0020113   18.6912588   19.3262493
| 17>     S       19.8661789   19.5804344   20.4207213
| 18>     N       19.3462446   17.3998009   19.0125132
| 19>     C       18.4649297   16.4743000   18.2781203
| 20>     C       17.7328354   15.6209914   19.3106731
| 21>     C       18.2017283   14.3271202   19.6085179
| 22>     C       17.5460844   13.5290971   20.5608646
| 23>     C       16.4187595   14.0321615   21.2317395
| 24>     C       15.9606543   15.3268900   20.9542461
| 25>     O       14.8759642   15.8189495   21.6032802
| 26>     C       16.6128168   16.1177789   20.0033248
| 27>     H       14.4968506   14.6341097   15.5681215
| 28>     H       14.4462290   13.3027587   16.7462431
| 29>     H       15.5213905   13.1991047   15.3334890
| 30>     H       15.7728177   15.2153480   17.6362635
| 31>     H       16.8208446   13.7795974   17.3989439
| 32>     H       15.5278984   19.0414958   16.4285678
| 33>     H       16.9959051   19.8375857   15.8498899
| 34>     H       16.1763825   20.4296342   17.3084468
| 35>     H       17.6949174   20.1641337   18.8736834
| 36>     H       20.1422496   17.0409032   19.5238212
| 37>     H       19.0984043   15.8145992   17.6677865
| 38>     H       19.0778858   13.9361289   19.0972924
| 39>     H       17.9151656   12.5285398   20.7814328
| 40>     H       15.9106908   13.4203996   21.9703681
| 41>     H       14.6109524   15.1651624   22.2682433
| 42>     H       16.2458705   17.1208206   19.8184536
| 43> *
| 44>
| 45>                          ****END OF INPUT****

CARTESIAN COORDINATES (ANGSTROEM)
---------------------------------
  C     15.103971   13.880399   16.085528
  C     16.227916   14.550618   16.892367
  O     17.040837   15.275764   15.956283
  C     17.153394   16.637692   16.005488
  O     16.906039   17.286202   15.006256
  C     17.551869   17.264671   17.319198
  C     17.304075   18.576191   17.572847
  C     16.456869   19.526253   16.754267
  N     17.919368   19.205104   18.660469
  C     19.002011   18.691259   19.326249
  S     19.866179   19.580434   20.420721
  N     19.346245   17.399801   19.012513
  C     18.464930   16.474300   18.278120
  C     17.732835   15.620991   19.310673
  C     18.201728   14.327120   19.608518
  C     17.546084   13.529097   20.560865
  C     16.418760   14.032162   21.231739
  C     15.960654   15.326890   20.954246
  O     14.875964   15.818949   21.603280
  C     16.612817   16.117779   20.003325
  H     14.496851   14.634110   15.568122
  H     14.446229   13.302759   16.746243
  H     15.521391   13.199105   15.333489
  H     15.772818   15.215348   17.636263
  H     16.820845   13.779597   17.398944
  H     15.527898   19.041496   16.428568
  H     16.995905   19.837586   15.849890
  H     16.176382   20.429634   17.308447
  H     17.694917   20.164134   18.873683
  H     20.142250   17.040903   19.523821
  H     19.098404   15.814599   17.667786
  H     19.077886   13.936129   19.097292
  H     17.915166   12.528540   20.781433
  H     15.910691   13.420400   21.970368
  H     14.610952   15.165162   22.268243
  H     16.245870   17.120821   19.818454

 Total Charge           Charge          ....    0
 Multiplicity           Mult            ....    1
 Number of Electrons    NEL             ....  154
 Basis Dimension        Dim             ....  828

ORBITAL ENERGIES
----------------

  NO   OCC          E(Eh)            E(eV)
   0   2.0000     -91.892438     -2500.5203
   1   2.0000     -20.604844      -560.6863
   2   2.0000     -20.589770      -560.2761
   3   2.0000     -20.543646      -559.0210
   4   2.0000     -15.632412      -425.3795
   5   2.0000     -15.611696      -424.8158
   6   2.0000     -11.392973      -310.0186
   7   2.0000     -11.386787      -309.8502
   8   2.0000     -11.337688      -308.5142
   9   2.0000     -11.322908      -308.1120
  10   2.0000     -11.317784      -307.9726
  11   2.0000     -11.296037      -307.3808
  12   2.0000     -11.268574      -306.6335
  13   2.0000     -11.264593      -306.5252
  14   2.0000     -11.261298      -306.4355
  15   2.0000     -11.254459      -306.2494
  16   2.0000     -11.251365      -306.1652
  17   2.0000     -11.246717      -306.0387
  18   2.0000     -11.245574      -306.0076
  19   2.0000     -11.224307      -305.4289
  20   2.0000      -8.897416      -242.1110
  21   2.0000      -6.578971      -179.0229
  22   2.0000      -6.576989      -178.9690
  23   2.0000      -6.576384      -178.9525
  24   2.0000      -1.445444       -39.3325
  25   2.0000      -1.424458       -38.7615
  26   2.0000      -1.354379       -36.8545
  27   2.0000      -1.344222       -36.5781
  28   2.0000      -1.242871       -33.8202
  29   2.0000      -1.165392       -31.7119
  30   2.0000      -1.122684       -30.5498
  31   2.0000      -1.049244       -28.5514
  32   2.0000      -1.033573       -28.1249
  33   2.0000      -1.024271       -27.8718
  34   2.0000      -1.001152       -27.2427
  35   2.0000      -0.987708       -26.8769
  36   2.0000      -0.928187       -25.2572
  37   2.0000      -0.879935       -23.9443
  38   2.0000      -0.852531       -23.1986
  39   2.0000      -0.848857       -23.0986
  40   2.0000      -0.842104       -22.9148
  41   2.0000      -0.834074       -22.6963
  42   2.0000      -0.760904       -20.7053
  43   2.0000      -0.738424       -20.0935
  44   2.0000      -0.718297       -19.5459
  45   2.0000      -0.704645       -19.1744
  46   2.0000      -0.695496       -18.9254
  47   2.0000      -0.678007       -18.4495
  48   2.0000      -0.672158       -18.2904
  49   2.0000      -0.669039       -18.2055
  50   2.0000      -0.653370       -17.7791
  51   2.0000      -0.647884       -17.6298
  52   2.0000      -0.641706       -17.4617
  53   2.0000      -0.616165       -16.7667
  54   2.0000      -0.608253       -16.5514
  55   2.0000      -0.603280       -16.4161
  56   2.0000      -0.587775       -15.9942
  57   2.0000      -0.584175       -15.8962
  58   2.0000      -0.576122       -15.6771
  59   2.0000      -0.573991       -15.6191
  60   2.0000      -0.563769       -15.3409
  61   2.0000      -0.546699       -14.8764
  62   2.0000      -0.541263       -14.7285
  63   2.0000      -0.533651       -14.5214
  64   2.0000      -0.521236       -14.1836
  65   2.0000      -0.515342       -14.0232
  66   2.0000      -0.509731       -13.8705
  67   2.0000      -0.503217       -13.6932
  68   2.0000      -0.483999       -13.1703
  69   2.0000      -0.465935       -12.6787
  70   2.0000      -0.449150       -12.2220
  71   2.0000      -0.446610       -12.1529
  72   2.0000      -0.361937        -9.8488
  73   2.0000      -0.356390        -9.6979
  74   2.0000      -0.333507        -9.0752
  75   2.0000      -0.328662        -8.9433
  76   2.0000      -0.319050        -8.6818
  77   0.0000       0.071191         1.9372
  78   0.0000       0.098131         2.6703
  79   0.0000       0.118179         3.2158
  80   0.0000       0.125352         3.4110
  81   0.0000       0.128576         3.4987

MULLIKEN ATOMIC CHARGES
-----------------------
   0 C :   -0.255836
   1 C :    0.020426
   2 O :   -0.337727
   3 C :    0.451734
   4 O :   -0.384522
   5 C :   -0.264611
   6 C :    0.133119
   7 C :   -0.271262
   8 N :   -0.125415
   9 C :    0.214562
  10 S :   -0.433344
  11 N :   -0.199756
  12 C :    0.053433
  13 C :    0.056215
  14 C :   -0.227602
  15 C :   -0.121830
  16 C :   -0.274520
  17 C :    0.312518
  18 O :   -0.355416
  19 C :   -0.254419
  20 H :    0.098560
  21 H :    0.086851
  22 H :    0.100290
  23 H :    0.099975
  24 H :    0.104172
  25 H :    0.123077
  26 H :    0.142286
  27 H :    0.093810
  28 H :    0.199591
  29 H :    0.190397
  30 H :    0.153317
  31 H :    0.157273
  32 H :    0.164896
  33 H :    0.133829
  34 H :    0.242779
  35 H :    0.173150
Sum of atomic charges:   -0.0000000

LOEWDIN ATOMIC CHARGES
----------------------
   0 C :    0.107558
   1 C :   -0.027561
   2 O :    0.301906
   3 C :   -0.426306
   4 O :    0.120324
   5 C :   -0.099787
   6 C :   -0.062322
   7 C :    0.129818
   8 N :    0.407646
   9 C :   -0.454415
  10 S :   -0.029455
  11 N :    0.396019
  12 C :   -0.051008
  13 C :   -0.038179
  14 C :    0.009249
  15 C :    0.043135
  16 C :    0.000251
  17 C :   -0.189712
  18 O :    0.396831
  19 C :    0.030246
  20 H :   -0.025069
  21 H :   -0.028231
  22 H :   -0.025679
  23 H :   -0.033453
  24 H :   -0.030271
  25 H :   -0.006713
  26 H :   -0.001805
  27 H :   -0.022730
  28 H :   -0.056943
  29 H :   -0.066578
  30 H :   -0.004497
  31 H :   -0.030977
  32 H :   -0.018954
  33 H :   -0.033718
  34 H :   -0.151636
  35 H :   -0.026986

  Mayer bond orders larger than 0.100000
B(  0-C ,  1-C ) :   0.9796 B(  0-C , 20-H ) :   0.9772 B(  0-C , 21-H ) :   0.9777
B(  0-C , 22-H ) :   0.9809 B(  1-C ,  2-O ) :   0.8829 B(  1-C , 23-H ) :   0.9631
B(  1-C , 24-H ) :   0.9758 B(  2-O ,  3-C ) :   1.1598 B(  3-C ,  4-O ) :   2.0702
B(  3-C ,  5-C ) :   0.9937 B(  5-C ,  6-C ) :   1.6625 B(  5-C , 12-C ) :   0.9656
B(  6-C ,  7-C ) :   0.9749 B(  6-C ,  8-N ) :   1.1474 B(  7-C , 25-H ) :   0.9687
B(  7-C , 26-H ) :   0.9532 B(  7-C , 27-H ) :   0.9851 B(  8-N ,  9-C ) :   1.1802
B(  8-N , 28-H ) :   0.9492 B(  9-C , 10-S ) :   1.6181 B(  9-C , 11-N ) :   1.2957
B( 11-N , 12-C ) :   0.9602 B( 11-N , 29-H ) :   0.9543 B( 12-C , 13-C ) :   0.9575
B( 12-C , 30-H ) :   0.9994 B( 13-C , 14-C ) :   1.3494 B( 13-C , 19-C ) :   1.3577
B( 14-C , 15-C ) :   1.3847 B( 14-C , 31-H ) :   0.9738 B( 15-C , 16-C ) :   1.3710
B( 15-C , 32-H ) :   0.9690 B( 16-C , 17-C ) :   1.3265 B( 16-C , 33-H ) :   0.9834
B( 17-C , 18-O ) :   1.1171 B( 17-C , 19-C ) :   1.3757 B( 18-O , 34-H ) :   0.9784
B( 19-C , 35-H ) :   0.9542

MP2 TOTAL ENERGY:    -1274.331934552 Eh
FINAL SINGLE POINT ENERGY     -1274.331934552022

DIPOLE MOMENT
-------------
                                X             Y             Z
Electronic contribution:     10.15578       9.56094       5.93568
Nuclear contribution   :    -11.37352     -11.16505      -5.19608
                        -----------------------------------------
Total Dipole Moment    :     -1.21774      -1.60411       0.73960
                        -----------------------------------------
Magnitude (a.u.)       :      2.14548
Magnitude (Debye)      :      5.45337

Rotational constants in cm-1:     0.011241     0.009556     0.006419
Rotational constants in MHz :   337.003988   286.484931   192.423724

                             ****ORCA TERMINATED NORMALLY****
TOTAL RUN TIME: 0 days 2 hours 5 minutes 36 seconds 687 msec
