                         Program Version 4.2.0 -  RELEASE  -
|  1> ! ri-mp2 cc-pvtz cc-pvtz/c TightSCF  NoKeepInts
|  2>
|  3> %scf
|  4>   MaxCore 4096
|  5> end
|  6> *xyz  0  1
|  7>     C       14.5113438   14.5581415   16.2075256
|  8>     C       15.6412156   15.2982534   16.9410121
|  9>     O       16.8050803   15.2511651   16.0943814
| 10>     C       18.0246956   15.5545932   16.6308035
| 11>     O       18.8724367   14.6897169   16.7541690
| 12>     C       18.0610324   16.8191233   17.4312225
| 13>     C       17.5214221   17.9844192   16.9993019
| 14>     C       16.8533881   18.2432710   15.6647728
| 15>     N       17.6300381   19.1337101   17.7863044
| 16>     C       18.3640226   19.2217758   18.9407269
| 17>     S       18.5127993   20.6451030   19.7689161
| 18>     N       18.9657035   18.0671168   19.3777155
| 19>     C       18.7790145   16.7312798   18.7776699
| 20>     C       18.0124648   15.8081660   19.7201268
| 21>     C       18.4735978   14.5019184   19.9649538
| 22>     C       17.7563432   13.6348281   20.8058589
| 23>     C       16.5646433   14.0755302   21.4059585
| 24>     C       16.0982146   15.3736581   21.1599145
| 25>     O       14.9400417   15.7979729   21.7245899
| 26>     C       16.8136558   16.2344343   20.3216192
| 27>     H       14.8041400   13.5218380   15.9960672
| 28>     H       14.2776914   15.0521490   15.2563185
| 29>     H       13.6014689   14.5395276   16.8196749
| 30>     H       15.3381341   16.3286063   17.1619696
| 31>     H       15.8462593   14.7837038   17.8903258
| 32>     H       17.2082247   17.5490701   14.8925973
| 33>     H       17.0677567   19.2541725   15.2957922
| 34>     H       15.7646605   18.1365253   15.7374039
| 35>     H       17.2039791   19.9937975   17.4783876
| 36>     H       19.4817957   18.1567899   20.2438992
| 37>     H       19.7750671   16.2986635   18.6019171
| 38>     H       19.3841103   14.1506810   19.4840725
| 39>     H       18.1219906   12.6245717   20.9823352
| 40>     H       16.0062218   13.4071800   22.0531617
| 41>     H       14.6312825   15.0956437   22.3171629
| 42>     H       16.4330636   17.2349028   20.1453709
| 43> *
| 44>
| 45>                          ****END OF INPUT****

CARTESIAN COORDINATES (ANGSTROEM)
---------------------------------
  C     14.511344   14.558141   16.207526
  C     15.641216   15.298253   16.941012
  O     16.805080   15.251165   16.094381
  C     18.024696   15.554593   16.630803
  O     18.872437   14.689717   16.754169
  C     18.061032   16.819123   17.431223
  C     17.521422   17.984419   16.999302
  C     16.853388   18.243271   15.664773
  N     17.630038   19.133710   17.786304
  C     18.364023   19.221776   18.940727
  S     18.512799   20.645103   19.768916
  N     18.965704   18.067117   19.377716
  C     18.779014   16.731280   18.777670
  C     18.012465   15.808166   19.720127
  C     18.473598   14.501918   19.964954
  C     17.756343   13.634828   20.805859
  C     16.564643   14.075530   21.405959
  C     16.098215   15.373658   21.159914
  O     14.940042   15.797973   21.724590
  C     16.813656   16.234434   20.321619
  H     14.804140   13.521838   15.996067
  H     14.277691   15.052149   15.256319
  H     13.601469   14.539528   16.819675
  H     15.338134   16.328606   17.161970
  H     15.846259   14.783704   17.890326
  H     17.208225   17.549070   14.892597
  H     17.067757   19.254172   15.295792
  H     15.764660   18.136525   15.737404
  H     17.203979   19.993797   17.478388
  H     19.481796   18.156790   20.243899
  H     19.775067   16.298663   18.601917
  H     19.384110   14.150681   19.484072
  H     18.121991   12.624572   20.982335
  H     16.006222   13.407180   22.053162
  H     14.631282   15.095644   22.317163
  H     16.433064   17.234903   20.145371

 Total Charge           Charge          ....    0
 Multiplicity           Mult            ....    1
 Number of Electrons    NEL             ....  154
 Basis Dimension        Dim             ....  828

ORBITAL ENERGIES
----------------

  NO   OCC          E(Eh)            E(eV)
   0   2.0000     -91.890929     -2500.4793
   1   2.0000     -20.599043      -560.5285
   2   2.0000     -20.590131      -560.2860
   3   2.0000     -20.554831      -559.3254
   4   2.0000     -15.629883      -425.3107
   5   2.0000     -15.610996      -424.7968
   6   2.0000     -11.394902      -310.0711
   7   2.0000     -11.387044      -309.8572
   8   2.0000     -11.334395      -308.4246
   9   2.0000     -11.315538      -307.9114
  10   2.0000     -11.311946      -307.8137
  11   2.0000     -11.302693      -307.5619
  12   2.0000     -11.266120      -306.5667
  13   2.0000     -11.262400      -306.4655
  14   2.0000     -11.261308      -306.4358
  15   2.0000     -11.255577      -306.2798
  16   2.0000     -11.245278      -305.9996
  17   2.0000     -11.241027      -305.8839
  18   2.0000     -11.238048      -305.8028
  19   2.0000     -11.232674      -305.6566
  20   2.0000      -8.896015      -242.0729
  21   2.0000      -6.577594      -178.9854
  22   2.0000      -6.575580      -178.9306
  23   2.0000      -6.574996      -178.9147
  24   2.0000      -1.450098       -39.4592
  25   2.0000      -1.418869       -38.6094
  26   2.0000      -1.359811       -37.0023
  27   2.0000      -1.341665       -36.5086
  28   2.0000      -1.240286       -33.7499
  29   2.0000      -1.160116       -31.5684
  30   2.0000      -1.124653       -30.6034
  31   2.0000      -1.047763       -28.5111
  32   2.0000      -1.037864       -28.2417
  33   2.0000      -1.017459       -27.6865
  34   2.0000      -1.003779       -27.3142
  35   2.0000      -0.988855       -26.9081
  36   2.0000      -0.926885       -25.2218
  37   2.0000      -0.877789       -23.8859
  38   2.0000      -0.854698       -23.2575
  39   2.0000      -0.842920       -22.9370
  40   2.0000      -0.836168       -22.7533
  41   2.0000      -0.835107       -22.7244
  42   2.0000      -0.757131       -20.6026
  43   2.0000      -0.738275       -20.0895
  44   2.0000      -0.731484       -19.9047
  45   2.0000      -0.696791       -18.9607
  46   2.0000      -0.688217       -18.7273
  47   2.0000      -0.682758       -18.5788
  48   2.0000      -0.676298       -18.4030
  49   2.0000      -0.662156       -18.0182
  50   2.0000      -0.651815       -17.7368
  51   2.0000      -0.647429       -17.6174
  52   2.0000      -0.641442       -17.4545
  53   2.0000      -0.612048       -16.6547
  54   2.0000      -0.607343       -16.5266
  55   2.0000      -0.604697       -16.4546
  56   2.0000      -0.602846       -16.4043
  57   2.0000      -0.583976       -15.8908
  58   2.0000      -0.577514       -15.7150
  59   2.0000      -0.566431       -15.4134
  60   2.0000      -0.558811       -15.2060
  61   2.0000      -0.557090       -15.1592
  62   2.0000      -0.543046       -14.7770
  63   2.0000      -0.525018       -14.2865
  64   2.0000      -0.520985       -14.1767
  65   2.0000      -0.515568       -14.0293
  66   2.0000      -0.502391       -13.6707
  67   2.0000      -0.497982       -13.5508
  68   2.0000      -0.490075       -13.3356
  69   2.0000      -0.467987       -12.7346
  70   2.0000      -0.460138       -12.5210
  71   2.0000      -0.451953       -12.2983
  72   2.0000      -0.357831        -9.7371
  73   2.0000      -0.350946        -9.5497
  74   2.0000      -0.330325        -8.9886
  75   2.0000      -0.323342        -8.7986
  76   2.0000      -0.318802        -8.6750
  77   0.0000       0.074316         2.0222
  78   0.0000       0.104140         2.8338
  79   0.0000       0.115298         3.1374
  80   0.0000       0.129628         3.5274
  81   0.0000       0.133423         3.6306

MULLIKEN ATOMIC CHARGES
-----------------------
   0 C :   -0.258239
   1 C :    0.016595
   2 O :   -0.340621
   3 C :    0.430291
   4 O :   -0.377910
   5 C :   -0.203882
   6 C :    0.131103
   7 C :   -0.301854
   8 N :   -0.129238
   9 C :    0.199251
  10 S :   -0.437646
  11 N :   -0.205070
  12 C :    0.054821
  13 C :    0.023557
  14 C :   -0.173417
  15 C :   -0.134644
  16 C :   -0.277768
  17 C :    0.314581
  18 O :   -0.358747
  19 C :   -0.274348
  20 H :    0.107768
  21 H :    0.094404
  22 H :    0.090844
  23 H :    0.089742
  24 H :    0.116196
  25 H :    0.136076
  26 H :    0.121474
  27 H :    0.119416
  28 H :    0.197200
  29 H :    0.195658
  30 H :    0.160472
  31 H :    0.165129
  32 H :    0.162981
  33 H :    0.132437
  34 H :    0.241661
  35 H :    0.171725
Sum of atomic charges:   -0.0000000

LOEWDIN ATOMIC CHARGES
----------------------
   0 C :    0.112448
   1 C :   -0.024464
   2 O :    0.293652
   3 C :   -0.419332
   4 O :    0.132205
   5 C :   -0.090124
   6 C :   -0.086026
   7 C :    0.127828
   8 N :    0.403248
   9 C :   -0.457316
  10 S :   -0.034945
  11 N :    0.397083
  12 C :   -0.045381
  13 C :   -0.044206
  14 C :    0.021524
  15 C :    0.043606
  16 C :   -0.001303
  17 C :   -0.195488
  18 O :    0.394080
  19 C :    0.027992
  20 H :   -0.021692
  21 H :   -0.028360
  22 H :   -0.024451
  23 H :   -0.039918
  24 H :   -0.025229
  25 H :   -0.006614
  26 H :   -0.014412
  27 H :   -0.015743
  28 H :   -0.057768
  29 H :   -0.063688
  30 H :   -0.003156
  31 H :   -0.022557
  32 H :   -0.018965
  33 H :   -0.034773
  34 H :   -0.153117
  35 H :   -0.024637

  Mayer bond orders larger than 0.100000
B(  0-C ,  1-C ) :   0.9814 B(  0-C , 20-H ) :   0.9785 B(  0-C , 21-H ) :   0.9792
B(  0-C , 22-H ) :   0.9764 B(  1-C ,  2-O ) :   0.8961 B(  1-C , 23-H ) :   0.9686
B(  1-C , 24-H ) :   0.9717 B(  2-O ,  3-C ) :   1.1467 B(  3-C ,  4-O ) :   2.0927
B(  3-C ,  5-C ) :   0.9508 B(  5-C ,  6-C ) :   1.6701 B(  5-C , 12-C ) :   0.9647
B(  6-C ,  7-C ) :   0.9470 B(  6-C ,  8-N ) :   1.1285 B(  7-C , 25-H ) :   0.9725
B(  7-C , 26-H ) :   0.9811 B(  7-C , 27-H ) :   0.9640 B(  8-N ,  9-C ) :   1.1864
B(  8-N , 28-H ) :   0.9508 B(  9-C , 10-S ) :   1.6140 B(  9-C , 11-N ) :   1.2944
B( 11-N , 12-C ) :   0.9961 B( 11-N , 29-H ) :   0.9511 B( 12-C , 13-C ) :   0.9420
B( 12-C , 30-H ) :   0.9981 B( 13-C , 14-C ) :   1.3861 B( 13-C , 19-C ) :   1.3562
B( 14-C , 15-C ) :   1.3953 B( 14-C , 31-H ) :   0.9606 B( 15-C , 16-C ) :   1.3642
B( 15-C , 32-H ) :   0.9705 B( 16-C , 17-C ) :   1.3280 B( 16-C , 33-H ) :   0.9844
B( 17-C , 18-O ) :   1.1114 B( 17-C , 19-C ) :   1.3718 B( 18-O , 34-H ) :   0.9792
B( 19-C , 35-H ) :   0.9586

MP2 TOTAL ENERGY:    -1274.331672784 Eh
FINAL SINGLE POINT ENERGY     -1274.331672783654

DIPOLE MOMENT
-------------
                                X             Y             Z
Electronic contribution:     11.06948       8.55682       7.39624
Nuclear contribution   :    -12.48434      -9.59639      -7.71743
                        -----------------------------------------
Total Dipole Moment    :     -1.41486      -1.03957      -0.32119
                        -----------------------------------------
Magnitude (a.u.)       :      1.78485
Magnitude (Debye)      :      4.53674

Rotational constants in cm-1:     0.011472     0.009244     0.006754
Rotational constants in MHz :   343.909755   277.119855   202.477393

                             ****ORCA TERMINATED NORMALLY****
TOTAL RUN TIME: 0 days 1 hours 45 minutes 13 seconds 257 msec
