                         Program Version 4.2.0 -  RELEASE  -
|  1> ! ri-mp2 cc-pvtz cc-pvtz/c TightSCF  NoKeepInts
|  2>
|  3> %scf
|  4>   MaxCore 4096
|  5> end
|  6> *xyz  0  1
|  7>     C       14.6867272   14.1401158   16.8099598
|  8>     C       15.5825043   15.3479762   17.1271372
|  9>     O       16.8177664   15.1571153   16.4137246
| 10>     C       17.7008172   16.1846342   16.2291428
| 11>     O       18.1332227   16.4298580   15.1188218
| 12>     C       17.8286229   17.1563305   17.3578834
| 13>     C       17.4562667   18.4461354   17.1993961
| 14>     C       16.7550282   19.0257908   15.9910352
| 15>     N       17.7413080   19.3849850   18.1930626
| 16>     C       18.5205722   19.1380190   19.2927910
| 17>     S       18.8835445   20.3218013   20.3885866
| 18>     N       18.9874052   17.8549445   19.4430260
| 19>     C       18.6181605   16.7030175   18.5951334
| 20>     C       17.9273333   15.6215758   19.4195643
| 21>     C       18.2233516   14.2650359   19.1880828
| 22>     C       17.5861068   13.2560772   19.9291002
| 23>     C       16.6476988   13.6043764   20.9150088
| 24>     C       16.3531099   14.9532516   21.1535693
| 25>     O       15.4411565   15.2925887   22.0985024
| 26>     C       16.9862756   15.9564398   20.4126327
| 27>     H       13.7132285   14.2408445   17.3048061
| 28>     H       15.1559711   13.2121521   17.1601662
| 29>     H       14.5179345   14.0562141   15.7289684
| 30>     H       15.0829106   16.2631269   16.7831427
| 31>     H       15.7319586   15.4176968   18.2066821
| 32>     H       15.9760808   18.3485385   15.6203967
| 33>     H       17.4717187   19.1735037   15.1721726
| 34>     H       16.2794167   19.9908113   16.2027617
| 35>     H       17.4304278   20.3376574   18.0857955
| 36>     H       19.5461543   17.7035752   20.2736855
| 37>     H       19.5589968   16.2709367   18.2244583
| 38>     H       18.9414839   13.9892175   18.4195327
| 39>     H       17.8192087   12.2099983   19.7363206
| 40>     H       16.1527017   12.8275772   21.4888533
| 41>     H       15.1565631   14.4766822   22.5377132
| 42>     H       16.7352660   16.9933987   20.6123833
| 43> *
| 44>
| 45>                          ****END OF INPUT****

CARTESIAN COORDINATES (ANGSTROEM)
---------------------------------
  C     14.686727   14.140116   16.809960
  C     15.582504   15.347976   17.127137
  O     16.817766   15.157115   16.413725
  C     17.700817   16.184634   16.229143
  O     18.133223   16.429858   15.118822
  C     17.828623   17.156330   17.357883
  C     17.456267   18.446135   17.199396
  C     16.755028   19.025791   15.991035
  N     17.741308   19.384985   18.193063
  C     18.520572   19.138019   19.292791
  S     18.883544   20.321801   20.388587
  N     18.987405   17.854944   19.443026
  C     18.618160   16.703018   18.595133
  C     17.927333   15.621576   19.419564
  C     18.223352   14.265036   19.188083
  C     17.586107   13.256077   19.929100
  C     16.647699   13.604376   20.915009
  C     16.353110   14.953252   21.153569
  O     15.441156   15.292589   22.098502
  C     16.986276   15.956440   20.412633
  H     13.713228   14.240844   17.304806
  H     15.155971   13.212152   17.160166
  H     14.517934   14.056214   15.728968
  H     15.082911   16.263127   16.783143
  H     15.731959   15.417697   18.206682
  H     15.976081   18.348539   15.620397
  H     17.471719   19.173504   15.172173
  H     16.279417   19.990811   16.202762
  H     17.430428   20.337657   18.085795
  H     19.546154   17.703575   20.273685
  H     19.558997   16.270937   18.224458
  H     18.941484   13.989217   18.419533
  H     17.819209   12.209998   19.736321
  H     16.152702   12.827577   21.488853
  H     15.156563   14.476682   22.537713
  H     16.735266   16.993399   20.612383

 Total Charge           Charge          ....    0
 Multiplicity           Mult            ....    1
 Number of Electrons    NEL             ....  154
 Basis Dimension        Dim             ....  828

ORBITAL ENERGIES
----------------

  NO   OCC          E(Eh)            E(eV)
   0   2.0000     -91.890439     -2500.4660
   1   2.0000     -20.603511      -560.6500
   2   2.0000     -20.592971      -560.3632
   3   2.0000     -20.555311      -559.3385
   4   2.0000     -15.626786      -425.2265
   5   2.0000     -15.612245      -424.8308
   6   2.0000     -11.395189      -310.0789
   7   2.0000     -11.386484      -309.8420
   8   2.0000     -11.328505      -308.2643
   9   2.0000     -11.321750      -308.0805
  10   2.0000     -11.319410      -308.0168
  11   2.0000     -11.298720      -307.4538
  12   2.0000     -11.268996      -306.6450
  13   2.0000     -11.263180      -306.4867
  14   2.0000     -11.259620      -306.3898
  15   2.0000     -11.258419      -306.3572
  16   2.0000     -11.251314      -306.1638
  17   2.0000     -11.246400      -306.0301
  18   2.0000     -11.246295      -306.0272
  19   2.0000     -11.229903      -305.5812
  20   2.0000      -8.895533      -242.0598
  21   2.0000      -6.577117      -178.9724
  22   2.0000      -6.575097      -178.9175
  23   2.0000      -6.574518      -178.9017
  24   2.0000      -1.448971       -39.4285
  25   2.0000      -1.423344       -38.7312
  26   2.0000      -1.360304       -37.0158
  27   2.0000      -1.339817       -36.4583
  28   2.0000      -1.240494       -33.7556
  29   2.0000      -1.165294       -31.7093
  30   2.0000      -1.124540       -30.6003
  31   2.0000      -1.050361       -28.5818
  32   2.0000      -1.037205       -28.2238
  33   2.0000      -1.023725       -27.8570
  34   2.0000      -1.002653       -27.2836
  35   2.0000      -0.988942       -26.9105
  36   2.0000      -0.928522       -25.2664
  37   2.0000      -0.877567       -23.8798
  38   2.0000      -0.853367       -23.2213
  39   2.0000      -0.843987       -22.9660
  40   2.0000      -0.841686       -22.9034
  41   2.0000      -0.838485       -22.8163
  42   2.0000      -0.759401       -20.6643
  43   2.0000      -0.737810       -20.0768
  44   2.0000      -0.732004       -19.9189
  45   2.0000      -0.702351       -19.1119
  46   2.0000      -0.691865       -18.8266
  47   2.0000      -0.682212       -18.5639
  48   2.0000      -0.677520       -18.4363
  49   2.0000      -0.663925       -18.0663
  50   2.0000      -0.652553       -17.7569
  51   2.0000      -0.651406       -17.7257
  52   2.0000      -0.638615       -17.3776
  53   2.0000      -0.613819       -16.7029
  54   2.0000      -0.608038       -16.5456
  55   2.0000      -0.604672       -16.4540
  56   2.0000      -0.598278       -16.2800
  57   2.0000      -0.581759       -15.8305
  58   2.0000      -0.577934       -15.7264
  59   2.0000      -0.567643       -15.4464
  60   2.0000      -0.559867       -15.2347
  61   2.0000      -0.555711       -15.1217
  62   2.0000      -0.548405       -14.9229
  63   2.0000      -0.530220       -14.4280
  64   2.0000      -0.520786       -14.1713
  65   2.0000      -0.517405       -14.0793
  66   2.0000      -0.508080       -13.8256
  67   2.0000      -0.504410       -13.7257
  68   2.0000      -0.485197       -13.2029
  69   2.0000      -0.469360       -12.7719
  70   2.0000      -0.455059       -12.3828
  71   2.0000      -0.452851       -12.3227
  72   2.0000      -0.356906        -9.7119
  73   2.0000      -0.353945        -9.6313
  74   2.0000      -0.330659        -8.9977
  75   2.0000      -0.329132        -8.9561
  76   2.0000      -0.318800        -8.6750
  77   0.0000       0.084580         2.3015
  78   0.0000       0.099548         2.7088
  79   0.0000       0.118890         3.2351
  80   0.0000       0.126725         3.4484
  81   0.0000       0.127417         3.4672

MULLIKEN ATOMIC CHARGES
-----------------------
   0 C :   -0.261686
   1 C :    0.018752
   2 O :   -0.316099
   3 C :    0.376224
   4 O :   -0.363213
   5 C :   -0.190527
   6 C :    0.149872
   7 C :   -0.290659
   8 N :   -0.131883
   9 C :    0.208968
  10 S :   -0.438995
  11 N :   -0.224237
  12 C :    0.047717
  13 C :    0.017356
  14 C :   -0.181003
  15 C :   -0.144494
  16 C :   -0.270181
  17 C :    0.307030
  18 O :   -0.354599
  19 C :   -0.249517
  20 H :    0.087881
  21 H :    0.099602
  22 H :    0.105602
  23 H :    0.091365
  24 H :    0.114719
  25 H :    0.116176
  26 H :    0.146186
  27 H :    0.098708
  28 H :    0.196661
  29 H :    0.200452
  30 H :    0.162802
  31 H :    0.149981
  32 H :    0.165818
  33 H :    0.134988
  34 H :    0.241497
  35 H :    0.178738
Sum of atomic charges:   -0.0000000

LOEWDIN ATOMIC CHARGES
----------------------
   0 C :    0.112166
   1 C :   -0.023713
   2 O :    0.303045
   3 C :   -0.419871
   4 O :    0.135193
   5 C :   -0.087455
   6 C :   -0.087144
   7 C :    0.129891
   8 N :    0.403808
   9 C :   -0.455723
  10 S :   -0.036165
  11 N :    0.396547
  12 C :   -0.052044
  13 C :   -0.044295
  14 C :    0.017981
  15 C :    0.045064
  16 C :    0.000492
  17 C :   -0.193189
  18 O :    0.397344
  19 C :    0.028626
  20 H :   -0.025504
  21 H :   -0.026213
  22 H :   -0.024551
  23 H :   -0.036366
  24 H :   -0.037045
  25 H :   -0.012419
  26 H :   -0.002739
  27 H :   -0.020238
  28 H :   -0.058584
  29 H :   -0.064708
  30 H :   -0.008211
  31 H :   -0.027309
  32 H :   -0.018282
  33 H :   -0.033659
  34 H :   -0.152298
  35 H :   -0.022433

  Mayer bond orders larger than 0.100000
B(  0-C ,  1-C ) :   0.9833 B(  0-C , 20-H ) :   0.9766 B(  0-C , 21-H ) :   0.9783
B(  0-C , 22-H ) :   0.9784 B(  1-C ,  2-O ) :   0.8953 B(  1-C , 23-H ) :   0.9777
B(  1-C , 24-H ) :   0.9597 B(  2-O ,  3-C ) :   1.1823 B(  3-C ,  4-O ) :   2.1283
B(  3-C ,  5-C ) :   0.9048 B(  5-C ,  6-C ) :   1.7195 B(  5-C , 12-C ) :   0.9609
B(  6-C ,  7-C ) :   0.9442 B(  6-C ,  8-N ) :   1.1241 B(  7-C , 25-H ) :   0.9756
B(  7-C , 26-H ) :   0.9599 B(  7-C , 27-H ) :   0.9857 B(  8-N ,  9-C ) :   1.1990
B(  8-N , 28-H ) :   0.9500 B(  9-C , 10-S ) :   1.6108 B(  9-C , 11-N ) :   1.2829
B( 11-N , 12-C ) :   0.9884 B( 11-N , 29-H ) :   0.9474 B( 12-C , 13-C ) :   0.9372
B( 12-C , 30-H ) :   1.0078 B( 13-C , 14-C ) :   1.3791 B( 13-C , 19-C ) :   1.3513
B( 14-C , 15-C ) :   1.3966 B( 14-C , 31-H ) :   0.9723 B( 15-C , 16-C ) :   1.3612
B( 15-C , 32-H ) :   0.9692 B( 16-C , 17-C ) :   1.3301 B( 16-C , 33-H ) :   0.9833
B( 17-C , 18-O ) :   1.1125 B( 17-C , 19-C ) :   1.3665 B( 18-O , 34-H ) :   0.9788
B( 19-C , 35-H ) :   0.9578

MP2 TOTAL ENERGY:    -1274.327149282 Eh
FINAL SINGLE POINT ENERGY     -1274.327149281522

DIPOLE MOMENT
-------------
                                X             Y             Z
Electronic contribution:     10.96727       8.86527       6.59206
Nuclear contribution   :    -12.35981     -10.40092      -6.43392
                        -----------------------------------------
Total Dipole Moment    :     -1.39254      -1.53565       0.15814
                        -----------------------------------------
Magnitude (a.u.)       :      2.07904
Magnitude (Debye)      :      5.28450

Rotational constants in cm-1:     0.012042     0.009217     0.006256
Rotational constants in MHz :   361.021326   276.332461   187.538194

                             ****ORCA TERMINATED NORMALLY****
TOTAL RUN TIME: 0 days 1 hours 44 minutes 27 seconds 916 msec
