                         Program Version 4.2.0 -  RELEASE  -
|  1> ! ri-mp2 cc-pvtz cc-pvtz/c TightSCF  NoKeepInts
|  2>
|  3> %scf
|  4>   MaxCore 4096
|  5> end
|  6> *xyz  0  1
|  7>     C       14.7749590   14.0937806   16.1601913
|  8>     C       15.5305559   15.2477538   16.8386591
|  9>     O       16.6232778   15.6114677   15.9766276
| 10>     C       17.8592823   15.6922810   16.5434338
| 11>     O       18.5068166   14.6790279   16.7378664
| 12>     C       18.0169893   16.9034750   17.4118519
| 13>     C       17.5282377   18.1252261   17.0850896
| 14>     C       16.7949508   18.5084964   15.8167467
| 15>     N       17.7575016   19.2141733   17.9311111
| 16>     C       18.5751698   19.1891815   19.0308711
| 17>     S       18.8835734   20.5510458   19.9166909
| 18>     N       19.1228452   17.9743254   19.3612901
| 19>     C       18.7811255   16.6895633   18.7205455
| 20>     C       17.9719267   15.8102203   19.6700516
| 21>     C       18.3595868   14.4798817   19.9132343
| 22>     C       17.6040050   13.6576237   20.7656146
| 23>     C       16.4483372   14.1684435   21.3803858
| 24>     C       16.0558318   15.4914372   21.1375677
| 25>     O       14.9332585   15.9844019   21.7183597
| 26>     C       16.8092241   16.3072249   20.2877055
| 27>     H       15.4406874   13.2334200   16.0143633
| 28>     H       14.3908556   14.4040319   15.1805851
| 29>     H       13.9278309   13.7714202   16.7775818
| 30>     H       14.8623995   16.1044058   16.9938065
| 31>     H       15.8944229   14.9069641   17.8185773
| 32>     H       17.2132759   17.9880314   14.9458406
| 33>     H       16.8627030   19.5829185   15.6059326
| 34>     H       15.7323892   18.2459080   15.8847303
| 35>     H       17.3683745   20.1154292   17.7031296
| 36>     H       19.7009494   17.9793671   20.1920418
| 37>     H       19.7215340   16.1711708   18.4826136
| 38>     H       19.2412984   14.0753040   19.4213642
| 39>     H       17.9122177   12.6281064   20.9399007
| 40>     H       15.8605422   13.5353448   22.0368681
| 41>     H       14.5928417   15.3025874   22.3173476
| 42>     H       16.4872226   17.3285595   20.1154230
| 43> *
| 44>
| 45>                          ****END OF INPUT****

CARTESIAN COORDINATES (ANGSTROEM)
---------------------------------
  C     14.774959   14.093781   16.160191
  C     15.530556   15.247754   16.838659
  O     16.623278   15.611468   15.976628
  C     17.859282   15.692281   16.543434
  O     18.506817   14.679028   16.737866
  C     18.016989   16.903475   17.411852
  C     17.528238   18.125226   17.085090
  C     16.794951   18.508496   15.816747
  N     17.757502   19.214173   17.931111
  C     18.575170   19.189182   19.030871
  S     18.883573   20.551046   19.916691
  N     19.122845   17.974325   19.361290
  C     18.781125   16.689563   18.720546
  C     17.971927   15.810220   19.670052
  C     18.359587   14.479882   19.913234
  C     17.604005   13.657624   20.765615
  C     16.448337   14.168444   21.380386
  C     16.055832   15.491437   21.137568
  O     14.933259   15.984402   21.718360
  C     16.809224   16.307225   20.287705
  H     15.440687   13.233420   16.014363
  H     14.390856   14.404032   15.180585
  H     13.927831   13.771420   16.777582
  H     14.862400   16.104406   16.993807
  H     15.894423   14.906964   17.818577
  H     17.213276   17.988031   14.945841
  H     16.862703   19.582919   15.605933
  H     15.732389   18.245908   15.884730
  H     17.368374   20.115429   17.703130
  H     19.700949   17.979367   20.192042
  H     19.721534   16.171171   18.482614
  H     19.241298   14.075304   19.421364
  H     17.912218   12.628106   20.939901
  H     15.860542   13.535345   22.036868
  H     14.592842   15.302587   22.317348
  H     16.487223   17.328560   20.115423

 Total Charge           Charge          ....    0
 Multiplicity           Mult            ....    1
 Number of Electrons    NEL             ....  154
 Basis Dimension        Dim             ....  828

ORBITAL ENERGIES
----------------

  NO   OCC          E(Eh)            E(eV)
   0   2.0000     -91.890509     -2500.4679
   1   2.0000     -20.597769      -560.4938
   2   2.0000     -20.580928      -560.0355
   3   2.0000     -20.557368      -559.3944
   4   2.0000     -15.630308      -425.3223
   5   2.0000     -15.609910      -424.7673
   6   2.0000     -11.394265      -310.0537
   7   2.0000     -11.386094      -309.8314
   8   2.0000     -11.335448      -308.4532
   9   2.0000     -11.314200      -307.8750
  10   2.0000     -11.310188      -307.7659
  11   2.0000     -11.300847      -307.5117
  12   2.0000     -11.263139      -306.4856
  13   2.0000     -11.260646      -306.4178
  14   2.0000     -11.259684      -306.3916
  15   2.0000     -11.254278      -306.2445
  16   2.0000     -11.244012      -305.9651
  17   2.0000     -11.239728      -305.8486
  18   2.0000     -11.236839      -305.7699
  19   2.0000     -11.226521      -305.4892
  20   2.0000      -8.895579      -242.0610
  21   2.0000      -6.577154      -178.9735
  22   2.0000      -6.575146      -178.9188
  23   2.0000      -6.574559      -178.9028
  24   2.0000      -1.451968       -39.5101
  25   2.0000      -1.417590       -38.5746
  26   2.0000      -1.357793       -36.9474
  27   2.0000      -1.341377       -36.5007
  28   2.0000      -1.239542       -33.7297
  29   2.0000      -1.158471       -31.5236
  30   2.0000      -1.123017       -30.5588
  31   2.0000      -1.046311       -28.4716
  32   2.0000      -1.033379       -28.1197
  33   2.0000      -1.015910       -27.6443
  34   2.0000      -1.001550       -27.2536
  35   2.0000      -0.986891       -26.8547
  36   2.0000      -0.925343       -25.1799
  37   2.0000      -0.877766       -23.8852
  38   2.0000      -0.852154       -23.1883
  39   2.0000      -0.841728       -22.9046
  40   2.0000      -0.834446       -22.7064
  41   2.0000      -0.832213       -22.6457
  42   2.0000      -0.755344       -20.5540
  43   2.0000      -0.735382       -20.0108
  44   2.0000      -0.730226       -19.8705
  45   2.0000      -0.695870       -18.9356
  46   2.0000      -0.688075       -18.7235
  47   2.0000      -0.680395       -18.5145
  48   2.0000      -0.675186       -18.3727
  49   2.0000      -0.662330       -18.0229
  50   2.0000      -0.649175       -17.6650
  51   2.0000      -0.646225       -17.5847
  52   2.0000      -0.639092       -17.3906
  53   2.0000      -0.608524       -16.5588
  54   2.0000      -0.605863       -16.4864
  55   2.0000      -0.601795       -16.3757
  56   2.0000      -0.600007       -16.3270
  57   2.0000      -0.582420       -15.8485
  58   2.0000      -0.577755       -15.7215
  59   2.0000      -0.565451       -15.3867
  60   2.0000      -0.563390       -15.3306
  61   2.0000      -0.553709       -15.0672
  62   2.0000      -0.538586       -14.6557
  63   2.0000      -0.523817       -14.2538
  64   2.0000      -0.514477       -13.9996
  65   2.0000      -0.510823       -13.9002
  66   2.0000      -0.503279       -13.6949
  67   2.0000      -0.498898       -13.5757
  68   2.0000      -0.483469       -13.1559
  69   2.0000      -0.467765       -12.7285
  70   2.0000      -0.454878       -12.3779
  71   2.0000      -0.454559       -12.3692
  72   2.0000      -0.356811        -9.7093
  73   2.0000      -0.349791        -9.5183
  74   2.0000      -0.329781        -8.9738
  75   2.0000      -0.321708        -8.7541
  76   2.0000      -0.317841        -8.6489
  77   0.0000       0.069693         1.8964
  78   0.0000       0.103582         2.8186
  79   0.0000       0.117837         3.2065
  80   0.0000       0.130725         3.5572
  81   0.0000       0.134386         3.6568

MULLIKEN ATOMIC CHARGES
-----------------------
   0 C :   -0.255662
   1 C :    0.036606
   2 O :   -0.372971
   3 C :    0.457009
   4 O :   -0.387339
   5 C :   -0.205861
   6 C :    0.131363
   7 C :   -0.285017
   8 N :   -0.125280
   9 C :    0.198699
  10 S :   -0.437002
  11 N :   -0.201203
  12 C :    0.056535
  13 C :    0.018328
  14 C :   -0.156638
  15 C :   -0.136616
  16 C :   -0.277792
  17 C :    0.312287
  18 O :   -0.358799
  19 C :   -0.271170
  20 H :    0.108163
  21 H :    0.094433
  22 H :    0.086627
  23 H :    0.089714
  24 H :    0.106408
  25 H :    0.128757
  26 H :    0.109480
  27 H :    0.121484
  28 H :    0.197309
  29 H :    0.194349
  30 H :    0.157312
  31 H :    0.160881
  32 H :    0.162024
  33 H :    0.132043
  34 H :    0.241343
  35 H :    0.170194
Sum of atomic charges:   -0.0000000

LOEWDIN ATOMIC CHARGES
----------------------
   0 C :    0.109600
   1 C :   -0.017184
   2 O :    0.287370
   3 C :   -0.423656
   4 O :    0.134405
   5 C :   -0.094389
   6 C :   -0.075846
   7 C :    0.127521
   8 N :    0.404342
   9 C :   -0.457952
  10 S :   -0.034424
  11 N :    0.397030
  12 C :   -0.045562
  13 C :   -0.043292
  14 C :    0.020999
  15 C :    0.042455
  16 C :   -0.001706
  17 C :   -0.195282
  18 O :    0.393918
  19 C :    0.027857
  20 H :   -0.021008
  21 H :   -0.028114
  22 H :   -0.027401
  23 H :   -0.036157
  24 H :   -0.024499
  25 H :   -0.006582
  26 H :   -0.018010
  27 H :   -0.012024
  28 H :   -0.058344
  29 H :   -0.063921
  30 H :   -0.003860
  31 H :   -0.023580
  32 H :   -0.019553
  33 H :   -0.035059
  34 H :   -0.153476
  35 H :   -0.024616

  Mayer bond orders larger than 0.100000
B(  0-C ,  1-C ) :   0.9854 B(  0-C , 20-H ) :   0.9768 B(  0-C , 21-H ) :   0.9801
B(  0-C , 22-H ) :   0.9759 B(  1-C ,  2-O ) :   0.8814 B(  1-C , 23-H ) :   0.9751
B(  1-C , 24-H ) :   0.9679 B(  2-O ,  3-C ) :   1.1009 B(  3-C ,  4-O ) :   2.0500
B(  3-C ,  5-C ) :   1.0087 B(  5-C ,  6-C ) :   1.6636 B(  5-C , 12-C ) :   0.9617
B(  6-C ,  7-C ) :   0.9516 B(  6-C ,  8-N ) :   1.1377 B(  7-C , 25-H ) :   0.9700
B(  7-C , 26-H ) :   0.9865 B(  7-C , 27-H ) :   0.9645 B(  8-N ,  9-C ) :   1.1831
B(  8-N , 28-H ) :   0.9499 B(  9-C , 10-S ) :   1.6143 B(  9-C , 11-N ) :   1.2981
B( 11-N , 12-C ) :   0.9928 B( 11-N , 29-H ) :   0.9519 B( 12-C , 13-C ) :   0.9427
B( 12-C , 30-H ) :   0.9984 B( 13-C , 14-C ) :   1.3832 B( 13-C , 19-C ) :   1.3631
B( 14-C , 15-C ) :   1.3949 B( 14-C , 31-H ) :   0.9616 B( 15-C , 16-C ) :   1.3643
B( 15-C , 32-H ) :   0.9708 B( 16-C , 17-C ) :   1.3294 B( 16-C , 33-H ) :   0.9845
B( 17-C , 18-O ) :   1.1115 B( 17-C , 19-C ) :   1.3734 B( 18-O , 34-H ) :   0.9794
B( 19-C , 35-H ) :   0.9583

MP2 TOTAL ENERGY:    -1274.323196922 Eh
FINAL SINGLE POINT ENERGY     -1274.323196921603

DIPOLE MOMENT
-------------
                                X             Y             Z
Electronic contribution:     11.03705       9.67711       7.35583
Nuclear contribution   :    -12.40296     -10.73289      -7.74910
                        -----------------------------------------
Total Dipole Moment    :     -1.36591      -1.05578      -0.39327
                        -----------------------------------------
Magnitude (a.u.)       :      1.77060
Magnitude (Debye)      :      4.50052

Rotational constants in cm-1:     0.011758     0.009186     0.006589
Rotational constants in MHz :   352.483555   275.381371   197.545688

                             ****ORCA TERMINATED NORMALLY****
TOTAL RUN TIME: 0 days 1 hours 50 minutes 29 seconds 416 msec
