                         Program Version 4.2.0 -  RELEASE  -
|  1> ! ri-mp2 cc-pvtz cc-pvtz/c TightSCF  NoKeepInts
|  2>
|  3> %scf
|  4>   MaxCore 4096
|  5> end
|  6> *xyz  0  1
|  7>     C       14.9161607   14.4010804   16.5105457
|  8>     C       16.3947562   14.0052526   16.7171550
|  9>     O       17.3510562   15.0757368   16.5007251
| 10>     C       17.0170279   16.3974157   16.3707215
| 11>     O       16.2361532   16.7929776   15.5230733
| 12>     C       17.6739236   17.2755164   17.4014687
| 13>     C       17.5023927   18.6223662   17.4235722
| 14>     C       16.6643473   19.4574793   16.4789766
| 15>     N       18.1611167   19.3987598   18.3813869
| 16>     C       19.0743712   18.9236313   19.2835647
| 17>     S       19.8737734   19.9243383   20.3302667
| 18>     N       19.2982039   17.5710356   19.2727986
| 19>     C       18.5543399   16.5909126   18.4616140
| 20>     C       17.7605888   15.6711569   19.3848635
| 21>     C       18.2743570   14.4074327   19.7320358
| 22>     C       17.5493074   13.5472500   20.5737767
| 23>     C       16.3017562   13.9550757   21.0757769
| 24>     C       15.7920990   15.2170511   20.7411692
| 25>     O       14.5891583   15.6148809   21.2259771
| 26>     C       16.5161617   16.0715379   19.9042707
| 27>     H       14.6284363   15.2260153   17.1745247
| 28>     H       14.2625112   13.5495552   16.7341406
| 29>     H       14.7292800   14.6994996   15.4712163
| 30>     H       16.5046700   13.6375738   17.7448690
| 31>     H       16.6390486   13.1694611   16.0491065
| 32>     H       15.6114625   19.1509389   16.5240965
| 33>     H       16.9997783   19.3212824   15.4428458
| 34>     H       16.7063889   20.5301997   16.7009704
| 35>     H       18.0119539   20.3949463   18.4016436
| 36>     H       19.9498666   17.2472689   19.9757742
| 37>     H       19.2950734   15.9811283   17.9250378
| 38>     H       19.2378625   14.0887299   19.3428835
| 39>     H       17.9548034   12.5713282   20.8359458
| 40>     H       15.7381578   13.2946234   21.7267788
| 41>     H       14.2702617   14.9211539   21.8228768
| 42>     H       16.1063935   17.0474073   19.6675508
| 43> *
| 44>
| 45>                          ****END OF INPUT****

CARTESIAN COORDINATES (ANGSTROEM)
---------------------------------
  C     14.916161   14.401080   16.510546
  C     16.394756   14.005253   16.717155
  O     17.351056   15.075737   16.500725
  C     17.017028   16.397416   16.370721
  O     16.236153   16.792978   15.523073
  C     17.673924   17.275516   17.401469
  C     17.502393   18.622366   17.423572
  C     16.664347   19.457479   16.478977
  N     18.161117   19.398760   18.381387
  C     19.074371   18.923631   19.283565
  S     19.873773   19.924338   20.330267
  N     19.298204   17.571036   19.272799
  C     18.554340   16.590913   18.461614
  C     17.760589   15.671157   19.384864
  C     18.274357   14.407433   19.732036
  C     17.549307   13.547250   20.573777
  C     16.301756   13.955076   21.075777
  C     15.792099   15.217051   20.741169
  O     14.589158   15.614881   21.225977
  C     16.516162   16.071538   19.904271
  H     14.628436   15.226015   17.174525
  H     14.262511   13.549555   16.734141
  H     14.729280   14.699500   15.471216
  H     16.504670   13.637574   17.744869
  H     16.639049   13.169461   16.049107
  H     15.611463   19.150939   16.524096
  H     16.999778   19.321282   15.442846
  H     16.706389   20.530200   16.700970
  H     18.011954   20.394946   18.401644
  H     19.949867   17.247269   19.975774
  H     19.295073   15.981128   17.925038
  H     19.237862   14.088730   19.342883
  H     17.954803   12.571328   20.835946
  H     15.738158   13.294623   21.726779
  H     14.270262   14.921154   21.822877
  H     16.106393   17.047407   19.667551

 Total Charge           Charge          ....    0
 Multiplicity           Mult            ....    1
 Number of Electrons    NEL             ....  154
 Basis Dimension        Dim             ....  828

ORBITAL ENERGIES
----------------

  NO   OCC          E(Eh)            E(eV)
   0   2.0000     -91.889287     -2500.4346
   1   2.0000     -20.601853      -560.6049
   2   2.0000     -20.586621      -560.1904
   3   2.0000     -20.542376      -558.9865
   4   2.0000     -15.629459      -425.2992
   5   2.0000     -15.608902      -424.7398
   6   2.0000     -11.394077      -310.0486
   7   2.0000     -11.384416      -309.7857
   8   2.0000     -11.336370      -308.4783
   9   2.0000     -11.319517      -308.0197
  10   2.0000     -11.310008      -307.7610
  11   2.0000     -11.297869      -307.4306
  12   2.0000     -11.264604      -306.5255
  13   2.0000     -11.260842      -306.4231
  14   2.0000     -11.257993      -306.3456
  15   2.0000     -11.252433      -306.1943
  16   2.0000     -11.248057      -306.0752
  17   2.0000     -11.242809      -305.9324
  18   2.0000     -11.242720      -305.9300
  19   2.0000     -11.222495      -305.3796
  20   2.0000      -8.894353      -242.0276
  21   2.0000      -6.575929      -178.9401
  22   2.0000      -6.573922      -178.8855
  23   2.0000      -6.573337      -178.8696
  24   2.0000      -1.440671       -39.2027
  25   2.0000      -1.421476       -38.6803
  26   2.0000      -1.350482       -36.7485
  27   2.0000      -1.340666       -36.4814
  28   2.0000      -1.239506       -33.7287
  29   2.0000      -1.162084       -31.6219
  30   2.0000      -1.120834       -30.4995
  31   2.0000      -1.045621       -28.4528
  32   2.0000      -1.031835       -28.0777
  33   2.0000      -1.020361       -27.7654
  34   2.0000      -0.997031       -27.1306
  35   2.0000      -0.984932       -26.8014
  36   2.0000      -0.924452       -25.1556
  37   2.0000      -0.894534       -24.3415
  38   2.0000      -0.848847       -23.0983
  39   2.0000      -0.841697       -22.9037
  40   2.0000      -0.838101       -22.8059
  41   2.0000      -0.820095       -22.3159
  42   2.0000      -0.744545       -20.2601
  43   2.0000      -0.734231       -19.9794
  44   2.0000      -0.717604       -19.5270
  45   2.0000      -0.700085       -19.0503
  46   2.0000      -0.689095       -18.7512
  47   2.0000      -0.674164       -18.3449
  48   2.0000      -0.669106       -18.2073
  49   2.0000      -0.661588       -18.0027
  50   2.0000      -0.652803       -17.7637
  51   2.0000      -0.645412       -17.5626
  52   2.0000      -0.638105       -17.3637
  53   2.0000      -0.615516       -16.7490
  54   2.0000      -0.612357       -16.6631
  55   2.0000      -0.603859       -16.4318
  56   2.0000      -0.600940       -16.3524
  57   2.0000      -0.581400       -15.8207
  58   2.0000      -0.571594       -15.5539
  59   2.0000      -0.567709       -15.4482
  60   2.0000      -0.552571       -15.0362
  61   2.0000      -0.539737       -14.6870
  62   2.0000      -0.534496       -14.5444
  63   2.0000      -0.529538       -14.4095
  64   2.0000      -0.522174       -14.2091
  65   2.0000      -0.514561       -14.0019
  66   2.0000      -0.503702       -13.7064
  67   2.0000      -0.492563       -13.4033
  68   2.0000      -0.489258       -13.3134
  69   2.0000      -0.463028       -12.5996
  70   2.0000      -0.452540       -12.3142
  71   2.0000      -0.440641       -11.9905
  72   2.0000      -0.355292        -9.6680
  73   2.0000      -0.353552        -9.6206
  74   2.0000      -0.330026        -8.9805
  75   2.0000      -0.326056        -8.8724
  76   2.0000      -0.317274        -8.6335
  77   0.0000       0.074320         2.0223
  78   0.0000       0.100879         2.7451
  79   0.0000       0.122182         3.3247
  80   0.0000       0.130028         3.5382
  81   0.0000       0.132498         3.6055

MULLIKEN ATOMIC CHARGES
-----------------------
   0 C :   -0.302934
   1 C :    0.034633
   2 O :   -0.385183
   3 C :    0.468873
   4 O :   -0.412346
   5 C :   -0.265231
   6 C :    0.169289
   7 C :   -0.268895
   8 N :   -0.124607
   9 C :    0.217623
  10 S :   -0.442105
  11 N :   -0.213185
  12 C :    0.084777
  13 C :    0.040540
  14 C :   -0.196723
  15 C :   -0.131199
  16 C :   -0.275310
  17 C :    0.310549
  18 O :   -0.356646
  19 C :   -0.253162
  20 H :    0.100284
  21 H :    0.100785
  22 H :    0.123367
  23 H :    0.104377
  24 H :    0.111408
  25 H :    0.129652
  26 H :    0.133289
  27 H :    0.095312
  28 H :    0.197021
  29 H :    0.195923
  30 H :    0.149045
  31 H :    0.150773
  32 H :    0.163307
  33 H :    0.133152
  34 H :    0.242046
  35 H :    0.171502
Sum of atomic charges:   -0.0000000

LOEWDIN ATOMIC CHARGES
----------------------
   0 C :    0.104082
   1 C :   -0.010611
   2 O :    0.287365
   3 C :   -0.417403
   4 O :    0.112743
   5 C :   -0.097894
   6 C :   -0.058541
   7 C :    0.131365
   8 N :    0.407102
   9 C :   -0.454775
  10 S :   -0.036256
  11 N :    0.395909
  12 C :   -0.052276
  13 C :   -0.035590
  14 C :    0.012359
  15 C :    0.040957
  16 C :   -0.002622
  17 C :   -0.189470
  18 O :    0.396503
  19 C :    0.030539
  20 H :   -0.029099
  21 H :   -0.025797
  22 H :   -0.024298
  23 H :   -0.030600
  24 H :   -0.026995
  25 H :   -0.005378
  26 H :   -0.003276
  27 H :   -0.023440
  28 H :   -0.057490
  29 H :   -0.065397
  30 H :   -0.010061
  31 H :   -0.029516
  32 H :   -0.019912
  33 H :   -0.034705
  34 H :   -0.152595
  35 H :   -0.024928

  Mayer bond orders larger than 0.100000
B(  0-C ,  1-C ) :   0.9739 B(  0-C , 20-H ) :   0.9738 B(  0-C , 21-H ) :   0.9739
B(  0-C , 22-H ) :   0.9719 B(  1-C ,  2-O ) :   0.8913 B(  1-C , 23-H ) :   0.9701
B(  1-C , 24-H ) :   0.9830 B(  2-O ,  3-C ) :   1.1180 B(  3-C ,  4-O ) :   2.0091
B(  3-C ,  5-C ) :   1.0514 B(  5-C ,  6-C ) :   1.6449 B(  5-C , 12-C ) :   0.9726
B(  6-C ,  7-C ) :   0.9653 B(  6-C ,  8-N ) :   1.1627 B(  7-C , 25-H ) :   0.9609
B(  7-C , 26-H ) :   0.9593 B(  7-C , 27-H ) :   0.9905 B(  8-N ,  9-C ) :   1.1854
B(  8-N , 28-H ) :   0.9477 B(  9-C , 10-S ) :   1.6006 B(  9-C , 11-N ) :   1.3096
B( 11-N , 12-C ) :   0.9694 B( 11-N , 29-H ) :   0.9511 B( 12-C , 13-C ) :   0.9433
B( 12-C , 30-H ) :   1.0007 B( 13-C , 14-C ) :   1.3514 B( 13-C , 19-C ) :   1.3705
B( 14-C , 15-C ) :   1.3953 B( 14-C , 31-H ) :   0.9741 B( 15-C , 16-C ) :   1.3598
B( 15-C , 32-H ) :   0.9703 B( 16-C , 17-C ) :   1.3316 B( 16-C , 33-H ) :   0.9842
B( 17-C , 18-O ) :   1.1113 B( 17-C , 19-C ) :   1.3683 B( 18-O , 34-H ) :   0.9790
B( 19-C , 35-H ) :   0.9573

MP2 TOTAL ENERGY:    -1274.336391130 Eh
FINAL SINGLE POINT ENERGY     -1274.336391129999

DIPOLE MOMENT
-------------
                                X             Y             Z
Electronic contribution:     10.01443       9.38943       6.37106
Nuclear contribution   :    -10.98931     -11.09230      -6.32772
                        -----------------------------------------
Total Dipole Moment    :     -0.97488      -1.70287       0.04334
                        -----------------------------------------
Magnitude (a.u.)       :      1.96266
Magnitude (Debye)      :      4.98869

Rotational constants in cm-1:     0.012690     0.008734     0.006435
Rotational constants in MHz :   380.449944   261.832529   192.901764

                             ****ORCA TERMINATED NORMALLY****
TOTAL RUN TIME: 0 days 1 hours 44 minutes 59 seconds 426 msec
