                         Program Version 4.2.0 -  RELEASE  -
|  1> ! ri-mp2 cc-pvtz cc-pvtz/c TightSCF  NoKeepInts
|  2>
|  3> %scf
|  4>   MaxCore 4096
|  5> end
|  6> *xyz  0  1
|  7>     C       15.0288029   15.8252339   17.2193577
|  8>     C       15.8840501   14.5457376   17.0738665
|  9>     O       17.2074735   14.7351189   16.5037697
| 10>     C       17.8592836   15.9136545   16.2449966
| 11>     O       18.2717614   16.1352548   15.1215922
| 12>     C       17.8291085   16.9774097   17.3004810
| 13>     C       17.4876142   18.2520859   16.9933278
| 14>     C       16.9634573   18.7531159   15.6647350
| 15>     N       17.6221704   19.2659899   17.9439187
| 16>     C       18.1922234   19.1081102   19.1784556
| 17>     S       18.3498320   20.3695213   20.2359253
| 18>     N       18.6272161   17.8467772   19.4984137
| 19>     C       18.4589607   16.6394088   18.6656288
| 20>     C       17.7756358   15.5369550   19.4699687
| 21>     C       18.2992154   14.2297118   19.4577912
| 22>     C       17.6980044   13.2094885   20.2138899
| 23>     C       16.5680797   13.4984044   20.9975125
| 24>     C       16.0522910   14.8009130   21.0257461
| 25>     O       14.9618847   15.0840865   21.7810388
| 26>     C       16.6534197   15.8147524   20.2731700
| 27>     H       15.3911120   16.4923047   18.0056803
| 28>     H       14.0016067   15.5499359   17.4880048
| 29>     H       14.9824198   16.3743860   16.2719533
| 30>     H       15.9689463   14.0617250   18.0536789
| 31>     H       15.3403587   13.8428045   16.4295651
| 32>     H       16.3300649   18.0049872   15.1737500
| 33>     H       17.7981080   18.9622453   14.9831064
| 34>     H       16.3679223   19.6680240   15.7666914
| 35>     H       17.3323789   20.2039817   17.7163891
| 36>     H       19.0226798   17.7594209   20.4263165
| 37>     H       19.4733321   16.2780073   18.4439380
| 38>     H       19.1707397   13.9994982   18.8496980
| 39>     H       18.1081891   12.2009743   20.1903474
| 40>     H       16.1002941   12.7130887   21.5825856
| 41>     H       14.7276657   14.2812136   22.2711061
| 42>     H       16.2406973   16.8176724   20.3176034
| 43> *
| 44>
| 45>                          ****END OF INPUT****

CARTESIAN COORDINATES (ANGSTROEM)
---------------------------------
  C     15.028803   15.825234   17.219358
  C     15.884050   14.545738   17.073867
  O     17.207473   14.735119   16.503770
  C     17.859284   15.913654   16.244997
  O     18.271761   16.135255   15.121592
  C     17.829109   16.977410   17.300481
  C     17.487614   18.252086   16.993328
  C     16.963457   18.753116   15.664735
  N     17.622170   19.265990   17.943919
  C     18.192223   19.108110   19.178456
  S     18.349832   20.369521   20.235925
  N     18.627216   17.846777   19.498414
  C     18.458961   16.639409   18.665629
  C     17.775636   15.536955   19.469969
  C     18.299215   14.229712   19.457791
  C     17.698004   13.209489   20.213890
  C     16.568080   13.498404   20.997512
  C     16.052291   14.800913   21.025746
  O     14.961885   15.084086   21.781039
  C     16.653420   15.814752   20.273170
  H     15.391112   16.492305   18.005680
  H     14.001607   15.549936   17.488005
  H     14.982420   16.374386   16.271953
  H     15.968946   14.061725   18.053679
  H     15.340359   13.842804   16.429565
  H     16.330065   18.004987   15.173750
  H     17.798108   18.962245   14.983106
  H     16.367922   19.668024   15.766691
  H     17.332379   20.203982   17.716389
  H     19.022680   17.759421   20.426316
  H     19.473332   16.278007   18.443938
  H     19.170740   13.999498   18.849698
  H     18.108189   12.200974   20.190347
  H     16.100294   12.713089   21.582586
  H     14.727666   14.281214   22.271106
  H     16.240697   16.817672   20.317603

 Total Charge           Charge          ....    0
 Multiplicity           Mult            ....    1
 Number of Electrons    NEL             ....  154
 Basis Dimension        Dim             ....  828

ORBITAL ENERGIES
----------------

  NO   OCC          E(Eh)            E(eV)
   0   2.0000     -91.890607     -2500.4705
   1   2.0000     -20.604386      -560.6738
   2   2.0000     -20.585928      -560.1716
   3   2.0000     -20.550382      -559.2043
   4   2.0000     -15.627405      -425.2433
   5   2.0000     -15.612121      -424.8274
   6   2.0000     -11.395472      -310.0866
   7   2.0000     -11.386400      -309.8397
   8   2.0000     -11.329599      -308.2941
   9   2.0000     -11.322346      -308.0967
  10   2.0000     -11.318624      -307.9954
  11   2.0000     -11.303194      -307.5755
  12   2.0000     -11.269321      -306.6538
  13   2.0000     -11.262915      -306.4795
  14   2.0000     -11.259761      -306.3937
  15   2.0000     -11.255808      -306.2861
  16   2.0000     -11.252337      -306.1917
  17   2.0000     -11.247766      -306.0673
  18   2.0000     -11.246720      -306.0388
  19   2.0000     -11.233955      -305.6914
  20   2.0000      -8.895702      -242.0644
  21   2.0000      -6.577286      -178.9771
  22   2.0000      -6.575267      -178.9221
  23   2.0000      -6.574686      -178.9063
  24   2.0000      -1.440201       -39.1899
  25   2.0000      -1.424239       -38.7555
  26   2.0000      -1.351895       -36.7869
  27   2.0000      -1.340615       -36.4800
  28   2.0000      -1.241188       -33.7744
  29   2.0000      -1.165474       -31.7142
  30   2.0000      -1.123061       -30.5600
  31   2.0000      -1.049884       -28.5688
  32   2.0000      -1.035330       -28.1728
  33   2.0000      -1.023861       -27.8607
  34   2.0000      -1.003249       -27.2998
  35   2.0000      -0.989107       -26.9150
  36   2.0000      -0.928034       -25.2531
  37   2.0000      -0.899564       -24.4784
  38   2.0000      -0.851278       -23.1644
  39   2.0000      -0.843960       -22.9653
  40   2.0000      -0.842368       -22.9220
  41   2.0000      -0.827182       -22.5088
  42   2.0000      -0.747795       -20.3485
  43   2.0000      -0.738291       -20.0899
  44   2.0000      -0.721283       -19.6271
  45   2.0000      -0.702898       -19.1268
  46   2.0000      -0.690074       -18.7779
  47   2.0000      -0.677306       -18.4304
  48   2.0000      -0.674597       -18.3567
  49   2.0000      -0.659496       -17.9458
  50   2.0000      -0.657728       -17.8977
  51   2.0000      -0.649666       -17.6783
  52   2.0000      -0.639361       -17.3979
  53   2.0000      -0.622177       -16.9303
  54   2.0000      -0.613560       -16.6958
  55   2.0000      -0.607056       -16.5188
  56   2.0000      -0.603444       -16.4205
  57   2.0000      -0.582801       -15.8588
  58   2.0000      -0.577647       -15.7186
  59   2.0000      -0.567816       -15.4511
  60   2.0000      -0.561689       -15.2843
  61   2.0000      -0.553435       -15.0597
  62   2.0000      -0.541723       -14.7410
  63   2.0000      -0.532545       -14.4913
  64   2.0000      -0.528016       -14.3680
  65   2.0000      -0.516470       -14.0539
  66   2.0000      -0.505637       -13.7591
  67   2.0000      -0.493320       -13.4239
  68   2.0000      -0.485225       -13.2037
  69   2.0000      -0.469946       -12.7879
  70   2.0000      -0.452145       -12.3035
  71   2.0000      -0.446275       -12.1438
  72   2.0000      -0.359489        -9.7822
  73   2.0000      -0.350344        -9.5334
  74   2.0000      -0.331085        -9.0093
  75   2.0000      -0.329261        -8.9597
  76   2.0000      -0.319282        -8.6881
  77   0.0000       0.081232         2.2104
  78   0.0000       0.097808         2.6615
  79   0.0000       0.118957         3.2370
  80   0.0000       0.125708         3.4207
  81   0.0000       0.129308         3.5186

MULLIKEN ATOMIC CHARGES
-----------------------
   0 C :   -0.343748
   1 C :    0.032007
   2 O :   -0.346767
   3 C :    0.405946
   4 O :   -0.367622
   5 C :   -0.238106
   6 C :    0.160964
   7 C :   -0.286485
   8 N :   -0.129865
   9 C :    0.209137
  10 S :   -0.439941
  11 N :   -0.219781
  12 C :    0.081735
  13 C :    0.000876
  14 C :   -0.174427
  15 C :   -0.135251
  16 C :   -0.277465
  17 C :    0.323713
  18 O :   -0.355623
  19 C :   -0.276732
  20 H :    0.114321
  21 H :    0.126374
  22 H :    0.107462
  23 H :    0.107594
  24 H :    0.127871
  25 H :    0.119887
  26 H :    0.145303
  27 H :    0.097153
  28 H :    0.196914
  29 H :    0.201365
  30 H :    0.158875
  31 H :    0.149344
  32 H :    0.164388
  33 H :    0.134743
  34 H :    0.242147
  35 H :    0.183693
Sum of atomic charges:   -0.0000000

LOEWDIN ATOMIC CHARGES
----------------------
   0 C :    0.103894
   1 C :   -0.010175
   2 O :    0.286897
   3 C :   -0.423088
   4 O :    0.130908
   5 C :   -0.089340
   6 C :   -0.078321
   7 C :    0.129464
   8 N :    0.405125
   9 C :   -0.457252
  10 S :   -0.036332
  11 N :    0.396919
  12 C :   -0.051716
  13 C :   -0.043228
  14 C :    0.021114
  15 C :    0.042312
  16 C :   -0.000405
  17 C :   -0.193951
  18 O :    0.397125
  19 C :    0.031334
  20 H :   -0.036743
  21 H :   -0.019925
  22 H :   -0.030633
  23 H :   -0.029286
  24 H :   -0.023257
  25 H :   -0.012151
  26 H :   -0.003306
  27 H :   -0.021187
  28 H :   -0.057466
  29 H :   -0.064024
  30 H :   -0.009635
  31 H :   -0.026628
  32 H :   -0.018538
  33 H :   -0.033482
  34 H :   -0.152161
  35 H :   -0.022863

  Mayer bond orders larger than 0.100000
B(  0-C ,  1-C ) :   0.9613 B(  0-C , 20-H ) :   0.9678 B(  0-C , 21-H ) :   0.9752
B(  0-C , 22-H ) :   0.9748 B(  1-C ,  2-O ) :   0.8987 B(  1-C , 23-H ) :   0.9691
B(  1-C , 24-H ) :   0.9832 B(  2-O ,  3-C ) :   1.1658 B(  3-C ,  4-O ) :   2.1068
B(  3-C ,  5-C ) :   0.9255 B(  5-C ,  6-C ) :   1.7009 B(  5-C , 12-C ) :   0.9540
B(  6-C ,  7-C ) :   0.9535 B(  6-C ,  8-N ) :   1.1360 B(  7-C , 25-H ) :   0.9726
B(  7-C , 26-H ) :   0.9583 B(  7-C , 27-H ) :   0.9842 B(  8-N ,  9-C ) :   1.1983
B(  8-N , 28-H ) :   0.9502 B(  9-C , 10-S ) :   1.6099 B(  9-C , 11-N ) :   1.2858
B( 11-N , 12-C ) :   0.9935 B( 11-N , 29-H ) :   0.9465 B( 12-C , 13-C ) :   0.9370
B( 12-C , 30-H ) :   1.0065 B( 13-C , 14-C ) :   1.3717 B( 13-C , 19-C ) :   1.3497
B( 14-C , 15-C ) :   1.4020 B( 14-C , 31-H ) :   0.9724 B( 15-C , 16-C ) :   1.3555
B( 15-C , 32-H ) :   0.9704 B( 16-C , 17-C ) :   1.3308 B( 16-C , 33-H ) :   0.9839
B( 17-C , 18-O ) :   1.1115 B( 17-C , 19-C ) :   1.3595 B( 18-O , 34-H ) :   0.9785
B( 19-C , 35-H ) :   0.9522

MP2 TOTAL ENERGY:    -1274.320835961 Eh
FINAL SINGLE POINT ENERGY     -1274.320835960719

DIPOLE MOMENT
-------------
                                X             Y             Z
Electronic contribution:      8.90078       6.09886       5.81011
Nuclear contribution   :    -10.12252      -7.70858      -5.58993
                        -----------------------------------------
Total Dipole Moment    :     -1.22174      -1.60972       0.22018
                        -----------------------------------------
Magnitude (a.u.)       :      2.03281
Magnitude (Debye)      :      5.16700

Rotational constants in cm-1:     0.012542     0.009336     0.006546
Rotational constants in MHz :   376.014291   279.873390   196.234102

                             ****ORCA TERMINATED NORMALLY****
TOTAL RUN TIME: 0 days 1 hours 58 minutes 40 seconds 746 msec
