                         Program Version 4.2.0 -  RELEASE  -
|  1> ! ri-mp2 cc-pvtz cc-pvtz/c TightSCF  NoKeepInts
|  2>
|  3> %scf
|  4>   MaxCore 4096
|  5> end
|  6> *xyz  0  1
|  7>     C       14.9224200   16.1391502   17.3009278
|  8>     C       15.5914203   14.9102581   16.6513600
|  9>     O       16.8569239   15.1192003   15.9675246
| 10>     C       18.0125231   15.6890551   16.4493648
| 11>     O       19.0566142   15.0703802   16.3551529
| 12>     C       17.9135480   16.8543177   17.3722180
| 13>     C       17.3979515   18.0414370   16.9774901
| 14>     C       16.8697335   18.3937876   15.6027103
| 15>     N       17.4227565   19.1333346   17.8476049
| 16>     C       18.0298669   19.1380652   19.0765498
| 17>     S       18.0494572   20.4887118   20.0302286
| 18>     N       18.6234588   17.9662147   19.4778975
| 19>     C       18.5851850   16.6886197   18.7378098
| 20>     C       17.9272684   15.5766216   19.5545266
| 21>     C       18.4058796   14.2567880   19.4547186
| 22>     C       17.8024531   13.2160443   20.1797027
| 23>     C       16.7089851   13.4945987   21.0164210
| 24>     C       16.2290145   14.8065041   21.1224073
| 25>     O       15.1677424   15.0784127   21.9224545
| 26>     C       16.8318378   15.8406954   20.3993118
| 27>     H       15.4766385   16.5167087   18.1630550
| 28>     H       13.9300515   15.8554096   17.6723878
| 29>     H       14.7726059   16.9422081   16.5726039
| 30>     H       15.7454151   14.1570085   17.4360641
| 31>     H       14.8854417   14.4756849   15.9318923
| 32>     H       16.6538971   17.5085588   14.9934904
| 33>     H       17.6069421   18.9916813   15.0519583
| 34>     H       15.9430937   18.9771719   15.6670594
| 35>     H       17.0165508   20.0103981   17.5618983
| 36>     H       19.0523695   17.9971452   20.3942957
| 37>     H       19.6271661   16.3875937   18.5528937
| 38>     H       19.2464187   14.0339228   18.8004187
| 39>     H       18.1825432   12.1998021   20.0882085
| 40>     H       16.2390555   12.6932467   21.5771464
| 41>     H       14.9278856   14.2569890   22.3775992
| 42>     H       16.4358852   16.8462736   20.4966467
| 43> *
| 44>
| 45>                          ****END OF INPUT****

CARTESIAN COORDINATES (ANGSTROEM)
---------------------------------
  C     14.922420   16.139150   17.300928
  C     15.591420   14.910258   16.651360
  O     16.856924   15.119200   15.967525
  C     18.012523   15.689055   16.449365
  O     19.056614   15.070380   16.355153
  C     17.913548   16.854318   17.372218
  C     17.397952   18.041437   16.977490
  C     16.869733   18.393788   15.602710
  N     17.422756   19.133335   17.847605
  C     18.029867   19.138065   19.076550
  S     18.049457   20.488712   20.030229
  N     18.623459   17.966215   19.477898
  C     18.585185   16.688620   18.737810
  C     17.927268   15.576622   19.554527
  C     18.405880   14.256788   19.454719
  C     17.802453   13.216044   20.179703
  C     16.708985   13.494599   21.016421
  C     16.229015   14.806504   21.122407
  O     15.167742   15.078413   21.922455
  C     16.831838   15.840695   20.399312
  H     15.476638   16.516709   18.163055
  H     13.930051   15.855410   17.672388
  H     14.772606   16.942208   16.572604
  H     15.745415   14.157008   17.436064
  H     14.885442   14.475685   15.931892
  H     16.653897   17.508559   14.993490
  H     17.606942   18.991681   15.051958
  H     15.943094   18.977172   15.667059
  H     17.016551   20.010398   17.561898
  H     19.052369   17.997145   20.394296
  H     19.627166   16.387594   18.552894
  H     19.246419   14.033923   18.800419
  H     18.182543   12.199802   20.088209
  H     16.239055   12.693247   21.577146
  H     14.927886   14.256989   22.377599
  H     16.435885   16.846274   20.496647

 Total Charge           Charge          ....    0
 Multiplicity           Mult            ....    1
 Number of Electrons    NEL             ....  154
 Basis Dimension        Dim             ....  828

ORBITAL ENERGIES
----------------

  NO   OCC          E(Eh)            E(eV)
   0   2.0000     -91.890653     -2500.4718
   1   2.0000     -20.600488      -560.5678
   2   2.0000     -20.590981      -560.3091
   3   2.0000     -20.550958      -559.2200
   4   2.0000     -15.627649      -425.2499
   5   2.0000     -15.612052      -424.8255
   6   2.0000     -11.398021      -310.1559
   7   2.0000     -11.387325      -309.8649
   8   2.0000     -11.329270      -308.2851
   9   2.0000     -11.317578      -307.9669
  10   2.0000     -11.315081      -307.8990
  11   2.0000     -11.308937      -307.7318
  12   2.0000     -11.265437      -306.5481
  13   2.0000     -11.265023      -306.5369
  14   2.0000     -11.261914      -306.4523
  15   2.0000     -11.257555      -306.3336
  16   2.0000     -11.246836      -306.0420
  17   2.0000     -11.243162      -305.9420
  18   2.0000     -11.239276      -305.8362
  19   2.0000     -11.233864      -305.6890
  20   2.0000      -8.895753      -242.0658
  21   2.0000      -6.577339      -178.9785
  22   2.0000      -6.575317      -178.9235
  23   2.0000      -6.574738      -178.9077
  24   2.0000      -1.442278       -39.2464
  25   2.0000      -1.420299       -38.6483
  26   2.0000      -1.353831       -36.8396
  27   2.0000      -1.340499       -36.4768
  28   2.0000      -1.240308       -33.7505
  29   2.0000      -1.161673       -31.6107
  30   2.0000      -1.125144       -30.6167
  31   2.0000      -1.048676       -28.5359
  32   2.0000      -1.038670       -28.2636
  33   2.0000      -1.019783       -27.7497
  34   2.0000      -1.004772       -27.3412
  35   2.0000      -0.990617       -26.9561
  36   2.0000      -0.928136       -25.2559
  37   2.0000      -0.897248       -24.4154
  38   2.0000      -0.852764       -23.2049
  39   2.0000      -0.841786       -22.9062
  40   2.0000      -0.837338       -22.7851
  41   2.0000      -0.829466       -22.5709
  42   2.0000      -0.749530       -20.3957
  43   2.0000      -0.734595       -19.9894
  44   2.0000      -0.730011       -19.8646
  45   2.0000      -0.698334       -19.0026
  46   2.0000      -0.687849       -18.7173
  47   2.0000      -0.676944       -18.4206
  48   2.0000      -0.674912       -18.3653
  49   2.0000      -0.662736       -18.0340
  50   2.0000      -0.654661       -17.8142
  51   2.0000      -0.649511       -17.6741
  52   2.0000      -0.640048       -17.4166
  53   2.0000      -0.613909       -16.7053
  54   2.0000      -0.606972       -16.5166
  55   2.0000      -0.604400       -16.4466
  56   2.0000      -0.599499       -16.3132
  57   2.0000      -0.595849       -16.2139
  58   2.0000      -0.578781       -15.7494
  59   2.0000      -0.577137       -15.7047
  60   2.0000      -0.566486       -15.4149
  61   2.0000      -0.557117       -15.1599
  62   2.0000      -0.542113       -14.7516
  63   2.0000      -0.531826       -14.4717
  64   2.0000      -0.521768       -14.1980
  65   2.0000      -0.514266       -13.9939
  66   2.0000      -0.503097       -13.6900
  67   2.0000      -0.493459       -13.4277
  68   2.0000      -0.486132       -13.2283
  69   2.0000      -0.465452       -12.6656
  70   2.0000      -0.457979       -12.4623
  71   2.0000      -0.448386       -12.2012
  72   2.0000      -0.355562        -9.6753
  73   2.0000      -0.351393        -9.5619
  74   2.0000      -0.330212        -8.9855
  75   2.0000      -0.325327        -8.8526
  76   2.0000      -0.319234        -8.6868
  77   0.0000       0.084345         2.2951
  78   0.0000       0.103779         2.8240
  79   0.0000       0.118626         3.2280
  80   0.0000       0.125180         3.4063
  81   0.0000       0.129148         3.5143

MULLIKEN ATOMIC CHARGES
-----------------------
   0 C :   -0.344335
   1 C :    0.048744
   2 O :   -0.354384
   3 C :    0.413365
   4 O :   -0.378078
   5 C :   -0.206967
   6 C :    0.152604
   7 C :   -0.325898
   8 N :   -0.136459
   9 C :    0.207482
  10 S :   -0.440057
  11 N :   -0.229830
  12 C :    0.103717
  13 C :    0.017086
  14 C :   -0.221024
  15 C :   -0.134289
  16 C :   -0.277774
  17 C :    0.324253
  18 O :   -0.355931
  19 C :   -0.284070
  20 H :    0.119123
  21 H :    0.128424
  22 H :    0.098868
  23 H :    0.105031
  24 H :    0.120503
  25 H :    0.126688
  26 H :    0.149273
  27 H :    0.108927
  28 H :    0.196736
  29 H :    0.202334
  30 H :    0.165904
  31 H :    0.176579
  32 H :    0.165601
  33 H :    0.132813
  34 H :    0.241533
  35 H :    0.183509
Sum of atomic charges:   -0.0000000

LOEWDIN ATOMIC CHARGES
----------------------
   0 C :    0.104331
   1 C :   -0.010369
   2 O :    0.281397
   3 C :   -0.415092
   4 O :    0.128952
   5 C :   -0.085087
   6 C :   -0.092558
   7 C :    0.123869
   8 N :    0.403924
   9 C :   -0.455789
  10 S :   -0.036882
  11 N :    0.397829
  12 C :   -0.043762
  13 C :   -0.043016
  14 C :    0.020547
  15 C :    0.043227
  16 C :   -0.001487
  17 C :   -0.193703
  18 O :    0.395446
  19 C :    0.026247
  20 H :   -0.035670
  21 H :   -0.019368
  22 H :   -0.031912
  23 H :   -0.026360
  24 H :   -0.019158
  25 H :   -0.011394
  26 H :   -0.008241
  27 H :   -0.018751
  28 H :   -0.057422
  29 H :   -0.064030
  30 H :   -0.002921
  31 H :   -0.021680
  32 H :   -0.018279
  33 H :   -0.034597
  34 H :   -0.152971
  35 H :   -0.025272

  Mayer bond orders larger than 0.100000
B(  0-C ,  1-C ) :   0.9593 B(  0-C , 20-H ) :   0.9676 B(  0-C , 21-H ) :   0.9773
B(  0-C , 22-H ) :   0.9769 B(  1-C ,  2-O ) :   0.9019 B(  1-C , 23-H ) :   0.9756
B(  1-C , 24-H ) :   0.9818 B(  2-O ,  3-C ) :   1.1544 B(  3-C ,  4-O ) :   2.0914
B(  3-C ,  5-C ) :   0.9424 B(  5-C ,  6-C ) :   1.6761 B(  5-C , 12-C ) :   0.9475
B(  6-C ,  7-C ) :   0.9484 B(  6-C ,  8-N ) :   1.1207 B(  7-C , 25-H ) :   0.9762
B(  7-C , 26-H ) :   0.9645 B(  7-C , 27-H ) :   0.9724 B(  8-N ,  9-C ) :   1.1964
B(  8-N , 28-H ) :   0.9511 B(  9-C , 10-S ) :   1.6094 B(  9-C , 11-N ) :   1.2859
B( 11-N , 12-C ) :   0.9906 B( 11-N , 29-H ) :   0.9476 B( 12-C , 13-C ) :   0.9454
B( 12-C , 30-H ) :   0.9970 B( 13-C , 14-C ) :   1.3889 B( 13-C , 19-C ) :   1.3379
B( 14-C , 15-C ) :   1.4033 B( 14-C , 31-H ) :   0.9585 B( 15-C , 16-C ) :   1.3575
B( 15-C , 32-H ) :   0.9695 B( 16-C , 17-C ) :   1.3322 B( 16-C , 33-H ) :   0.9844
B( 17-C , 18-O ) :   1.1108 B( 17-C , 19-C ) :   1.3647 B( 18-O , 34-H ) :   0.9792
B( 19-C , 35-H ) :   0.9534

MP2 TOTAL ENERGY:    -1274.323689194 Eh
FINAL SINGLE POINT ENERGY     -1274.323689193538

DIPOLE MOMENT
-------------
                                X             Y             Z
Electronic contribution:      9.37051       5.51777       6.08142
Nuclear contribution   :    -10.83053      -6.74106      -6.47195
                        -----------------------------------------
Total Dipole Moment    :     -1.46002      -1.22330      -0.39053
                        -----------------------------------------
Magnitude (a.u.)       :      1.94439
Magnitude (Debye)      :      4.94224

Rotational constants in cm-1:     0.012199     0.009373     0.006871
Rotational constants in MHz :   365.712576   280.983156   205.989372

                             ****ORCA TERMINATED NORMALLY****
TOTAL RUN TIME: 0 days 1 hours 58 minutes 16 seconds 878 msec
