                         Program Version 4.2.0 -  RELEASE  -
|  1> ! ri-mp2 cc-pvtz cc-pvtz/c TightSCF  NoKeepInts
|  2>
|  3> %scf
|  4>   MaxCore 4096
|  5> end
|  6> *xyz  0  1
|  7>     C       15.2403071   13.7322680   15.7583364
|  8>     C       15.1783759   15.0456493   16.5645001
|  9>     O       16.2065050   15.9497429   16.1153767
| 10>     C       17.4789320   15.8151635   16.5946651
| 11>     O       17.9964667   14.7217106   16.7472450
| 12>     C       17.8664367   16.9759661   17.4601713
| 13>     C       17.4978893   18.2582503   17.2136267
| 14>     C       16.6895109   18.7738458   16.0412140
| 15>     N       17.9399898   19.2829803   18.0559131
| 16>     C       18.8488660   19.1250143   19.0692103
| 17>     S       19.4037335   20.4105567   19.9495068
| 18>     N       19.2749836   17.8440232   19.3165434
| 19>     C       18.7246903   16.6314721   18.6810524
| 20>     C       17.9211023   15.8146896   19.6896834
| 21>     C       18.2227335   14.4583148   19.9110440
| 22>     C       17.4765084   13.6985607   20.8274066
| 23>     C       16.4177205   14.2992517   21.5293626
| 24>     C       16.1110939   15.6487771   21.3087689
| 25>     O       15.0835000   16.2295000   21.9780084
| 26>     C       16.8549896   16.4021051   20.3952751
| 27>     H       16.1438079   13.1579276   15.9956184
| 28>     H       15.2344580   13.9383787   14.6809839
| 29>     H       14.3741391   13.1013078   15.9907955
| 30>     H       14.1982941   15.5113734   16.4004345
| 31>     H       15.2824190   14.8412870   17.6394139
| 32>     H       16.9888926   18.2783826   15.1091157
| 33>     H       16.8179731   19.8519225   15.8853012
| 34>     H       15.6202675   18.5817814   16.1943430
| 35>     H       17.6393293   20.2302417   17.8900001
| 36>     H       19.9220891   17.7522116   20.0890875
| 37>     H       19.5712965   16.0205095   18.3357347
| 38>     H       19.0287860   13.9863889   19.3542884
| 39>     H       17.7168934   12.6485974   20.9848137
| 40>     H       15.8377473   13.7154909   22.2364091
| 41>     H       14.7339757   15.5727585   22.5989602
| 42>     H       16.6022967   17.4455984   20.2417899
| 43> *
| 44>
| 45>                          ****END OF INPUT****

CARTESIAN COORDINATES (ANGSTROEM)
---------------------------------
  C     15.240307   13.732268   15.758336
  C     15.178376   15.045649   16.564500
  O     16.206505   15.949743   16.115377
  C     17.478932   15.815164   16.594665
  O     17.996467   14.721711   16.747245
  C     17.866437   16.975966   17.460171
  C     17.497889   18.258250   17.213627
  C     16.689511   18.773846   16.041214
  N     17.939990   19.282980   18.055913
  C     18.848866   19.125014   19.069210
  S     19.403734   20.410557   19.949507
  N     19.274984   17.844023   19.316543
  C     18.724690   16.631472   18.681052
  C     17.921102   15.814690   19.689683
  C     18.222734   14.458315   19.911044
  C     17.476508   13.698561   20.827407
  C     16.417721   14.299252   21.529363
  C     16.111094   15.648777   21.308769
  O     15.083500   16.229500   21.978008
  C     16.854990   16.402105   20.395275
  H     16.143808   13.157928   15.995618
  H     15.234458   13.938379   14.680984
  H     14.374139   13.101308   15.990796
  H     14.198294   15.511373   16.400434
  H     15.282419   14.841287   17.639414
  H     16.988893   18.278383   15.109116
  H     16.817973   19.851923   15.885301
  H     15.620267   18.581781   16.194343
  H     17.639329   20.230242   17.890000
  H     19.922089   17.752212   20.089088
  H     19.571296   16.020509   18.335735
  H     19.028786   13.986389   19.354288
  H     17.716893   12.648597   20.984814
  H     15.837747   13.715491   22.236409
  H     14.733976   15.572759   22.598960
  H     16.602297   17.445598   20.241790

 Total Charge           Charge          ....    0
 Multiplicity           Mult            ....    1
 Number of Electrons    NEL             ....  154
 Basis Dimension        Dim             ....  828

ORBITAL ENERGIES
----------------

  NO   OCC          E(Eh)            E(eV)
   0   2.0000     -91.888265     -2500.4068
   1   2.0000     -20.595215      -560.4243
   2   2.0000     -20.588058      -560.2295
   3   2.0000     -20.555159      -559.3343
   4   2.0000     -15.627661      -425.2503
   5   2.0000     -15.607809      -424.7101
   6   2.0000     -11.396647      -310.1185
   7   2.0000     -11.383694      -309.7660
   8   2.0000     -11.332465      -308.3720
   9   2.0000     -11.311478      -307.8010
  10   2.0000     -11.308133      -307.7099
  11   2.0000     -11.301185      -307.5209
  12   2.0000     -11.259350      -306.3825
  13   2.0000     -11.259226      -306.3791
  14   2.0000     -11.257050      -306.3199
  15   2.0000     -11.251643      -306.1728
  16   2.0000     -11.241276      -305.8907
  17   2.0000     -11.237112      -305.7774
  18   2.0000     -11.234398      -305.7035
  19   2.0000     -11.219253      -305.2914
  20   2.0000      -8.893345      -242.0002
  21   2.0000      -6.574925      -178.9128
  22   2.0000      -6.572914      -178.8581
  23   2.0000      -6.572331      -178.8422
  24   2.0000      -1.451910       -39.5085
  25   2.0000      -1.414992       -38.5039
  26   2.0000      -1.358175       -36.9578
  27   2.0000      -1.338927       -36.4340
  28   2.0000      -1.237260       -33.6676
  29   2.0000      -1.155571       -31.4447
  30   2.0000      -1.120665       -30.4948
  31   2.0000      -1.043690       -28.4003
  32   2.0000      -1.031037       -28.0560
  33   2.0000      -1.013036       -27.5661
  34   2.0000      -0.998039       -27.1580
  35   2.0000      -0.983293       -26.7568
  36   2.0000      -0.922794       -25.1105
  37   2.0000      -0.886237       -24.1157
  38   2.0000      -0.848277       -23.0828
  39   2.0000      -0.838147       -22.8071
  40   2.0000      -0.831664       -22.6307
  41   2.0000      -0.823731       -22.4149
  42   2.0000      -0.749902       -20.4059
  43   2.0000      -0.731983       -19.9183
  44   2.0000      -0.727672       -19.8010
  45   2.0000      -0.693689       -18.8762
  46   2.0000      -0.685942       -18.6654
  47   2.0000      -0.681380       -18.5413
  48   2.0000      -0.672115       -18.2892
  49   2.0000      -0.664368       -18.0784
  50   2.0000      -0.646625       -17.5956
  51   2.0000      -0.642289       -17.4776
  52   2.0000      -0.634724       -17.2717
  53   2.0000      -0.604712       -16.4551
  54   2.0000      -0.602782       -16.4025
  55   2.0000      -0.599005       -16.2998
  56   2.0000      -0.593287       -16.1442
  57   2.0000      -0.585921       -15.9437
  58   2.0000      -0.575670       -15.6648
  59   2.0000      -0.569991       -15.5102
  60   2.0000      -0.561597       -15.2818
  61   2.0000      -0.547968       -14.9110
  62   2.0000      -0.535006       -14.5582
  63   2.0000      -0.520576       -14.1656
  64   2.0000      -0.515835       -14.0366
  65   2.0000      -0.511042       -13.9062
  66   2.0000      -0.502648       -13.6777
  67   2.0000      -0.497079       -13.5262
  68   2.0000      -0.480992       -13.0885
  69   2.0000      -0.464627       -12.6431
  70   2.0000      -0.454393       -12.3647
  71   2.0000      -0.450180       -12.2500
  72   2.0000      -0.353457        -9.6181
  73   2.0000      -0.347332        -9.4514
  74   2.0000      -0.327604        -8.9146
  75   2.0000      -0.318644        -8.6707
  76   2.0000      -0.315145        -8.5755
  77   0.0000       0.072693         1.9781
  78   0.0000       0.106658         2.9023
  79   0.0000       0.120317         3.2740
  80   0.0000       0.132841         3.6148
  81   0.0000       0.137283         3.7357

MULLIKEN ATOMIC CHARGES
-----------------------
   0 C :   -0.279989
   1 C :    0.043834
   2 O :   -0.370766
   3 C :    0.436039
   4 O :   -0.407060
   5 C :   -0.162050
   6 C :    0.134510
   7 C :   -0.280954
   8 N :   -0.123752
   9 C :    0.203105
  10 S :   -0.440493
  11 N :   -0.200842
  12 C :    0.051805
  13 C :    0.042755
  14 C :   -0.163127
  15 C :   -0.133649
  16 C :   -0.280889
  17 C :    0.311539
  18 O :   -0.358482
  19 C :   -0.274541
  20 H :    0.121223
  21 H :    0.091438
  22 H :    0.088577
  23 H :    0.099364
  24 H :    0.098707
  25 H :    0.122891
  26 H :    0.102794
  27 H :    0.126150
  28 H :    0.196994
  29 H :    0.194104
  30 H :    0.155137
  31 H :    0.156208
  32 H :    0.160724
  33 H :    0.130400
  34 H :    0.240591
  35 H :    0.167709
Sum of atomic charges:   -0.0000000

LOEWDIN ATOMIC CHARGES
----------------------
   0 C :    0.105224
   1 C :   -0.014361
   2 O :    0.289078
   3 C :   -0.412449
   4 O :    0.128942
   5 C :   -0.092691
   6 C :   -0.073643
   7 C :    0.125979
   8 N :    0.403990
   9 C :   -0.457618
  10 S :   -0.036941
  11 N :    0.397106
  12 C :   -0.045469
  13 C :   -0.040614
  14 C :    0.020702
  15 C :    0.040976
  16 C :   -0.002461
  17 C :   -0.193909
  18 O :    0.393584
  19 C :    0.028254
  20 H :   -0.026483
  21 H :   -0.028801
  22 H :   -0.030293
  23 H :   -0.025472
  24 H :   -0.027130
  25 H :   -0.008378
  26 H :   -0.019776
  27 H :   -0.009632
  28 H :   -0.058824
  29 H :   -0.064100
  30 H :   -0.005056
  31 H :   -0.024906
  32 H :   -0.020557
  33 H :   -0.035760
  34 H :   -0.154264
  35 H :   -0.024251

  Mayer bond orders larger than 0.100000
B(  0-C ,  1-C ) :   0.9770 B(  0-C , 20-H ) :   0.9715 B(  0-C , 21-H ) :   0.9763
B(  0-C , 22-H ) :   0.9760 B(  1-C ,  2-O ) :   0.8986 B(  1-C , 23-H ) :   0.9833
B(  1-C , 24-H ) :   0.9714 B(  2-O ,  3-C ) :   1.0829 B(  3-C ,  4-O ) :   1.9959
B(  3-C ,  5-C ) :   1.0363 B(  5-C ,  6-C ) :   1.6682 B(  5-C , 12-C ) :   0.9621
B(  6-C ,  7-C ) :   0.9523 B(  6-C ,  8-N ) :   1.1380 B(  7-C , 25-H ) :   0.9703
B(  7-C , 26-H ) :   0.9886 B(  7-C , 27-H ) :   0.9628 B(  8-N ,  9-C ) :   1.1847
B(  8-N , 28-H ) :   0.9499 B(  9-C , 10-S ) :   1.6099 B(  9-C , 11-N ) :   1.2998
B( 11-N , 12-C ) :   0.9936 B( 11-N , 29-H ) :   0.9516 B( 12-C , 13-C ) :   0.9440
B( 12-C , 30-H ) :   0.9986 B( 13-C , 14-C ) :   1.3776 B( 13-C , 19-C ) :   1.3691
B( 14-C , 15-C ) :   1.3945 B( 14-C , 31-H ) :   0.9640 B( 15-C , 16-C ) :   1.3634
B( 15-C , 32-H ) :   0.9710 B( 16-C , 17-C ) :   1.3304 B( 16-C , 33-H ) :   0.9851
B( 17-C , 18-O ) :   1.1098 B( 17-C , 19-C ) :   1.3758 B( 18-O , 34-H ) :   0.9800
B( 19-C , 35-H ) :   0.9578

MP2 TOTAL ENERGY:    -1274.326926482 Eh
FINAL SINGLE POINT ENERGY     -1274.326926482008

DIPOLE MOMENT
-------------
                                X             Y             Z
Electronic contribution:     10.57435      10.63042       8.48329
Nuclear contribution   :    -12.08231     -11.80839      -9.07711
                        -----------------------------------------
Total Dipole Moment    :     -1.50796      -1.17798      -0.59382
                        -----------------------------------------
Magnitude (a.u.)       :      2.00355
Magnitude (Debye)      :      5.09261

Rotational constants in cm-1:     0.011616     0.008999     0.006255
Rotational constants in MHz :   348.246152   269.784901   187.532771

                             ****ORCA TERMINATED NORMALLY****
TOTAL RUN TIME: 0 days 1 hours 40 minutes 33 seconds 589 msec
