                         Program Version 4.2.0 -  RELEASE  -
|  1> ! ri-mp2 cc-pvtz cc-pvtz/c TightSCF  NoKeepInts
|  2>
|  3> %scf
|  4>   MaxCore 4096
|  5> end
|  6> *xyz  0  1
|  7>     C       15.1121243   14.6313959   17.3250022
|  8>     C       15.4620656   15.6090039   16.1888701
|  9>     O       16.8085828   15.3394034   15.7422668
| 10>     C       17.9485882   15.6490616   16.4440808
| 11>     O       18.8734453   14.8579982   16.4712516
| 12>     C       17.9140631   16.8343867   17.3630913
| 13>     C       17.4527182   18.0536716   16.9860137
| 14>     C       16.9333664   18.4694934   15.6236189
| 15>     N       17.5606133   19.1409118   17.8565821
| 16>     C       18.2719555   19.1361554   19.0269992
| 17>     S       18.4410514   20.4993302   19.9473626
| 18>     N       18.8423243   17.9429546   19.3923430
| 19>     C       18.6216967   16.6518358   18.7114215
| 20>     C       17.8725281   15.6781003   19.6155320
| 21>     C       18.2617991   14.3269693   19.6700871
| 22>     C       17.5737991   13.4150238   20.4875530
| 23>     C       16.4857028   13.8563797   21.2592610
| 24>     C       16.0924669   15.2003248   21.2069860
| 25>     O       15.0349045   15.6270492   21.9417777
| 26>     C       16.7779074   16.1062492   20.3910866
| 27>     H       15.7536561   14.7844253   18.1958943
| 28>     H       15.2349821   13.5934367   16.9908876
| 29>     H       14.0715588   14.7669984   17.6435914
| 30>     H       14.7686606   15.4428358   15.3542551
| 31>     H       15.3249656   16.6357132   16.5389607
| 32>     H       17.1310629   17.7162600   14.8516960
| 33>     H       17.4259990   19.3896534   15.2837070
| 34>     H       15.8539034   18.6609938   15.6464059
| 35>     H       17.1693511   20.0320615   17.5942785
| 36>     H       19.3498247   17.9628850   20.2679803
| 37>     H       19.6121491   16.2186467   18.5070225
| 38>     H       19.0949303   13.9789615   19.0626595
| 39>     H       17.8830495   12.3714968   20.5159638
| 40>     H       15.9505208   13.1543540   21.8901357
| 41>     H       14.7296658   14.8771781   22.4745401
| 42>     H       16.4510175   17.1404010   20.3648344
| 43> *
| 44>
| 45>                          ****END OF INPUT****

CARTESIAN COORDINATES (ANGSTROEM)
---------------------------------
  C     15.112124   14.631396   17.325002
  C     15.462066   15.609004   16.188870
  O     16.808583   15.339403   15.742267
  C     17.948588   15.649062   16.444081
  O     18.873445   14.857998   16.471252
  C     17.914063   16.834387   17.363091
  C     17.452718   18.053672   16.986014
  C     16.933366   18.469493   15.623619
  N     17.560613   19.140912   17.856582
  C     18.271956   19.136155   19.026999
  S     18.441051   20.499330   19.947363
  N     18.842324   17.942955   19.392343
  C     18.621697   16.651836   18.711422
  C     17.872528   15.678100   19.615532
  C     18.261799   14.326969   19.670087
  C     17.573799   13.415024   20.487553
  C     16.485703   13.856380   21.259261
  C     16.092467   15.200325   21.206986
  O     15.034904   15.627049   21.941778
  C     16.777907   16.106249   20.391087
  H     15.753656   14.784425   18.195894
  H     15.234982   13.593437   16.990888
  H     14.071559   14.766998   17.643591
  H     14.768661   15.442836   15.354255
  H     15.324966   16.635713   16.538961
  H     17.131063   17.716260   14.851696
  H     17.425999   19.389653   15.283707
  H     15.853903   18.660994   15.646406
  H     17.169351   20.032062   17.594279
  H     19.349825   17.962885   20.267980
  H     19.612149   16.218647   18.507023
  H     19.094930   13.978961   19.062659
  H     17.883049   12.371497   20.515964
  H     15.950521   13.154354   21.890136
  H     14.729666   14.877178   22.474540
  H     16.451017   17.140401   20.364834

 Total Charge           Charge          ....    0
 Multiplicity           Mult            ....    1
 Number of Electrons    NEL             ....  154
 Basis Dimension        Dim             ....  828

ORBITAL ENERGIES
----------------

  NO   OCC          E(Eh)            E(eV)
   0   2.0000     -91.891170     -2500.4859
   1   2.0000     -20.598393      -560.5108
   2   2.0000     -20.597775      -560.4940
   3   2.0000     -20.550023      -559.1946
   4   2.0000     -15.629757      -425.3073
   5   2.0000     -15.611180      -424.8018
   6   2.0000     -11.399427      -310.1942
   7   2.0000     -11.387157      -309.8603
   8   2.0000     -11.336711      -308.4876
   9   2.0000     -11.315418      -307.9082
  10   2.0000     -11.312798      -307.8369
  11   2.0000     -11.306855      -307.6752
  12   2.0000     -11.268364      -306.6278
  13   2.0000     -11.267875      -306.6145
  14   2.0000     -11.261903      -306.4520
  15   2.0000     -11.255618      -306.2809
  16   2.0000     -11.244911      -305.9896
  17   2.0000     -11.240647      -305.8736
  18   2.0000     -11.237259      -305.7814
  19   2.0000     -11.225410      -305.4589
  20   2.0000      -8.896261      -242.0796
  21   2.0000      -6.577844      -178.9922
  22   2.0000      -6.575823      -178.9372
  23   2.0000      -6.575242      -178.9214
  24   2.0000      -1.446604       -39.3641
  25   2.0000      -1.418190       -38.5909
  26   2.0000      -1.358878       -36.9770
  27   2.0000      -1.342782       -36.5390
  28   2.0000      -1.241262       -33.7765
  29   2.0000      -1.159840       -31.5608
  30   2.0000      -1.125119       -30.6160
  31   2.0000      -1.047800       -28.5121
  32   2.0000      -1.036346       -28.2004
  33   2.0000      -1.017791       -27.6955
  34   2.0000      -1.005582       -27.3633
  35   2.0000      -0.989753       -26.9325
  36   2.0000      -0.927837       -25.2477
  37   2.0000      -0.891332       -24.2544
  38   2.0000      -0.855546       -23.2806
  39   2.0000      -0.841950       -22.9106
  40   2.0000      -0.835413       -22.7328
  41   2.0000      -0.831803       -22.6345
  42   2.0000      -0.748333       -20.3632
  43   2.0000      -0.740182       -20.1414
  44   2.0000      -0.730448       -19.8765
  45   2.0000      -0.696382       -18.9495
  46   2.0000      -0.687878       -18.7181
  47   2.0000      -0.681279       -18.5385
  48   2.0000      -0.676520       -18.4090
  49   2.0000      -0.660368       -17.9695
  50   2.0000      -0.656128       -17.8541
  51   2.0000      -0.647893       -17.6301
  52   2.0000      -0.639402       -17.3990
  53   2.0000      -0.620659       -16.8890
  54   2.0000      -0.609326       -16.5806
  55   2.0000      -0.606463       -16.5027
  56   2.0000      -0.601853       -16.3773
  57   2.0000      -0.586279       -15.9535
  58   2.0000      -0.576781       -15.6950
  59   2.0000      -0.566634       -15.4189
  60   2.0000      -0.562946       -15.3185
  61   2.0000      -0.549041       -14.9402
  62   2.0000      -0.546221       -14.8634
  63   2.0000      -0.533355       -14.5133
  64   2.0000      -0.520499       -14.1635
  65   2.0000      -0.513366       -13.9694
  66   2.0000      -0.502073       -13.6621
  67   2.0000      -0.499335       -13.5876
  68   2.0000      -0.483224       -13.1492
  69   2.0000      -0.469971       -12.7886
  70   2.0000      -0.457386       -12.4461
  71   2.0000      -0.448408       -12.2018
  72   2.0000      -0.359556        -9.7840
  73   2.0000      -0.350697        -9.5429
  74   2.0000      -0.330645        -8.9973
  75   2.0000      -0.323552        -8.8043
  76   2.0000      -0.319949        -8.7063
  77   0.0000       0.077920         2.1203
  78   0.0000       0.105557         2.8723
  79   0.0000       0.115050         3.1307
  80   0.0000       0.130025         3.5382
  81   0.0000       0.132768         3.6128

MULLIKEN ATOMIC CHARGES
-----------------------
   0 C :   -0.281873
   1 C :    0.024660
   2 O :   -0.335724
   3 C :    0.427895
   4 O :   -0.384204
   5 C :   -0.215810
   6 C :    0.141706
   7 C :   -0.324861
   8 N :   -0.132648
   9 C :    0.197421
  10 S :   -0.438244
  11 N :   -0.212565
  12 C :    0.067125
  13 C :   -0.004431
  14 C :   -0.182154
  15 C :   -0.141271
  16 C :   -0.266116
  17 C :    0.301903
  18 O :   -0.358225
  19 C :   -0.236908
  20 H :    0.106739
  21 H :    0.110085
  22 H :    0.095579
  23 H :    0.120136
  24 H :    0.085235
  25 H :    0.137191
  26 H :    0.134987
  27 H :    0.121722
  28 H :    0.196966
  29 H :    0.199002
  30 H :    0.165000
  31 H :    0.172317
  32 H :    0.162991
  33 H :    0.132478
  34 H :    0.241061
  35 H :    0.172834
Sum of atomic charges:    0.0000000

LOEWDIN ATOMIC CHARGES
----------------------
   0 C :    0.110780
   1 C :   -0.021865
   2 O :    0.297714
   3 C :   -0.414515
   4 O :    0.122900
   5 C :   -0.085032
   6 C :   -0.090276
   7 C :    0.124415
   8 N :    0.403203
   9 C :   -0.459462
  10 S :   -0.035571
  11 N :    0.397859
  12 C :   -0.044279
  13 C :   -0.046283
  14 C :    0.020205
  15 C :    0.044377
  16 C :   -0.000484
  17 C :   -0.192970
  18 O :    0.395494
  19 C :    0.026085
  20 H :   -0.029344
  21 H :   -0.022816
  22 H :   -0.025926
  23 H :   -0.021697
  24 H :   -0.040594
  25 H :   -0.007762
  26 H :   -0.010530
  27 H :   -0.018177
  28 H :   -0.056765
  29 H :   -0.063009
  30 H :   -0.002477
  31 H :   -0.022004
  32 H :   -0.018699
  33 H :   -0.034762
  34 H :   -0.153331
  35 H :   -0.024404

  Mayer bond orders larger than 0.100000
B(  0-C ,  1-C ) :   0.9769 B(  0-C , 20-H ) :   0.9668 B(  0-C , 21-H ) :   0.9784
B(  0-C , 22-H ) :   0.9766 B(  1-C ,  2-O ) :   0.8967 B(  1-C , 23-H ) :   0.9813
B(  1-C , 24-H ) :   0.9667 B(  2-O ,  3-C ) :   1.1630 B(  3-C ,  4-O ) :   2.0797
B(  3-C ,  5-C ) :   0.9401 B(  5-C ,  6-C ) :   1.6883 B(  5-C , 12-C ) :   0.9523
B(  6-C ,  7-C ) :   0.9397 B(  6-C ,  8-N ) :   1.1196 B(  7-C , 25-H ) :   0.9754
B(  7-C , 26-H ) :   0.9743 B(  7-C , 27-H ) :   0.9654 B(  8-N ,  9-C ) :   1.1890
B(  8-N , 28-H ) :   0.9514 B(  9-C , 10-S ) :   1.6133 B(  9-C , 11-N ) :   1.2932
B( 11-N , 12-C ) :   0.9927 B( 11-N , 29-H ) :   0.9495 B( 12-C , 13-C ) :   0.9482
B( 12-C , 30-H ) :   0.9963 B( 13-C , 14-C ) :   1.3952 B( 13-C , 19-C ) :   1.3557
B( 14-C , 15-C ) :   1.3935 B( 14-C , 31-H ) :   0.9581 B( 15-C , 16-C ) :   1.3618
B( 15-C , 32-H ) :   0.9709 B( 16-C , 17-C ) :   1.3315 B( 16-C , 33-H ) :   0.9843
B( 17-C , 18-O ) :   1.1117 B( 17-C , 19-C ) :   1.3688 B( 18-O , 34-H ) :   0.9795
B( 19-C , 35-H ) :   0.9579

MP2 TOTAL ENERGY:    -1274.336368510 Eh
FINAL SINGLE POINT ENERGY     -1274.336368510114

DIPOLE MOMENT
-------------
                                X             Y             Z
Electronic contribution:      9.56184       7.65347       6.11600
Nuclear contribution   :    -11.11574      -8.54659      -6.59240
                        -----------------------------------------
Total Dipole Moment    :     -1.55389      -0.89312      -0.47640
                        -----------------------------------------
Magnitude (a.u.)       :      1.85451
Magnitude (Debye)      :      4.71379

Rotational constants in cm-1:     0.011658     0.009556     0.006688
Rotational constants in MHz :   349.498531   286.474596   200.489534

                             ****ORCA TERMINATED NORMALLY****
TOTAL RUN TIME: 0 days 1 hours 51 minutes 47 seconds 287 msec
