                         Program Version 4.2.0 -  RELEASE  -
|  1> ! ri-mp2 cc-pvtz cc-pvtz/c TightSCF  NoKeepInts
|  2>
|  3> %scf
|  4>   MaxCore 4096
|  5> end
|  6> *xyz  0  1
|  7>     C       15.3125510   13.8012737   15.3433116
|  8>     C       15.1422279   14.9573267   16.3500174
|  9>     O       16.1704181   15.9438797   16.1383507
| 10>     C       17.4109462   15.7645003   16.6836208
| 11>     O       17.8838844   14.6546297   16.8631834
| 12>     C       17.8329918   16.9306561   17.5275521
| 13>     C       17.4966592   18.2200208   17.2680040
| 14>     C       16.6868979   18.7469783   16.1013267
| 15>     N       17.9815548   19.2435371   18.0883063
| 16>     C       18.9098931   19.0763896   19.0820817
| 17>     S       19.5212708   20.3594606   19.9279528
| 18>     N       19.3067547   17.7881629   19.3388005
| 19>     C       18.7021942   16.5826908   18.7405660
| 20>     C       17.8952282   15.8147948   19.7844028
| 21>     C       18.1581115   14.4543416   20.0293664
| 22>     C       17.4128045   13.7407211   20.9828484
| 23>     C       16.3942333   14.3922231   21.6988554
| 24>     C       16.1262367   15.7460344   21.4551392
| 25>     O       15.1382713   16.3761069   22.1393818
| 26>     C       16.8691995   16.4534032   20.5048455
| 27>     H       15.3531021   14.1849125   14.3165077
| 28>     H       14.4680376   13.1055296   15.4154551
| 29>     H       16.2305325   13.2332196   15.5364136
| 30>     H       14.1613825   15.4224143   16.1886680
| 31>     H       15.1738212   14.5774681   17.3807894
| 32>     H       16.9815535   18.2556503   15.1655788
| 33>     H       16.8187893   19.8254131   15.9510579
| 34>     H       15.6172271   18.5592607   16.2570021
| 35>     H       17.7026629   20.1960692   17.9150323
| 36>     H       19.9691218   17.6897680   20.0974400
| 37>     H       19.5209562   15.9362843   18.3927265
| 38>     H       18.9332429   13.9435339   19.4631652
| 39>     H       17.6227999   12.6871574   21.1583526
| 40>     H       15.8151780   13.8443916   22.4347583
| 41>     H       14.7791110   15.7425988   22.7785698
| 42>     H       16.6471524   17.5011972   20.3345694
| 43> *
| 44>
| 45>                          ****END OF INPUT****

CARTESIAN COORDINATES (ANGSTROEM)
---------------------------------
  C     15.312551   13.801274   15.343312
  C     15.142228   14.957327   16.350017
  O     16.170418   15.943880   16.138351
  C     17.410946   15.764500   16.683621
  O     17.883884   14.654630   16.863183
  C     17.832992   16.930656   17.527552
  C     17.496659   18.220021   17.268004
  C     16.686898   18.746978   16.101327
  N     17.981555   19.243537   18.088306
  C     18.909893   19.076390   19.082082
  S     19.521271   20.359461   19.927953
  N     19.306755   17.788163   19.338801
  C     18.702194   16.582691   18.740566
  C     17.895228   15.814795   19.784403
  C     18.158112   14.454342   20.029366
  C     17.412805   13.740721   20.982848
  C     16.394233   14.392223   21.698855
  C     16.126237   15.746034   21.455139
  O     15.138271   16.376107   22.139382
  C     16.869200   16.453403   20.504845
  H     15.353102   14.184912   14.316508
  H     14.468038   13.105530   15.415455
  H     16.230532   13.233220   15.536414
  H     14.161383   15.422414   16.188668
  H     15.173821   14.577468   17.380789
  H     16.981554   18.255650   15.165579
  H     16.818789   19.825413   15.951058
  H     15.617227   18.559261   16.257002
  H     17.702663   20.196069   17.915032
  H     19.969122   17.689768   20.097440
  H     19.520956   15.936284   18.392726
  H     18.933243   13.943534   19.463165
  H     17.622800   12.687157   21.158353
  H     15.815178   13.844392   22.434758
  H     14.779111   15.742599   22.778570
  H     16.647152   17.501197   20.334569

 Total Charge           Charge          ....    0
 Multiplicity           Mult            ....    1
 Number of Electrons    NEL             ....  154
 Basis Dimension        Dim             ....  828

ORBITAL ENERGIES
----------------

  NO   OCC          E(Eh)            E(eV)
   0   2.0000     -91.887962     -2500.3986
   1   2.0000     -20.593741      -560.3842
   2   2.0000     -20.593055      -560.3655
   3   2.0000     -20.552658      -559.2663
   4   2.0000     -15.627549      -425.2472
   5   2.0000     -15.607238      -424.6945
   6   2.0000     -11.396990      -310.1279
   7   2.0000     -11.383212      -309.7529
   8   2.0000     -11.333092      -308.3891
   9   2.0000     -11.309842      -307.7564
  10   2.0000     -11.307264      -307.6863
  11   2.0000     -11.301405      -307.5269
  12   2.0000     -11.259631      -306.3901
  13   2.0000     -11.258966      -306.3720
  14   2.0000     -11.255613      -306.2808
  15   2.0000     -11.250073      -306.1301
  16   2.0000     -11.239683      -305.8473
  17   2.0000     -11.235574      -305.7355
  18   2.0000     -11.232836      -305.6610
  19   2.0000     -11.220658      -305.3296
  20   2.0000      -8.893036      -241.9918
  21   2.0000      -6.574616      -178.9044
  22   2.0000      -6.572606      -178.8497
  23   2.0000      -6.572023      -178.8338
  24   2.0000      -1.452598       -39.5272
  25   2.0000      -1.413494       -38.4631
  26   2.0000      -1.358217       -36.9590
  27   2.0000      -1.338769       -36.4297
  28   2.0000      -1.236900       -33.6578
  29   2.0000      -1.154098       -31.4046
  30   2.0000      -1.120095       -30.4793
  31   2.0000      -1.042838       -28.3771
  32   2.0000      -1.032194       -28.0874
  33   2.0000      -1.011535       -27.5253
  34   2.0000      -0.997419       -27.1412
  35   2.0000      -0.982744       -26.7418
  36   2.0000      -0.922051       -25.0903
  37   2.0000      -0.888222       -24.1697
  38   2.0000      -0.847772       -23.0691
  39   2.0000      -0.837060       -22.7776
  40   2.0000      -0.830138       -22.5892
  41   2.0000      -0.821686       -22.3592
  42   2.0000      -0.750954       -20.4345
  43   2.0000      -0.732774       -19.9398
  44   2.0000      -0.726571       -19.7710
  45   2.0000      -0.692450       -18.8425
  46   2.0000      -0.685539       -18.6545
  47   2.0000      -0.680936       -18.5292
  48   2.0000      -0.671807       -18.2808
  49   2.0000      -0.662813       -18.0361
  50   2.0000      -0.646089       -17.5810
  51   2.0000      -0.641412       -17.4537
  52   2.0000      -0.633211       -17.2305
  53   2.0000      -0.604877       -16.4595
  54   2.0000      -0.601584       -16.3699
  55   2.0000      -0.598461       -16.2849
  56   2.0000      -0.596041       -16.2191
  57   2.0000      -0.586094       -15.9484
  58   2.0000      -0.574604       -15.6358
  59   2.0000      -0.568756       -15.4766
  60   2.0000      -0.560969       -15.2647
  61   2.0000      -0.546986       -14.8842
  62   2.0000      -0.535263       -14.5652
  63   2.0000      -0.519212       -14.1285
  64   2.0000      -0.516493       -14.0545
  65   2.0000      -0.511020       -13.9056
  66   2.0000      -0.502668       -13.6783
  67   2.0000      -0.496502       -13.5105
  68   2.0000      -0.480655       -13.0793
  69   2.0000      -0.463007       -12.5991
  70   2.0000      -0.455434       -12.3930
  71   2.0000      -0.451931       -12.2977
  72   2.0000      -0.353324        -9.6144
  73   2.0000      -0.345903        -9.4125
  74   2.0000      -0.327231        -8.9044
  75   2.0000      -0.317043        -8.6272
  76   2.0000      -0.314773        -8.5654
  77   0.0000       0.074157         2.0179
  78   0.0000       0.108973         2.9653
  79   0.0000       0.120905         3.2900
  80   0.0000       0.134257         3.6533
  81   0.0000       0.138878         3.7791

MULLIKEN ATOMIC CHARGES
-----------------------
   0 C :   -0.286674
   1 C :    0.045580
   2 O :   -0.362477
   3 C :    0.428921
   4 O :   -0.414610
   5 C :   -0.150172
   6 C :    0.136404
   7 C :   -0.282837
   8 N :   -0.123377
   9 C :    0.202653
  10 S :   -0.440521
  11 N :   -0.199521
  12 C :    0.045040
  13 C :    0.050139
  14 C :   -0.164900
  15 C :   -0.133818
  16 C :   -0.280649
  17 C :    0.311546
  18 O :   -0.358407
  19 C :   -0.272779
  20 H :    0.090338
  21 H :    0.090278
  22 H :    0.122514
  23 H :    0.099828
  24 H :    0.098461
  25 H :    0.123299
  26 H :    0.102245
  27 H :    0.126876
  28 H :    0.196924
  29 H :    0.193839
  30 H :    0.154689
  31 H :    0.155041
  32 H :    0.160145
  33 H :    0.129387
  34 H :    0.240300
  35 H :    0.166295
Sum of atomic charges:    0.0000000

LOEWDIN ATOMIC CHARGES
----------------------
   0 C :    0.104701
   1 C :   -0.014314
   2 O :    0.293942
   3 C :   -0.411749
   4 O :    0.121670
   5 C :   -0.091639
   6 C :   -0.071642
   7 C :    0.125585
   8 N :    0.404139
   9 C :   -0.458022
  10 S :   -0.036964
  11 N :    0.397290
  12 C :   -0.045633
  13 C :   -0.039725
  14 C :    0.020853
  15 C :    0.040535
  16 C :   -0.002519
  17 C :   -0.193148
  18 O :    0.393338
  19 C :    0.028563
  20 H :   -0.029808
  21 H :   -0.029695
  22 H :   -0.025898
  23 H :   -0.025639
  24 H :   -0.026686
  25 H :   -0.008657
  26 H :   -0.020126
  27 H :   -0.009595
  28 H :   -0.058939
  29 H :   -0.063997
  30 H :   -0.005054
  31 H :   -0.025174
  32 H :   -0.020907
  33 H :   -0.036069
  34 H :   -0.154589
  35 H :   -0.024429

  Mayer bond orders larger than 0.100000
B(  0-C ,  1-C ) :   0.9726 B(  0-C , 20-H ) :   0.9760 B(  0-C , 21-H ) :   0.9765
B(  0-C , 22-H ) :   0.9722 B(  1-C ,  2-O ) :   0.9016 B(  1-C , 23-H ) :   0.9838
B(  1-C , 24-H ) :   0.9741 B(  2-O ,  3-C ) :   1.0978 B(  3-C ,  4-O ) :   1.9833
B(  3-C ,  5-C ) :   1.0418 B(  5-C ,  6-C ) :   1.6612 B(  5-C , 12-C ) :   0.9635
B(  6-C ,  7-C ) :   0.9536 B(  6-C ,  8-N ) :   1.1387 B(  7-C , 25-H ) :   0.9694
B(  7-C , 26-H ) :   0.9894 B(  7-C , 27-H ) :   0.9628 B(  8-N ,  9-C ) :   1.1834
B(  8-N , 28-H ) :   0.9496 B(  9-C , 10-S ) :   1.6098 B(  9-C , 11-N ) :   1.3009
B( 11-N , 12-C ) :   0.9929 B( 11-N , 29-H ) :   0.9517 B( 12-C , 13-C ) :   0.9450
B( 12-C , 30-H ) :   0.9987 B( 13-C , 14-C ) :   1.3764 B( 13-C , 19-C ) :   1.3695
B( 14-C , 15-C ) :   1.3946 B( 14-C , 31-H ) :   0.9645 B( 15-C , 16-C ) :   1.3631
B( 15-C , 32-H ) :   0.9711 B( 16-C , 17-C ) :   1.3308 B( 16-C , 33-H ) :   0.9855
B( 17-C , 18-O ) :   1.1090 B( 17-C , 19-C ) :   1.3774 B( 18-O , 34-H ) :   0.9803
B( 19-C , 35-H ) :   0.9580

MP2 TOTAL ENERGY:    -1274.332107176 Eh
FINAL SINGLE POINT ENERGY     -1274.332107176174

DIPOLE MOMENT
-------------
                                X             Y             Z
Electronic contribution:     10.50519      10.47127       9.67503
Nuclear contribution   :    -12.07282     -11.65263     -10.38169
                        -----------------------------------------
Total Dipole Moment    :     -1.56763      -1.18136      -0.70666
                        -----------------------------------------
Magnitude (a.u.)       :      2.08625
Magnitude (Debye)      :      5.30283

Rotational constants in cm-1:     0.011148     0.008999     0.006085
Rotational constants in MHz :   334.214153   269.785169   182.438231

                             ****ORCA TERMINATED NORMALLY****
TOTAL RUN TIME: 0 days 1 hours 37 minutes 31 seconds 902 msec
