                         Program Version 5.0.0 -  RELEASE  -
|  1> ! ri-mp2 cc-pvtz cc-pvtz/c TightSCF NoKeepInts
|  2>
|  3> %scf
|  4>   MaxCore 4096
|  5> end
|  6> *xyz  0  1
|  7>     C       15.9437757   13.4447940   17.4183604
|  8>     C       16.1184095   14.3462876   16.1865464
|  9>     O       17.3946687   15.0176405   16.2385739
| 10>     C       17.4063772   16.3626785   16.0019037
| 11>     O       16.8415865   16.7997637   15.0144371
| 12>     C       17.6875443   17.1960282   17.2230663
| 13>     C       17.4113770   18.5258352   17.2789543
| 14>     C       16.6853337   19.3648138   16.2488831
| 15>     N       17.8811698   19.2891405   18.3533113
| 16>     C       18.8388358   18.8659067   19.2375268
| 17>     S       19.5331004   19.8879170   20.3373192
| 18>     N       19.2100476   17.5482622   19.1422605
| 19>     C       18.4619899   16.5352072   18.3762146
| 20>     C       17.5853482   15.7567915   19.3509353
| 21>     C       18.0294716   14.5203992   19.8574452
| 22>     C       17.2636963   13.8165477   20.8024169
| 23>     C       16.0472000   14.3570111   21.2528009
| 24>     C       15.6079983   15.5940983   20.7618070
| 25>     O       14.4368656   16.1216418   21.1985199
| 26>     C       16.3710352   16.2917201   19.8201436
| 27>     H       16.8603646   12.8789638   17.6253822
| 28>     H       15.1297955   12.7289861   17.2524786
| 29>     H       15.6840612   14.0380685   18.2993496
| 30>     H       16.0736785   13.7380022   15.2737773
| 31>     H       15.2881569   15.0656218   16.1506942
| 32>     H       15.7045673   18.9301671   16.0177411
| 33>     H       17.2555274   19.4028229   15.3118131
| 34>     H       16.5172778   20.3969254   16.5779997
| 35>     H       17.6314983   20.2630202   18.4192536
| 36>     H       19.9026329   17.2562076   19.8194203
| 37>     H       19.1898264   15.8385567   17.9364757
| 38>     H       18.9742767   14.1038684   19.5185727
| 39>     H       17.6155365   12.8602065   21.1857207
| 40>     H       15.4535148   13.8183453   21.9841186
| 41>     H       14.0911301   15.5335956   21.8869757
| 42>     H       16.0193239   17.2561569   19.4728005
| 43> *
| 44>
| 45>                          ****END OF INPUT****

CARTESIAN COORDINATES (ANGSTROEM)
---------------------------------
  C     15.943776   13.444794   17.418360
  C     16.118409   14.346288   16.186546
  O     17.394669   15.017640   16.238574
  C     17.406377   16.362679   16.001904
  O     16.841586   16.799764   15.014437
  C     17.687544   17.196028   17.223066
  C     17.411377   18.525835   17.278954
  C     16.685334   19.364814   16.248883
  N     17.881170   19.289140   18.353311
  C     18.838836   18.865907   19.237527
  S     19.533100   19.887917   20.337319
  N     19.210048   17.548262   19.142260
  C     18.461990   16.535207   18.376215
  C     17.585348   15.756792   19.350935
  C     18.029472   14.520399   19.857445
  C     17.263696   13.816548   20.802417
  C     16.047200   14.357011   21.252801
  C     15.607998   15.594098   20.761807
  O     14.436866   16.121642   21.198520
  C     16.371035   16.291720   19.820144
  H     16.860365   12.878964   17.625382
  H     15.129795   12.728986   17.252479
  H     15.684061   14.038068   18.299350
  H     16.073678   13.738002   15.273777
  H     15.288157   15.065622   16.150694
  H     15.704567   18.930167   16.017741
  H     17.255527   19.402823   15.311813
  H     16.517278   20.396925   16.578000
  H     17.631498   20.263020   18.419254
  H     19.902633   17.256208   19.819420
  H     19.189826   15.838557   17.936476
  H     18.974277   14.103868   19.518573
  H     17.615536   12.860207   21.185721
  H     15.453515   13.818345   21.984119
  H     14.091130   15.533596   21.886976
  H     16.019324   17.256157   19.472801

 Total Charge           Charge          ....    0
 Multiplicity           Mult            ....    1
 Number of Electrons    NEL             ....  154
 Basis Dimension        Dim             ....  828

ORBITAL ENERGIES
----------------

  NO   OCC          E(Eh)            E(eV)
   0   2.0000     -91.890544     -2500.4688
   1   2.0000     -20.600710      -560.5738
   2   2.0000     -20.585877      -560.1702
   3   2.0000     -20.546148      -559.0891
   4   2.0000     -15.631455      -425.3535
   5   2.0000     -15.608719      -424.7348
   6   2.0000     -11.393005      -310.0194
   7   2.0000     -11.384808      -309.7964
   8   2.0000     -11.337898      -308.5199
   9   2.0000     -11.318114      -307.9815
  10   2.0000     -11.311233      -307.7943
  11   2.0000     -11.295272      -307.3600
  12   2.0000     -11.263127      -306.4853
  13   2.0000     -11.260450      -306.4124
  14   2.0000     -11.259041      -306.3741
  15   2.0000     -11.253447      -306.2219
  16   2.0000     -11.246729      -306.0390
  17   2.0000     -11.241473      -305.8960
  18   2.0000     -11.241089      -305.8856
  19   2.0000     -11.220385      -305.3222
  20   2.0000      -8.895546      -242.0601
  21   2.0000      -6.577108      -178.9722
  22   2.0000      -6.575120      -178.9181
  23   2.0000      -6.574522      -178.9018
  24   2.0000      -1.448898       -39.4265
  25   2.0000      -1.420365       -38.6501
  26   2.0000      -1.350684       -36.7540
  27   2.0000      -1.342339       -36.5269
  28   2.0000      -1.240359       -33.7519
  29   2.0000      -1.160516       -31.5793
  30   2.0000      -1.121022       -30.5046
  31   2.0000      -1.044733       -28.4286
  32   2.0000      -1.033218       -28.1153
  33   2.0000      -1.019075       -27.7304
  34   2.0000      -0.998239       -27.1635
  35   2.0000      -0.985313       -26.8117
  36   2.0000      -0.924814       -25.1655
  37   2.0000      -0.883805       -24.0496
  38   2.0000      -0.848543       -23.0900
  39   2.0000      -0.842145       -22.9159
  40   2.0000      -0.836396       -22.7595
  41   2.0000      -0.820864       -22.3368
  42   2.0000      -0.761246       -20.7145
  43   2.0000      -0.735016       -20.0008
  44   2.0000      -0.720697       -19.6112
  45   2.0000      -0.699587       -19.0367
  46   2.0000      -0.690206       -18.7815
  47   2.0000      -0.679051       -18.4779
  48   2.0000      -0.672183       -18.2910
  49   2.0000      -0.664257       -18.0753
  50   2.0000      -0.649209       -17.6659
  51   2.0000      -0.645995       -17.5784
  52   2.0000      -0.638375       -17.3711
  53   2.0000      -0.611820       -16.6485
  54   2.0000      -0.604355       -16.4453
  55   2.0000      -0.600581       -16.3426
  56   2.0000      -0.591802       -16.1037
  57   2.0000      -0.580700       -15.8016
  58   2.0000      -0.572894       -15.5892
  59   2.0000      -0.565766       -15.3953
  60   2.0000      -0.561188       -15.2707
  61   2.0000      -0.548591       -14.9279
  62   2.0000      -0.537895       -14.6369
  63   2.0000      -0.528818       -14.3899
  64   2.0000      -0.517317       -14.0769
  65   2.0000      -0.512695       -13.9511
  66   2.0000      -0.504451       -13.7268
  67   2.0000      -0.498285       -13.5590
  68   2.0000      -0.483843       -13.1660
  69   2.0000      -0.462088       -12.5741
  70   2.0000      -0.451489       -12.2856
  71   2.0000      -0.444136       -12.0855
  72   2.0000      -0.359158        -9.7732
  73   2.0000      -0.353515        -9.6196
  74   2.0000      -0.330341        -8.9890
  75   2.0000      -0.325197        -8.8491
  76   2.0000      -0.317073        -8.6280
  77   0.0000       0.068715         1.8698
  78   0.0000       0.103776         2.8239
  79   0.0000       0.120926         3.2906
  80   0.0000       0.127744         3.4761
  81   0.0000       0.132357         3.6016

MULLIKEN ATOMIC CHARGES
-----------------------
   0 C :   -0.295071
   1 C :    0.050071
   2 O :   -0.379281
   3 C :    0.479132
   4 O :   -0.410181
   5 C :   -0.245088
   6 C :    0.143344
   7 C :   -0.268913
   8 N :   -0.122817
   9 C :    0.215463
  10 S :   -0.437056
  11 N :   -0.201064
  12 C :    0.039836
  13 C :    0.075607
  14 C :   -0.208312
  15 C :   -0.119439
  16 C :   -0.273768
  17 C :    0.300831
  18 O :   -0.359648
  19 C :   -0.244010
  20 H :    0.098675
  21 H :    0.109448
  22 H :    0.105360
  23 H :    0.106944
  24 H :    0.089211
  25 H :    0.128178
  26 H :    0.136033
  27 H :    0.094413
  28 H :    0.198928
  29 H :    0.191030
  30 H :    0.148624
  31 H :    0.149257
  32 H :    0.161936
  33 H :    0.132357
  34 H :    0.241973
  35 H :    0.167999
Sum of atomic charges:   -0.0000000

LOEWDIN ATOMIC CHARGES
----------------------
   0 C :    0.105671
   1 C :   -0.012718
   2 O :    0.282780
   3 C :   -0.420293
   4 O :    0.115609
   5 C :   -0.097855
   6 C :   -0.057342
   7 C :    0.130186
   8 N :    0.407973
   9 C :   -0.454833
  10 S :   -0.032386
  11 N :    0.396009
  12 C :   -0.053955
  13 C :   -0.035086
  14 C :    0.015271
  15 C :    0.045361
  16 C :   -0.001264
  17 C :   -0.190808
  18 O :    0.396244
  19 C :    0.028439
  20 H :   -0.027788
  21 H :   -0.026087
  22 H :   -0.028257
  23 H :   -0.028601
  24 H :   -0.028369
  25 H :   -0.006059
  26 H :   -0.002874
  27 H :   -0.023239
  28 H :   -0.057619
  29 H :   -0.066690
  30 H :   -0.005828
  31 H :   -0.031008
  32 H :   -0.020139
  33 H :   -0.034774
  34 H :   -0.152691
  35 H :   -0.026979

  Mayer bond orders larger than 0.100000
B(  0-C ,  1-C ) :   0.9668 B(  0-C , 20-H ) :   0.9732 B(  0-C , 21-H ) :   0.9801
B(  0-C , 22-H ) :   0.9756 B(  1-C ,  2-O ) :   0.8881 B(  1-C , 23-H ) :   0.9905
B(  1-C , 24-H ) :   0.9723 B(  2-O ,  3-C ) :   1.1006 B(  3-C ,  4-O ) :   2.0042
B(  3-C ,  5-C ) :   1.0682 B(  5-C ,  6-C ) :   1.6462 B(  5-C , 12-C ) :   0.9743
B(  6-C ,  7-C ) :   0.9730 B(  6-C ,  8-N ) :   1.1506 B(  7-C , 25-H ) :   0.9641
B(  7-C , 26-H ) :   0.9563 B(  7-C , 27-H ) :   0.9885 B(  8-N ,  9-C ) :   1.1785
B(  8-N , 28-H ) :   0.9483 B(  9-C , 10-S ) :   1.6117 B(  9-C , 11-N ) :   1.3029
B( 11-N , 12-C ) :   0.9576 B( 11-N , 29-H ) :   0.9546 B( 12-C , 13-C ) :   0.9499
B( 12-C , 30-H ) :   1.0026 B( 13-C , 14-C ) :   1.3472 B( 13-C , 19-C ) :   1.3725
B( 14-C , 15-C ) :   1.3827 B( 14-C , 31-H ) :   0.9758 B( 15-C , 16-C ) :   1.3669
B( 15-C , 32-H ) :   0.9705 B( 16-C , 17-C ) :   1.3301 B( 16-C , 33-H ) :   0.9847
B( 17-C , 18-O ) :   1.1144 B( 17-C , 19-C ) :   1.3749 B( 18-O , 34-H ) :   0.9790
B( 19-C , 35-H ) :   0.9549

MP2 TOTAL ENERGY:    -1274.330114967 Eh
FINAL SINGLE POINT ENERGY     -1274.330114966574

DIPOLE MOMENT
-------------
                                X             Y             Z
Electronic contribution:      8.47662      10.71085       4.54560
Nuclear contribution   :     -9.56603     -12.21288      -4.37448
                        -----------------------------------------
Total Dipole Moment    :     -1.08941      -1.50203       0.17112
                        -----------------------------------------
Magnitude (a.u.)       :      1.86338
Magnitude (Debye)      :      4.73634

Rotational constants in cm-1:     0.011830     0.009434     0.006548
Rotational constants in MHz :   354.644586   282.814574   196.289379

                             ****ORCA TERMINATED NORMALLY****
TOTAL RUN TIME: 0 days 1 hours 38 minutes 47 seconds 236 msec
