                         Program Version 4.2.0 -  RELEASE  -
|  1> ! ri-mp2 cc-pvtz cc-pvtz/c TightSCF  NoKeepInts
|  2>
|  3> %scf
|  4>   MaxCore 4096
|  5> end
|  6> *xyz  0  1
|  7>     C       15.7478938   13.7864787   14.9617652
|  8>     C       15.0688483   15.0681978   15.4925854
|  9>     O       15.9577371   16.0164233   16.1383830
| 10>     C       17.0946160   15.7306763   16.8498460
| 11>     O       17.5519199   14.6095060   16.9889641
| 12>     C       17.6176171   16.8925117   17.6495729
| 13>     C       17.2990701   18.1979730   17.4399100
| 14>     C       16.3855758   18.7831798   16.3817835
| 15>     N       17.9046151   19.1935508   18.2144212
| 16>     C       18.9369371   18.9871969   19.0905868
| 17>     S       19.6882138   20.2413521   19.8641979
| 18>     N       19.3148348   17.6844189   19.2913715
| 19>     C       18.5918277   16.5091546   18.7709162
| 20>     C       17.8693547   15.7833694   19.9033100
| 21>     C       18.0907078   14.4115585   20.1254096
| 22>     C       17.4279819   13.7374760   21.1647965
| 23>     C       16.5349620   14.4404371   21.9911821
| 24>     C       16.3085055   15.8058835   21.7713090
| 25>     O       15.4421307   16.4861412   22.5638568
| 26>     C       16.9693281   16.4739775   20.7357124
| 27>     H       16.6685890   14.0256135   14.4150580
| 28>     H       15.0745666   13.2579947   14.2763684
| 29>     H       15.9895386   13.0947204   15.7782416
| 30>     H       14.5640620   15.5762198   14.6609428
| 31>     H       14.2916366   14.7679684   16.2074534
| 32>     H       15.3403336   18.5178513   16.5837060
| 33>     H       16.6470347   18.4015462   15.3870163
| 34>     H       16.4429255   19.8772140   16.3301718
| 35>     H       17.6409119   20.1566802   18.0815585
| 36>     H       20.0570696   17.5548730   19.9667430
| 37>     H       19.3392973   15.8237503   18.3458196
| 38>     H       18.7675397   13.8616296   19.4759856
| 39>     H       17.6034278   12.6747129   21.3212434
| 40>     H       16.0194914   13.9233282   22.7935006
| 41>     H       15.1160647   15.8668767   23.2338331
| 42>     H       16.7818339   17.5315579   20.5864776
| 43> *
| 44>
| 45>                          ****END OF INPUT****

CARTESIAN COORDINATES (ANGSTROEM)
---------------------------------
  C     15.747894   13.786479   14.961765
  C     15.068848   15.068198   15.492585
  O     15.957737   16.016423   16.138383
  C     17.094616   15.730676   16.849846
  O     17.551920   14.609506   16.988964
  C     17.617617   16.892512   17.649573
  C     17.299070   18.197973   17.439910
  C     16.385576   18.783180   16.381784
  N     17.904615   19.193551   18.214421
  C     18.936937   18.987197   19.090587
  S     19.688214   20.241352   19.864198
  N     19.314835   17.684419   19.291372
  C     18.591828   16.509155   18.770916
  C     17.869355   15.783369   19.903310
  C     18.090708   14.411558   20.125410
  C     17.427982   13.737476   21.164797
  C     16.534962   14.440437   21.991182
  C     16.308505   15.805884   21.771309
  O     15.442131   16.486141   22.563857
  C     16.969328   16.473978   20.735712
  H     16.668589   14.025613   14.415058
  H     15.074567   13.257995   14.276368
  H     15.989539   13.094720   15.778242
  H     14.564062   15.576220   14.660943
  H     14.291637   14.767968   16.207453
  H     15.340334   18.517851   16.583706
  H     16.647035   18.401546   15.387016
  H     16.442926   19.877214   16.330172
  H     17.640912   20.156680   18.081558
  H     20.057070   17.554873   19.966743
  H     19.339297   15.823750   18.345820
  H     18.767540   13.861630   19.475986
  H     17.603428   12.674713   21.321243
  H     16.019491   13.923328   22.793501
  H     15.116065   15.866877   23.233833
  H     16.781834   17.531558   20.586478

 Total Charge           Charge          ....    0
 Multiplicity           Mult            ....    1
 Number of Electrons    NEL             ....  154
 Basis Dimension        Dim             ....  828

ORBITAL ENERGIES
----------------

  NO   OCC          E(Eh)            E(eV)
   0   2.0000     -91.887113     -2500.3755
   1   2.0000     -20.601541      -560.5964
   2   2.0000     -20.590633      -560.2996
   3   2.0000     -20.544078      -559.0328
   4   2.0000     -15.627105      -425.2351
   5   2.0000     -15.605687      -424.6523
   6   2.0000     -11.398747      -310.1757
   7   2.0000     -11.381853      -309.7160
   8   2.0000     -11.334820      -308.4361
   9   2.0000     -11.306532      -307.6664
  10   2.0000     -11.306391      -307.6625
  11   2.0000     -11.304335      -307.6066
  12   2.0000     -11.259527      -306.3873
  13   2.0000     -11.257914      -306.3434
  14   2.0000     -11.252292      -306.1904
  15   2.0000     -11.246603      -306.0356
  16   2.0000     -11.236204      -305.7526
  17   2.0000     -11.232228      -305.6445
  18   2.0000     -11.229275      -305.5641
  19   2.0000     -11.224716      -305.4401
  20   2.0000      -8.892186      -241.9687
  21   2.0000      -6.573765      -178.8813
  22   2.0000      -6.571757      -178.8266
  23   2.0000      -6.571174      -178.8107
  24   2.0000      -1.446408       -39.3588
  25   2.0000      -1.410363       -38.3779
  26   2.0000      -1.357137       -36.9296
  27   2.0000      -1.338266       -36.4161
  28   2.0000      -1.235887       -33.6302
  29   2.0000      -1.150832       -31.3157
  30   2.0000      -1.117846       -30.4181
  31   2.0000      -1.041437       -28.3390
  32   2.0000      -1.034305       -28.1449
  33   2.0000      -1.008322       -27.4378
  34   2.0000      -0.996068       -27.1044
  35   2.0000      -0.981491       -26.7077
  36   2.0000      -0.920522       -25.0487
  37   2.0000      -0.896721       -24.4010
  38   2.0000      -0.847138       -23.0518
  39   2.0000      -0.834839       -22.7171
  40   2.0000      -0.826789       -22.4981
  41   2.0000      -0.817008       -22.2319
  42   2.0000      -0.743912       -20.2429
  43   2.0000      -0.727137       -19.7864
  44   2.0000      -0.723659       -19.6918
  45   2.0000      -0.689761       -18.7693
  46   2.0000      -0.683769       -18.6063
  47   2.0000      -0.677653       -18.4399
  48   2.0000      -0.671028       -18.2596
  49   2.0000      -0.665541       -18.1103
  50   2.0000      -0.644831       -17.5468
  51   2.0000      -0.642500       -17.4833
  52   2.0000      -0.633685       -17.2435
  53   2.0000      -0.604069       -16.4375
  54   2.0000      -0.598837       -16.2952
  55   2.0000      -0.597401       -16.2561
  56   2.0000      -0.593754       -16.1569
  57   2.0000      -0.586557       -15.9610
  58   2.0000      -0.571432       -15.5495
  59   2.0000      -0.568813       -15.4782
  60   2.0000      -0.558928       -15.2092
  61   2.0000      -0.542852       -14.7718
  62   2.0000      -0.536911       -14.6101
  63   2.0000      -0.523186       -14.2366
  64   2.0000      -0.516373       -14.0512
  65   2.0000      -0.510321       -13.8865
  66   2.0000      -0.499780       -13.5997
  67   2.0000      -0.494361       -13.4522
  68   2.0000      -0.479463       -13.0469
  69   2.0000      -0.461329       -12.5534
  70   2.0000      -0.454805       -12.3759
  71   2.0000      -0.446540       -12.1510
  72   2.0000      -0.353012        -9.6060
  73   2.0000      -0.342848        -9.3294
  74   2.0000      -0.326284        -8.8786
  75   2.0000      -0.314633        -8.5616
  76   2.0000      -0.312688        -8.5087
  77   0.0000       0.077477         2.1083
  78   0.0000       0.114509         3.1159
  79   0.0000       0.121444         3.3047
  80   0.0000       0.136711         3.7201
  81   0.0000       0.139845         3.8054

MULLIKEN ATOMIC CHARGES
-----------------------
   0 C :   -0.292418
   1 C :    0.051239
   2 O :   -0.356200
   3 C :    0.438864
   4 O :   -0.430722
   5 C :   -0.145862
   6 C :    0.137284
   7 C :   -0.286504
   8 N :   -0.120655
   9 C :    0.200989
  10 S :   -0.440725
  11 N :   -0.196496
  12 C :    0.030509
  13 C :    0.058902
  14 C :   -0.162795
  15 C :   -0.134130
  16 C :   -0.279050
  17 C :    0.311578
  18 O :   -0.359139
  19 C :   -0.271057
  20 H :    0.099513
  21 H :    0.095946
  22 H :    0.122116
  23 H :    0.095931
  24 H :    0.090441
  25 H :    0.128096
  26 H :    0.124166
  27 H :    0.102493
  28 H :    0.196421
  29 H :    0.193238
  30 H :    0.154157
  31 H :    0.153449
  32 H :    0.158591
  33 H :    0.127612
  34 H :    0.239843
  35 H :    0.164378
Sum of atomic charges:   -0.0000000

LOEWDIN ATOMIC CHARGES
----------------------
   0 C :    0.102541
   1 C :   -0.008697
   2 O :    0.294547
   3 C :   -0.413125
   4 O :    0.112742
   5 C :   -0.089807
   6 C :   -0.065922
   7 C :    0.124274
   8 N :    0.404522
   9 C :   -0.459295
  10 S :   -0.037132
  11 N :    0.397902
  12 C :   -0.046503
  13 C :   -0.038486
  14 C :    0.021570
  15 C :    0.040493
  16 C :   -0.002536
  17 C :   -0.192464
  18 O :    0.392965
  19 C :    0.028818
  20 H :   -0.026001
  21 H :   -0.028655
  22 H :   -0.024551
  23 H :   -0.026155
  24 H :   -0.028368
  25 H :   -0.009674
  26 H :   -0.009222
  27 H :   -0.021319
  28 H :   -0.059465
  29 H :   -0.063735
  30 H :   -0.005505
  31 H :   -0.025517
  32 H :   -0.021484
  33 H :   -0.036582
  34 H :   -0.155084
  35 H :   -0.025090

  Mayer bond orders larger than 0.100000
B(  0-C ,  1-C ) :   0.9745 B(  0-C , 20-H ) :   0.9756 B(  0-C , 21-H ) :   0.9749
B(  0-C , 22-H ) :   0.9720 B(  1-C ,  2-O ) :   0.9009 B(  1-C , 23-H ) :   0.9819
B(  1-C , 24-H ) :   0.9791 B(  2-O ,  3-C ) :   1.1495 B(  3-C ,  4-O ) :   1.9712
B(  3-C ,  5-C ) :   1.0607 B(  5-C ,  6-C ) :   1.6483 B(  5-C , 12-C ) :   0.9647
B(  6-C ,  7-C ) :   0.9557 B(  6-C ,  8-N ) :   1.1472 B(  7-C , 25-H ) :   0.9636
B(  7-C , 26-H ) :   0.9663 B(  7-C , 27-H ) :   0.9920 B(  8-N ,  9-C ) :   1.1789
B(  8-N , 28-H ) :   0.9491 B(  9-C , 10-S ) :   1.6096 B(  9-C , 11-N ) :   1.3044
B( 11-N , 12-C ) :   0.9932 B( 11-N , 29-H ) :   0.9521 B( 12-C , 13-C ) :   0.9480
B( 12-C , 30-H ) :   1.0001 B( 13-C , 14-C ) :   1.3752 B( 13-C , 19-C ) :   1.3699
B( 14-C , 15-C ) :   1.3948 B( 14-C , 31-H ) :   0.9651 B( 15-C , 16-C ) :   1.3626
B( 15-C , 32-H ) :   0.9715 B( 16-C , 17-C ) :   1.3315 B( 16-C , 33-H ) :   0.9861
B( 17-C , 18-O ) :   1.1079 B( 17-C , 19-C ) :   1.3793 B( 18-O , 34-H ) :   0.9808
B( 19-C , 35-H ) :   0.9584

MP2 TOTAL ENERGY:    -1274.337911411 Eh
FINAL SINGLE POINT ENERGY     -1274.337911411205

DIPOLE MOMENT
-------------
                                X             Y             Z
Electronic contribution:      9.68397      10.06659      11.40001
Nuclear contribution   :    -11.37055     -11.22628     -12.44496
                        -----------------------------------------
Total Dipole Moment    :     -1.68658      -1.15969      -1.04495
                        -----------------------------------------
Magnitude (a.u.)       :      2.29812
Magnitude (Debye)      :      5.84136

Rotational constants in cm-1:     0.010603     0.008835     0.005802
Rotational constants in MHz :   317.858784   264.867028   173.952403

                             ****ORCA TERMINATED NORMALLY****
TOTAL RUN TIME: 0 days 2 hours 17 minutes 29 seconds 743 msec
