                         Program Version 4.2.0 -  RELEASE  -
|  1> ! ri-mp2 cc-pvtz cc-pvtz/c TightSCF  NoKeepInts
|  2>
|  3> %scf
|  4>   MaxCore 4096
|  5> end
|  6> *xyz  0  1
|  7>     C       15.1519300   14.6640248   16.7400183
|  8>     C       16.6054672   14.1559978   16.6245997
|  9>     O       17.4172818   15.0729628   15.8603199
| 10>     C       17.2967583   16.4357119   15.9244371
| 11>     O       16.9391009   17.0356273   14.9280044
| 12>     C       17.6206883   17.1156176   17.2337756
| 13>     C       17.3263020   18.4276378   17.4387895
| 14>     C       16.5097702   19.3428036   16.5515158
| 15>     N       17.8651103   19.0982290   18.5428435
| 16>     C       18.9286539   18.6322063   19.2717271
| 17>     S       19.7242964   19.5743405   20.3740972
| 18>     N       19.3164842   17.3419200   19.0097768
| 19>     C       18.4736954   16.3765189   18.2824433
| 20>     C       17.6735472   15.5972136   19.3249728
| 21>     C       18.2153946   14.4176732   19.8720565
| 22>     C       17.5062972   13.6812784   20.8356201
| 23>     C       16.2475429   14.1319940   21.2666523
| 24>     C       15.7125162   15.3153487   20.7411802
| 25>     O       14.4999956   15.7580290   21.1583279
| 26>     C       16.4196760   16.0457008   19.7813581
| 27>     H       15.0877627   15.5818915   17.3354131
| 28>     H       14.5233148   13.9076504   17.2254817
| 29>     H       14.7333291   14.8658067   15.7455397
| 30>     H       17.0221798   13.9728670   17.6148241
| 31>     H       16.6002176   13.1876092   16.1077477
| 32>     H       15.5813605   18.8517759   16.2335417
| 33>     H       17.0714239   19.5979870   15.6434188
| 34>     H       16.2297227   20.2793086   17.0478336
| 35>     H       17.6051145   20.0555273   18.7196969
| 36>     H       20.0976043   17.0165448   19.5641463
| 37>     H       19.1349780   15.6762999   17.7522732
| 38>     H       19.1917547   14.0681892   19.5463072
| 39>     H       17.9343407   12.7695090   21.2494683
| 40>     H       15.6966852   13.5679554   22.0124563
| 41>     H       14.2014724   15.1676125   21.8669168
| 42>     H       15.9852309   16.9646297   19.4064184
| 43> *
| 44>
| 45>                          ****END OF INPUT****

CARTESIAN COORDINATES (ANGSTROEM)
---------------------------------
  C     15.151930   14.664025   16.740018
  C     16.605467   14.155998   16.624600
  O     17.417282   15.072963   15.860320
  C     17.296758   16.435712   15.924437
  O     16.939101   17.035627   14.928004
  C     17.620688   17.115618   17.233776
  C     17.326302   18.427638   17.438789
  C     16.509770   19.342804   16.551516
  N     17.865110   19.098229   18.542843
  C     18.928654   18.632206   19.271727
  S     19.724296   19.574341   20.374097
  N     19.316484   17.341920   19.009777
  C     18.473695   16.376519   18.282443
  C     17.673547   15.597214   19.324973
  C     18.215395   14.417673   19.872056
  C     17.506297   13.681278   20.835620
  C     16.247543   14.131994   21.266652
  C     15.712516   15.315349   20.741180
  O     14.499996   15.758029   21.158328
  C     16.419676   16.045701   19.781358
  H     15.087763   15.581891   17.335413
  H     14.523315   13.907650   17.225482
  H     14.733329   14.865807   15.745540
  H     17.022180   13.972867   17.614824
  H     16.600218   13.187609   16.107748
  H     15.581361   18.851776   16.233542
  H     17.071424   19.597987   15.643419
  H     16.229723   20.279309   17.047834
  H     17.605114   20.055527   18.719697
  H     20.097604   17.016545   19.564146
  H     19.134978   15.676300   17.752273
  H     19.191755   14.068189   19.546307
  H     17.934341   12.769509   21.249468
  H     15.696685   13.567955   22.012456
  H     14.201472   15.167613   21.866917
  H     15.985231   16.964630   19.406418

 Total Charge           Charge          ....    0
 Multiplicity           Mult            ....    1
 Number of Electrons    NEL             ....  154
 Basis Dimension        Dim             ....  828

ORBITAL ENERGIES
----------------

  NO   OCC          E(Eh)            E(eV)
   0   2.0000     -91.892191     -2500.5136
   1   2.0000     -20.604919      -560.6883
   2   2.0000     -20.584243      -560.1257
   3   2.0000     -20.542762      -558.9970
   4   2.0000     -15.632691      -425.3871
   5   2.0000     -15.610929      -424.7950
   6   2.0000     -11.392692      -310.0109
   7   2.0000     -11.386205      -309.8344
   8   2.0000     -11.338467      -308.5354
   9   2.0000     -11.322497      -308.1008
  10   2.0000     -11.316409      -307.9351
  11   2.0000     -11.298436      -307.4461
  12   2.0000     -11.269075      -306.6471
  13   2.0000     -11.264342      -306.5183
  14   2.0000     -11.260662      -306.4182
  15   2.0000     -11.253763      -306.2305
  16   2.0000     -11.250462      -306.1406
  17   2.0000     -11.246464      -306.0318
  18   2.0000     -11.245768      -306.0129
  19   2.0000     -11.228779      -305.5506
  20   2.0000      -8.897156      -242.1039
  21   2.0000      -6.578710      -179.0158
  22   2.0000      -6.576731      -178.9619
  23   2.0000      -6.576125      -178.9455
  24   2.0000      -1.441192       -39.2168
  25   2.0000      -1.424449       -38.7612
  26   2.0000      -1.350303       -36.7436
  27   2.0000      -1.344243       -36.5787
  28   2.0000      -1.242575       -33.8122
  29   2.0000      -1.165087       -31.7036
  30   2.0000      -1.121956       -30.5300
  31   2.0000      -1.048504       -28.5312
  32   2.0000      -1.031518       -28.0690
  33   2.0000      -1.024048       -27.8658
  34   2.0000      -1.001420       -27.2500
  35   2.0000      -0.987303       -26.8659
  36   2.0000      -0.927616       -25.2417
  37   2.0000      -0.895639       -24.3716
  38   2.0000      -0.850885       -23.1538
  39   2.0000      -0.848781       -23.0965
  40   2.0000      -0.841268       -22.8921
  41   2.0000      -0.826470       -22.4894
  42   2.0000      -0.750400       -20.4194
  43   2.0000      -0.737877       -20.0786
  44   2.0000      -0.714105       -19.4318
  45   2.0000      -0.703711       -19.1490
  46   2.0000      -0.694898       -18.9091
  47   2.0000      -0.675963       -18.3939
  48   2.0000      -0.671920       -18.2839
  49   2.0000      -0.662372       -18.0241
  50   2.0000      -0.654829       -17.8188
  51   2.0000      -0.651847       -17.7377
  52   2.0000      -0.638410       -17.3720
  53   2.0000      -0.624817       -17.0021
  54   2.0000      -0.615947       -16.7608
  55   2.0000      -0.606493       -16.5035
  56   2.0000      -0.602174       -16.3860
  57   2.0000      -0.585115       -15.9218
  58   2.0000      -0.573811       -15.6142
  59   2.0000      -0.567193       -15.4341
  60   2.0000      -0.545783       -14.8515
  61   2.0000      -0.541818       -14.7436
  62   2.0000      -0.541430       -14.7331
  63   2.0000      -0.534438       -14.5428
  64   2.0000      -0.533822       -14.5260
  65   2.0000      -0.517129       -14.0718
  66   2.0000      -0.509982       -13.8773
  67   2.0000      -0.496836       -13.5196
  68   2.0000      -0.479597       -13.0505
  69   2.0000      -0.466787       -12.7019
  70   2.0000      -0.452412       -12.3108
  71   2.0000      -0.441557       -12.0154
  72   2.0000      -0.362422        -9.8620
  73   2.0000      -0.357371        -9.7246
  74   2.0000      -0.333286        -9.0692
  75   2.0000      -0.327954        -8.9241
  76   2.0000      -0.318440        -8.6652
  77   0.0000       0.070600         1.9211
  78   0.0000       0.102427         2.7872
  79   0.0000       0.118453         3.2233
  80   0.0000       0.122361         3.3296
  81   0.0000       0.129248         3.5170

MULLIKEN ATOMIC CHARGES
-----------------------
   0 C :   -0.314956
   1 C :    0.019477
   2 O :   -0.361985
   3 C :    0.487033
   4 O :   -0.392347
   5 C :   -0.262140
   6 C :    0.132543
   7 C :   -0.270896
   8 N :   -0.122254
   9 C :    0.217372
  10 S :   -0.435494
  11 N :   -0.201822
  12 C :    0.039042
  13 C :    0.086299
  14 C :   -0.234098
  15 C :   -0.123185
  16 C :   -0.279050
  17 C :    0.329499
  18 O :   -0.357339
  19 C :   -0.288813
  20 H :    0.095998
  21 H :    0.107294
  22 H :    0.123635
  23 H :    0.102257
  24 H :    0.122701
  25 H :    0.125681
  26 H :    0.141966
  27 H :    0.093727
  28 H :    0.199352
  29 H :    0.189468
  30 H :    0.159486
  31 H :    0.152694
  32 H :    0.163199
  33 H :    0.133466
  34 H :    0.243326
  35 H :    0.178864
Sum of atomic charges:   -0.0000000

LOEWDIN ATOMIC CHARGES
----------------------
   0 C :    0.106258
   1 C :   -0.017397
   2 O :    0.287375
   3 C :   -0.425130
   4 O :    0.120736
   5 C :   -0.098139
   6 C :   -0.057936
   7 C :    0.129750
   8 N :    0.409239
   9 C :   -0.453271
  10 S :   -0.030138
  11 N :    0.395739
  12 C :   -0.052110
  13 C :   -0.038259
  14 C :    0.006770
  15 C :    0.043725
  16 C :   -0.000416
  17 C :   -0.187897
  18 O :    0.396639
  19 C :    0.031167
  20 H :   -0.033848
  21 H :   -0.022709
  22 H :   -0.022068
  23 H :   -0.042331
  24 H :   -0.021540
  25 H :   -0.006598
  26 H :   -0.001550
  27 H :   -0.023105
  28 H :   -0.057017
  29 H :   -0.067996
  30 H :   -0.003926
  31 H :   -0.031033
  32 H :   -0.018689
  33 H :   -0.033970
  34 H :   -0.151430
  35 H :   -0.028894

  Mayer bond orders larger than 0.100000
B(  0-C ,  1-C ) :   0.9651 B(  0-C , 20-H ) :   0.9722 B(  0-C , 21-H ) :   0.9759
B(  0-C , 22-H ) :   0.9731 B(  1-C ,  2-O ) :   0.9064 B(  1-C , 23-H ) :   0.9675
B(  1-C , 24-H ) :   0.9815 B(  2-O ,  3-C ) :   1.1264 B(  3-C ,  4-O ) :   2.0485
B(  3-C ,  5-C ) :   1.0152 B(  5-C ,  6-C ) :   1.6467 B(  5-C , 12-C ) :   0.9687
B(  6-C ,  7-C ) :   0.9785 B(  6-C ,  8-N ) :   1.1487 B(  7-C , 25-H ) :   0.9665
B(  7-C , 26-H ) :   0.9531 B(  7-C , 27-H ) :   0.9859 B(  8-N ,  9-C ) :   1.1828
B(  8-N , 28-H ) :   0.9490 B(  9-C , 10-S ) :   1.6143 B(  9-C , 11-N ) :   1.2960
B( 11-N , 12-C ) :   0.9510 B( 11-N , 29-H ) :   0.9543 B( 12-C , 13-C ) :   0.9643
B( 12-C , 30-H ) :   0.9943 B( 13-C , 14-C ) :   1.3342 B( 13-C , 19-C ) :   1.3645
B( 14-C , 15-C ) :   1.4021 B( 14-C , 31-H ) :   0.9750 B( 15-C , 16-C ) :   1.3633
B( 15-C , 32-H ) :   0.9696 B( 16-C , 17-C ) :   1.3339 B( 16-C , 33-H ) :   0.9835
B( 17-C , 18-O ) :   1.1169 B( 17-C , 19-C ) :   1.3600 B( 18-O , 34-H ) :   0.9785
B( 19-C , 35-H ) :   0.9488

MP2 TOTAL ENERGY:    -1274.331015439 Eh
FINAL SINGLE POINT ENERGY     -1274.331015438638

DIPOLE MOMENT
-------------
                                X             Y             Z
Electronic contribution:      9.65107       8.06291       4.56594
Nuclear contribution   :    -10.85726      -9.68972      -3.81315
                        -----------------------------------------
Total Dipole Moment    :     -1.20620      -1.62681       0.75279
                        -----------------------------------------
Magnitude (a.u.)       :      2.16058
Magnitude (Debye)      :      5.49175

Rotational constants in cm-1:     0.011298     0.009903     0.006776
Rotational constants in MHz :   338.717941   296.887674   203.152603

                             ****ORCA TERMINATED NORMALLY****
TOTAL RUN TIME: 0 days 1 hours 49 minutes 43 seconds 705 msec
