                         Program Version 5.0.0 -  RELEASE  -
|  1> ! ri-mp2 cc-pvtz cc-pvtz/c TightSCF NoKeepInts
|  2>
|  3> %scf
|  4>   MaxCore 4096
|  5> end
|  6> *xyz  0  1
|  7>     C       14.6118208   14.4214989   17.1129715
|  8>     C       15.5980532   15.5606051   16.8104123
|  9>     O       16.9009009   14.9659027   16.6896406
| 10>     C       18.0465277   15.6984355   16.5264458
| 11>     O       19.0848466   15.1019336   16.3115567
| 12>     C       18.0810375   16.9178908   17.3832027
| 13>     C       17.5984412   18.1058955   16.9578473
| 14>     C       16.9801188   18.3982352   15.6082197
| 15>     N       17.6849655   19.2272415   17.7853889
| 16>     C       18.3116156   19.2476030   19.0050245
| 17>     S       18.4081163   20.6305799   19.9061719
| 18>     N       18.8467925   18.0612063   19.4462367
| 19>     C       18.7272286   16.7597208   18.7579093
| 20>     C       17.9566292   15.7489037   19.6013102
| 21>     C       18.4129219   14.4219998   19.7024143
| 22>     C       17.6919046   13.4713793   20.4439056
| 23>     C       16.5007730   13.8485286   21.0868863
| 24>     C       16.0389457   15.1673035   20.9822746
| 25>     O       14.8803484   15.5308984   21.5872853
| 26>     C       16.7595859   16.1126082   20.2457641
| 27>     H       14.8863338   13.9163677   18.0480658
| 28>     H       14.6176814   13.6789530   16.3052397
| 29>     H       13.5917174   14.8098108   17.2189403
| 30>     H       15.3144443   16.0622420   15.8765975
| 31>     H       15.5640810   16.2848439   17.6344728
| 32>     H       17.1698837   17.5982511   14.8819316
| 33>     H       17.3978980   19.3172226   15.1771780
| 34>     H       15.8943930   18.5296991   15.6922495
| 35>     H       17.3088102   20.1102259   17.4771012
| 36>     H       19.2820337   18.1025040   20.3592194
| 37>     H       19.7438373   16.3697401   18.6011584
| 38>     H       19.3206768   14.1212958   19.1837573
| 39>     H       18.0524495   12.4461584   20.5078072
| 40>     H       15.9382543   13.1153841   21.6553564
| 41>     H       14.5624886   14.7644398   22.0882905
| 42>     H       16.3804428   17.1264914   20.1757660
| 43> *
| 44>
| 45>                          ****END OF INPUT****

CARTESIAN COORDINATES (ANGSTROEM)
---------------------------------
  C     14.611821   14.421499   17.112972
  C     15.598053   15.560605   16.810412
  O     16.900901   14.965903   16.689641
  C     18.046528   15.698436   16.526446
  O     19.084847   15.101934   16.311557
  C     18.081038   16.917891   17.383203
  C     17.598441   18.105895   16.957847
  C     16.980119   18.398235   15.608220
  N     17.684966   19.227242   17.785389
  C     18.311616   19.247603   19.005025
  S     18.408116   20.630580   19.906172
  N     18.846792   18.061206   19.446237
  C     18.727229   16.759721   18.757909
  C     17.956629   15.748904   19.601310
  C     18.412922   14.422000   19.702414
  C     17.691905   13.471379   20.443906
  C     16.500773   13.848529   21.086886
  C     16.038946   15.167303   20.982275
  O     14.880348   15.530898   21.587285
  C     16.759586   16.112608   20.245764
  H     14.886334   13.916368   18.048066
  H     14.617681   13.678953   16.305240
  H     13.591717   14.809811   17.218940
  H     15.314444   16.062242   15.876597
  H     15.564081   16.284844   17.634473
  H     17.169884   17.598251   14.881932
  H     17.397898   19.317223   15.177178
  H     15.894393   18.529699   15.692250
  H     17.308810   20.110226   17.477101
  H     19.282034   18.102504   20.359219
  H     19.743837   16.369740   18.601158
  H     19.320677   14.121296   19.183757
  H     18.052450   12.446158   20.507807
  H     15.938254   13.115384   21.655356
  H     14.562489   14.764440   22.088290
  H     16.380443   17.126491   20.175766

 Total Charge           Charge          ....    0
 Multiplicity           Mult            ....    1
 Number of Electrons    NEL             ....  154
 Basis Dimension        Dim             ....  828

ORBITAL ENERGIES
----------------

  NO   OCC          E(Eh)            E(eV)
   0   2.0000     -91.888269     -2500.4069
   1   2.0000     -20.602438      -560.6208
   2   2.0000     -20.599559      -560.5425
   3   2.0000     -20.555566      -559.3454
   4   2.0000     -15.623780      -425.1447
   5   2.0000     -15.611052      -424.7983
   6   2.0000     -11.395926      -310.0989
   7   2.0000     -11.385350      -309.8111
   8   2.0000     -11.323167      -308.1190
   9   2.0000     -11.316235      -307.9304
  10   2.0000     -11.316114      -307.9271
  11   2.0000     -11.303406      -307.5813
  12   2.0000     -11.270134      -306.6759
  13   2.0000     -11.263834      -306.5045
  14   2.0000     -11.262872      -306.4783
  15   2.0000     -11.255951      -306.2900
  16   2.0000     -11.245224      -305.9981
  17   2.0000     -11.241455      -305.8955
  18   2.0000     -11.238582      -305.8174
  19   2.0000     -11.231548      -305.6259
  20   2.0000      -8.893410      -242.0020
  21   2.0000      -6.575006      -178.9150
  22   2.0000      -6.572972      -178.8597
  23   2.0000      -6.572405      -178.8442
  24   2.0000      -1.453924       -39.5633
  25   2.0000      -1.419358       -38.6227
  26   2.0000      -1.362454       -37.0743
  27   2.0000      -1.337936       -36.4071
  28   2.0000      -1.238438       -33.6996
  29   2.0000      -1.160465       -31.5779
  30   2.0000      -1.124765       -30.6064
  31   2.0000      -1.048598       -28.5338
  32   2.0000      -1.040399       -28.3107
  33   2.0000      -1.018062       -27.7029
  34   2.0000      -1.004324       -27.3290
  35   2.0000      -0.988079       -26.8870
  36   2.0000      -0.927271       -25.2323
  37   2.0000      -0.880877       -23.9699
  38   2.0000      -0.854301       -23.2467
  39   2.0000      -0.840656       -22.8754
  40   2.0000      -0.836577       -22.7644
  41   2.0000      -0.836218       -22.7547
  42   2.0000      -0.758215       -20.6321
  43   2.0000      -0.738324       -20.0908
  44   2.0000      -0.731040       -19.8926
  45   2.0000      -0.698017       -18.9940
  46   2.0000      -0.689102       -18.7514
  47   2.0000      -0.682800       -18.5799
  48   2.0000      -0.677162       -18.4265
  49   2.0000      -0.660352       -17.9691
  50   2.0000      -0.658591       -17.9212
  51   2.0000      -0.649204       -17.6657
  52   2.0000      -0.639199       -17.3935
  53   2.0000      -0.611613       -16.6428
  54   2.0000      -0.608457       -16.5570
  55   2.0000      -0.603889       -16.4327
  56   2.0000      -0.600013       -16.3272
  57   2.0000      -0.586363       -15.9557
  58   2.0000      -0.577547       -15.7159
  59   2.0000      -0.567138       -15.4326
  60   2.0000      -0.561424       -15.2771
  61   2.0000      -0.554942       -15.1007
  62   2.0000      -0.549758       -14.9597
  63   2.0000      -0.527851       -14.3636
  64   2.0000      -0.519344       -14.1321
  65   2.0000      -0.514222       -13.9927
  66   2.0000      -0.506681       -13.7875
  67   2.0000      -0.501515       -13.6469
  68   2.0000      -0.488084       -13.2815
  69   2.0000      -0.468350       -12.7444
  70   2.0000      -0.455406       -12.3922
  71   2.0000      -0.452152       -12.3037
  72   2.0000      -0.355364        -9.6700
  73   2.0000      -0.350857        -9.5473
  74   2.0000      -0.328169        -8.9299
  75   2.0000      -0.323471        -8.8021
  76   2.0000      -0.316559        -8.6140
  77   0.0000       0.091204         2.4818
  78   0.0000       0.101833         2.7710
  79   0.0000       0.107626         2.9286
  80   0.0000       0.126606         3.4451
  81   0.0000       0.129735         3.5303

MULLIKEN ATOMIC CHARGES
-----------------------
   0 C :   -0.260884
   1 C :   -0.001001
   2 O :   -0.299870
   3 C :    0.384630
   4 O :   -0.368788
   5 C :   -0.161474
   6 C :    0.125220
   7 C :   -0.327133
   8 N :   -0.135157
   9 C :    0.207798
  10 S :   -0.444344
  11 N :   -0.214292
  12 C :    0.056792
  13 C :    0.039984
  14 C :   -0.183233
  15 C :   -0.128288
  16 C :   -0.280640
  17 C :    0.312483
  18 O :   -0.359678
  19 C :   -0.284542
  20 H :    0.109180
  21 H :    0.104109
  22 H :    0.087593
  23 H :    0.100896
  24 H :    0.103152
  25 H :    0.121484
  26 H :    0.134339
  27 H :    0.123840
  28 H :    0.194864
  29 H :    0.198530
  30 H :    0.165300
  31 H :    0.161061
  32 H :    0.162536
  33 H :    0.132992
  34 H :    0.241816
  35 H :    0.180725
Sum of atomic charges:    0.0000000

LOEWDIN ATOMIC CHARGES
----------------------
   0 C :    0.113277
   1 C :   -0.030717
   2 O :    0.322414
   3 C :   -0.422084
   4 O :    0.135406
   5 C :   -0.079455
   6 C :   -0.112298
   7 C :    0.122980
   8 N :    0.399505
   9 C :   -0.455025
  10 S :   -0.040591
  11 N :    0.397350
  12 C :   -0.042286
  13 C :   -0.040633
  14 C :    0.025088
  15 C :    0.046314
  16 C :   -0.000591
  17 C :   -0.193827
  18 O :    0.394495
  19 C :    0.027779
  20 H :   -0.022548
  21 H :   -0.025241
  22 H :   -0.025369
  23 H :   -0.037909
  24 H :   -0.037552
  25 H :   -0.010586
  26 H :   -0.010537
  27 H :   -0.016880
  28 H :   -0.059369
  29 H :   -0.063690
  30 H :   -0.002551
  31 H :   -0.022928
  32 H :   -0.018769
  33 H :   -0.035008
  34 H :   -0.153096
  35 H :   -0.025068

  Mayer bond orders larger than 0.100000
B(  0-C ,  1-C ) :   0.9836 B(  0-C , 20-H ) :   0.9756 B(  0-C , 21-H ) :   0.9797
B(  0-C , 22-H ) :   0.9764 B(  1-C ,  2-O ) :   0.9189 B(  1-C , 23-H ) :   0.9762
B(  1-C , 24-H ) :   0.9597 B(  2-O ,  3-C ) :   1.1392 B(  3-C ,  4-O ) :   2.1011
B(  3-C ,  5-C ) :   0.9190 B(  5-C ,  6-C ) :   1.7074 B(  5-C , 12-C ) :   0.9660
B(  6-C ,  7-C ) :   0.9377 B(  6-C ,  8-N ) :   1.1067 B(  7-C , 25-H ) :   0.9825
B(  7-C , 26-H ) :   0.9729 B(  7-C , 27-H ) :   0.9658 B(  8-N ,  9-C ) :   1.2003
B(  8-N , 28-H ) :   0.9535 B(  9-C , 10-S ) :   1.6076 B(  9-C , 11-N ) :   1.2849
B( 11-N , 12-C ) :   0.9976 B( 11-N , 29-H ) :   0.9483 B( 12-C , 13-C ) :   0.9450
B( 12-C , 30-H ) :   0.9977 B( 13-C , 14-C ) :   1.3858 B( 13-C , 19-C ) :   1.3405
B( 14-C , 15-C ) :   1.3978 B( 14-C , 31-H ) :   0.9644 B( 15-C , 16-C ) :   1.3619
B( 15-C , 32-H ) :   0.9704 B( 16-C , 17-C ) :   1.3297 B( 16-C , 33-H ) :   0.9845
B( 17-C , 18-O ) :   1.1073 B( 17-C , 19-C ) :   1.3667 B( 18-O , 34-H ) :   0.9792
B( 19-C , 35-H ) :   0.9557

MP2 TOTAL ENERGY:    -1274.323742075 Eh
FINAL SINGLE POINT ENERGY     -1274.323742075296

DIPOLE MOMENT
-------------
                                X             Y             Z
Electronic contribution:     10.70374       8.11761       6.48512
Nuclear contribution   :    -12.29475      -9.22320      -7.08026
                        -----------------------------------------
Total Dipole Moment    :     -1.59100      -1.10558      -0.59514
                        -----------------------------------------
Magnitude (a.u.)       :      2.02677
Magnitude (Debye)      :      5.15164

Rotational constants in cm-1:     0.012629     0.008957     0.006892
Rotational constants in MHz :   378.616124   268.523069   206.603954

                             ****ORCA TERMINATED NORMALLY****
TOTAL RUN TIME: 0 days 2 hours 18 minutes 42 seconds 988 msec
