                         Program Version 5.0.0 -  RELEASE  -
|  1> ! ri-mp2 cc-pvtz cc-pvtz/c TightSCF NoKeepInts
|  2>
|  3> %scf
|  4>   MaxCore 4096
|  5> end
|  6> *xyz  0  1
|  7>     C       14.9478867   16.0455378   17.2521546
|  8>     C       15.5551593   14.9689266   16.3302867
|  9>     O       16.9068332   15.1654580   15.8289999
| 10>     C       18.0253027   15.6558990   16.4632940
| 11>     O       19.0481612   14.9961987   16.4399034
| 12>     C       17.9021907   16.8210049   17.3888517
| 13>     C       17.3842303   18.0093654   16.9954027
| 14>     C       16.8754634   18.3819764   15.6174341
| 15>     N       17.4066512   19.1007054   17.8665647
| 16>     C       18.0418192   19.1184864   19.0804723
| 17>     S       18.0784750   20.4771742   20.0222002
| 18>     N       18.6526737   17.9536750   19.4737409
| 19>     C       18.5816657   16.6658352   18.7546613
| 20>     C       17.9178109   15.5820189   19.6044560
| 21>     C       18.3763423   14.2533199   19.5307051
| 22>     C       17.7739259   13.2406549   20.2952898
| 23>     C       16.7021478   13.5565305   21.1466479
| 24>     C       16.2425393   14.8774692   21.2275972
| 25>     O       15.2027854   15.1853640   22.0428289
| 26>     C       16.8444791   15.8837933   20.4654023
| 27>     H       15.5190744   16.1748999   18.1734432
| 28>     H       13.9395543   15.7356668   17.5530547
| 29>     H       14.8416626   17.0053952   16.7391054
| 30>     H       15.5488304   14.0256785   16.8928027
| 31>     H       14.8860493   14.8233631   15.4723834
| 32>     H       16.7036295   17.5122853   14.9745266
| 33>     H       17.6050034   19.0196479   15.1021753
| 34>     H       15.9298403   18.9346415   15.6757453
| 35>     H       16.9901881   19.9740308   17.5843715
| 36>     H       19.1043481   17.9930631   20.3787770
| 37>     H       19.6167009   16.3432880   18.5670934
| 38>     H       19.2020776   14.0015274   18.8683322
| 39>     H       18.1384973   12.2172374   20.2235302
| 40>     H       16.2331465   12.7769842   21.7379510
| 41>     H       14.9576911   14.3779093   22.5195048
| 42>     H       16.4641631   16.8969879   20.5443097
| 43> *
| 44>
| 45>                          ****END OF INPUT****

CARTESIAN COORDINATES (ANGSTROEM)
---------------------------------
  C     14.947887   16.045538   17.252155
  C     15.555159   14.968927   16.330287
  O     16.906833   15.165458   15.829000
  C     18.025303   15.655899   16.463294
  O     19.048161   14.996199   16.439903
  C     17.902191   16.821005   17.388852
  C     17.384230   18.009365   16.995403
  C     16.875463   18.381976   15.617434
  N     17.406651   19.100705   17.866565
  C     18.041819   19.118486   19.080472
  S     18.078475   20.477174   20.022200
  N     18.652674   17.953675   19.473741
  C     18.581666   16.665835   18.754661
  C     17.917811   15.582019   19.604456
  C     18.376342   14.253320   19.530705
  C     17.773926   13.240655   20.295290
  C     16.702148   13.556530   21.146648
  C     16.242539   14.877469   21.227597
  O     15.202785   15.185364   22.042829
  C     16.844479   15.883793   20.465402
  H     15.519074   16.174900   18.173443
  H     13.939554   15.735667   17.553055
  H     14.841663   17.005395   16.739105
  H     15.548830   14.025678   16.892803
  H     14.886049   14.823363   15.472383
  H     16.703630   17.512285   14.974527
  H     17.605003   19.019648   15.102175
  H     15.929840   18.934642   15.675745
  H     16.990188   19.974031   17.584371
  H     19.104348   17.993063   20.378777
  H     19.616701   16.343288   18.567093
  H     19.202078   14.001527   18.868332
  H     18.138497   12.217237   20.223530
  H     16.233147   12.776984   21.737951
  H     14.957691   14.377909   22.519505
  H     16.464163   16.896988   20.544310

 Total Charge           Charge          ....    0
 Multiplicity           Mult            ....    1
 Number of Electrons    NEL             ....  154
 Basis Dimension        Dim             ....  828

ORBITAL ENERGIES
----------------

  NO   OCC          E(Eh)            E(eV)
   0   2.0000     -91.890553     -2500.4691
   1   2.0000     -20.599060      -560.5289
   2   2.0000     -20.591834      -560.3323
   3   2.0000     -20.549356      -559.1764
   4   2.0000     -15.628094      -425.2621
   5   2.0000     -15.611278      -424.8045
   6   2.0000     -11.398805      -310.1772
   7   2.0000     -11.386884      -309.8529
   8   2.0000     -11.331567      -308.3476
   9   2.0000     -11.315998      -307.9240
  10   2.0000     -11.313722      -307.8620
  11   2.0000     -11.311281      -307.7956
  12   2.0000     -11.265142      -306.5401
  13   2.0000     -11.263918      -306.5068
  14   2.0000     -11.263402      -306.4928
  15   2.0000     -11.256058      -306.2929
  16   2.0000     -11.245169      -305.9966
  17   2.0000     -11.241504      -305.8969
  18   2.0000     -11.237548      -305.7892
  19   2.0000     -11.235129      -305.7234
  20   2.0000      -8.895650      -242.0629
  21   2.0000      -6.577235      -178.9757
  22   2.0000      -6.575214      -178.9207
  23   2.0000      -6.574635      -178.9049
  24   2.0000      -1.441670       -39.2298
  25   2.0000      -1.418863       -38.6092
  26   2.0000      -1.353366       -36.8270
  27   2.0000      -1.340928       -36.4885
  28   2.0000      -1.240251       -33.7489
  29   2.0000      -1.159985       -31.5648
  30   2.0000      -1.124309       -30.5940
  31   2.0000      -1.047390       -28.5009
  32   2.0000      -1.040439       -28.3118
  33   2.0000      -1.018375       -27.7114
  34   2.0000      -1.004671       -27.3385
  35   2.0000      -0.990113       -26.9423
  36   2.0000      -0.927600       -25.2413
  37   2.0000      -0.899502       -24.4767
  38   2.0000      -0.852861       -23.2075
  39   2.0000      -0.841135       -22.8884
  40   2.0000      -0.835779       -22.7427
  41   2.0000      -0.827739       -22.5239
  42   2.0000      -0.748178       -20.3590
  43   2.0000      -0.733733       -19.9659
  44   2.0000      -0.729754       -19.8576
  45   2.0000      -0.696695       -18.9580
  46   2.0000      -0.687057       -18.6958
  47   2.0000      -0.676026       -18.3956
  48   2.0000      -0.674893       -18.3648
  49   2.0000      -0.663181       -18.0461
  50   2.0000      -0.654059       -17.7978
  51   2.0000      -0.651580       -17.7304
  52   2.0000      -0.640195       -17.4206
  53   2.0000      -0.613568       -16.6960
  54   2.0000      -0.605953       -16.4888
  55   2.0000      -0.603066       -16.4102
  56   2.0000      -0.600984       -16.3536
  57   2.0000      -0.595816       -16.2130
  58   2.0000      -0.576310       -15.6822
  59   2.0000      -0.575868       -15.6702
  60   2.0000      -0.565474       -15.3873
  61   2.0000      -0.556966       -15.1558
  62   2.0000      -0.543884       -14.7998
  63   2.0000      -0.531778       -14.4704
  64   2.0000      -0.521999       -14.2043
  65   2.0000      -0.514082       -13.9889
  66   2.0000      -0.502035       -13.6611
  67   2.0000      -0.491584       -13.3767
  68   2.0000      -0.484386       -13.1808
  69   2.0000      -0.466369       -12.6905
  70   2.0000      -0.458476       -12.4758
  71   2.0000      -0.448009       -12.1909
  72   2.0000      -0.355888        -9.6842
  73   2.0000      -0.349826        -9.5192
  74   2.0000      -0.330081        -8.9820
  75   2.0000      -0.323847        -8.8123
  76   2.0000      -0.319241        -8.6870
  77   0.0000       0.082305         2.2396
  78   0.0000       0.105184         2.8622
  79   0.0000       0.117200         3.1892
  80   0.0000       0.126304         3.4369
  81   0.0000       0.130244         3.5441

MULLIKEN ATOMIC CHARGES
-----------------------
   0 C :   -0.342944
   1 C :    0.048095
   2 O :   -0.355689
   3 C :    0.426347
   4 O :   -0.381283
   5 C :   -0.233889
   6 C :    0.168089
   7 C :   -0.323114
   8 N :   -0.137120
   9 C :    0.203761
  10 S :   -0.439936
  11 N :   -0.228701
  12 C :    0.103158
  13 C :    0.018342
  14 C :   -0.221147
  15 C :   -0.135637
  16 C :   -0.275770
  17 C :    0.326255
  18 O :   -0.356403
  19 C :   -0.284696
  20 H :    0.126145
  21 H :    0.129253
  22 H :    0.093898
  23 H :    0.108650
  24 H :    0.114252
  25 H :    0.130207
  26 H :    0.148325
  27 H :    0.108175
  28 H :    0.196876
  29 H :    0.202314
  30 H :    0.166045
  31 H :    0.178682
  32 H :    0.164938
  33 H :    0.132014
  34 H :    0.241100
  35 H :    0.181409
Sum of atomic charges:    0.0000000

LOEWDIN ATOMIC CHARGES
----------------------
   0 C :    0.105568
   1 C :   -0.011822
   2 O :    0.281619
   3 C :   -0.414349
   4 O :    0.126142
   5 C :   -0.085096
   6 C :   -0.089433
   7 C :    0.123610
   8 N :    0.404382
   9 C :   -0.456876
  10 S :   -0.036765
  11 N :    0.397921
  12 C :   -0.043461
  13 C :   -0.043174
  14 C :    0.020149
  15 C :    0.043402
  16 C :   -0.001380
  17 C :   -0.193526
  18 O :    0.395205
  19 C :    0.025435
  20 H :   -0.033034
  21 H :   -0.018674
  22 H :   -0.033034
  23 H :   -0.025028
  24 H :   -0.020576
  25 H :   -0.011960
  26 H :   -0.008195
  27 H :   -0.019436
  28 H :   -0.057182
  29 H :   -0.063740
  30 H :   -0.002803
  31 H :   -0.021909
  32 H :   -0.018564
  33 H :   -0.034944
  34 H :   -0.153291
  35 H :   -0.025180

  Mayer bond orders larger than 0.100000
B(  0-C ,  1-C ) :   0.9614 B(  0-C , 20-H ) :   0.9658 B(  0-C , 21-H ) :   0.9774
B(  0-C , 22-H ) :   0.9750 B(  1-C ,  2-O ) :   0.9029 B(  1-C , 23-H ) :   0.9789
B(  1-C , 24-H ) :   0.9809 B(  2-O ,  3-C ) :   1.1502 B(  3-C ,  4-O ) :   2.0786
B(  3-C ,  5-C ) :   0.9565 B(  5-C ,  6-C ) :   1.6685 B(  5-C , 12-C ) :   0.9439
B(  6-C ,  7-C ) :   0.9476 B(  6-C ,  8-N ) :   1.1215 B(  7-C , 25-H ) :   0.9757
B(  7-C , 26-H ) :   0.9644 B(  7-C , 27-H ) :   0.9713 B(  8-N ,  9-C ) :   1.1951
B(  8-N , 28-H ) :   0.9508 B(  9-C , 10-S ) :   1.6093 B(  9-C , 11-N ) :   1.2886
B( 11-N , 12-C ) :   0.9869 B( 11-N , 29-H ) :   0.9478 B( 12-C , 13-C ) :   0.9512
B( 12-C , 30-H ) :   0.9961 B( 13-C , 14-C ) :   1.3912 B( 13-C , 19-C ) :   1.3376
B( 14-C , 15-C ) :   1.4025 B( 14-C , 31-H ) :   0.9566 B( 15-C , 16-C ) :   1.3582
B( 15-C , 32-H ) :   0.9696 B( 16-C , 17-C ) :   1.3323 B( 16-C , 33-H ) :   0.9846
B( 17-C , 18-O ) :   1.1096 B( 17-C , 19-C ) :   1.3656 B( 18-O , 34-H ) :   0.9795
B( 19-C , 35-H ) :   0.9573

MP2 TOTAL ENERGY:    -1274.323447031 Eh
FINAL SINGLE POINT ENERGY     -1274.323447030575

DIPOLE MOMENT
-------------
                                X             Y             Z
Electronic contribution:      9.44406       5.61672       6.48774
Nuclear contribution   :    -10.96964      -6.79543      -6.97468
                        -----------------------------------------
Total Dipole Moment    :     -1.52558      -1.17872      -0.48694
                        -----------------------------------------
Magnitude (a.u.)       :      1.98844
Magnitude (Debye)      :      5.05421

Rotational constants in cm-1:     0.011722     0.009490     0.006768
Rotational constants in MHz :   351.415253   284.507314   202.888668

                             ****ORCA TERMINATED NORMALLY****
TOTAL RUN TIME: 0 days 2 hours 3 minutes 49 seconds 627 msec
