                         Program Version 4.2.0 -  RELEASE  -
|  1> ! ri-mp2 cc-pvtz cc-pvtz/c TightSCF  NoKeepInts
|  2>
|  3> %scf
|  4>   MaxCore 4096
|  5> end
|  6> *xyz  0  1
|  7>     C       14.8801473   15.5256097   17.5141652
|  8>     C       15.6818271   15.1612242   16.2510427
|  9>     O       17.0257553   14.8175991   16.6245619
| 10>     C       18.0789476   15.6766589   16.4698562
| 11>     O       19.1804332   15.1891251   16.2976555
| 12>     C       17.9670669   16.8599720   17.3703719
| 13>     C       17.4191797   18.0264509   16.9625102
| 14>     C       16.8486981   18.3327854   15.5952874
| 15>     N       17.4056052   19.1272182   17.8219769
| 16>     C       18.0288158   19.1701572   19.0420624
| 17>     S       18.0236612   20.5384657   19.9706089
| 18>     N       18.6558559   18.0202973   19.4557326
| 19>     C       18.6116307   16.7224253   18.7516323
| 20>     C       17.9241043   15.6496714   19.5928558
| 21>     C       18.4138267   14.3305825   19.5810277
| 22>     C       17.7880832   13.3257926   20.3372947
| 23>     C       16.6607788   13.6408328   21.1144095
| 24>     C       16.1672193   14.9521465   21.1273973
| 25>     O       15.0709192   15.2568194   21.8663950
| 26>     C       16.7921872   15.9509299   20.3740549
| 27>     H       14.9653734   14.7297283   18.2651493
| 28>     H       13.8180264   15.6514316   17.2720032
| 29>     H       15.2371436   16.4597674   17.9614132
| 30>     H       15.2148139   14.2782900   15.7953502
| 31>     H       15.6528924   15.9655587   15.5087492
| 32>     H       17.2016473   17.6266110   14.8337967
| 33>     H       17.1541041   19.3311762   15.2563952
| 34>     H       15.7522784   18.3065746   15.6112747
| 35>     H       16.9626092   19.9850331   17.5327397
| 36>     H       19.0917638   18.0754843   20.3675282
| 37>     H       19.6517209   16.4012098   18.5930085
| 38>     H       19.2749264   14.0800114   18.9649461
| 39>     H       18.1739410   12.3082290   20.3118228
| 40>     H       16.1723393   12.8667311   21.6967574
| 41>     H       14.8124225   14.4548390   22.3450264
| 42>     H       16.3862543   16.9565604   20.3971404
| 43> *
| 44>
| 45>                          ****END OF INPUT****

CARTESIAN COORDINATES (ANGSTROEM)
---------------------------------
  C     14.880147   15.525610   17.514165
  C     15.681827   15.161224   16.251043
  O     17.025755   14.817599   16.624562
  C     18.078948   15.676659   16.469856
  O     19.180433   15.189125   16.297656
  C     17.967067   16.859972   17.370372
  C     17.419180   18.026451   16.962510
  C     16.848698   18.332785   15.595287
  N     17.405605   19.127218   17.821977
  C     18.028816   19.170157   19.042062
  S     18.023661   20.538466   19.970609
  N     18.655856   18.020297   19.455733
  C     18.611631   16.722425   18.751632
  C     17.924104   15.649671   19.592856
  C     18.413827   14.330582   19.581028
  C     17.788083   13.325793   20.337295
  C     16.660779   13.640833   21.114409
  C     16.167219   14.952146   21.127397
  O     15.070919   15.256819   21.866395
  C     16.792187   15.950930   20.374055
  H     14.965373   14.729728   18.265149
  H     13.818026   15.651432   17.272003
  H     15.237144   16.459767   17.961413
  H     15.214814   14.278290   15.795350
  H     15.652892   15.965559   15.508749
  H     17.201647   17.626611   14.833797
  H     17.154104   19.331176   15.256395
  H     15.752278   18.306575   15.611275
  H     16.962609   19.985033   17.532740
  H     19.091764   18.075484   20.367528
  H     19.651721   16.401210   18.593008
  H     19.274926   14.080011   18.964946
  H     18.173941   12.308229   20.311823
  H     16.172339   12.866731   21.696757
  H     14.812423   14.454839   22.345026
  H     16.386254   16.956560   20.397140

 Total Charge           Charge          ....    0
 Multiplicity           Mult            ....    1
 Number of Electrons    NEL             ....  154
 Basis Dimension        Dim             ....  828

ORBITAL ENERGIES
----------------

  NO   OCC          E(Eh)            E(eV)
   0   2.0000     -91.887331     -2500.3814
   1   2.0000     -20.597603      -560.4893
   2   2.0000     -20.596127      -560.4491
   3   2.0000     -20.562257      -559.5275
   4   2.0000     -15.622775      -425.1173
   5   2.0000     -15.609841      -424.7654
   6   2.0000     -11.397188      -310.1332
   7   2.0000     -11.384107      -309.7773
   8   2.0000     -11.321931      -308.0854
   9   2.0000     -11.315324      -307.9056
  10   2.0000     -11.312065      -307.8169
  11   2.0000     -11.307169      -307.6837
  12   2.0000     -11.270779      -306.6935
  13   2.0000     -11.265279      -306.5438
  14   2.0000     -11.259819      -306.3953
  15   2.0000     -11.252601      -306.1988
  16   2.0000     -11.242026      -305.9111
  17   2.0000     -11.237656      -305.7922
  18   2.0000     -11.235208      -305.7256
  19   2.0000     -11.229297      -305.5647
  20   2.0000      -8.892471      -241.9764
  21   2.0000      -6.574071      -178.8896
  22   2.0000      -6.572034      -178.8341
  23   2.0000      -6.571469      -178.8188
  24   2.0000      -1.456608       -39.6363
  25   2.0000      -1.415934       -38.5295
  26   2.0000      -1.364350       -37.1258
  27   2.0000      -1.337229       -36.3878
  28   2.0000      -1.237505       -33.6742
  29   2.0000      -1.157076       -31.4856
  30   2.0000      -1.123281       -30.5660
  31   2.0000      -1.046678       -28.4816
  32   2.0000      -1.039398       -28.2835
  33   2.0000      -1.014984       -27.6191
  34   2.0000      -1.003483       -27.3062
  35   2.0000      -0.987504       -26.8714
  36   2.0000      -0.925903       -25.1951
  37   2.0000      -0.891622       -24.2623
  38   2.0000      -0.851906       -23.1815
  39   2.0000      -0.838264       -22.8103
  40   2.0000      -0.832917       -22.6648
  41   2.0000      -0.830864       -22.6090
  42   2.0000      -0.757636       -20.6163
  43   2.0000      -0.737025       -20.0555
  44   2.0000      -0.729250       -19.8439
  45   2.0000      -0.694338       -18.8939
  46   2.0000      -0.688731       -18.7413
  47   2.0000      -0.682576       -18.5738
  48   2.0000      -0.676129       -18.3984
  49   2.0000      -0.665193       -18.1008
  50   2.0000      -0.650715       -17.7069
  51   2.0000      -0.640249       -17.4221
  52   2.0000      -0.638410       -17.3720
  53   2.0000      -0.614573       -16.7234
  54   2.0000      -0.609056       -16.5733
  55   2.0000      -0.604878       -16.4596
  56   2.0000      -0.600595       -16.3430
  57   2.0000      -0.589472       -16.0404
  58   2.0000      -0.582318       -15.8457
  59   2.0000      -0.573595       -15.6083
  60   2.0000      -0.564102       -15.3500
  61   2.0000      -0.556312       -15.1380
  62   2.0000      -0.541898       -14.7458
  63   2.0000      -0.525332       -14.2950
  64   2.0000      -0.517623       -14.0852
  65   2.0000      -0.511288       -13.9128
  66   2.0000      -0.500734       -13.6257
  67   2.0000      -0.499540       -13.5932
  68   2.0000      -0.488015       -13.2796
  69   2.0000      -0.464810       -12.6481
  70   2.0000      -0.458011       -12.4631
  71   2.0000      -0.453092       -12.3293
  72   2.0000      -0.354334        -9.6419
  73   2.0000      -0.346404        -9.4261
  74   2.0000      -0.327186        -8.9032
  75   2.0000      -0.320010        -8.7079
  76   2.0000      -0.315517        -8.5857
  77   0.0000       0.088855         2.4179
  78   0.0000       0.099150         2.6980
  79   0.0000       0.111791         3.0420
  80   0.0000       0.126695         3.4476
  81   0.0000       0.130994         3.5645

MULLIKEN ATOMIC CHARGES
-----------------------
   0 C :   -0.296583
   1 C :   -0.004784
   2 O :   -0.313378
   3 C :    0.383978
   4 O :   -0.357158
   5 C :   -0.147190
   6 C :    0.121580
   7 C :   -0.333680
   8 N :   -0.133531
   9 C :    0.207788
  10 S :   -0.445644
  11 N :   -0.222765
  12 C :    0.062980
  13 C :    0.060882
  14 C :   -0.197217
  15 C :   -0.133451
  16 C :   -0.276638
  17 C :    0.313987
  18 O :   -0.360690
  19 C :   -0.288755
  20 H :    0.120009
  21 H :    0.108548
  22 H :    0.100698
  23 H :    0.129019
  24 H :    0.087759
  25 H :    0.119185
  26 H :    0.132588
  27 H :    0.124197
  28 H :    0.194663
  29 H :    0.200992
  30 H :    0.168485
  31 H :    0.161999
  32 H :    0.161607
  33 H :    0.131369
  34 H :    0.240936
  35 H :    0.178213
Sum of atomic charges:    0.0000000

LOEWDIN ATOMIC CHARGES
----------------------
   0 C :    0.104511
   1 C :   -0.027440
   2 O :    0.320030
   3 C :   -0.423240
   4 O :    0.146606
   5 C :   -0.076197
   6 C :   -0.113917
   7 C :    0.120511
   8 N :    0.399529
   9 C :   -0.456274
  10 S :   -0.041880
  11 N :    0.398393
  12 C :   -0.040946
  13 C :   -0.040350
  14 C :    0.024674
  15 C :    0.044116
  16 C :   -0.002324
  17 C :   -0.194033
  18 O :    0.394642
  19 C :    0.030378
  20 H :   -0.019357
  21 H :   -0.027478
  22 H :   -0.034475
  23 H :   -0.021879
  24 H :   -0.039417
  25 H :   -0.012405
  26 H :   -0.010726
  27 H :   -0.017495
  28 H :   -0.060056
  29 H :   -0.063576
  30 H :   -0.002299
  31 H :   -0.023228
  32 H :   -0.019432
  33 H :   -0.035516
  34 H :   -0.153942
  35 H :   -0.025507

  Mayer bond orders larger than 0.100000
B(  0-C ,  1-C ) :   0.9661 B(  0-C , 20-H ) :   0.9722 B(  0-C , 21-H ) :   0.9773
B(  0-C , 22-H ) :   0.9723 B(  1-C ,  2-O ) :   0.9117 B(  1-C , 23-H ) :   0.9846
B(  1-C , 24-H ) :   0.9774 B(  2-O ,  3-C ) :   1.0977 B(  3-C ,  4-O ) :   2.0995
B(  3-C ,  5-C ) :   0.9236 B(  5-C ,  6-C ) :   1.7246 B(  5-C , 12-C ) :   0.9585
B(  6-C ,  7-C ) :   0.9344 B(  6-C ,  8-N ) :   1.0963 B(  7-C , 25-H ) :   0.9829
B(  7-C , 26-H ) :   0.9759 B(  7-C , 27-H ) :   0.9662 B(  8-N ,  9-C ) :   1.2014
B(  8-N , 28-H ) :   0.9540 B(  9-C , 10-S ) :   1.6046 B(  9-C , 11-N ) :   1.2844
B( 11-N , 12-C ) :   0.9890 B( 11-N , 29-H ) :   0.9473 B( 12-C , 13-C ) :   0.9495
B( 12-C , 30-H ) :   0.9977 B( 13-C , 14-C ) :   1.3819 B( 13-C , 19-C ) :   1.3370
B( 14-C , 15-C ) :   1.4024 B( 14-C , 31-H ) :   0.9646 B( 15-C , 16-C ) :   1.3588
B( 15-C , 32-H ) :   0.9707 B( 16-C , 17-C ) :   1.3316 B( 16-C , 33-H ) :   0.9850
B( 17-C , 18-O ) :   1.1057 B( 17-C , 19-C ) :   1.3674 B( 18-O , 34-H ) :   0.9799
B( 19-C , 35-H ) :   0.9568

MP2 TOTAL ENERGY:    -1274.311761650 Eh
FINAL SINGLE POINT ENERGY     -1274.311761650191

DIPOLE MOMENT
-------------
                                X             Y             Z
Electronic contribution:      9.67824       6.10287       6.48850
Nuclear contribution   :    -11.17240      -7.35801      -7.44689
                        -----------------------------------------
Total Dipole Moment    :     -1.49416      -1.25514      -0.95839
                        -----------------------------------------
Magnitude (a.u.)       :      2.17403
Magnitude (Debye)      :      5.52594

Rotational constants in cm-1:     0.012256     0.009417     0.006959
Rotational constants in MHz :   367.426948   282.308347   208.629901

                             ****ORCA TERMINATED NORMALLY****
TOTAL RUN TIME: 0 days 1 hours 55 minutes 17 seconds 402 msec
