                         Program Version 5.0.0 -  RELEASE  -
|  1> ! ri-mp2 cc-pvtz cc-pvtz/c TightSCF NoKeepInts
|  2>
|  3> %scf
|  4>   MaxCore 4096
|  5> end
|  6> *xyz  0  1
|  7>     C       14.3327770   15.7591796   16.2935429
|  8>     C       15.5029300   15.2997131   17.1822072
|  9>     O       16.6670469   15.0968929   16.3511993
| 10>     C       17.8749148   15.7372993   16.4956521
| 11>     O       18.8992250   15.1565971   16.1883861
| 12>     C       17.9172039   16.8951843   17.4359225
| 13>     C       17.3412861   18.0855674   17.1559946
| 14>     C       16.6316764   18.4748970   15.8797274
| 15>     N       17.4627687   19.1454158   18.0569973
| 16>     C       18.2143575   19.1121915   19.2031075
| 17>     S       18.3415381   20.4279806   20.1962276
| 18>     N       18.8535616   17.9302870   19.4890061
| 19>     C       18.7260130   16.6795755   18.7140713
| 20>     C       18.1189844   15.5570016   19.5508097
| 21>     C       18.6173556   14.2463925   19.4356586
| 22>     C       18.0482115   13.1956444   20.1739411
| 23>     C       16.9680730   13.4554095   21.0341904
| 24>     C       16.4642080   14.7578465   21.1477304
| 25>     O       15.4113864   15.0099511   21.9651072
| 26>     C       17.0318875   15.8022010   20.4108796
| 27>     H       14.5388627   16.7139072   15.8039933
| 28>     H       13.4218920   15.8747412   16.8936429
| 29>     H       14.1318101   15.0131373   15.5143012
| 30>     H       15.6668481   16.0340132   17.9787755
| 31>     H       15.2393619   14.3493288   17.6648413
| 32>     H       16.6004698   17.6551605   15.1517890
| 33>     H       17.1500665   19.3096114   15.3907381
| 34>     H       15.6011317   18.7918425   16.0802568
| 35>     H       17.0178486   20.0274105   17.8560500
| 36>     H       19.3866283   17.9307003   20.3496453
| 37>     H       19.7385441   16.3698144   18.4150616
| 38>     H       19.4409988   14.0384592   18.7554004
| 39>     H       18.4412424   12.1853884   20.0713990
| 40>     H       16.5239127   12.6455051   21.6036166
| 41>     H       15.2014355   14.1865915   22.4317596
| 42>     H       16.6205412   16.8011607   20.5123706
| 43> *
| 44>
| 45>                          ****END OF INPUT****

CARTESIAN COORDINATES (ANGSTROEM)
---------------------------------
  C     14.332777   15.759180   16.293543
  C     15.502930   15.299713   17.182207
  O     16.667047   15.096893   16.351199
  C     17.874915   15.737299   16.495652
  O     18.899225   15.156597   16.188386
  C     17.917204   16.895184   17.435923
  C     17.341286   18.085567   17.155995
  C     16.631676   18.474897   15.879727
  N     17.462769   19.145416   18.056997
  C     18.214357   19.112192   19.203108
  S     18.341538   20.427981   20.196228
  N     18.853562   17.930287   19.489006
  C     18.726013   16.679575   18.714071
  C     18.118984   15.557002   19.550810
  C     18.617356   14.246393   19.435659
  C     18.048212   13.195644   20.173941
  C     16.968073   13.455410   21.034190
  C     16.464208   14.757846   21.147730
  O     15.411386   15.009951   21.965107
  C     17.031887   15.802201   20.410880
  H     14.538863   16.713907   15.803993
  H     13.421892   15.874741   16.893643
  H     14.131810   15.013137   15.514301
  H     15.666848   16.034013   17.978776
  H     15.239362   14.349329   17.664841
  H     16.600470   17.655161   15.151789
  H     17.150067   19.309611   15.390738
  H     15.601132   18.791843   16.080257
  H     17.017849   20.027410   17.856050
  H     19.386628   17.930700   20.349645
  H     19.738544   16.369814   18.415062
  H     19.440999   14.038459   18.755400
  H     18.441242   12.185388   20.071399
  H     16.523913   12.645505   21.603617
  H     15.201436   14.186592   22.431760
  H     16.620541   16.801161   20.512371

 Total Charge           Charge          ....    0
 Multiplicity           Mult            ....    1
 Number of Electrons    NEL             ....  154
 Basis Dimension        Dim             ....  828

ORBITAL ENERGIES
----------------

  NO   OCC          E(Eh)            E(eV)
   0   2.0000     -91.890331     -2500.4630
   1   2.0000     -20.600920      -560.5795
   2   2.0000     -20.599059      -560.5289
   3   2.0000     -20.551018      -559.2216
   4   2.0000     -15.626781      -425.2263
   5   2.0000     -15.612311      -424.8326
   6   2.0000     -11.398649      -310.1730
   7   2.0000     -11.387252      -309.8629
   8   2.0000     -11.328569      -308.2660
   9   2.0000     -11.317877      -307.9751
  10   2.0000     -11.316193      -307.9293
  11   2.0000     -11.302778      -307.5642
  12   2.0000     -11.268449      -306.6301
  13   2.0000     -11.265326      -306.5451
  14   2.0000     -11.264872      -306.5328
  15   2.0000     -11.257933      -306.3439
  16   2.0000     -11.247167      -306.0510
  17   2.0000     -11.243269      -305.9449
  18   2.0000     -11.240322      -305.8647
  19   2.0000     -11.234619      -305.7095
  20   2.0000      -8.895447      -242.0574
  21   2.0000      -6.577036      -178.9703
  22   2.0000      -6.575009      -178.9151
  23   2.0000      -6.574434      -178.8995
  24   2.0000      -1.446603       -39.3641
  25   2.0000      -1.420733       -38.6601
  26   2.0000      -1.358596       -36.9693
  27   2.0000      -1.340558       -36.4784
  28   2.0000      -1.240536       -33.7567
  29   2.0000      -1.162513       -31.6336
  30   2.0000      -1.126490       -30.6533
  31   2.0000      -1.049925       -28.5699
  32   2.0000      -1.040074       -28.3018
  33   2.0000      -1.020050       -27.7570
  34   2.0000      -1.005864       -27.3710
  35   2.0000      -0.990230       -26.9455
  36   2.0000      -0.928569       -25.2677
  37   2.0000      -0.888320       -24.1724
  38   2.0000      -0.853963       -23.2375
  39   2.0000      -0.842507       -22.9258
  40   2.0000      -0.837943       -22.8016
  41   2.0000      -0.836909       -22.7735
  42   2.0000      -0.756697       -20.5908
  43   2.0000      -0.737261       -20.0619
  44   2.0000      -0.733025       -19.9466
  45   2.0000      -0.698593       -19.0097
  46   2.0000      -0.689223       -18.7547
  47   2.0000      -0.680350       -18.5133
  48   2.0000      -0.677317       -18.4307
  49   2.0000      -0.666494       -18.1362
  50   2.0000      -0.654072       -17.7982
  51   2.0000      -0.640348       -17.4247
  52   2.0000      -0.636337       -17.3156
  53   2.0000      -0.618357       -16.8264
  54   2.0000      -0.610180       -16.6038
  55   2.0000      -0.608179       -16.5494
  56   2.0000      -0.604438       -16.4476
  57   2.0000      -0.588562       -16.0156
  58   2.0000      -0.578931       -15.7535
  59   2.0000      -0.570992       -15.5375
  60   2.0000      -0.566503       -15.4153
  61   2.0000      -0.559716       -15.2307
  62   2.0000      -0.539671       -14.6852
  63   2.0000      -0.536899       -14.6098
  64   2.0000      -0.523686       -14.2502
  65   2.0000      -0.516600       -14.0574
  66   2.0000      -0.503318       -13.6960
  67   2.0000      -0.498789       -13.5727
  68   2.0000      -0.488998       -13.3063
  69   2.0000      -0.471222       -12.8226
  70   2.0000      -0.454381       -12.3643
  71   2.0000      -0.448833       -12.2134
  72   2.0000      -0.357251        -9.7213
  73   2.0000      -0.352628        -9.5955
  74   2.0000      -0.330035        -8.9807
  75   2.0000      -0.325745        -8.8640
  76   2.0000      -0.319186        -8.6855
  77   0.0000       0.086367         2.3502
  78   0.0000       0.103856         2.8261
  79   0.0000       0.115007         3.1295
  80   0.0000       0.127496         3.4693
  81   0.0000       0.129241         3.5168

MULLIKEN ATOMIC CHARGES
-----------------------
   0 C :   -0.272238
   1 C :    0.017928
   2 O :   -0.322707
   3 C :    0.398429
   4 O :   -0.379647
   5 C :   -0.188700
   6 C :    0.145223
   7 C :   -0.340570
   8 N :   -0.137118
   9 C :    0.204740
  10 S :   -0.440925
  11 N :   -0.218980
  12 C :    0.081197
  13 C :    0.017078
  14 C :   -0.195625
  15 C :   -0.131622
  16 C :   -0.276357
  17 C :    0.318478
  18 O :   -0.356566
  19 C :   -0.285583
  20 H :    0.088227
  21 H :    0.096618
  22 H :    0.109609
  23 H :    0.098807
  24 H :    0.126789
  25 H :    0.124802
  26 H :    0.149076
  27 H :    0.119456
  28 H :    0.196441
  29 H :    0.200033
  30 H :    0.164650
  31 H :    0.169035
  32 H :    0.164427
  33 H :    0.133005
  34 H :    0.241906
  35 H :    0.180685
Sum of atomic charges:    0.0000000

LOEWDIN ATOMIC CHARGES
----------------------
   0 C :    0.106045
   1 C :   -0.015128
   2 O :    0.303361
   3 C :   -0.416318
   4 O :    0.125451
   5 C :   -0.081589
   6 C :   -0.103293
   7 C :    0.124136
   8 N :    0.401577
   9 C :   -0.455890
  10 S :   -0.037806
  11 N :    0.397308
  12 C :   -0.044201
  13 C :   -0.043824
  14 C :    0.022745
  15 C :    0.045960
  16 C :   -0.000141
  17 C :   -0.193972
  18 O :    0.394911
  19 C :    0.026920
  20 H :   -0.035406
  21 H :   -0.024112
  22 H :   -0.023695
  23 H :   -0.040272
  24 H :   -0.022065
  25 H :   -0.009606
  26 H :   -0.008603
  27 H :   -0.017456
  28 H :   -0.057641
  29 H :   -0.063685
  30 H :   -0.002156
  31 H :   -0.021507
  32 H :   -0.018081
  33 H :   -0.034414
  34 H :   -0.152690
  35 H :   -0.024863

  Mayer bond orders larger than 0.100000
B(  0-C ,  1-C ) :   0.9745 B(  0-C , 20-H ) :   0.9780 B(  0-C , 21-H ) :   0.9759
B(  0-C , 22-H ) :   0.9794 B(  1-C ,  2-O ) :   0.8974 B(  1-C , 23-H ) :   0.9587
B(  1-C , 24-H ) :   0.9802 B(  2-O ,  3-C ) :   1.1849 B(  3-C ,  4-O ) :   2.0951
B(  3-C ,  5-C ) :   0.9180 B(  5-C ,  6-C ) :   1.6924 B(  5-C , 12-C ) :   0.9575
B(  6-C ,  7-C ) :   0.9453 B(  6-C ,  8-N ) :   1.1131 B(  7-C , 25-H ) :   0.9815
B(  7-C , 26-H ) :   0.9662 B(  7-C , 27-H ) :   0.9679 B(  8-N ,  9-C ) :   1.1973
B(  8-N , 28-H ) :   0.9523 B(  9-C , 10-S ) :   1.6112 B(  9-C , 11-N ) :   1.2861
B( 11-N , 12-C ) :   0.9956 B( 11-N , 29-H ) :   0.9482 B( 12-C , 13-C ) :   0.9415
B( 12-C , 30-H ) :   0.9976 B( 13-C , 14-C ) :   1.3887 B( 13-C , 19-C ) :   1.3406
B( 14-C , 15-C ) :   1.3982 B( 14-C , 31-H ) :   0.9609 B( 15-C , 16-C ) :   1.3629
B( 15-C , 32-H ) :   0.9696 B( 16-C , 17-C ) :   1.3291 B( 16-C , 33-H ) :   0.9842
B( 17-C , 18-O ) :   1.1115 B( 17-C , 19-C ) :   1.3677 B( 18-O , 34-H ) :   0.9790
B( 19-C , 35-H ) :   0.9561

MP2 TOTAL ENERGY:    -1274.330735015 Eh
FINAL SINGLE POINT ENERGY     -1274.330735014840

DIPOLE MOMENT
-------------
                                X             Y             Z
Electronic contribution:     11.18767       5.46830       7.74864
Nuclear contribution   :    -12.68146      -6.55772      -8.01828
                        -----------------------------------------
Total Dipole Moment    :     -1.49379      -1.08943      -0.26964
                        -----------------------------------------
Magnitude (a.u.)       :      1.86841
Magnitude (Debye)      :      4.74913

Rotational constants in cm-1:     0.011581     0.009243     0.006851
Rotational constants in MHz :   347.187889   277.096281   205.372998

                             ****ORCA TERMINATED NORMALLY****
TOTAL RUN TIME: 0 days 2 hours 5 minutes 27 seconds 966 msec
