                         Program Version 5.0.0 -  RELEASE  -
|  1> ! ri-mp2 cc-pvtz cc-pvtz/c TightSCF NoKeepInts
|  2>
|  3> %scf
|  4>   MaxCore 4096
|  5> end
|  6> *xyz  0  1
|  7>     C       15.3962256   14.0339711   17.1892844
|  8>     C       16.4859720   14.0659144   16.1011147
|  9>     O       17.4762666   15.0558738   16.4428128
| 10>     C       17.2003728   16.3761438   16.2175119
| 11>     O       16.4462267   16.7270366   15.3258671
| 12>     C       17.6534295   17.2697788   17.3400814
| 13>     C       17.3677111   18.5970152   17.3744768
| 14>     C       16.5479627   19.3878304   16.3772057
| 15>     N       17.8899525   19.3995308   18.3935630
| 16>     C       18.8266565   18.9918031   19.3054819
| 17>     S       19.5071862   20.0387307   20.3903242
| 18>     N       19.1822715   17.6678758   19.2640036
| 19>     C       18.5068832   16.6384440   18.4533881
| 20>     C       17.7015970   15.7276552   19.3747238
| 21>     C       18.1760571   14.4400625   19.6887816
| 22>     C       17.4556166   13.6048758   20.5594942
| 23>     C       16.2509963   14.0608531   21.1217800
| 24>     C       15.7782243   15.3442876   20.8151262
| 25>     O       14.6163546   15.7879572   21.3572502
| 26>     C       16.4987406   16.1743184   19.9508574
| 27>     H       15.8210705   13.7418423   18.1555970
| 28>     H       14.6179861   13.3068364   16.9286195
| 29>     H       14.9196496   15.0160617   17.2998169
| 30>     H       16.9635453   13.0791255   16.0509989
| 31>     H       16.0420364   14.2739385   15.1178472
| 32>     H       15.5280267   18.9874892   16.3136219
| 33>     H       16.9890121   19.3198037   15.3745742
| 34>     H       16.4700302   20.4511156   16.6324560
| 35>     H       17.6456255   20.3761863   18.4321221
| 36>     H       19.8514525   17.3895357   19.9699674
| 37>     H       19.2880366   16.0350001   17.9699221
| 38>     H       19.1072042   14.0850501   19.2553963
| 39>     H       17.8311180   12.6108082   20.7961738
| 40>     H       15.6908710   13.4197028   21.7944867
| 41>     H       14.2942365   15.1004166   21.9593282
| 42>     H       16.1223957   17.1691291   19.7399425
| 43> *
| 44>
| 45>                          ****END OF INPUT****

CARTESIAN COORDINATES (ANGSTROEM)
---------------------------------
  C     15.396226   14.033971   17.189284
  C     16.485972   14.065914   16.101115
  O     17.476267   15.055874   16.442813
  C     17.200373   16.376144   16.217512
  O     16.446227   16.727037   15.325867
  C     17.653429   17.269779   17.340081
  C     17.367711   18.597015   17.374477
  C     16.547963   19.387830   16.377206
  N     17.889952   19.399531   18.393563
  C     18.826656   18.991803   19.305482
  S     19.507186   20.038731   20.390324
  N     19.182271   17.667876   19.264004
  C     18.506883   16.638444   18.453388
  C     17.701597   15.727655   19.374724
  C     18.176057   14.440062   19.688782
  C     17.455617   13.604876   20.559494
  C     16.250996   14.060853   21.121780
  C     15.778224   15.344288   20.815126
  O     14.616355   15.787957   21.357250
  C     16.498741   16.174318   19.950857
  H     15.821070   13.741842   18.155597
  H     14.617986   13.306836   16.928619
  H     14.919650   15.016062   17.299817
  H     16.963545   13.079125   16.050999
  H     16.042036   14.273938   15.117847
  H     15.528027   18.987489   16.313622
  H     16.989012   19.319804   15.374574
  H     16.470030   20.451116   16.632456
  H     17.645626   20.376186   18.432122
  H     19.851452   17.389536   19.969967
  H     19.288037   16.035000   17.969922
  H     19.107204   14.085050   19.255396
  H     17.831118   12.610808   20.796174
  H     15.690871   13.419703   21.794487
  H     14.294236   15.100417   21.959328
  H     16.122396   17.169129   19.739943

 Total Charge           Charge          ....    0
 Multiplicity           Mult            ....    1
 Number of Electrons    NEL             ....  154
 Basis Dimension        Dim             ....  828

ORBITAL ENERGIES
----------------

  NO   OCC          E(Eh)            E(eV)
   0   2.0000     -91.889482     -2500.4399
   1   2.0000     -20.598662      -560.5181
   2   2.0000     -20.594957      -560.4173
   3   2.0000     -20.542865      -558.9998
   4   2.0000     -15.630045      -425.3151
   5   2.0000     -15.608562      -424.7306
   6   2.0000     -11.394572      -310.0621
   7   2.0000     -11.384347      -309.7838
   8   2.0000     -11.336977      -308.4948
   9   2.0000     -11.315895      -307.9212
  10   2.0000     -11.309896      -307.7579
  11   2.0000     -11.294320      -307.3341
  12   2.0000     -11.261320      -306.4361
  13   2.0000     -11.259732      -306.3929
  14   2.0000     -11.257461      -306.3311
  15   2.0000     -11.252659      -306.2004
  16   2.0000     -11.244960      -305.9909
  17   2.0000     -11.239779      -305.8499
  18   2.0000     -11.239538      -305.8434
  19   2.0000     -11.220418      -305.3231
  20   2.0000      -8.894525      -242.0323
  21   2.0000      -6.576096      -178.9447
  22   2.0000      -6.574096      -178.8902
  23   2.0000      -6.573506      -178.8742
  24   2.0000      -1.449452       -39.4416
  25   2.0000      -1.418306       -38.5941
  26   2.0000      -1.352783       -36.8111
  27   2.0000      -1.341023       -36.4911
  28   2.0000      -1.239382       -33.7253
  29   2.0000      -1.159162       -31.5424
  30   2.0000      -1.120851       -30.4999
  31   2.0000      -1.043691       -28.4003
  32   2.0000      -1.033041       -28.1105
  33   2.0000      -1.017018       -27.6745
  34   2.0000      -0.996545       -27.1174
  35   2.0000      -0.984829       -26.7986
  36   2.0000      -0.923630       -25.1333
  37   2.0000      -0.892609       -24.2891
  38   2.0000      -0.847698       -23.0670
  39   2.0000      -0.839767       -22.8512
  40   2.0000      -0.835392       -22.7322
  41   2.0000      -0.814440       -22.1620
  42   2.0000      -0.755301       -20.5528
  43   2.0000      -0.733709       -19.9652
  44   2.0000      -0.722809       -19.6686
  45   2.0000      -0.697859       -18.9897
  46   2.0000      -0.689632       -18.7658
  47   2.0000      -0.677922       -18.4472
  48   2.0000      -0.669240       -18.2110
  49   2.0000      -0.665150       -18.0996
  50   2.0000      -0.648640       -17.6504
  51   2.0000      -0.643186       -17.5020
  52   2.0000      -0.635132       -17.2828
  53   2.0000      -0.609473       -16.5846
  54   2.0000      -0.605386       -16.4734
  55   2.0000      -0.600656       -16.3447
  56   2.0000      -0.599759       -16.3203
  57   2.0000      -0.579340       -15.7646
  58   2.0000      -0.571111       -15.5407
  59   2.0000      -0.566401       -15.4126
  60   2.0000      -0.556075       -15.1316
  61   2.0000      -0.545022       -14.8308
  62   2.0000      -0.535499       -14.5717
  63   2.0000      -0.529043       -14.3960
  64   2.0000      -0.527028       -14.3412
  65   2.0000      -0.513874       -13.9832
  66   2.0000      -0.503145       -13.6913
  67   2.0000      -0.499586       -13.5944
  68   2.0000      -0.477589       -12.9959
  69   2.0000      -0.464441       -12.6381
  70   2.0000      -0.452869       -12.3232
  71   2.0000      -0.445254       -12.1160
  72   2.0000      -0.355836        -9.6828
  73   2.0000      -0.351458        -9.5637
  74   2.0000      -0.329029        -8.9533
  75   2.0000      -0.323797        -8.8110
  76   2.0000      -0.316744        -8.6191
  77   0.0000       0.073434         1.9982
  78   0.0000       0.104987         2.8568
  79   0.0000       0.122963         3.3460
  80   0.0000       0.131331         3.5737
  81   0.0000       0.136201         3.7062

MULLIKEN ATOMIC CHARGES
-----------------------
   0 C :   -0.313273
   1 C :    0.027895
   2 O :   -0.370180
   3 C :    0.457661
   4 O :   -0.427604
   5 C :   -0.228343
   6 C :    0.153274
   7 C :   -0.269719
   8 N :   -0.123390
   9 C :    0.214207
  10 S :   -0.439288
  11 N :   -0.204901
  12 C :    0.053201
  13 C :    0.069853
  14 C :   -0.190113
  15 C :   -0.132212
  16 C :   -0.280749
  17 C :    0.312874
  18 O :   -0.358415
  19 C :   -0.254686
  20 H :    0.106301
  21 H :    0.110500
  22 H :    0.106793
  23 H :    0.109394
  24 H :    0.119731
  25 H :    0.130672
  26 H :    0.132749
  27 H :    0.095019
  28 H :    0.198134
  29 H :    0.194061
  30 H :    0.150340
  31 H :    0.149208
  32 H :    0.161435
  33 H :    0.131379
  34 H :    0.241420
  35 H :    0.166774
Sum of atomic charges:   -0.0000000

LOEWDIN ATOMIC CHARGES
----------------------
   0 C :    0.105131
   1 C :   -0.016205
   2 O :    0.297538
   3 C :   -0.415785
   4 O :    0.101302
   5 C :   -0.095787
   6 C :   -0.058107
   7 C :    0.131240
   8 N :    0.407103
   9 C :   -0.455786
  10 S :   -0.034512
  11 N :    0.396553
  12 C :   -0.052505
  13 C :   -0.036543
  14 C :    0.011595
  15 C :    0.039855
  16 C :   -0.002599
  17 C :   -0.189205
  18 O :    0.396289
  19 C :    0.033166
  20 H :   -0.026651
  21 H :   -0.026619
  22 H :   -0.027296
  23 H :   -0.025468
  24 H :   -0.028668
  25 H :   -0.005163
  26 H :   -0.003468
  27 H :   -0.023353
  28 H :   -0.057489
  29 H :   -0.065165
  30 H :   -0.008720
  31 H :   -0.030004
  32 H :   -0.020766
  33 H :   -0.035356
  34 H :   -0.153325
  35 H :   -0.025226

  Mayer bond orders larger than 0.100000
B(  0-C ,  1-C ) :   0.9600 B(  0-C , 20-H ) :   0.9725 B(  0-C , 21-H ) :   0.9781
B(  0-C , 22-H ) :   0.9743 B(  1-C ,  2-O ) :   0.8858 B(  1-C , 23-H ) :   0.9849
B(  1-C , 24-H ) :   0.9798 B(  2-O ,  3-C ) :   1.1394 B(  3-C ,  4-O ) :   1.9805
B(  3-C ,  5-C ) :   1.0638 B(  5-C ,  6-C ) :   1.6525 B(  5-C , 12-C ) :   0.9738
B(  6-C ,  7-C ) :   0.9683 B(  6-C ,  8-N ) :   1.1609 B(  7-C , 25-H ) :   0.9612
B(  7-C , 26-H ) :   0.9590 B(  7-C , 27-H ) :   0.9901 B(  8-N ,  9-C ) :   1.1813
B(  8-N , 28-H ) :   0.9478 B(  9-C , 10-S ) :   1.6070 B(  9-C , 11-N ) :   1.3066
B( 11-N , 12-C ) :   0.9731 B( 11-N , 29-H ) :   0.9528 B( 12-C , 13-C ) :   0.9407
B( 12-C , 30-H ) :   1.0030 B( 13-C , 14-C ) :   1.3527 B( 13-C , 19-C ) :   1.3744
B( 14-C , 15-C ) :   1.3897 B( 14-C , 31-H ) :   0.9731 B( 15-C , 16-C ) :   1.3602
B( 15-C , 32-H ) :   0.9716 B( 16-C , 17-C ) :   1.3317 B( 16-C , 33-H ) :   0.9852
B( 17-C , 18-O ) :   1.1117 B( 17-C , 19-C ) :   1.3710 B( 18-O , 34-H ) :   0.9794
B( 19-C , 35-H ) :   0.9577

MP2 TOTAL ENERGY:    -1274.346246848 Eh
FINAL SINGLE POINT ENERGY     -1274.346246848338

DIPOLE MOMENT
-------------
                                X             Y             Z
Electronic contribution:      8.96563      10.23359       5.79873
Nuclear contribution   :     -9.82532     -11.94521      -5.99120
                        -----------------------------------------
Total Dipole Moment    :     -0.85969      -1.71162      -0.19247
                        -----------------------------------------
Magnitude (a.u.)       :      1.92503
Magnitude (Debye)      :      4.89304

Rotational constants in cm-1:     0.012330     0.009071     0.006498
Rotational constants in MHz :   369.639293   271.927025   194.796046

                             ****ORCA TERMINATED NORMALLY****
TOTAL RUN TIME: 0 days 2 hours 0 minutes 26 seconds 131 msec
