                         Program Version 4.2.0 -  RELEASE  -
|  1> ! ri-mp2 cc-pvtz cc-pvtz/c TightSCF  NoKeepInts
|  2>
|  3> %scf
|  4>   MaxCore 4096
|  5> end
|  6> *xyz  0  1
|  7>     C       15.0115408   14.1415008   15.7913745
|  8>     C       16.1709787   14.0890563   16.8082613
|  9>     O       17.1751537   15.1085251   16.5888075
| 10>     C       16.8805607   16.4404176   16.4601824
| 11>     O       16.0079260   16.8600690   15.7213911
| 12>     C       17.6112527   17.2895098   17.4663135
| 13>     C       17.4683836   18.6389325   17.5197843
| 14>     C       16.5958272   19.5066550   16.6378246
| 15>     N       18.2014926   19.3864894   18.4462575
| 16>     C       19.1702043   18.8811527   19.2711160
| 17>     S       20.0610780   19.8506530   20.2722596
| 18>     N       19.3693166   17.5254569   19.2215363
| 19>     C       18.5425136   16.5723202   18.4597404
| 20>     C       17.7774619   15.6761434   19.4293828
| 21>     C       18.1696900   14.3375660   19.6189909
| 22>     C       17.4632712   13.5038401   20.5021221
| 23>     C       16.3585009   14.0136669   21.2052768
| 24>     C       15.9707786   15.3486026   21.0258918
| 25>     O       14.9061114   15.8444396   21.7049514
| 26>     C       16.6745990   16.1753955   20.1449536
| 27>     H       14.3355501   14.9796612   16.0005964
| 28>     H       14.4192768   13.2201066   15.8419301
| 29>     H       15.3941790   14.2458860   14.7682789
| 30>     H       15.7584272   14.1906444   17.8209102
| 31>     H       16.6538404   13.1054604   16.7476871
| 32>     H       15.5385163   19.2383380   16.7592969
| 33>     H       16.8500892   19.3612747   15.5801400
| 34>     H       16.6934014   20.5765537   16.8559395
| 35>     H       18.0709717   20.3843721   18.4939505
| 36>     H       20.0660957   17.1784668   19.8679781
| 37>     H       19.2266552   15.9426490   17.8734602
| 38>     H       19.0222001   13.9403596   19.0742254
| 39>     H       17.7738671   12.4696552   20.6417076
| 40>     H       15.8108120   13.3743914   21.8901047
| 41>     H       14.5840868   15.1463539   22.2949148
| 42>     H       16.3623895   17.2074347   20.0264613
| 43> *
| 44>
| 45>                          ****END OF INPUT****

CARTESIAN COORDINATES (ANGSTROEM)
---------------------------------
  C     15.011541   14.141501   15.791374
  C     16.170979   14.089056   16.808261
  O     17.175154   15.108525   16.588808
  C     16.880561   16.440418   16.460182
  O     16.007926   16.860069   15.721391
  C     17.611253   17.289510   17.466313
  C     17.468384   18.638932   17.519784
  C     16.595827   19.506655   16.637825
  N     18.201493   19.386489   18.446258
  C     19.170204   18.881153   19.271116
  S     20.061078   19.850653   20.272260
  N     19.369317   17.525457   19.221536
  C     18.542514   16.572320   18.459740
  C     17.777462   15.676143   19.429383
  C     18.169690   14.337566   19.618991
  C     17.463271   13.503840   20.502122
  C     16.358501   14.013667   21.205277
  C     15.970779   15.348603   21.025892
  O     14.906111   15.844440   21.704951
  C     16.674599   16.175396   20.144954
  H     14.335550   14.979661   16.000596
  H     14.419277   13.220107   15.841930
  H     15.394179   14.245886   14.768279
  H     15.758427   14.190644   17.820910
  H     16.653840   13.105460   16.747687
  H     15.538516   19.238338   16.759297
  H     16.850089   19.361275   15.580140
  H     16.693401   20.576554   16.855940
  H     18.070972   20.384372   18.493951
  H     20.066096   17.178467   19.867978
  H     19.226655   15.942649   17.873460
  H     19.022200   13.940360   19.074225
  H     17.773867   12.469655   20.641708
  H     15.810812   13.374391   21.890105
  H     14.584087   15.146354   22.294915
  H     16.362389   17.207435   20.026461

 Total Charge           Charge          ....    0
 Multiplicity           Mult            ....    1
 Number of Electrons    NEL             ....  154
 Basis Dimension        Dim             ....  828

ORBITAL ENERGIES
----------------

  NO   OCC          E(Eh)            E(eV)
   0   2.0000     -91.889216     -2500.4327
   1   2.0000     -20.600037      -560.5555
   2   2.0000     -20.588822      -560.2503
   3   2.0000     -20.544141      -559.0345
   4   2.0000     -15.629409      -425.2979
   5   2.0000     -15.608613      -424.7319
   6   2.0000     -11.395528      -310.0881
   7   2.0000     -11.384242      -309.7810
   8   2.0000     -11.336076      -308.4703
   9   2.0000     -11.317735      -307.9712
  10   2.0000     -11.309601      -307.7499
  11   2.0000     -11.298708      -307.4535
  12   2.0000     -11.262668      -306.4728
  13   2.0000     -11.258934      -306.3712
  14   2.0000     -11.258176      -306.3505
  15   2.0000     -11.252436      -306.1944
  16   2.0000     -11.246546      -306.0341
  17   2.0000     -11.241552      -305.8982
  18   2.0000     -11.241088      -305.8856
  19   2.0000     -11.217914      -305.2550
  20   2.0000      -8.894281      -242.0257
  21   2.0000      -6.575856      -178.9381
  22   2.0000      -6.573851      -178.8836
  23   2.0000      -6.573264      -178.8676
  24   2.0000      -1.443332       -39.2751
  25   2.0000      -1.419703       -38.6321
  26   2.0000      -1.353521       -36.8312
  27   2.0000      -1.340532       -36.4777
  28   2.0000      -1.239163       -33.7193
  29   2.0000      -1.160521       -31.5794
  30   2.0000      -1.120402       -30.4877
  31   2.0000      -1.044524       -28.4230
  32   2.0000      -1.032175       -28.0869
  33   2.0000      -1.018588       -27.7172
  34   2.0000      -0.995904       -27.0999
  35   2.0000      -0.984195       -26.7813
  36   2.0000      -0.923759       -25.1368
  37   2.0000      -0.890682       -24.2367
  38   2.0000      -0.848238       -23.0817
  39   2.0000      -0.840579       -22.8733
  40   2.0000      -0.837007       -22.7761
  41   2.0000      -0.821880       -22.3645
  42   2.0000      -0.748378       -20.3644
  43   2.0000      -0.733264       -19.9531
  44   2.0000      -0.718394       -19.5485
  45   2.0000      -0.698564       -19.0089
  46   2.0000      -0.689093       -18.7512
  47   2.0000      -0.678193       -18.4546
  48   2.0000      -0.668504       -18.1909
  49   2.0000      -0.660151       -17.9636
  50   2.0000      -0.650516       -17.7014
  51   2.0000      -0.646279       -17.5862
  52   2.0000      -0.636517       -17.3205
  53   2.0000      -0.610324       -16.6078
  54   2.0000      -0.604237       -16.4421
  55   2.0000      -0.600375       -16.3370
  56   2.0000      -0.597619       -16.2620
  57   2.0000      -0.580435       -15.7944
  58   2.0000      -0.574161       -15.6237
  59   2.0000      -0.570821       -15.5328
  60   2.0000      -0.562821       -15.3151
  61   2.0000      -0.539236       -14.6733
  62   2.0000      -0.534382       -14.5413
  63   2.0000      -0.527079       -14.3426
  64   2.0000      -0.521209       -14.1828
  65   2.0000      -0.513970       -13.9858
  66   2.0000      -0.502477       -13.6731
  67   2.0000      -0.496177       -13.5017
  68   2.0000      -0.484231       -13.1766
  69   2.0000      -0.463442       -12.6109
  70   2.0000      -0.453836       -12.3495
  71   2.0000      -0.439722       -11.9654
  72   2.0000      -0.354685        -9.6515
  73   2.0000      -0.352552        -9.5934
  74   2.0000      -0.329152        -8.9567
  75   2.0000      -0.324911        -8.8413
  76   2.0000      -0.316769        -8.6197
  77   0.0000       0.073196         1.9918
  78   0.0000       0.102954         2.8015
  79   0.0000       0.123851         3.3702
  80   0.0000       0.130707         3.5567
  81   0.0000       0.135487         3.6868

MULLIKEN ATOMIC CHARGES
-----------------------
   0 C :   -0.274742
   1 C :    0.036894
   2 O :   -0.385175
   3 C :    0.478853
   4 O :   -0.419090
   5 C :   -0.247840
   6 C :    0.161435
   7 C :   -0.269633
   8 N :   -0.123260
   9 C :    0.214464
  10 S :   -0.440649
  11 N :   -0.207763
  12 C :    0.074785
  13 C :    0.024038
  14 C :   -0.168182
  15 C :   -0.132838
  16 C :   -0.279509
  17 C :    0.310806
  18 O :   -0.355891
  19 C :   -0.253448
  20 H :    0.106827
  21 H :    0.092137
  22 H :    0.104097
  23 H :    0.098799
  24 H :    0.101502
  25 H :    0.130746
  26 H :    0.131796
  27 H :    0.095296
  28 H :    0.197425
  29 H :    0.195049
  30 H :    0.149307
  31 H :    0.150057
  32 H :    0.162186
  33 H :    0.132546
  34 H :    0.241404
  35 H :    0.167572
Sum of atomic charges:   -0.0000000

LOEWDIN ATOMIC CHARGES
----------------------
   0 C :    0.103323
   1 C :   -0.015881
   2 O :    0.288193
   3 C :   -0.412649
   4 O :    0.115411
   5 C :   -0.096995
   6 C :   -0.058676
   7 C :    0.131096
   8 N :    0.406748
   9 C :   -0.456016
  10 S :   -0.035693
  11 N :    0.396192
  12 C :   -0.052481
  13 C :   -0.037774
  14 C :    0.014729
  15 C :    0.040134
  16 C :   -0.002771
  17 C :   -0.190426
  18 O :    0.396266
  19 C :    0.029778
  20 H :   -0.028036
  21 H :   -0.029917
  22 H :   -0.023863
  23 H :   -0.029715
  24 H :   -0.024228
  25 H :   -0.005149
  26 H :   -0.003743
  27 H :   -0.023405
  28 H :   -0.057539
  29 H :   -0.064903
  30 H :   -0.010062
  31 H :   -0.029585
  32 H :   -0.020505
  33 H :   -0.034982
  34 H :   -0.153136
  35 H :   -0.023739

  Mayer bond orders larger than 0.100000
B(  0-C ,  1-C ) :   0.9834 B(  0-C , 20-H ) :   0.9728 B(  0-C , 21-H ) :   0.9757
B(  0-C , 22-H ) :   0.9761 B(  1-C ,  2-O ) :   0.8889 B(  1-C , 23-H ) :   0.9683
B(  1-C , 24-H ) :   0.9814 B(  2-O ,  3-C ) :   1.0986 B(  3-C ,  4-O ) :   1.9964
B(  3-C ,  5-C ) :   1.0760 B(  5-C ,  6-C ) :   1.6497 B(  5-C , 12-C ) :   0.9722
B(  6-C ,  7-C ) :   0.9662 B(  6-C ,  8-N ) :   1.1604 B(  7-C , 25-H ) :   0.9600
B(  7-C , 26-H ) :   0.9601 B(  7-C , 27-H ) :   0.9908 B(  8-N ,  9-C ) :   1.1836
B(  8-N , 28-H ) :   0.9476 B(  9-C , 10-S ) :   1.6051 B(  9-C , 11-N ) :   1.3075
B( 11-N , 12-C ) :   0.9768 B( 11-N , 29-H ) :   0.9517 B( 12-C , 13-C ) :   0.9375
B( 12-C , 30-H ) :   1.0012 B( 13-C , 14-C ) :   1.3553 B( 13-C , 19-C ) :   1.3827
B( 14-C , 15-C ) :   1.3926 B( 14-C , 31-H ) :   0.9738 B( 15-C , 16-C ) :   1.3623
B( 15-C , 32-H ) :   0.9705 B( 16-C , 17-C ) :   1.3301 B( 16-C , 33-H ) :   0.9844
B( 17-C , 18-O ) :   1.1130 B( 17-C , 19-C ) :   1.3704 B( 18-O , 34-H ) :   0.9792
B( 19-C , 35-H ) :   0.9579

MP2 TOTAL ENERGY:    -1274.336172484 Eh
FINAL SINGLE POINT ENERGY     -1274.336172483589

DIPOLE MOMENT
-------------
                                X             Y             Z
Electronic contribution:     10.32359       9.80514       7.85354
Nuclear contribution   :    -11.31087     -11.47663      -7.92137
                        -----------------------------------------
Total Dipole Moment    :     -0.98728      -1.67149      -0.06784
                        -----------------------------------------
Magnitude (a.u.)       :      1.94247
Magnitude (Debye)      :      4.93738

Rotational constants in cm-1:     0.012175     0.008728     0.006257
Rotational constants in MHz :   365.010341   261.664814   187.590708

                             ****ORCA TERMINATED NORMALLY****
TOTAL RUN TIME: 0 days 1 hours 49 minutes 14 seconds 702 msec
