                         Program Version 4.2.0 -  RELEASE  -
|  1> ! ri-mp2 cc-pvtz cc-pvtz/c TightSCF  NoKeepInts
|  2>
|  3> %scf
|  4>   MaxCore 4096
|  5> end
|  6> *xyz  0  1
|  7>     C       15.9485252   12.9648039   16.3161834
|  8>     C       15.7784893   14.3974015   15.7831986
|  9>     O       16.4759629   15.2699773   16.6873413
| 10>     C       16.1013228   16.5807184   16.7932324
| 11>     O       15.1375974   17.0311393   16.1968179
| 12>     C       17.1176519   17.4101223   17.5289289
| 13>     C       17.0352742   18.7624489   17.6115635
| 14>     C       15.9658116   19.6542794   17.0179430
| 15>     N       18.0268102   19.4859020   18.2810778
| 16>     C       19.1687934   18.9470347   18.8105976
| 17>     S       20.3353720   19.8863613   19.5124701
| 18>     N       19.2974214   17.5840573   18.7293133
| 19>     C       18.2633781   16.6601114   18.2280787
| 20>     C       17.7522914   15.7844420   19.3685747
| 21>     C       17.9618108   14.3926629   19.3496877
| 22>     C       17.4883042   13.5838494   20.3964230
| 23>     C       16.8023689   14.1714283   21.4730749
| 24>     C       16.5951871   15.5574858   21.4969957
| 25>     O       15.9333507   16.1277331   22.5351979
| 26>     C       17.0670632   16.3597446   20.4534781
| 27>     H       17.0082359   12.6824147   16.3358606
| 28>     H       15.4134257   12.2507397   15.6784750
| 29>     H       15.5491106   12.8829031   17.3351002
| 30>     H       16.1809320   14.4915538   14.7661817
| 31>     H       14.7057161   14.6343030   15.7599360
| 32>     H       15.9346477   19.5452305   15.9263930
| 33>     H       16.1203684   20.7164936   17.2406389
| 34>     H       14.9760227   19.3769721   17.4027478
| 35>     H       17.9497138   20.4880603   18.3501154
| 36>     H       20.1314030   17.2119599   19.1650805
| 37>     H       18.7438819   16.0125833   17.4813167
| 38>     H       18.4851622   13.9350479   18.5145758
| 39>     H       17.6519208   12.5080180   20.3705133
| 40>     H       16.4344710   13.5510880   22.2836375
| 41>     H       15.7073654   15.4218999   23.1592692
| 42>     H       16.9018359   17.4310282   20.4939795
| 43> *
| 44>
| 45>                          ****END OF INPUT****

CARTESIAN COORDINATES (ANGSTROEM)
---------------------------------
  C     15.948525   12.964804   16.316183
  C     15.778489   14.397402   15.783199
  O     16.475963   15.269977   16.687341
  C     16.101323   16.580718   16.793232
  O     15.137597   17.031139   16.196818
  C     17.117652   17.410122   17.528929
  C     17.035274   18.762449   17.611563
  C     15.965812   19.654279   17.017943
  N     18.026810   19.485902   18.281078
  C     19.168793   18.947035   18.810598
  S     20.335372   19.886361   19.512470
  N     19.297421   17.584057   18.729313
  C     18.263378   16.660111   18.228079
  C     17.752291   15.784442   19.368575
  C     17.961811   14.392663   19.349688
  C     17.488304   13.583849   20.396423
  C     16.802369   14.171428   21.473075
  C     16.595187   15.557486   21.496996
  O     15.933351   16.127733   22.535198
  C     17.067063   16.359745   20.453478
  H     17.008236   12.682415   16.335861
  H     15.413426   12.250740   15.678475
  H     15.549111   12.882903   17.335100
  H     16.180932   14.491554   14.766182
  H     14.705716   14.634303   15.759936
  H     15.934648   19.545230   15.926393
  H     16.120368   20.716494   17.240639
  H     14.976023   19.376972   17.402748
  H     17.949714   20.488060   18.350115
  H     20.131403   17.211960   19.165080
  H     18.743882   16.012583   17.481317
  H     18.485162   13.935048   18.514576
  H     17.651921   12.508018   20.370513
  H     16.434471   13.551088   22.283637
  H     15.707365   15.421900   23.159269
  H     16.901836   17.431028   20.493979

 Total Charge           Charge          ....    0
 Multiplicity           Mult            ....    1
 Number of Electrons    NEL             ....  154
 Basis Dimension        Dim             ....  828

ORBITAL ENERGIES
----------------

  NO   OCC          E(Eh)            E(eV)
   0   2.0000     -91.888442     -2500.4116
   1   2.0000     -20.602626      -560.6259
   2   2.0000     -20.595181      -560.4234
   3   2.0000     -20.541843      -558.9720
   4   2.0000     -15.628519      -425.2736
   5   2.0000     -15.607799      -424.7098
   6   2.0000     -11.394909      -310.0712
   7   2.0000     -11.383536      -309.7618
   8   2.0000     -11.335467      -308.4537
   9   2.0000     -11.312191      -307.8204
  10   2.0000     -11.308117      -307.7095
  11   2.0000     -11.296762      -307.4005
  12   2.0000     -11.258823      -306.3681
  13   2.0000     -11.258184      -306.3508
  14   2.0000     -11.253559      -306.2249
  15   2.0000     -11.251575      -306.1709
  16   2.0000     -11.241981      -305.9099
  17   2.0000     -11.237509      -305.7882
  18   2.0000     -11.237003      -305.7744
  19   2.0000     -11.231025      -305.6117
  20   2.0000      -8.893509      -242.0047
  21   2.0000      -6.575085      -178.9172
  22   2.0000      -6.573079      -178.8626
  23   2.0000      -6.572494      -178.8466
  24   2.0000      -1.452621       -39.5278
  25   2.0000      -1.414864       -38.5004
  26   2.0000      -1.355096       -36.8740
  27   2.0000      -1.339514       -36.4500
  28   2.0000      -1.237954       -33.6865
  29   2.0000      -1.156529       -31.4708
  30   2.0000      -1.119858       -30.4729
  31   2.0000      -1.043514       -28.3955
  32   2.0000      -1.039804       -28.2945
  33   2.0000      -1.013806       -27.5871
  34   2.0000      -0.995229       -27.0815
  35   2.0000      -0.983992       -26.7758
  36   2.0000      -0.921759       -25.0823
  37   2.0000      -0.889253       -24.1978
  38   2.0000      -0.846192       -23.0260
  39   2.0000      -0.836397       -22.7595
  40   2.0000      -0.832780       -22.6611
  41   2.0000      -0.817464       -22.2443
  42   2.0000      -0.765559       -20.8319
  43   2.0000      -0.730992       -19.8913
  44   2.0000      -0.720983       -19.6190
  45   2.0000      -0.694966       -18.9110
  46   2.0000      -0.688296       -18.7295
  47   2.0000      -0.679577       -18.4922
  48   2.0000      -0.673106       -18.3161
  49   2.0000      -0.665425       -18.1071
  50   2.0000      -0.645717       -17.5709
  51   2.0000      -0.644224       -17.5302
  52   2.0000      -0.634827       -17.2745
  53   2.0000      -0.605383       -16.4733
  54   2.0000      -0.600453       -16.3392
  55   2.0000      -0.597808       -16.2672
  56   2.0000      -0.593270       -16.1437
  57   2.0000      -0.577915       -15.7259
  58   2.0000      -0.570188       -15.5156
  59   2.0000      -0.568176       -15.4609
  60   2.0000      -0.562530       -15.3072
  61   2.0000      -0.550100       -14.9690
  62   2.0000      -0.538371       -14.6498
  63   2.0000      -0.525020       -14.2865
  64   2.0000      -0.523855       -14.2548
  65   2.0000      -0.512817       -13.9545
  66   2.0000      -0.502162       -13.6645
  67   2.0000      -0.497904       -13.5486
  68   2.0000      -0.484733       -13.1902
  69   2.0000      -0.463063       -12.6006
  70   2.0000      -0.460232       -12.5236
  71   2.0000      -0.447988       -12.1904
  72   2.0000      -0.353766        -9.6265
  73   2.0000      -0.348437        -9.4815
  74   2.0000      -0.327758        -8.9188
  75   2.0000      -0.319838        -8.7032
  76   2.0000      -0.315407        -8.5827
  77   0.0000       0.076466         2.0807
  78   0.0000       0.107459         2.9241
  79   0.0000       0.124527         3.3885
  80   0.0000       0.132972         3.6183
  81   0.0000       0.136780         3.7220

MULLIKEN ATOMIC CHARGES
-----------------------
   0 C :   -0.284470
   1 C :    0.038304
   2 O :   -0.341887
   3 C :    0.466094
   4 O :   -0.432746
   5 C :   -0.219050
   6 C :    0.148834
   7 C :   -0.273400
   8 N :   -0.120375
   9 C :    0.209752
  10 S :   -0.440383
  11 N :   -0.203355
  12 C :    0.044371
  13 C :    0.060853
  14 C :   -0.174616
  15 C :   -0.134211
  16 C :   -0.278413
  17 C :    0.315675
  18 O :   -0.356935
  19 C :   -0.267215
  20 H :    0.090255
  21 H :    0.104569
  22 H :    0.106480
  23 H :    0.089541
  24 H :    0.107923
  25 H :    0.131417
  26 H :    0.094661
  27 H :    0.131401
  28 H :    0.197330
  29 H :    0.194532
  30 H :    0.149291
  31 H :    0.150790
  32 H :    0.160116
  33 H :    0.129544
  34 H :    0.240422
  35 H :    0.164900
Sum of atomic charges:   -0.0000000

LOEWDIN ATOMIC CHARGES
----------------------
   0 C :    0.105365
   1 C :   -0.014758
   2 O :    0.309949
   3 C :   -0.411729
   4 O :    0.095961
   5 C :   -0.094419
   6 C :   -0.059274
   7 C :    0.131386
   8 N :    0.406394
   9 C :   -0.456973
  10 S :   -0.036013
  11 N :    0.396656
  12 C :   -0.053287
  13 C :   -0.040060
  14 C :    0.016657
  15 C :    0.039415
  16 C :   -0.000990
  17 C :   -0.189814
  18 O :    0.394900
  19 C :    0.031757
  20 H :   -0.031243
  21 H :   -0.024566
  22 H :   -0.024143
  23 H :   -0.031256
  24 H :   -0.027055
  25 H :   -0.004057
  26 H :   -0.023514
  27 H :   -0.004554
  28 H :   -0.057651
  29 H :   -0.064447
  30 H :   -0.012520
  31 H :   -0.031052
  32 H :   -0.021729
  33 H :   -0.035604
  34 H :   -0.154143
  35 H :   -0.023592

  Mayer bond orders larger than 0.100000
B(  0-C ,  1-C ) :   0.9726 B(  0-C , 20-H ) :   0.9788 B(  0-C , 21-H ) :   0.9787
B(  0-C , 22-H ) :   0.9736 B(  1-C ,  2-O ) :   0.9029 B(  1-C , 23-H ) :   0.9796
B(  1-C , 24-H ) :   0.9768 B(  2-O ,  3-C ) :   1.1754 B(  3-C ,  4-O ) :   1.9728
B(  3-C ,  5-C ) :   1.0594 B(  5-C ,  6-C ) :   1.6550 B(  5-C , 12-C ) :   0.9720
B(  6-C ,  7-C ) :   0.9678 B(  6-C ,  8-N ) :   1.1624 B(  7-C , 25-H ) :   0.9593
B(  7-C , 26-H ) :   0.9902 B(  7-C , 27-H ) :   0.9617 B(  8-N ,  9-C ) :   1.1834
B(  8-N , 28-H ) :   0.9479 B(  9-C , 10-S ) :   1.6077 B(  9-C , 11-N ) :   1.3046
B( 11-N , 12-C ) :   0.9892 B( 11-N , 29-H ) :   0.9513 B( 12-C , 13-C ) :   0.9373
B( 12-C , 30-H ) :   1.0041 B( 13-C , 14-C ) :   1.3597 B( 13-C , 19-C ) :   1.3805
B( 14-C , 15-C ) :   1.3922 B( 14-C , 31-H ) :   0.9699 B( 15-C , 16-C ) :   1.3636
B( 15-C , 32-H ) :   0.9705 B( 16-C , 17-C ) :   1.3311 B( 16-C , 33-H ) :   0.9852
B( 17-C , 18-O ) :   1.1093 B( 17-C , 19-C ) :   1.3738 B( 18-O , 34-H ) :   0.9801
B( 19-C , 35-H ) :   0.9583

MP2 TOTAL ENERGY:    -1274.349882607 Eh
FINAL SINGLE POINT ENERGY     -1274.349882607215

DIPOLE MOMENT
-------------
                                X             Y             Z
Electronic contribution:      8.46063      12.05383       7.34879
Nuclear contribution   :     -9.46822     -13.78487      -7.73103
                        -----------------------------------------
Total Dipole Moment    :     -1.00759      -1.73104      -0.38224
                        -----------------------------------------
Magnitude (a.u.)       :      2.03908
Magnitude (Debye)      :      5.18292

Rotational constants in cm-1:     0.011394     0.008560     0.006096
Rotational constants in MHz :   341.588867   256.634639   182.743604

                             ****ORCA TERMINATED NORMALLY****
TOTAL RUN TIME: 0 days 1 hours 38 minutes 34 seconds 797 msec
