                         Program Version 4.2.0 -  RELEASE  -
|  1> ! ri-mp2 cc-pvtz cc-pvtz/c TightSCF  NoKeepInts
|  2>
|  3> %scf
|  4>   MaxCore 4096
|  5> end
|  6> *xyz  0  1
|  7>     C       16.1373699   13.1134067   17.2771774
|  8>     C       15.8435389   14.4511841   16.5773724
|  9>     O       17.0940251   15.0816352   16.2486284
| 10>     C       17.0743632   16.4333059   16.0633065
| 11>     O       16.3187635   16.9139228   15.2374200
| 12>     C       17.6576016   17.2223087   17.2051441
| 13>     C       17.5893952   18.5787428   17.2580205
| 14>     C       16.9060426   19.5077161   16.2768880
| 15>     N       18.2544309   19.2721956   18.2742644
| 16>     C       19.1798101   18.7130346   19.1148951
| 17>     S       20.0879706   19.6243525   20.1546211
| 18>     N       19.3334574   17.3529512   19.0280482
| 19>     C       18.4128882   16.4566226   18.3054192
| 20>     C       17.5029243   15.7772775   19.3267372
| 21>     C       17.9892111   14.6739391   20.0541655
| 22>     C       17.1878209   14.0386073   21.0175227
| 23>     C       15.8894378   14.5147115   21.2640577
| 24>     C       15.4072726   15.6242520   20.5574163
| 25>     O       14.1566602   16.0917593   20.7977160
| 26>     C       16.2073538   16.2565303   19.6007053
| 27>     H       16.6987498   12.4471736   16.6106442
| 28>     H       15.2015171   12.6125797   17.5527504
| 29>     H       16.7236287   13.2604722   18.1880251
| 30>     H       15.2518234   14.2880756   15.6666749
| 31>     H       15.2592530   15.0870124   17.2559725
| 32>     H       17.3107009   19.3678595   15.2663286
| 33>     H       17.0238151   20.5667121   16.5348861
| 34>     H       15.8301255   19.2961827   16.2303094
| 35>     H       18.1603484   20.2732255   18.3382697
| 36>     H       20.0087406   16.9659868   19.6740096
| 37>     H       19.0163589   15.6771560   17.8184480
| 38>     H       18.9938941   14.3039182   19.8677419
| 39>     H       17.5739716   13.1837876   21.5704056
| 40>     H       15.2664113   14.0277231   22.0071849
| 41>     H       13.7863792   15.5718245   21.5272276
| 42>     H       15.8109444   17.1238548   19.0855955
| 43> *
| 44>
| 45>                          ****END OF INPUT****

CARTESIAN COORDINATES (ANGSTROEM)
---------------------------------
  C     16.137370   13.113407   17.277177
  C     15.843539   14.451184   16.577372
  O     17.094025   15.081635   16.248628
  C     17.074363   16.433306   16.063306
  O     16.318763   16.913923   15.237420
  C     17.657602   17.222309   17.205144
  C     17.589395   18.578743   17.258020
  C     16.906043   19.507716   16.276888
  N     18.254431   19.272196   18.274264
  C     19.179810   18.713035   19.114895
  S     20.087971   19.624353   20.154621
  N     19.333457   17.352951   19.028048
  C     18.412888   16.456623   18.305419
  C     17.502924   15.777278   19.326737
  C     17.989211   14.673939   20.054165
  C     17.187821   14.038607   21.017523
  C     15.889438   14.514712   21.264058
  C     15.407273   15.624252   20.557416
  O     14.156660   16.091759   20.797716
  C     16.207354   16.256530   19.600705
  H     16.698750   12.447174   16.610644
  H     15.201517   12.612580   17.552750
  H     16.723629   13.260472   18.188025
  H     15.251823   14.288076   15.666675
  H     15.259253   15.087012   17.255972
  H     17.310701   19.367859   15.266329
  H     17.023815   20.566712   16.534886
  H     15.830125   19.296183   16.230309
  H     18.160348   20.273225   18.338270
  H     20.008741   16.965987   19.674010
  H     19.016359   15.677156   17.818448
  H     18.993894   14.303918   19.867742
  H     17.573972   13.183788   21.570406
  H     15.266411   14.027723   22.007185
  H     13.786379   15.571824   21.527228
  H     15.810944   17.123855   19.085596

 Total Charge           Charge          ....    0
 Multiplicity           Mult            ....    1
 Number of Electrons    NEL             ....  154
 Basis Dimension        Dim             ....  828

ORBITAL ENERGIES
----------------

  NO   OCC          E(Eh)            E(eV)
   0   2.0000     -91.890656     -2500.4719
   1   2.0000     -20.602961      -560.6351
   2   2.0000     -20.584437      -560.1310
   3   2.0000     -20.545364      -559.0678
   4   2.0000     -15.631803      -425.3630
   5   2.0000     -15.609561      -424.7578
   6   2.0000     -11.392244      -309.9987
   7   2.0000     -11.385293      -309.8096
   8   2.0000     -11.338782      -308.5440
   9   2.0000     -11.320115      -308.0360
  10   2.0000     -11.312316      -307.8238
  11   2.0000     -11.294067      -307.3272
  12   2.0000     -11.266369      -306.5735
  13   2.0000     -11.261504      -306.4411
  14   2.0000     -11.260190      -306.4054
  15   2.0000     -11.253857      -306.2330
  16   2.0000     -11.248012      -306.0740
  17   2.0000     -11.243589      -305.9536
  18   2.0000     -11.243423      -305.9491
  19   2.0000     -11.222501      -305.3798
  20   2.0000      -8.895681      -242.0638
  21   2.0000      -6.577249      -178.9760
  22   2.0000      -6.575252      -178.9217
  23   2.0000      -6.574660      -178.9056
  24   2.0000      -1.449044       -39.4305
  25   2.0000      -1.422568       -38.7100
  26   2.0000      -1.351254       -36.7695
  27   2.0000      -1.342763       -36.5384
  28   2.0000      -1.241095       -33.7719
  29   2.0000      -1.162601       -31.6360
  30   2.0000      -1.121771       -30.5249
  31   2.0000      -1.046230       -28.4694
  32   2.0000      -1.033205       -28.1149
  33   2.0000      -1.021534       -27.7974
  34   2.0000      -0.998720       -27.1766
  35   2.0000      -0.985836       -26.8260
  36   2.0000      -0.925889       -25.1947
  37   2.0000      -0.880770       -23.9670
  38   2.0000      -0.850486       -23.1429
  39   2.0000      -0.843676       -22.9576
  40   2.0000      -0.837220       -22.7819
  41   2.0000      -0.824801       -22.4440
  42   2.0000      -0.762078       -20.7372
  43   2.0000      -0.736813       -20.0497
  44   2.0000      -0.722705       -19.6658
  45   2.0000      -0.701395       -19.0859
  46   2.0000      -0.691359       -18.8128
  47   2.0000      -0.677313       -18.4306
  48   2.0000      -0.671581       -18.2746
  49   2.0000      -0.662618       -18.0307
  50   2.0000      -0.649233       -17.6665
  51   2.0000      -0.645072       -17.5533
  52   2.0000      -0.639564       -17.4034
  53   2.0000      -0.614822       -16.7302
  54   2.0000      -0.608458       -16.5570
  55   2.0000      -0.603740       -16.4286
  56   2.0000      -0.600808       -16.3488
  57   2.0000      -0.583332       -15.8733
  58   2.0000      -0.573252       -15.5990
  59   2.0000      -0.567192       -15.4341
  60   2.0000      -0.551456       -15.0059
  61   2.0000      -0.544121       -14.8063
  62   2.0000      -0.538959       -14.6658
  63   2.0000      -0.531832       -14.4719
  64   2.0000      -0.515983       -14.0406
  65   2.0000      -0.510085       -13.8801
  66   2.0000      -0.507694       -13.8151
  67   2.0000      -0.500884       -13.6297
  68   2.0000      -0.486131       -13.2283
  69   2.0000      -0.463028       -12.5996
  70   2.0000      -0.457020       -12.4362
  71   2.0000      -0.442946       -12.0532
  72   2.0000      -0.358698        -9.7607
  73   2.0000      -0.355476        -9.6730
  74   2.0000      -0.331196        -9.0123
  75   2.0000      -0.326233        -8.8772
  76   2.0000      -0.318169        -8.6578
  77   0.0000       0.070575         1.9204
  78   0.0000       0.102149         2.7796
  79   0.0000       0.119646         3.2557
  80   0.0000       0.124593         3.3903
  81   0.0000       0.130401         3.5484

MULLIKEN ATOMIC CHARGES
-----------------------
   0 C :   -0.272733
   1 C :    0.022660
   2 O :   -0.378742
   3 C :    0.498667
   4 O :   -0.412858
   5 C :   -0.290305
   6 C :    0.165891
   7 C :   -0.265750
   8 N :   -0.127169
   9 C :    0.224355
  10 S :   -0.441180
  11 N :   -0.210031
  12 C :    0.060780
  13 C :    0.095945
  14 C :   -0.239736
  15 C :   -0.118867
  16 C :   -0.279289
  17 C :    0.327778
  18 O :   -0.357636
  19 C :   -0.284751
  20 H :    0.099726
  21 H :    0.090625
  22 H :    0.105106
  23 H :    0.124198
  24 H :    0.092676
  25 H :    0.133074
  26 H :    0.095579
  27 H :    0.130773
  28 H :    0.197950
  29 H :    0.191254
  30 H :    0.149872
  31 H :    0.153075
  32 H :    0.162109
  33 H :    0.132859
  34 H :    0.242938
  35 H :    0.181155
Sum of atomic charges:   -0.0000000

LOEWDIN ATOMIC CHARGES
----------------------
   0 C :    0.111225
   1 C :   -0.019127
   2 O :    0.287327
   3 C :   -0.420732
   4 O :    0.115359
   5 C :   -0.097964
   6 C :   -0.054781
   7 C :    0.131180
   8 N :    0.409294
   9 C :   -0.453055
  10 S :   -0.034440
  11 N :    0.395565
  12 C :   -0.052646
  13 C :   -0.031844
  14 C :    0.010009
  15 C :    0.044937
  16 C :   -0.001046
  17 C :   -0.189544
  18 O :    0.396074
  19 C :    0.029854
  20 H :   -0.028196
  21 H :   -0.024777
  22 H :   -0.030655
  23 H :   -0.028836
  24 H :   -0.034510
  25 H :   -0.002939
  26 H :   -0.023050
  27 H :   -0.005453
  28 H :   -0.057101
  29 H :   -0.068215
  30 H :   -0.006640
  31 H :   -0.031402
  32 H :   -0.019288
  33 H :   -0.034409
  34 H :   -0.151903
  35 H :   -0.028269

  Mayer bond orders larger than 0.100000
B(  0-C ,  1-C ) :   0.9727 B(  0-C , 20-H ) :   0.9788 B(  0-C , 21-H ) :   0.9777
B(  0-C , 22-H ) :   0.9714 B(  1-C ,  2-O ) :   0.8792 B(  1-C , 23-H ) :   0.9834
B(  1-C , 24-H ) :   0.9692 B(  2-O ,  3-C ) :   1.1187 B(  3-C ,  4-O ) :   2.0046
B(  3-C ,  5-C ) :   1.0632 B(  5-C ,  6-C ) :   1.6392 B(  5-C , 12-C ) :   0.9780
B(  6-C ,  7-C ) :   0.9671 B(  6-C ,  8-N ) :   1.1625 B(  7-C , 25-H ) :   0.9584
B(  7-C , 26-H ) :   0.9902 B(  7-C , 27-H ) :   0.9604 B(  8-N ,  9-C ) :   1.1857
B(  8-N , 28-H ) :   0.9479 B(  9-C , 10-S ) :   1.5983 B(  9-C , 11-N ) :   1.3056
B( 11-N , 12-C ) :   0.9455 B( 11-N , 29-H ) :   0.9523 B( 12-C , 13-C ) :   0.9602
B( 12-C , 30-H ) :   0.9977 B( 13-C , 14-C ) :   1.3500 B( 13-C , 19-C ) :   1.3478
B( 14-C , 15-C ) :   1.4043 B( 14-C , 31-H ) :   0.9738 B( 15-C , 16-C ) :   1.3581
B( 15-C , 32-H ) :   0.9701 B( 16-C , 17-C ) :   1.3401 B( 16-C , 33-H ) :   0.9841
B( 17-C , 18-O ) :   1.1147 B( 17-C , 19-C ) :   1.3525 B( 18-O , 34-H ) :   0.9785
B( 19-C , 35-H ) :   0.9535

MP2 TOTAL ENERGY:    -1274.332962280 Eh
FINAL SINGLE POINT ENERGY     -1274.332962279724

DIPOLE MOMENT
-------------
                                X             Y             Z
Electronic contribution:      8.13145      10.69931       3.80316
Nuclear contribution   :     -9.20207     -12.02524      -3.43532
                        -----------------------------------------
Total Dipole Moment    :     -1.07062      -1.32593       0.36784
                        -----------------------------------------
Magnitude (a.u.)       :      1.74345
Magnitude (Debye)      :      4.43151

Rotational constants in cm-1:     0.012354     0.008923     0.006578
Rotational constants in MHz :   370.349904   267.492828   197.202015

                             ****ORCA TERMINATED NORMALLY****
TOTAL RUN TIME: 0 days 1 hours 44 minutes 32 seconds 166 msec
