                         Program Version 4.2.0 -  RELEASE  -
|  1> ! ri-mp2 cc-pvtz cc-pvtz/c TightSCF  NoKeepInts
|  2>
|  3> %scf
|  4>   MaxCore 4096
|  5> end
|  6> *xyz  0  1
|  7>     C       14.7353689   14.4038868   17.0864458
|  8>     C       15.5355876   15.6572931   16.6979029
|  9>     O       16.7914772   15.1985129   16.1559939
| 10>     C       18.0262016   15.6414029   16.5622508
| 11>     O       18.9822965   14.8894031   16.5198937
| 12>     C       18.0618294   16.8834412   17.3934988
| 13>     C       17.5636929   18.0698726   16.9735037
| 14>     C       16.9461514   18.3753798   15.6258434
| 15>     N       17.6636010   19.1949537   17.7948644
| 16>     C       18.3237402   19.2276235   18.9960217
| 17>     S       18.4403443   20.6175431   19.8838455
| 18>     N       18.8772995   18.0473154   19.4290272
| 19>     C       18.7378786   16.7407760   18.7553668
| 20>     C       17.9640723   15.7477007   19.6173441
| 21>     C       18.4171715   14.4224377   19.7491855
| 22>     C       17.6897203   13.4885324   20.5054710
| 23>     C       16.4950076   13.8806991   21.1325849
| 24>     C       16.0362795   15.1977780   20.9979796
| 25>     O       14.8745929   15.5761028   21.5876744
| 26>     C       16.7630571   16.1259856   20.2458462
| 27>     H       15.2736849   13.8270638   17.8498153
| 28>     H       14.5770559   13.7583519   16.2134694
| 29>     H       13.7557007   14.6810733   17.4940808
| 30>     H       14.9840016   16.2356693   15.9460609
| 31>     H       15.6594081   16.2703687   17.5984718
| 32>     H       17.1038679   17.5650841   14.9032354
| 33>     H       17.3926810   19.2763804   15.1859952
| 34>     H       15.8662345   18.5445552   15.7143764
| 35>     H       17.2763771   20.0744642   17.4902004
| 36>     H       19.3385657   18.0969062   20.3287903
| 37>     H       19.7483335   16.3390989   18.5880239
| 38>     H       19.3286467   14.1094966   19.2440992
| 39>     H       18.0488893   12.4645490   20.5940780
| 40>     H       15.9278811   13.1605576   21.7131391
| 41>     H       14.5537646   14.8225970   22.1062887
| 42>     H       16.3865371   17.1391437   20.1533310
| 43> *
| 44>
| 45>                          ****END OF INPUT****

CARTESIAN COORDINATES (ANGSTROEM)
---------------------------------
  C     14.735369   14.403887   17.086446
  C     15.535588   15.657293   16.697903
  O     16.791477   15.198513   16.155994
  C     18.026202   15.641403   16.562251
  O     18.982297   14.889403   16.519894
  C     18.061829   16.883441   17.393499
  C     17.563693   18.069873   16.973504
  C     16.946151   18.375380   15.625843
  N     17.663601   19.194954   17.794864
  C     18.323740   19.227623   18.996022
  S     18.440344   20.617543   19.883845
  N     18.877299   18.047315   19.429027
  C     18.737879   16.740776   18.755367
  C     17.964072   15.747701   19.617344
  C     18.417171   14.422438   19.749185
  C     17.689720   13.488532   20.505471
  C     16.495008   13.880699   21.132585
  C     16.036279   15.197778   20.997980
  O     14.874593   15.576103   21.587674
  C     16.763057   16.125986   20.245846
  H     15.273685   13.827064   17.849815
  H     14.577056   13.758352   16.213469
  H     13.755701   14.681073   17.494081
  H     14.984002   16.235669   15.946061
  H     15.659408   16.270369   17.598472
  H     17.103868   17.565084   14.903235
  H     17.392681   19.276380   15.185995
  H     15.866234   18.544555   15.714376
  H     17.276377   20.074464   17.490200
  H     19.338566   18.096906   20.328790
  H     19.748334   16.339099   18.588024
  H     19.328647   14.109497   19.244099
  H     18.048889   12.464549   20.594078
  H     15.927881   13.160558   21.713139
  H     14.553765   14.822597   22.106289
  H     16.386537   17.139144   20.153331

 Total Charge           Charge          ....    0
 Multiplicity           Mult            ....    1
 Number of Electrons    NEL             ....  154
 Basis Dimension        Dim             ....  828

ORBITAL ENERGIES
----------------

  NO   OCC          E(Eh)            E(eV)
   0   2.0000     -91.890897     -2500.4784
   1   2.0000     -20.600772      -560.5755
   2   2.0000     -20.600495      -560.5680
   3   2.0000     -20.548325      -559.1484
   4   2.0000     -15.628650      -425.2772
   5   2.0000     -15.612088      -424.8265
   6   2.0000     -11.397411      -310.1393
   7   2.0000     -11.387594      -309.8722
   8   2.0000     -11.331781      -308.3534
   9   2.0000     -11.317298      -307.9593
  10   2.0000     -11.314263      -307.8767
  11   2.0000     -11.303713      -307.5897
  12   2.0000     -11.269000      -306.6451
  13   2.0000     -11.264540      -306.5237
  14   2.0000     -11.263769      -306.5027
  15   2.0000     -11.257034      -306.3195
  16   2.0000     -11.246451      -306.0315
  17   2.0000     -11.243016      -305.9380
  18   2.0000     -11.239533      -305.8433
  19   2.0000     -11.228703      -305.5486
  20   2.0000      -8.896002      -242.0725
  21   2.0000      -6.577586      -178.9852
  22   2.0000      -6.575564      -178.9302
  23   2.0000      -6.574985      -178.9144
  24   2.0000      -1.447219       -39.3808
  25   2.0000      -1.420288       -38.6480
  26   2.0000      -1.358854       -36.9763
  27   2.0000      -1.341414       -36.5017
  28   2.0000      -1.240776       -33.7632
  29   2.0000      -1.161970       -31.6188
  30   2.0000      -1.126116       -30.6432
  31   2.0000      -1.049408       -28.5559
  32   2.0000      -1.038451       -28.2577
  33   2.0000      -1.019298       -27.7365
  34   2.0000      -1.005673       -27.3657
  35   2.0000      -0.989988       -26.9390
  36   2.0000      -0.928344       -25.2615
  37   2.0000      -0.881797       -23.9949
  38   2.0000      -0.856058       -23.2945
  39   2.0000      -0.842618       -22.9288
  40   2.0000      -0.837473       -22.7888
  41   2.0000      -0.836590       -22.7648
  42   2.0000      -0.755202       -20.5501
  43   2.0000      -0.740888       -20.1606
  44   2.0000      -0.731751       -19.9120
  45   2.0000      -0.698617       -19.0103
  46   2.0000      -0.688781       -18.7427
  47   2.0000      -0.680692       -18.5226
  48   2.0000      -0.677670       -18.4403
  49   2.0000      -0.659201       -17.9378
  50   2.0000      -0.659038       -17.9333
  51   2.0000      -0.649524       -17.6744
  52   2.0000      -0.640850       -17.4384
  53   2.0000      -0.611973       -16.6526
  54   2.0000      -0.608780       -16.5658
  55   2.0000      -0.604563       -16.4510
  56   2.0000      -0.597730       -16.2650
  57   2.0000      -0.582638       -15.8544
  58   2.0000      -0.579052       -15.7568
  59   2.0000      -0.571043       -15.5389
  60   2.0000      -0.561703       -15.2847
  61   2.0000      -0.560107       -15.2413
  62   2.0000      -0.548583       -14.9277
  63   2.0000      -0.528004       -14.3677
  64   2.0000      -0.518231       -14.1018
  65   2.0000      -0.515608       -14.0304
  66   2.0000      -0.503120       -13.6906
  67   2.0000      -0.501199       -13.6383
  68   2.0000      -0.489666       -13.3245
  69   2.0000      -0.472251       -12.8506
  70   2.0000      -0.453202       -12.3322
  71   2.0000      -0.450185       -12.2502
  72   2.0000      -0.357288        -9.7223
  73   2.0000      -0.352732        -9.5983
  74   2.0000      -0.330481        -8.9929
  75   2.0000      -0.324860        -8.8399
  76   2.0000      -0.319192        -8.6856
  77   0.0000       0.081340         2.2134
  78   0.0000       0.103200         2.8082
  79   0.0000       0.114750         3.1225
  80   0.0000       0.127322         3.4646
  81   0.0000       0.134713         3.6657

MULLIKEN ATOMIC CHARGES
-----------------------
   0 C :   -0.256695
   1 C :    0.000991
   2 O :   -0.314676
   3 C :    0.405824
   4 O :   -0.386219
   5 C :   -0.203270
   6 C :    0.143751
   7 C :   -0.326145
   8 N :   -0.134538
   9 C :    0.201919
  10 S :   -0.439270
  11 N :   -0.211257
  12 C :    0.073572
  13 C :    0.034966
  14 C :   -0.191595
  15 C :   -0.129079
  16 C :   -0.279734
  17 C :    0.321122
  18 O :   -0.359209
  19 C :   -0.298059
  20 H :    0.108110
  21 H :    0.104964
  22 H :    0.088885
  23 H :    0.103538
  24 H :    0.107134
  25 H :    0.133536
  26 H :    0.136237
  27 H :    0.122137
  28 H :    0.196861
  29 H :    0.197688
  30 H :    0.163058
  31 H :    0.167202
  32 H :    0.164220
  33 H :    0.132604
  34 H :    0.242067
  35 H :    0.179361
Sum of atomic charges:   -0.0000000

LOEWDIN ATOMIC CHARGES
----------------------
   0 C :    0.110464
   1 C :   -0.022258
   2 O :    0.307324
   3 C :   -0.416948
   4 O :    0.121360
   5 C :   -0.086043
   6 C :   -0.096758
   7 C :    0.125856
   8 N :    0.402026
   9 C :   -0.456359
  10 S :   -0.036327
  11 N :    0.397116
  12 C :   -0.044987
  13 C :   -0.043807
  14 C :    0.023422
  15 C :    0.045404
  16 C :   -0.000035
  17 C :   -0.193800
  18 O :    0.394571
  19 C :    0.026557
  20 H :   -0.021927
  21 H :   -0.025685
  22 H :   -0.026015
  23 H :   -0.035315
  24 H :   -0.037503
  25 H :   -0.006865
  26 H :   -0.010496
  27 H :   -0.016985
  28 H :   -0.057411
  29 H :   -0.063538
  30 H :   -0.002543
  31 H :   -0.021658
  32 H :   -0.018427
  33 H :   -0.034622
  34 H :   -0.152749
  35 H :   -0.025038

  Mayer bond orders larger than 0.100000
B(  0-C ,  1-C ) :   0.9852 B(  0-C , 20-H ) :   0.9742 B(  0-C , 21-H ) :   0.9800
B(  0-C , 22-H ) :   0.9766 B(  1-C ,  2-O ) :   0.9016 B(  1-C , 23-H ) :   0.9760
B(  1-C , 24-H ) :   0.9582 B(  2-O ,  3-C ) :   1.1947 B(  3-C ,  4-O ) :   2.0873
B(  3-C ,  5-C ) :   0.9303 B(  5-C ,  6-C ) :   1.6811 B(  5-C , 12-C ) :   0.9596
B(  6-C ,  7-C ) :   0.9408 B(  6-C ,  8-N ) :   1.1237 B(  7-C , 25-H ) :   0.9789
B(  7-C , 26-H ) :   0.9724 B(  7-C , 27-H ) :   0.9654 B(  8-N ,  9-C ) :   1.1918
B(  8-N , 28-H ) :   0.9518 B(  9-C , 10-S ) :   1.6134 B(  9-C , 11-N ) :   1.2896
B( 11-N , 12-C ) :   0.9990 B( 11-N , 29-H ) :   0.9497 B( 12-C , 13-C ) :   0.9408
B( 12-C , 30-H ) :   0.9974 B( 13-C , 14-C ) :   1.3883 B( 13-C , 19-C ) :   1.3417
B( 14-C , 15-C ) :   1.3954 B( 14-C , 31-H ) :   0.9608 B( 15-C , 16-C ) :   1.3627
B( 15-C , 32-H ) :   0.9700 B( 16-C , 17-C ) :   1.3296 B( 16-C , 33-H ) :   0.9846
B( 17-C , 18-O ) :   1.1084 B( 17-C , 19-C ) :   1.3674 B( 18-O , 34-H ) :   0.9790
B( 19-C , 35-H ) :   0.9558

MP2 TOTAL ENERGY:    -1274.336261812 Eh
FINAL SINGLE POINT ENERGY     -1274.336261811904

DIPOLE MOMENT
-------------
                                X             Y             Z
Electronic contribution:     10.48134       8.27131       6.25559
Nuclear contribution   :    -11.99325      -9.19967      -6.63252
                        -----------------------------------------
Total Dipole Moment    :     -1.51191      -0.92836      -0.37693
                        -----------------------------------------
Magnitude (a.u.)       :      1.81378
Magnitude (Debye)      :      4.61026

Rotational constants in cm-1:     0.012332     0.009073     0.006873
Rotational constants in MHz :   369.705424   272.014772   206.056841

                             ****ORCA TERMINATED NORMALLY****
TOTAL RUN TIME: 0 days 1 hours 46 minutes 47 seconds 653 msec
