                         Program Version 5.0.0 -  RELEASE  -
|  1> ! ri-mp2 cc-pvtz cc-pvtz/c TightSCF NoKeepInts
|  2>
|  3> %scf
|  4>   MaxCore 4096
|  5> end
|  6> *xyz  0  1
|  7>     C       14.8835461   16.0320267   17.1606129
|  8>     C       15.7339363   14.7459134   17.1052630
|  9>     O       16.9186822   14.8715496   16.2837702
| 10>     C       17.9115109   15.8224584   16.3147454
| 11>     O       18.7401617   15.8683512   15.4256957
| 12>     C       17.8514679   16.9024855   17.3398836
| 13>     C       17.4474438   18.1470338   16.9970918
| 14>     C       16.8940088   18.5822519   15.6575611
| 15>     N       17.5510322   19.1949875   17.9132636
| 16>     C       18.1532869   19.0989605   19.1400327
| 17>     S       18.2674482   20.3957182   20.1596021
| 18>     N       18.6566530   17.8688889   19.4856377
| 19>     C       18.5331576   16.6331656   18.6861292
| 20>     C       17.8714791   15.5256543   19.4961977
| 21>     C       18.3849857   14.2160307   19.4476090
| 22>     C       17.7825650   13.1840472   20.1864447
| 23>     C       16.6590309   13.4630213   20.9831257
| 24>     C       16.1468268   14.7662532   21.0377444
| 25>     O       15.0570339   15.0372640   21.7982881
| 26>     C       16.7467780   15.7918126   20.3000771
| 27>     H       15.2749394   16.7514186   17.8870816
| 28>     H       13.8628283   15.7860566   17.4781687
| 29>     H       14.8199212   16.5051170   16.1735315
| 30>     H       15.9900196   14.4210134   18.1176850
| 31>     H       15.1163805   13.9480176   16.6730151
| 32>     H       16.6761500   17.7320379   14.9995671
| 33>     H       17.6199102   19.2141011   15.1303122
| 34>     H       15.9637729   19.1512306   15.7740269
| 35>     H       17.2122946   20.1111671   17.6645700
| 36>     H       19.0794799   17.8275137   20.4045728
| 37>     H       19.5557994   16.2998684   18.4562802
| 38>     H       19.2508389   13.9943122   18.8278222
| 39>     H       18.1867104   12.1738352   20.1394735
| 40>     H       16.1908718   12.6681039   21.5548429
| 41>     H       14.8252895   14.2275496   22.2783265
| 42>     H       16.3307584   16.7927827   20.3559482
| 43> *
| 44>
| 45>                          ****END OF INPUT****

CARTESIAN COORDINATES (ANGSTROEM)
---------------------------------
  C     14.883546   16.032027   17.160613
  C     15.733936   14.745913   17.105263
  O     16.918682   14.871550   16.283770
  C     17.911511   15.822458   16.314745
  O     18.740162   15.868351   15.425696
  C     17.851468   16.902486   17.339884
  C     17.447444   18.147034   16.997092
  C     16.894009   18.582252   15.657561
  N     17.551032   19.194987   17.913264
  C     18.153287   19.098961   19.140033
  S     18.267448   20.395718   20.159602
  N     18.656653   17.868889   19.485638
  C     18.533158   16.633166   18.686129
  C     17.871479   15.525654   19.496198
  C     18.384986   14.216031   19.447609
  C     17.782565   13.184047   20.186445
  C     16.659031   13.463021   20.983126
  C     16.146827   14.766253   21.037744
  O     15.057034   15.037264   21.798288
  C     16.746778   15.791813   20.300077
  H     15.274939   16.751419   17.887082
  H     13.862828   15.786057   17.478169
  H     14.819921   16.505117   16.173531
  H     15.990020   14.421013   18.117685
  H     15.116380   13.948018   16.673015
  H     16.676150   17.732038   14.999567
  H     17.619910   19.214101   15.130312
  H     15.963773   19.151231   15.774027
  H     17.212295   20.111167   17.664570
  H     19.079480   17.827514   20.404573
  H     19.555799   16.299868   18.456280
  H     19.250839   13.994312   18.827822
  H     18.186710   12.173835   20.139474
  H     16.190872   12.668104   21.554843
  H     14.825290   14.227550   22.278326
  H     16.330758   16.792783   20.355948

 Total Charge           Charge          ....    0
 Multiplicity           Mult            ....    1
 Number of Electrons    NEL             ....  154
 Basis Dimension        Dim             ....  828

ORBITAL ENERGIES
----------------

  NO   OCC          E(Eh)            E(eV)
   0   2.0000     -91.889258     -2500.4338
   1   2.0000     -20.606825      -560.7402
   2   2.0000     -20.597187      -560.4779
   3   2.0000     -20.549471      -559.1795
   4   2.0000     -15.624325      -425.1595
   5   2.0000     -15.612286      -424.8319
   6   2.0000     -11.397737      -310.1482
   7   2.0000     -11.385950      -309.8275
   8   2.0000     -11.325493      -308.1823
   9   2.0000     -11.323582      -308.1303
  10   2.0000     -11.320067      -308.0347
  11   2.0000     -11.302197      -307.5484
  12   2.0000     -11.272127      -306.7302
  13   2.0000     -11.266778      -306.5846
  14   2.0000     -11.260633      -306.4174
  15   2.0000     -11.259003      -306.3730
  16   2.0000     -11.255070      -306.2660
  17   2.0000     -11.249927      -306.1261
  18   2.0000     -11.249585      -306.1168
  19   2.0000     -11.233183      -305.6704
  20   2.0000      -8.894381      -242.0284
  21   2.0000      -6.575973      -178.9413
  22   2.0000      -6.573943      -178.8861
  23   2.0000      -6.573372      -178.8706
  24   2.0000      -1.442523       -39.2531
  25   2.0000      -1.426613       -38.8201
  26   2.0000      -1.356513       -36.9126
  27   2.0000      -1.338848       -36.4319
  28   2.0000      -1.240218       -33.7480
  29   2.0000      -1.168819       -31.8052
  30   2.0000      -1.125211       -30.6186
  31   2.0000      -1.052601       -28.6427
  32   2.0000      -1.036983       -28.2177
  33   2.0000      -1.026901       -27.9434
  34   2.0000      -1.004853       -27.3434
  35   2.0000      -0.989682       -26.9306
  36   2.0000      -0.929683       -25.2980
  37   2.0000      -0.898096       -24.4384
  38   2.0000      -0.852426       -23.1957
  39   2.0000      -0.846083       -23.0231
  40   2.0000      -0.843907       -22.9639
  41   2.0000      -0.831924       -22.6378
  42   2.0000      -0.751497       -20.4493
  43   2.0000      -0.739935       -20.1347
  44   2.0000      -0.724844       -19.7240
  45   2.0000      -0.705620       -19.2009
  46   2.0000      -0.693256       -18.8645
  47   2.0000      -0.679494       -18.4900
  48   2.0000      -0.676265       -18.4021
  49   2.0000      -0.663105       -18.0440
  50   2.0000      -0.655541       -17.8382
  51   2.0000      -0.647433       -17.6176
  52   2.0000      -0.639147       -17.3921
  53   2.0000      -0.618886       -16.8407
  54   2.0000      -0.614745       -16.7281
  55   2.0000      -0.610163       -16.6034
  56   2.0000      -0.607594       -16.5335
  57   2.0000      -0.585719       -15.9382
  58   2.0000      -0.578864       -15.7517
  59   2.0000      -0.572303       -15.5732
  60   2.0000      -0.567961       -15.4550
  61   2.0000      -0.554200       -15.0806
  62   2.0000      -0.538725       -14.6595
  63   2.0000      -0.536291       -14.5932
  64   2.0000      -0.528636       -14.3849
  65   2.0000      -0.517428       -14.0799
  66   2.0000      -0.505882       -13.7657
  67   2.0000      -0.503554       -13.7024
  68   2.0000      -0.490861       -13.3570
  69   2.0000      -0.464920       -12.6511
  70   2.0000      -0.451796       -12.2940
  71   2.0000      -0.447872       -12.1872
  72   2.0000      -0.359803        -9.7907
  73   2.0000      -0.352858        -9.6018
  74   2.0000      -0.334711        -9.1080
  75   2.0000      -0.328789        -8.9468
  76   2.0000      -0.317463        -8.6386
  77   0.0000       0.089147         2.4258
  78   0.0000       0.098142         2.6706
  79   0.0000       0.118875         3.2348
  80   0.0000       0.125824         3.4239
  81   0.0000       0.129588         3.5263

MULLIKEN ATOMIC CHARGES
-----------------------
   0 C :   -0.337060
   1 C :    0.035569
   2 O :   -0.317237
   3 C :    0.381987
   4 O :   -0.375142
   5 C :   -0.183780
   6 C :    0.141394
   7 C :   -0.315729
   8 N :   -0.134595
   9 C :    0.209801
  10 S :   -0.443614
  11 N :   -0.222198
  12 C :    0.070941
  13 C :   -0.003165
  14 C :   -0.191245
  15 C :   -0.133689
  16 C :   -0.271395
  17 C :    0.313856
  18 O :   -0.354624
  19 C :   -0.267153
  20 H :    0.110186
  21 H :    0.121914
  22 H :    0.109023
  23 H :    0.099863
  24 H :    0.126575
  25 H :    0.121225
  26 H :    0.146042
  27 H :    0.112073
  28 H :    0.197293
  29 H :    0.200321
  30 H :    0.165340
  31 H :    0.158564
  32 H :    0.165305
  33 H :    0.135646
  34 H :    0.242494
  35 H :    0.185216
Sum of atomic charges:    0.0000000

LOEWDIN ATOMIC CHARGES
----------------------
   0 C :    0.102473
   1 C :   -0.014386
   2 O :    0.298739
   3 C :   -0.418899
   4 O :    0.127049
   5 C :   -0.080510
   6 C :   -0.096183
   7 C :    0.127412
   8 N :    0.403206
   9 C :   -0.455633
  10 S :   -0.039339
  11 N :    0.396805
  12 C :   -0.051761
  13 C :   -0.045959
  14 C :    0.016089
  15 C :    0.045909
  16 C :    0.001224
  17 C :   -0.192678
  18 O :    0.398272
  19 C :    0.031102
  20 H :   -0.035857
  21 H :   -0.022127
  22 H :   -0.028723
  23 H :   -0.034504
  24 H :   -0.020047
  25 H :   -0.008642
  26 H :   -0.007284
  27 H :   -0.018411
  28 H :   -0.056722
  29 H :   -0.064796
  30 H :   -0.006082
  31 H :   -0.025386
  32 H :   -0.017317
  33 H :   -0.032870
  34 H :   -0.151627
  35 H :   -0.022538

  Mayer bond orders larger than 0.100000
B(  0-C ,  1-C ) :   0.9539 B(  0-C , 20-H ) :   0.9723 B(  0-C , 21-H ) :   0.9778
B(  0-C , 22-H ) :   0.9750 B(  1-C ,  2-O ) :   0.9061 B(  1-C , 23-H ) :   0.9672
B(  1-C , 24-H ) :   0.9847 B(  2-O ,  3-C ) :   1.2021 B(  3-C ,  4-O ) :   2.1185
B(  3-C ,  5-C ) :   0.8866 B(  5-C ,  6-C ) :   1.7321 B(  5-C , 12-C ) :   0.9508
B(  6-C ,  7-C ) :   0.9541 B(  6-C ,  8-N ) :   1.1123 B(  7-C , 25-H ) :   0.9777
B(  7-C , 26-H ) :   0.9644 B(  7-C , 27-H ) :   0.9713 B(  8-N ,  9-C ) :   1.2063
B(  8-N , 28-H ) :   0.9516 B(  9-C , 10-S ) :   1.6079 B(  9-C , 11-N ) :   1.2796
B( 11-N , 12-C ) :   0.9955 B( 11-N , 29-H ) :   0.9472 B( 12-C , 13-C ) :   0.9350
B( 12-C , 30-H ) :   1.0017 B( 13-C , 14-C ) :   1.3793 B( 13-C , 19-C ) :   1.3481
B( 14-C , 15-C ) :   1.3990 B( 14-C , 31-H ) :   0.9691 B( 15-C , 16-C ) :   1.3633
B( 15-C , 32-H ) :   0.9696 B( 16-C , 17-C ) :   1.3269 B( 16-C , 33-H ) :   0.9835
B( 17-C , 18-O ) :   1.1152 B( 17-C , 19-C ) :   1.3639 B( 18-O , 34-H ) :   0.9781
B( 19-C , 35-H ) :   0.9523

MP2 TOTAL ENERGY:    -1274.327711560 Eh
FINAL SINGLE POINT ENERGY     -1274.327711559650

DIPOLE MOMENT
-------------
                                X             Y             Z
Electronic contribution:      9.28915       5.44175       5.88195
Nuclear contribution   :    -10.68589      -7.10545      -5.60710
                        -----------------------------------------
Total Dipole Moment    :     -1.39674      -1.66370       0.27485
                        -----------------------------------------
Magnitude (a.u.)       :      2.18960
Magnitude (Debye)      :      5.56551

Rotational constants in cm-1:     0.012370     0.009313     0.006715
Rotational constants in MHz :   370.845924   279.205889   201.321744

                             ****ORCA TERMINATED NORMALLY****
TOTAL RUN TIME: 0 days 2 hours 8 minutes 27 seconds 938 msec
