                         Program Version 4.2.0 -  RELEASE  -
|  1> ! ri-mp2 cc-pvtz cc-pvtz/c TightSCF  NoKeepInts
|  2>
|  3> %scf
|  4>   MaxCore 4096
|  5> end
|  6> *xyz  0  1
|  7>     C       15.2152275   13.5618130   16.5416482
|  8>     C       15.7069948   14.9582855   16.9545469
|  9>     O       16.9822294   15.1644250   16.3181612
| 10>     C       17.3767802   16.4457790   16.0712524
| 11>     O       17.0662962   16.9574492   15.0115606
| 12>     C       17.6970122   17.2457727   17.3044800
| 13>     C       17.4082377   18.5680713   17.4060926
| 14>     C       16.5924999   19.4053095   16.4448677
| 15>     N       17.9276249   19.3160397   18.4671302
| 16>     C       18.9250073   18.8831773   19.3011914
| 17>     S       19.6391044   19.8839025   20.4071442
| 18>     N       19.3069225   17.5717987   19.1642950
| 19>     C       18.5729806   16.5662087   18.3728665
| 20>     C       17.8084994   15.6501470   19.3208852
| 21>     C       18.0705468   14.2668835   19.3359780
| 22>     C       17.3656081   13.4151440   20.2028246
| 23>     C       16.3953125   13.9503495   21.0669734
| 24>     C       16.1379874   15.3279072   21.0618797
| 25>     O       15.1991257   15.8473526   21.8917411
| 26>     C       16.8382730   16.1733200   20.1956822
| 27>     H       14.2241378   13.3610789   16.9660148
| 28>     H       15.9062887   12.7890969   16.9006114
| 29>     H       15.1448917   13.4844202   15.4492695
| 30>     H       14.9834514   15.7030545   16.5953882
| 31>     H       15.7596120   15.0305724   18.0432229
| 32>     H       15.6706996   18.8836516   16.1585114
| 33>     H       17.1597996   19.5931869   15.5239801
| 34>     H       16.3021496   20.3751409   16.8655826
| 35>     H       17.6733401   20.2863914   18.5635103
| 36>     H       20.0295655   17.2741695   19.8074490
| 37>     H       19.3188834   15.9567741   17.8431150
| 38>     H       18.8156959   13.8474924   18.6646766
| 39>     H       17.5726412   12.3461273   20.2033490
| 40>     H       15.8489421   13.2958866   21.7384659
| 41>     H       14.8784204   15.1288128   22.4577266
| 42>     H       16.6262106   17.2370079   20.2119258
| 43> *
| 44>
| 45>                          ****END OF INPUT****

CARTESIAN COORDINATES (ANGSTROEM)
---------------------------------
  C     15.215227   13.561813   16.541648
  C     15.706995   14.958285   16.954547
  O     16.982229   15.164425   16.318161
  C     17.376780   16.445779   16.071252
  O     17.066296   16.957449   15.011561
  C     17.697012   17.245773   17.304480
  C     17.408238   18.568071   17.406093
  C     16.592500   19.405309   16.444868
  N     17.927625   19.316040   18.467130
  C     18.925007   18.883177   19.301191
  S     19.639104   19.883903   20.407144
  N     19.306922   17.571799   19.164295
  C     18.572981   16.566209   18.372867
  C     17.808499   15.650147   19.320885
  C     18.070547   14.266883   19.335978
  C     17.365608   13.415144   20.202825
  C     16.395312   13.950349   21.066973
  C     16.137987   15.327907   21.061880
  O     15.199126   15.847353   21.891741
  C     16.838273   16.173320   20.195682
  H     14.224138   13.361079   16.966015
  H     15.906289   12.789097   16.900611
  H     15.144892   13.484420   15.449269
  H     14.983451   15.703054   16.595388
  H     15.759612   15.030572   18.043223
  H     15.670700   18.883652   16.158511
  H     17.159800   19.593187   15.523980
  H     16.302150   20.375141   16.865583
  H     17.673340   20.286391   18.563510
  H     20.029565   17.274169   19.807449
  H     19.318883   15.956774   17.843115
  H     18.815696   13.847492   18.664677
  H     17.572641   12.346127   20.203349
  H     15.848942   13.295887   21.738466
  H     14.878420   15.128813   22.457727
  H     16.626211   17.237008   20.211926

 Total Charge           Charge          ....    0
 Multiplicity           Mult            ....    1
 Number of Electrons    NEL             ....  154
 Basis Dimension        Dim             ....  828

ORBITAL ENERGIES
----------------

  NO   OCC          E(Eh)            E(eV)
   0   2.0000     -91.891788     -2500.5027
   1   2.0000     -20.602161      -560.6133
   2   2.0000     -20.580607      -560.0268
   3   2.0000     -20.553552      -559.2906
   4   2.0000     -15.631100      -425.3438
   5   2.0000     -15.611031      -424.7977
   6   2.0000     -11.392653      -310.0098
   7   2.0000     -11.386447      -309.8410
   8   2.0000     -11.336405      -308.4793
   9   2.0000     -11.320298      -308.0410
  10   2.0000     -11.315281      -307.9045
  11   2.0000     -11.294653      -307.3431
  12   2.0000     -11.265102      -306.5390
  13   2.0000     -11.261461      -306.4399
  14   2.0000     -11.260188      -306.4053
  15   2.0000     -11.254855      -306.2602
  16   2.0000     -11.249651      -306.1186
  17   2.0000     -11.244147      -305.9688
  18   2.0000     -11.243818      -305.9598
  19   2.0000     -11.225744      -305.4680
  20   2.0000      -8.896807      -242.0944
  21   2.0000      -6.578371      -179.0066
  22   2.0000      -6.576377      -178.9523
  23   2.0000      -6.575780      -178.9361
  24   2.0000      -1.448827       -39.4246
  25   2.0000      -1.421922       -38.6925
  26   2.0000      -1.354057       -36.8458
  27   2.0000      -1.342751       -36.5381
  28   2.0000      -1.241519       -33.7834
  29   2.0000      -1.163083       -31.6491
  30   2.0000      -1.122242       -30.5378
  31   2.0000      -1.047494       -28.5038
  32   2.0000      -1.033489       -28.1227
  33   2.0000      -1.021494       -27.7963
  34   2.0000      -1.000110       -27.2144
  35   2.0000      -0.987143       -26.8615
  36   2.0000      -0.926965       -25.2240
  37   2.0000      -0.875520       -23.8241
  38   2.0000      -0.850757       -23.1503
  39   2.0000      -0.844614       -22.9831
  40   2.0000      -0.840009       -22.8578
  41   2.0000      -0.833415       -22.6784
  42   2.0000      -0.760193       -20.6859
  43   2.0000      -0.736688       -20.0463
  44   2.0000      -0.726208       -19.7611
  45   2.0000      -0.701403       -19.0861
  46   2.0000      -0.692201       -18.8358
  47   2.0000      -0.681221       -18.5370
  48   2.0000      -0.673565       -18.3286
  49   2.0000      -0.659092       -17.9348
  50   2.0000      -0.649642       -17.6777
  51   2.0000      -0.646068       -17.5804
  52   2.0000      -0.639626       -17.4051
  53   2.0000      -0.614289       -16.7157
  54   2.0000      -0.610484       -16.6121
  55   2.0000      -0.603963       -16.4347
  56   2.0000      -0.600893       -16.3511
  57   2.0000      -0.582314       -15.8456
  58   2.0000      -0.574410       -15.6305
  59   2.0000      -0.565646       -15.3920
  60   2.0000      -0.556066       -15.1313
  61   2.0000      -0.546068       -14.8593
  62   2.0000      -0.538697       -14.6587
  63   2.0000      -0.530067       -14.4239
  64   2.0000      -0.518564       -14.1109
  65   2.0000      -0.513056       -13.9610
  66   2.0000      -0.506229       -13.7752
  67   2.0000      -0.499411       -13.5897
  68   2.0000      -0.482573       -13.1315
  69   2.0000      -0.469863       -12.7856
  70   2.0000      -0.455508       -12.3950
  71   2.0000      -0.446855       -12.1595
  72   2.0000      -0.359025        -9.7696
  73   2.0000      -0.354132        -9.6364
  74   2.0000      -0.331489        -9.0203
  75   2.0000      -0.328080        -8.9275
  76   2.0000      -0.318956        -8.6792
  77   0.0000       0.069152         1.8817
  78   0.0000       0.101110         2.7514
  79   0.0000       0.119412         3.2494
  80   0.0000       0.126157         3.4329
  81   0.0000       0.130404         3.5485

MULLIKEN ATOMIC CHARGES
-----------------------
   0 C :   -0.261779
   1 C :    0.027962
   2 O :   -0.363444
   3 C :    0.442578
   4 O :   -0.376591
   5 C :   -0.241377
   6 C :    0.152640
   7 C :   -0.273061
   8 N :   -0.125523
   9 C :    0.199847
  10 S :   -0.432680
  11 N :   -0.188934
  12 C :    0.032126
  13 C :    0.027915
  14 C :   -0.159624
  15 C :   -0.140684
  16 C :   -0.269856
  17 C :    0.301251
  18 O :   -0.355984
  19 C :   -0.250902
  20 H :    0.086238
  21 H :    0.093165
  22 H :    0.107368
  23 H :    0.097562
  24 H :    0.116968
  25 H :    0.123966
  26 H :    0.139693
  27 H :    0.094415
  28 H :    0.198385
  29 H :    0.190585
  30 H :    0.147688
  31 H :    0.150041
  32 H :    0.164576
  33 H :    0.134188
  34 H :    0.241581
  35 H :    0.169700
Sum of atomic charges:   -0.0000000

LOEWDIN ATOMIC CHARGES
----------------------
   0 C :    0.111005
   1 C :   -0.017300
   2 O :    0.286799
   3 C :   -0.425204
   4 O :    0.134037
   5 C :   -0.097586
   6 C :   -0.064737
   7 C :    0.129780
   8 N :    0.406005
   9 C :   -0.458419
  10 S :   -0.030945
  11 N :    0.396478
  12 C :   -0.052835
  13 C :   -0.042501
  14 C :    0.015864
  15 C :    0.042811
  16 C :   -0.000523
  17 C :   -0.192062
  18 O :    0.396962
  19 C :    0.030930
  20 H :   -0.026311
  21 H :   -0.028957
  22 H :   -0.023493
  23 H :   -0.032485
  24 H :   -0.037025
  25 H :   -0.007572
  26 H :   -0.003109
  27 H :   -0.022610
  28 H :   -0.057483
  29 H :   -0.064925
  30 H :   -0.006575
  31 H :   -0.028606
  32 H :   -0.019404
  33 H :   -0.033994
  34 H :   -0.152560
  35 H :   -0.023451

  Mayer bond orders larger than 0.100000
B(  0-C ,  1-C ) :   0.9839 B(  0-C , 20-H ) :   0.9760 B(  0-C , 21-H ) :   0.9791
B(  0-C , 22-H ) :   0.9788 B(  1-C ,  2-O ) :   0.8764 B(  1-C , 23-H ) :   0.9784
B(  1-C , 24-H ) :   0.9601 B(  2-O ,  3-C ) :   1.1315 B(  3-C ,  4-O ) :   2.0734
B(  3-C ,  5-C ) :   1.0023 B(  5-C ,  6-C ) :   1.6761 B(  5-C , 12-C ) :   0.9681
B(  6-C ,  7-C ) :   0.9653 B(  6-C ,  8-N ) :   1.1402 B(  7-C , 25-H ) :   0.9690
B(  7-C , 26-H ) :   0.9560 B(  7-C , 27-H ) :   0.9865 B(  8-N ,  9-C ) :   1.1801
B(  8-N , 28-H ) :   0.9491 B(  9-C , 10-S ) :   1.6212 B(  9-C , 11-N ) :   1.2937
B( 11-N , 12-C ) :   0.9908 B( 11-N , 29-H ) :   0.9540 B( 12-C , 13-C ) :   0.9399
B( 12-C , 30-H ) :   1.0082 B( 13-C , 14-C ) :   1.3677 B( 13-C , 19-C ) :   1.3702
B( 14-C , 15-C ) :   1.3862 B( 14-C , 31-H ) :   0.9705 B( 15-C , 16-C ) :   1.3662
B( 15-C , 32-H ) :   0.9697 B( 16-C , 17-C ) :   1.3272 B( 16-C , 33-H ) :   0.9835
B( 17-C , 18-O ) :   1.1151 B( 17-C , 19-C ) :   1.3786 B( 18-O , 34-H ) :   0.9789
B( 19-C , 35-H ) :   0.9565

MP2 TOTAL ENERGY:    -1274.322758137 Eh
FINAL SINGLE POINT ENERGY     -1274.322758137193

DIPOLE MOMENT
-------------
                                X             Y             Z
Electronic contribution:     10.76765      10.03257       6.02664
Nuclear contribution   :    -12.02243     -11.49225      -5.72096
                        -----------------------------------------
Total Dipole Moment    :     -1.25477      -1.45968       0.30568
                        -----------------------------------------
Magnitude (a.u.)       :      1.94899
Magnitude (Debye)      :      4.95394

Rotational constants in cm-1:     0.011994     0.009338     0.006304
Rotational constants in MHz :   359.571304   279.953265   188.982560

                             ****ORCA TERMINATED NORMALLY****
TOTAL RUN TIME: 0 days 1 hours 54 minutes 42 seconds 179 msec
