                         Program Version 5.0.0 -  RELEASE  -
|  1> ! ri-mp2 cc-pvtz cc-pvtz/c TightSCF NoKeepInts
|  2>
|  3> %scf
|  4>   MaxCore 4096
|  5> end
|  6> *xyz  0  1
|  7>     C       14.8764173   16.1989834   17.2405193
|  8>     C       15.6283658   14.8662448   17.0512037
|  9>     O       16.8444812   14.9389575   16.2641010
| 10>     C       17.9486193   15.7469442   16.4110033
| 11>     O       19.0256085   15.3779738   15.9826590
| 12>     C       17.8834704   16.8861487   17.3644671
| 13>     C       17.4326606   18.0993865   16.9749075
| 14>     C       16.9000040   18.4693965   15.6076812
| 15>     N       17.4940534   19.1808629   17.8556599
| 16>     C       18.0620971   19.1380989   19.1025980
| 17>     S       18.1026422   20.4672987   20.0852809
| 18>     N       18.5931254   17.9349026   19.5000963
| 19>     C       18.5554552   16.6800430   18.7217212
| 20>     C       17.9100180   15.5432633   19.5073889
| 21>     C       18.4180484   14.2362742   19.3896800
| 22>     C       17.8244563   13.1713366   20.0873080
| 23>     C       16.7119294   13.4136058   20.9107043
| 24>     C       16.2010212   14.7129365   21.0297441
| 25>     O       15.1190302   14.9483189   21.8131262
| 26>     C       16.7923971   15.7713560   20.3326383
| 27>     H       15.3341302   16.8270087   18.0110773
| 28>     H       13.8521756   15.9942714   17.5756516
| 29>     H       14.8065110   16.7512835   16.2972620
| 30>     H       15.8520181   14.4382239   18.0359719
| 31>     H       14.9515029   14.1613428   16.5513771
| 32>     H       16.7259994   17.5910029   14.9742145
| 33>     H       17.6157631   19.1108247   15.0778908
| 34>     H       15.9493457   19.0113430   15.6834534
| 35>     H       17.1326224   20.0783811   17.5730635
| 36>     H       18.9921128   17.9316539   20.4304812
| 37>     H       19.5975461   16.3898998   18.5206720
| 38>     H       19.2709547   14.0431785   18.7417898
| 39>     H       18.2258097   12.1642142   19.9848496
| 40>     H       16.2498971   12.5931075   21.4501502
| 41>     H       14.8933973   14.1169151   22.2576317
| 42>     H       16.3733127   16.7670163   20.4359752
| 43> *
| 44>
| 45>                          ****END OF INPUT****

CARTESIAN COORDINATES (ANGSTROEM)
---------------------------------
  C     14.876417   16.198983   17.240519
  C     15.628366   14.866245   17.051204
  O     16.844481   14.938958   16.264101
  C     17.948619   15.746944   16.411003
  O     19.025609   15.377974   15.982659
  C     17.883470   16.886149   17.364467
  C     17.432661   18.099387   16.974908
  C     16.900004   18.469396   15.607681
  N     17.494053   19.180863   17.855660
  C     18.062097   19.138099   19.102598
  S     18.102642   20.467299   20.085281
  N     18.593125   17.934903   19.500096
  C     18.555455   16.680043   18.721721
  C     17.910018   15.543263   19.507389
  C     18.418048   14.236274   19.389680
  C     17.824456   13.171337   20.087308
  C     16.711929   13.413606   20.910704
  C     16.201021   14.712936   21.029744
  O     15.119030   14.948319   21.813126
  C     16.792397   15.771356   20.332638
  H     15.334130   16.827009   18.011077
  H     13.852176   15.994271   17.575652
  H     14.806511   16.751283   16.297262
  H     15.852018   14.438224   18.035972
  H     14.951503   14.161343   16.551377
  H     16.725999   17.591003   14.974214
  H     17.615763   19.110825   15.077891
  H     15.949346   19.011343   15.683453
  H     17.132622   20.078381   17.573063
  H     18.992113   17.931654   20.430481
  H     19.597546   16.389900   18.520672
  H     19.270955   14.043178   18.741790
  H     18.225810   12.164214   19.984850
  H     16.249897   12.593107   21.450150
  H     14.893397   14.116915   22.257632
  H     16.373313   16.767016   20.435975

 Total Charge           Charge          ....    0
 Multiplicity           Mult            ....    1
 Number of Electrons    NEL             ....  154
 Basis Dimension        Dim             ....  828

ORBITAL ENERGIES
----------------

  NO   OCC          E(Eh)            E(eV)
   0   2.0000     -91.889533     -2500.4413
   1   2.0000     -20.604271      -560.6707
   2   2.0000     -20.595809      -560.4404
   3   2.0000     -20.550649      -559.2116
   4   2.0000     -15.624785      -425.1720
   5   2.0000     -15.612586      -424.8401
   6   2.0000     -11.398559      -310.1706
   7   2.0000     -11.386639      -309.8462
   8   2.0000     -11.323453      -308.1268
   9   2.0000     -11.322170      -308.0919
  10   2.0000     -11.318218      -307.9844
  11   2.0000     -11.304861      -307.6209
  12   2.0000     -11.269326      -306.6540
  13   2.0000     -11.264970      -306.5354
  14   2.0000     -11.262724      -306.4743
  15   2.0000     -11.261138      -306.4311
  16   2.0000     -11.251488      -306.1686
  17   2.0000     -11.246877      -306.0431
  18   2.0000     -11.244976      -305.9914
  19   2.0000     -11.234332      -305.7017
  20   2.0000      -8.894657      -242.0359
  21   2.0000      -6.576250      -178.9489
  22   2.0000      -6.574219      -178.8936
  23   2.0000      -6.573648      -178.8781
  24   2.0000      -1.442431       -39.2505
  25   2.0000      -1.424091       -38.7515
  26   2.0000      -1.355785       -36.8928
  27   2.0000      -1.338917       -36.4338
  28   2.0000      -1.239917       -33.7399
  29   2.0000      -1.166056       -31.7300
  30   2.0000      -1.126066       -30.6418
  31   2.0000      -1.051595       -28.6153
  32   2.0000      -1.038306       -28.2537
  33   2.0000      -1.023888       -27.8614
  34   2.0000      -1.005707       -27.3667
  35   2.0000      -0.990478       -26.9523
  36   2.0000      -0.929349       -25.2889
  37   2.0000      -0.898113       -24.4389
  38   2.0000      -0.852623       -23.2010
  39   2.0000      -0.843696       -22.9581
  40   2.0000      -0.841192       -22.8900
  41   2.0000      -0.831991       -22.6396
  42   2.0000      -0.750363       -20.4184
  43   2.0000      -0.737149       -20.0588
  44   2.0000      -0.727853       -19.8059
  45   2.0000      -0.702069       -19.1043
  46   2.0000      -0.690702       -18.7950
  47   2.0000      -0.678620       -18.4662
  48   2.0000      -0.676091       -18.3974
  49   2.0000      -0.662699       -18.0330
  50   2.0000      -0.656488       -17.8640
  51   2.0000      -0.647534       -17.6203
  52   2.0000      -0.640183       -17.4203
  53   2.0000      -0.615766       -16.7559
  54   2.0000      -0.609653       -16.5895
  55   2.0000      -0.609320       -16.5804
  56   2.0000      -0.606360       -16.4999
  57   2.0000      -0.587626       -15.9901
  58   2.0000      -0.582945       -15.8627
  59   2.0000      -0.579364       -15.7653
  60   2.0000      -0.568091       -15.4585
  61   2.0000      -0.556078       -15.1317
  62   2.0000      -0.539439       -14.6789
  63   2.0000      -0.534411       -14.5421
  64   2.0000      -0.524112       -14.2618
  65   2.0000      -0.515285       -14.0216
  66   2.0000      -0.504921       -13.7396
  67   2.0000      -0.501082       -13.6351
  68   2.0000      -0.490436       -13.3454
  69   2.0000      -0.465141       -12.6571
  70   2.0000      -0.452930       -12.3249
  71   2.0000      -0.448099       -12.1934
  72   2.0000      -0.357126        -9.7179
  73   2.0000      -0.353296        -9.6137
  74   2.0000      -0.330900        -9.0043
  75   2.0000      -0.328951        -8.9512
  76   2.0000      -0.317893        -8.6503
  77   0.0000       0.091706         2.4954
  78   0.0000       0.101745         2.7686
  79   0.0000       0.119131         3.2417
  80   0.0000       0.124934         3.3996
  81   0.0000       0.127341         3.4651

MULLIKEN ATOMIC CHARGES
-----------------------
   0 C :   -0.340879
   1 C :    0.040360
   2 O :   -0.331283
   3 C :    0.386507
   4 O :   -0.376583
   5 C :   -0.169569
   6 C :    0.128675
   7 C :   -0.329274
   8 N :   -0.138551
   9 C :    0.212641
  10 S :   -0.443522
  11 N :   -0.228652
  12 C :    0.099544
  13 C :   -0.008615
  14 C :   -0.198073
  15 C :   -0.132432
  16 C :   -0.274984
  17 C :    0.317390
  18 O :   -0.356194
  19 C :   -0.274010
  20 H :    0.114000
  21 H :    0.124771
  22 H :    0.105489
  23 H :    0.101292
  24 H :    0.126812
  25 H :    0.119278
  26 H :    0.150105
  27 H :    0.114928
  28 H :    0.196400
  29 H :    0.202576
  30 H :    0.164958
  31 H :    0.168005
  32 H :    0.165861
  33 H :    0.134550
  34 H :    0.242358
  35 H :    0.186120
Sum of atomic charges:    0.0000000

LOEWDIN ATOMIC CHARGES
----------------------
   0 C :    0.102727
   1 C :   -0.012355
   2 O :    0.293051
   3 C :   -0.418091
   4 O :    0.126508
   5 C :   -0.080253
   6 C :   -0.103412
   7 C :    0.124617
   8 N :    0.402149
   9 C :   -0.454795
  10 S :   -0.039425
  11 N :    0.397547
  12 C :   -0.045547
  13 C :   -0.044570
  14 C :    0.020630
  15 C :    0.045766
  16 C :   -0.000328
  17 C :   -0.194039
  18 O :    0.396934
  19 C :    0.027835
  20 H :   -0.034775
  21 H :   -0.020856
  22 H :   -0.030184
  23 H :   -0.029821
  24 H :   -0.019716
  25 H :   -0.010013
  26 H :   -0.007933
  27 H :   -0.017545
  28 H :   -0.057753
  29 H :   -0.064479
  30 H :   -0.003068
  31 H :   -0.021490
  32 H :   -0.017299
  33 H :   -0.033605
  34 H :   -0.152095
  35 H :   -0.024317

  Mayer bond orders larger than 0.100000
B(  0-C ,  1-C ) :   0.9560 B(  0-C , 20-H ) :   0.9702 B(  0-C , 21-H ) :   0.9781
B(  0-C , 22-H ) :   0.9757 B(  1-C ,  2-O ) :   0.9049 B(  1-C , 23-H ) :   0.9684
B(  1-C , 24-H ) :   0.9836 B(  2-O ,  3-C ) :   1.1851 B(  3-C ,  4-O ) :   2.1095
B(  3-C ,  5-C ) :   0.9079 B(  5-C ,  6-C ) :   1.7140 B(  5-C , 12-C ) :   0.9460
B(  6-C ,  7-C ) :   0.9533 B(  6-C ,  8-N ) :   1.1077 B(  7-C , 25-H ) :   0.9799
B(  7-C , 26-H ) :   0.9656 B(  7-C , 27-H ) :   0.9698 B(  8-N ,  9-C ) :   1.2039
B(  8-N , 28-H ) :   0.9523 B(  9-C , 10-S ) :   1.6070 B(  9-C , 11-N ) :   1.2820
B( 11-N , 12-C ) :   0.9962 B( 11-N , 29-H ) :   0.9463 B( 12-C , 13-C ) :   0.9395
B( 12-C , 30-H ) :   0.9979 B( 13-C , 14-C ) :   1.3892 B( 13-C , 19-C ) :   1.3408
B( 14-C , 15-C ) :   1.3995 B( 14-C , 31-H ) :   0.9632 B( 15-C , 16-C ) :   1.3588
B( 15-C , 32-H ) :   0.9694 B( 16-C , 17-C ) :   1.3296 B( 16-C , 33-H ) :   0.9841
B( 17-C , 18-O ) :   1.1130 B( 17-C , 19-C ) :   1.3645 B( 18-O , 34-H ) :   0.9784
B( 19-C , 35-H ) :   0.9515

MP2 TOTAL ENERGY:    -1274.326478509 Eh
FINAL SINGLE POINT ENERGY     -1274.326478508688

DIPOLE MOMENT
-------------
                                X             Y             Z
Electronic contribution:      9.27048       5.15623       5.96967
Nuclear contribution   :    -10.75132      -6.53913      -6.10106
                        -----------------------------------------
Total Dipole Moment    :     -1.48084      -1.38290      -0.13139
                        -----------------------------------------
Magnitude (a.u.)       :      2.03041
Magnitude (Debye)      :      5.16089

Rotational constants in cm-1:     0.012624     0.009215     0.006876
Rotational constants in MHz :   378.462513   276.249579   206.146013

                             ****ORCA TERMINATED NORMALLY****
TOTAL RUN TIME: 0 days 2 hours 46 minutes 5 seconds 901 msec
