                         Program Version 4.2.0 -  RELEASE  -
|  1> ! ri-mp2 cc-pvtz cc-pvtz/c TightSCF  NoKeepInts
|  2>
|  3> %scf
|  4>   MaxCore 4096
|  5> end
|  6> *xyz  0  1
|  7>     C       14.6294853   14.4097247   17.1896292
|  8>     C       15.5870633   15.5306477   16.7552483
|  9>     O       16.9094309   14.9707933   16.7423065
| 10>     C       18.0173233   15.7323057   16.4924535
| 11>     O       19.0562751   15.1592306   16.2242895
| 12>     C       18.0747689   16.9318331   17.3743251
| 13>     C       17.5983348   18.1303261   16.9736073
| 14>     C       16.9598802   18.4427466   15.6378231
| 15>     N       17.7037039   19.2375373   17.8179137
| 16>     C       18.3479365   19.2333703   19.0285658
| 17>     S       18.4703749   20.6015863   19.9490181
| 18>     N       18.8780618   18.0353367   19.4439691
| 19>     C       18.7323850   16.7448278   18.7401092
| 20>     C       17.9560200   15.7381252   19.5824617
| 21>     C       18.4200165   14.4161279   19.7091947
| 22>     C       17.6944588   13.4714124   20.4539321
| 23>     C       16.4915154   13.8496898   21.0740054
| 24>     C       16.0222618   15.1635755   20.9432820
| 25>     O       14.8523446   15.5277428   21.5258307
| 26>     C       16.7472616   16.1029511   20.2036036
| 27>     H       14.9010336   14.0385825   18.1862232
| 28>     H       14.6729268   13.5692434   16.4856837
| 29>     H       13.5963869   14.7754579   17.2286682
| 30>     H       15.3130083   15.8960611   15.7570905
| 31>     H       15.5120198   16.3562345   17.4746657
| 32>     H       17.2119961   17.6955106   14.8750415
| 33>     H       17.3053967   19.4106023   15.2522658
| 34>     H       15.8673366   18.4860809   15.7240072
| 35>     H       17.3300867   20.1281644   17.5293421
| 36>     H       19.3253331   18.0584876   20.3516959
| 37>     H       19.7410801   16.3416730   18.5669298
| 38>     H       19.3376389   14.1146542   19.2090714
| 39>     H       18.0608042   12.4497677   20.5383041
| 40>     H       15.9256300   13.1210161   21.6448397
| 41>     H       14.5336198   14.7670457   22.0349624
| 42>     H       16.3637998   17.1135273   20.1136404
| 43> *
| 44>
| 45>                          ****END OF INPUT****

CARTESIAN COORDINATES (ANGSTROEM)
---------------------------------
  C     14.629485   14.409725   17.189629
  C     15.587063   15.530648   16.755248
  O     16.909431   14.970793   16.742307
  C     18.017323   15.732306   16.492453
  O     19.056275   15.159231   16.224290
  C     18.074769   16.931833   17.374325
  C     17.598335   18.130326   16.973607
  C     16.959880   18.442747   15.637823
  N     17.703704   19.237537   17.817914
  C     18.347936   19.233370   19.028566
  S     18.470375   20.601586   19.949018
  N     18.878062   18.035337   19.443969
  C     18.732385   16.744828   18.740109
  C     17.956020   15.738125   19.582462
  C     18.420016   14.416128   19.709195
  C     17.694459   13.471412   20.453932
  C     16.491515   13.849690   21.074005
  C     16.022262   15.163576   20.943282
  O     14.852345   15.527743   21.525831
  C     16.747262   16.102951   20.203604
  H     14.901034   14.038583   18.186223
  H     14.672927   13.569243   16.485684
  H     13.596387   14.775458   17.228668
  H     15.313008   15.896061   15.757091
  H     15.512020   16.356234   17.474666
  H     17.211996   17.695511   14.875041
  H     17.305397   19.410602   15.252266
  H     15.867337   18.486081   15.724007
  H     17.330087   20.128164   17.529342
  H     19.325333   18.058488   20.351696
  H     19.741080   16.341673   18.566930
  H     19.337639   14.114654   19.209071
  H     18.060804   12.449768   20.538304
  H     15.925630   13.121016   21.644840
  H     14.533620   14.767046   22.034962
  H     16.363800   17.113527   20.113640

 Total Charge           Charge          ....    0
 Multiplicity           Mult            ....    1
 Number of Electrons    NEL             ....  154
 Basis Dimension        Dim             ....  828

ORBITAL ENERGIES
----------------

  NO   OCC          E(Eh)            E(eV)
   0   2.0000     -91.887483     -2500.3855
   1   2.0000     -20.601776      -560.6028
   2   2.0000     -20.599426      -560.5389
   3   2.0000     -20.558235      -559.4180
   4   2.0000     -15.622736      -425.1163
   5   2.0000     -15.610476      -424.7827
   6   2.0000     -11.395054      -310.0752
   7   2.0000     -11.384541      -309.7891
   8   2.0000     -11.321386      -308.0706
   9   2.0000     -11.316109      -307.9270
  10   2.0000     -11.315821      -307.9191
  11   2.0000     -11.304005      -307.5976
  12   2.0000     -11.269354      -306.6547
  13   2.0000     -11.263116      -306.4850
  14   2.0000     -11.262401      -306.4655
  15   2.0000     -11.255849      -306.2872
  16   2.0000     -11.244965      -305.9910
  17   2.0000     -11.240922      -305.8810
  18   2.0000     -11.238537      -305.8161
  19   2.0000     -11.231359      -305.6208
  20   2.0000      -8.892629      -241.9807
  21   2.0000      -6.574227      -178.8938
  22   2.0000      -6.572192      -178.8384
  23   2.0000      -6.571627      -178.8231
  24   2.0000      -1.456068       -39.6216
  25   2.0000      -1.419206       -38.6185
  26   2.0000      -1.363737       -37.1092
  27   2.0000      -1.337036       -36.3826
  28   2.0000      -1.237681       -33.6790
  29   2.0000      -1.160009       -31.5655
  30   2.0000      -1.124233       -30.5919
  31   2.0000      -1.048162       -28.5219
  32   2.0000      -1.040490       -28.3132
  33   2.0000      -1.017614       -27.6907
  34   2.0000      -1.003704       -27.3122
  35   2.0000      -0.987329       -26.8666
  36   2.0000      -0.926780       -25.2190
  37   2.0000      -0.881068       -23.9751
  38   2.0000      -0.853399       -23.2222
  39   2.0000      -0.840146       -22.8615
  40   2.0000      -0.836264       -22.7559
  41   2.0000      -0.835941       -22.7471
  42   2.0000      -0.758948       -20.6520
  43   2.0000      -0.737404       -20.0658
  44   2.0000      -0.730752       -19.8848
  45   2.0000      -0.697977       -18.9929
  46   2.0000      -0.689770       -18.7696
  47   2.0000      -0.683348       -18.5948
  48   2.0000      -0.676885       -18.4190
  49   2.0000      -0.660582       -17.9753
  50   2.0000      -0.657464       -17.8905
  51   2.0000      -0.648201       -17.6384
  52   2.0000      -0.638589       -17.3769
  53   2.0000      -0.611103       -16.6290
  54   2.0000      -0.609563       -16.5871
  55   2.0000      -0.605175       -16.4677
  56   2.0000      -0.601352       -16.3636
  57   2.0000      -0.586537       -15.9605
  58   2.0000      -0.577600       -15.7173
  59   2.0000      -0.566288       -15.4095
  60   2.0000      -0.560516       -15.2524
  61   2.0000      -0.552867       -15.0443
  62   2.0000      -0.547257       -14.8916
  63   2.0000      -0.528330       -14.3766
  64   2.0000      -0.520666       -14.1680
  65   2.0000      -0.513576       -13.9751
  66   2.0000      -0.505080       -13.7439
  67   2.0000      -0.501061       -13.6346
  68   2.0000      -0.489028       -13.3071
  69   2.0000      -0.467274       -12.7152
  70   2.0000      -0.457156       -12.4398
  71   2.0000      -0.452785       -12.3209
  72   2.0000      -0.354676        -9.6512
  73   2.0000      -0.350427        -9.5356
  74   2.0000      -0.327486        -8.9114
  75   2.0000      -0.323204        -8.7948
  76   2.0000      -0.315578        -8.5873
  77   0.0000       0.091844         2.4992
  78   0.0000       0.099624         2.7109
  79   0.0000       0.107394         2.9223
  80   0.0000       0.125993         3.4285
  81   0.0000       0.128717         3.5026

MULLIKEN ATOMIC CHARGES
-----------------------
   0 C :   -0.262001
   1 C :   -0.002678
   2 O :   -0.300421
   3 C :    0.382232
   4 O :   -0.362254
   5 C :   -0.152263
   6 C :    0.116938
   7 C :   -0.322984
   8 N :   -0.133828
   9 C :    0.208275
  10 S :   -0.445585
  11 N :   -0.210586
  12 C :    0.045884
  13 C :    0.041981
  14 C :   -0.178915
  15 C :   -0.128232
  16 C :   -0.278398
  17 C :    0.299607
  18 O :   -0.361231
  19 C :   -0.268644
  20 H :    0.110641
  21 H :    0.104115
  22 H :    0.087325
  23 H :    0.104724
  24 H :    0.098924
  25 H :    0.122348
  26 H :    0.129708
  27 H :    0.123777
  28 H :    0.194539
  29 H :    0.197403
  30 H :    0.165079
  31 H :    0.158865
  32 H :    0.162067
  33 H :    0.133060
  34 H :    0.241808
  35 H :    0.178721
Sum of atomic charges:   -0.0000000

LOEWDIN ATOMIC CHARGES
----------------------
   0 C :    0.113481
   1 C :   -0.032800
   2 O :    0.325985
   3 C :   -0.424040
   4 O :    0.141145
   5 C :   -0.079596
   6 C :   -0.114737
   7 C :    0.123349
   8 N :    0.399028
   9 C :   -0.454833
  10 S :   -0.041521
  11 N :    0.397345
  12 C :   -0.041733
  13 C :   -0.039833
  14 C :    0.024429
  15 C :    0.046269
  16 C :   -0.000958
  17 C :   -0.193933
  18 O :    0.394487
  19 C :    0.028521
  20 H :   -0.022556
  21 H :   -0.025094
  22 H :   -0.025595
  23 H :   -0.037189
  24 H :   -0.038275
  25 H :   -0.010419
  26 H :   -0.011327
  27 H :   -0.016989
  28 H :   -0.060057
  29 H :   -0.063759
  30 H :   -0.002816
  31 H :   -0.023760
  32 H :   -0.018968
  33 H :   -0.035143
  34 H :   -0.153178
  35 H :   -0.024932

  Mayer bond orders larger than 0.100000
B(  0-C ,  1-C ) :   0.9832 B(  0-C , 20-H ) :   0.9742 B(  0-C , 21-H ) :   0.9801
B(  0-C , 22-H ) :   0.9763 B(  1-C ,  2-O ) :   0.9192 B(  1-C , 23-H ) :   0.9768
B(  1-C , 24-H ) :   0.9618 B(  2-O ,  3-C ) :   1.1231 B(  3-C ,  4-O ) :   2.1061
B(  3-C ,  5-C ) :   0.9221 B(  5-C ,  6-C ) :   1.7157 B(  5-C , 12-C ) :   0.9683
B(  6-C ,  7-C ) :   0.9347 B(  6-C ,  8-N ) :   1.1031 B(  7-C , 25-H ) :   0.9821
B(  7-C , 26-H ) :   0.9762 B(  7-C , 27-H ) :   0.9655 B(  8-N ,  9-C ) :   1.2013
B(  8-N , 28-H ) :   0.9536 B(  9-C , 10-S ) :   1.6063 B(  9-C , 11-N ) :   1.2849
B( 11-N , 12-C ) :   0.9991 B( 11-N , 29-H ) :   0.9487 B( 12-C , 13-C ) :   0.9468
B( 12-C , 30-H ) :   0.9980 B( 13-C , 14-C ) :   1.3833 B( 13-C , 19-C ) :   1.3450
B( 14-C , 15-C ) :   1.3969 B( 14-C , 31-H ) :   0.9653 B( 15-C , 16-C ) :   1.3625
B( 15-C , 32-H ) :   0.9706 B( 16-C , 17-C ) :   1.3296 B( 16-C , 33-H ) :   0.9846
B( 17-C , 18-O ) :   1.1051 B( 17-C , 19-C ) :   1.3691 B( 18-O , 34-H ) :   0.9792
B( 19-C , 35-H ) :   0.9564

MP2 TOTAL ENERGY:    -1274.320064989 Eh
FINAL SINGLE POINT ENERGY     -1274.320064988833

DIPOLE MOMENT
-------------
                                X             Y             Z
Electronic contribution:     10.77600       8.09817       6.35271
Nuclear contribution   :    -12.39757      -9.24959      -6.97602
                        -----------------------------------------
Total Dipole Moment    :     -1.62157      -1.15142      -0.62331
                        -----------------------------------------
Magnitude (a.u.)       :      2.08417
Magnitude (Debye)      :      5.29753

Rotational constants in cm-1:     0.012692     0.008955     0.006902
Rotational constants in MHz :   380.504009   268.460216   206.912927

                             ****ORCA TERMINATED NORMALLY****
TOTAL RUN TIME: 0 days 1 hours 53 minutes 54 seconds 388 msec
