                         Program Version 4.2.0 -  RELEASE  -
|  1> ! ri-mp2 cc-pvtz cc-pvtz/c TightSCF  NoKeepInts
|  2>
|  3> %scf
|  4>   MaxCore 4096
|  5> end
|  6> *xyz  0  1
|  7>     C       15.1232499   14.0959098   15.3511790
|  8>     C       16.1720924   13.8940433   16.4657252
|  9>     O       17.0019687   15.0471958   16.7610990
| 10>     C       16.6621346   16.3724408   16.6375647
| 11>     O       15.7429091   16.7861757   15.9544372
| 12>     C       17.4917997   17.2480418   17.5390151
| 13>     C       17.3803397   18.6015049   17.5461966
| 14>     C       16.4574090   19.4529589   16.7002978
| 15>     N       18.2009994   19.3692300   18.3780983
| 16>     C       19.2195225   18.8753836   19.1481702
| 17>     S       20.2061895   19.8643824   20.0338403
| 18>     N       19.3832171   17.5140408   19.1456810
| 19>     C       18.4807945   16.5506726   18.4893980
| 20>     C       17.7640580   15.7162079   19.5475084
| 21>     C       18.0599660   14.3481714   19.6975186
| 22>     C       17.3990889   13.5758130   20.6675266
| 23>     C       16.4366643   14.1765929   21.4968464
| 24>     C       16.1434975   15.5398114   21.3538949
| 25>     O       15.2162607   16.1231037   22.1545116
| 26>     C       16.8024957   16.3056781   20.3873519
| 27>     H       14.3037738   14.7429066   15.6880662
| 28>     H       14.6840050   13.1326993   15.0654786
| 29>     H       15.5800352   14.5380612   14.4568405
| 30>     H       15.6401519   13.6034005   17.3812106
| 31>     H       16.8258311   13.0555079   16.1940144
| 32>     H       15.4082211   19.2162780   16.9191566
| 33>     H       16.6208049   19.2568123   15.6329940
| 34>     H       16.5953397   20.5282822   16.8627325
| 35>     H       18.0958241   20.3710926   18.3918089
| 36>     H       20.1181057   17.1767218   19.7538707
| 37>     H       19.1071186   15.8805857   17.8839305
| 38>     H       18.8012581   13.8808017   19.0549371
| 39>     H       17.6340980   12.5183666   20.7754643
| 40>     H       15.9242387   13.5848406   22.2482285
| 41>     H       14.8973398   15.4477796   22.7717410
| 42>     H       16.5661972   17.3605046   20.2976648
| 43> *
| 44>
| 45>                          ****END OF INPUT****

CARTESIAN COORDINATES (ANGSTROEM)
---------------------------------
  C     15.123250   14.095910   15.351179
  C     16.172092   13.894043   16.465725
  O     17.001969   15.047196   16.761099
  C     16.662135   16.372441   16.637565
  O     15.742909   16.786176   15.954437
  C     17.491800   17.248042   17.539015
  C     17.380340   18.601505   17.546197
  C     16.457409   19.452959   16.700298
  N     18.200999   19.369230   18.378098
  C     19.219522   18.875384   19.148170
  S     20.206189   19.864382   20.033840
  N     19.383217   17.514041   19.145681
  C     18.480794   16.550673   18.489398
  C     17.764058   15.716208   19.547508
  C     18.059966   14.348171   19.697519
  C     17.399089   13.575813   20.667527
  C     16.436664   14.176593   21.496846
  C     16.143497   15.539811   21.353895
  O     15.216261   16.123104   22.154512
  C     16.802496   16.305678   20.387352
  H     14.303774   14.742907   15.688066
  H     14.684005   13.132699   15.065479
  H     15.580035   14.538061   14.456841
  H     15.640152   13.603400   17.381211
  H     16.825831   13.055508   16.194014
  H     15.408221   19.216278   16.919157
  H     16.620805   19.256812   15.632994
  H     16.595340   20.528282   16.862732
  H     18.095824   20.371093   18.391809
  H     20.118106   17.176722   19.753871
  H     19.107119   15.880586   17.883930
  H     18.801258   13.880802   19.054937
  H     17.634098   12.518367   20.775464
  H     15.924239   13.584841   22.248228
  H     14.897340   15.447780   22.771741
  H     16.566197   17.360505   20.297665

 Total Charge           Charge          ....    0
 Multiplicity           Mult            ....    1
 Number of Electrons    NEL             ....  154
 Basis Dimension        Dim             ....  828

ORBITAL ENERGIES
----------------

  NO   OCC          E(Eh)            E(eV)
   0   2.0000     -91.887895     -2500.3967
   1   2.0000     -20.597249      -560.4796
   2   2.0000     -20.596298      -560.4538
   3   2.0000     -20.540625      -558.9388
   4   2.0000     -15.627914      -425.2572
   5   2.0000     -15.607126      -424.6915
   6   2.0000     -11.397769      -310.1491
   7   2.0000     -11.382888      -309.7441
   8   2.0000     -11.334634      -308.4311
   9   2.0000     -11.313432      -307.8541
  10   2.0000     -11.307580      -307.6949
  11   2.0000     -11.302510      -307.5569
  12   2.0000     -11.259174      -306.3777
  13   2.0000     -11.257818      -306.3408
  14   2.0000     -11.254991      -306.2639
  15   2.0000     -11.251146      -306.1592
  16   2.0000     -11.242633      -305.9276
  17   2.0000     -11.237840      -305.7972
  18   2.0000     -11.237727      -305.7941
  19   2.0000     -11.221421      -305.3504
  20   2.0000      -8.892968      -241.9900
  21   2.0000      -6.574546      -178.9025
  22   2.0000      -6.572539      -178.8479
  23   2.0000      -6.571955      -178.8320
  24   2.0000      -1.442647       -39.2564
  25   2.0000      -1.415938       -38.5296
  26   2.0000      -1.354407       -36.8553
  27   2.0000      -1.339019       -36.4366
  28   2.0000      -1.237494       -33.6739
  29   2.0000      -1.156923       -31.4815
  30   2.0000      -1.118827       -30.4448
  31   2.0000      -1.041831       -28.3497
  32   2.0000      -1.035800       -28.1855
  33   2.0000      -1.014642       -27.6098
  34   2.0000      -0.994432       -27.0599
  35   2.0000      -0.982723       -26.7412
  36   2.0000      -0.921551       -25.0767
  37   2.0000      -0.896601       -24.3977
  38   2.0000      -0.846457       -23.0333
  39   2.0000      -0.837476       -22.7889
  40   2.0000      -0.833592       -22.6832
  41   2.0000      -0.818536       -22.2735
  42   2.0000      -0.745578       -20.2882
  43   2.0000      -0.729979       -19.8637
  44   2.0000      -0.717885       -19.5346
  45   2.0000      -0.695222       -18.9180
  46   2.0000      -0.687312       -18.7027
  47   2.0000      -0.676841       -18.4178
  48   2.0000      -0.667788       -18.1714
  49   2.0000      -0.660460       -17.9720
  50   2.0000      -0.650395       -17.6982
  51   2.0000      -0.644114       -17.5272
  52   2.0000      -0.634691       -17.2708
  53   2.0000      -0.606522       -16.5043
  54   2.0000      -0.600239       -16.3333
  55   2.0000      -0.598342       -16.2817
  56   2.0000      -0.596450       -16.2302
  57   2.0000      -0.582512       -15.8509
  58   2.0000      -0.575350       -15.6561
  59   2.0000      -0.570041       -15.5116
  60   2.0000      -0.561511       -15.2795
  61   2.0000      -0.538454       -14.6521
  62   2.0000      -0.535039       -14.5592
  63   2.0000      -0.523997       -14.2587
  64   2.0000      -0.523211       -14.2373
  65   2.0000      -0.512232       -13.9385
  66   2.0000      -0.501341       -13.6422
  67   2.0000      -0.498466       -13.5639
  68   2.0000      -0.483822       -13.1655
  69   2.0000      -0.462953       -12.5976
  70   2.0000      -0.451747       -12.2927
  71   2.0000      -0.439235       -11.9522
  72   2.0000      -0.352965        -9.6047
  73   2.0000      -0.348889        -9.4938
  74   2.0000      -0.327386        -8.9086
  75   2.0000      -0.321029        -8.7356
  76   2.0000      -0.315147        -8.5756
  77   0.0000       0.077070         2.0972
  78   0.0000       0.107238         2.9181
  79   0.0000       0.125037         3.4024
  80   0.0000       0.133163         3.6235
  81   0.0000       0.138134         3.7588

MULLIKEN ATOMIC CHARGES
-----------------------
   0 C :   -0.282719
   1 C :    0.048223
   2 O :   -0.369925
   3 C :    0.457939
   4 O :   -0.430257
   5 C :   -0.202926
   6 C :    0.148460
   7 C :   -0.272749
   8 N :   -0.120727
   9 C :    0.212683
  10 S :   -0.441786
  11 N :   -0.204853
  12 C :    0.057471
  13 C :    0.069480
  14 C :   -0.192369
  15 C :   -0.130713
  16 C :   -0.280685
  17 C :    0.316584
  18 O :   -0.356472
  19 C :   -0.270003
  20 H :    0.113349
  21 H :    0.094878
  22 H :    0.103768
  23 H :    0.092952
  24 H :    0.095914
  25 H :    0.131756
  26 H :    0.130117
  27 H :    0.094941
  28 H :    0.197168
  29 H :    0.194365
  30 H :    0.148945
  31 H :    0.150934
  32 H :    0.160557
  33 H :    0.129998
  34 H :    0.240607
  35 H :    0.165094
Sum of atomic charges:   -0.0000000

LOEWDIN ATOMIC CHARGES
----------------------
   0 C :    0.102334
   1 C :   -0.009762
   2 O :    0.294380
   3 C :   -0.411918
   4 O :    0.108450
   5 C :   -0.093771
   6 C :   -0.059446
   7 C :    0.130570
   8 N :    0.406345
   9 C :   -0.456655
  10 S :   -0.036849
  11 N :    0.396367
  12 C :   -0.052725
  13 C :   -0.037802
  14 C :    0.014114
  15 C :    0.038490
  16 C :   -0.002687
  17 C :   -0.189548
  18 O :    0.395239
  19 C :    0.031199
  20 H :   -0.025796
  21 H :   -0.028866
  22 H :   -0.024908
  23 H :   -0.028580
  24 H :   -0.025839
  25 H :   -0.004974
  26 H :   -0.004404
  27 H :   -0.023671
  28 H :   -0.057789
  29 H :   -0.064793
  30 H :   -0.011349
  31 H :   -0.030373
  32 H :   -0.021508
  33 H :   -0.035760
  34 H :   -0.153993
  35 H :   -0.023722

  Mayer bond orders larger than 0.100000
B(  0-C ,  1-C ) :   0.9830 B(  0-C , 20-H ) :   0.9728 B(  0-C , 21-H ) :   0.9746
B(  0-C , 22-H ) :   0.9751 B(  1-C ,  2-O ) :   0.8946 B(  1-C , 23-H ) :   0.9723
B(  1-C , 24-H ) :   0.9811 B(  2-O ,  3-C ) :   1.1353 B(  3-C ,  4-O ) :   1.9771
B(  3-C ,  5-C ) :   1.0678 B(  5-C ,  6-C ) :   1.6556 B(  5-C , 12-C ) :   0.9759
B(  6-C ,  7-C ) :   0.9674 B(  6-C ,  8-N ) :   1.1610 B(  7-C , 25-H ) :   0.9600
B(  7-C , 26-H ) :   0.9607 B(  7-C , 27-H ) :   0.9910 B(  8-N ,  9-C ) :   1.1837
B(  8-N , 28-H ) :   0.9479 B(  9-C , 10-S ) :   1.6052 B(  9-C , 11-N ) :   1.3061
B( 11-N , 12-C ) :   0.9846 B( 11-N , 29-H ) :   0.9516 B( 12-C , 13-C ) :   0.9358
B( 12-C , 30-H ) :   1.0024 B( 13-C , 14-C ) :   1.3516 B( 13-C , 19-C ) :   1.3840
B( 14-C , 15-C ) :   1.3909 B( 14-C , 31-H ) :   0.9724 B( 15-C , 16-C ) :   1.3626
B( 15-C , 32-H ) :   0.9707 B( 16-C , 17-C ) :   1.3314 B( 16-C , 33-H ) :   0.9852
B( 17-C , 18-O ) :   1.1103 B( 17-C , 19-C ) :   1.3716 B( 18-O , 34-H ) :   0.9799
B( 19-C , 35-H ) :   0.9583

MP2 TOTAL ENERGY:    -1274.338564006 Eh
FINAL SINGLE POINT ENERGY     -1274.338564006164

DIPOLE MOMENT
-------------
                                X             Y             Z
Electronic contribution:     10.05710      10.12159       9.22185
Nuclear contribution   :    -11.07767     -11.91725      -9.56127
                        -----------------------------------------
Total Dipole Moment    :     -1.02057      -1.79566      -0.33942
                        -----------------------------------------
Magnitude (a.u.)       :      2.09312
Magnitude (Debye)      :      5.32029

Rotational constants in cm-1:     0.011433     0.008715     0.006068
Rotational constants in MHz :   342.757028   261.271902   181.906931

                             ****ORCA TERMINATED NORMALLY****
TOTAL RUN TIME: 0 days 1 hours 38 minutes 51 seconds 684 msec
