                         Program Version 4.2.0 -  RELEASE  -
|  1> ! ri-mp2 cc-pvtz cc-pvtz/c TightSCF  NoKeepInts
|  2>
|  3> %scf
|  4>   MaxCore 4096
|  5> end
|  6> *xyz  0  1
|  7>     C       14.7206364   16.1757186   16.9100863
|  8>     C       15.6175108   14.9323278   17.0566313
|  9>     O       16.8037775   14.9734636   16.2298339
| 10>     C       17.9255316   15.7498618   16.4019698
| 11>     O       19.0051546   15.3265157   16.0343356
| 12>     C       17.8617631   16.8675102   17.3843311
| 13>     C       17.3725121   18.0791559   17.0371850
| 14>     C       16.7950519   18.4739620   15.6948742
| 15>     N       17.4513348   19.1465347   17.9336341
| 16>     C       18.1052782   19.1052192   19.1374711
| 17>     S       18.1880360   20.4269496   20.1275393
| 18>     N       18.6895472   17.9108738   19.4823246
| 19>     C       18.5972717   16.6561925   18.7082814
| 20>     C       17.9682372   15.5345260   19.5270383
| 21>     C       18.4513935   14.2193485   19.3981258
| 22>     C       17.8686952   13.1678857   20.1247096
| 23>     C       16.7918779   13.4321009   20.9879096
| 24>     C       16.3043193   14.7395073   21.1165600
| 25>     O       15.2556436   14.9955112   21.9379339
| 26>     C       16.8840271   15.7845604   20.3899451
| 27>     H       15.0552456   16.9947564   17.5539450
| 28>     H       13.6975279   15.9298510   17.2202160
| 29>     H       14.6788400   16.5123003   15.8675161
| 30>     H       15.8745097   14.7675627   18.1083144
| 31>     H       15.0294010   14.0617321   16.7385688
| 32>     H       16.7147665   17.6246578   15.0056616
| 33>     H       17.4333089   19.2212369   15.2063142
| 34>     H       15.7924897   18.9051500   15.8048506
| 35>     H       17.0526369   20.0387727   17.6865878
| 36>     H       19.1543096   17.9076931   20.3816345
| 37>     H       19.6240944   16.3477825   18.4607977
| 38>     H       19.2759227   14.0096634   18.7192785
| 39>     H       18.2507903   12.1542087   20.0139008
| 40>     H       16.3385760   12.6220562   21.5500365
| 41>     H       15.0348633   14.1702077   22.3959594
| 42>     H       16.4821177   16.7866435   20.4996977
| 43> *
| 44>
| 45>                          ****END OF INPUT****

CARTESIAN COORDINATES (ANGSTROEM)
---------------------------------
  C     14.720636   16.175719   16.910086
  C     15.617511   14.932328   17.056631
  O     16.803777   14.973464   16.229834
  C     17.925532   15.749862   16.401970
  O     19.005155   15.326516   16.034336
  C     17.861763   16.867510   17.384331
  C     17.372512   18.079156   17.037185
  C     16.795052   18.473962   15.694874
  N     17.451335   19.146535   17.933634
  C     18.105278   19.105219   19.137471
  S     18.188036   20.426950   20.127539
  N     18.689547   17.910874   19.482325
  C     18.597272   16.656192   18.708281
  C     17.968237   15.534526   19.527038
  C     18.451393   14.219348   19.398126
  C     17.868695   13.167886   20.124710
  C     16.791878   13.432101   20.987910
  C     16.304319   14.739507   21.116560
  O     15.255644   14.995511   21.937934
  C     16.884027   15.784560   20.389945
  H     15.055246   16.994756   17.553945
  H     13.697528   15.929851   17.220216
  H     14.678840   16.512300   15.867516
  H     15.874510   14.767563   18.108314
  H     15.029401   14.061732   16.738569
  H     16.714766   17.624658   15.005662
  H     17.433309   19.221237   15.206314
  H     15.792490   18.905150   15.804851
  H     17.052637   20.038773   17.686588
  H     19.154310   17.907693   20.381635
  H     19.624094   16.347783   18.460798
  H     19.275923   14.009663   18.719279
  H     18.250790   12.154209   20.013901
  H     16.338576   12.622056   21.550037
  H     15.034863   14.170208   22.395959
  H     16.482118   16.786644   20.499698

 Total Charge           Charge          ....    0
 Multiplicity           Mult            ....    1
 Number of Electrons    NEL             ....  154
 Basis Dimension        Dim             ....  828

ORBITAL ENERGIES
----------------

  NO   OCC          E(Eh)            E(eV)
   0   2.0000     -91.889849     -2500.4499
   1   2.0000     -20.603226      -560.6423
   2   2.0000     -20.595474      -560.4314
   3   2.0000     -20.551382      -559.2315
   4   2.0000     -15.625583      -425.1937
   5   2.0000     -15.612356      -424.8338
   6   2.0000     -11.398335      -310.1645
   7   2.0000     -11.386770      -309.8498
   8   2.0000     -11.326190      -308.2013
   9   2.0000     -11.321168      -308.0646
  10   2.0000     -11.317428      -307.9629
  11   2.0000     -11.302746      -307.5634
  12   2.0000     -11.267862      -306.6141
  13   2.0000     -11.265858      -306.5596
  14   2.0000     -11.262999      -306.4818
  15   2.0000     -11.261757      -306.4480
  16   2.0000     -11.250297      -306.1361
  17   2.0000     -11.245558      -306.0072
  18   2.0000     -11.243548      -305.9525
  19   2.0000     -11.234561      -305.7080
  20   2.0000      -8.894965      -242.0443
  21   2.0000      -6.576555      -178.9572
  22   2.0000      -6.574526      -178.9020
  23   2.0000      -6.573954      -178.8864
  24   2.0000      -1.444300       -39.3014
  25   2.0000      -1.423043       -38.7230
  26   2.0000      -1.356803       -36.9205
  27   2.0000      -1.339722       -36.4557
  28   2.0000      -1.240234       -33.7485
  29   2.0000      -1.165034       -31.7022
  30   2.0000      -1.126255       -30.6470
  31   2.0000      -1.051136       -28.6029
  32   2.0000      -1.038700       -28.2645
  33   2.0000      -1.022847       -27.8331
  34   2.0000      -1.005530       -27.3619
  35   2.0000      -0.990475       -26.9522
  36   2.0000      -0.929106       -25.2823
  37   2.0000      -0.895942       -24.3798
  38   2.0000      -0.852885       -23.2082
  39   2.0000      -0.843162       -22.9436
  40   2.0000      -0.840415       -22.8689
  41   2.0000      -0.833346       -22.6765
  42   2.0000      -0.752708       -20.4822
  43   2.0000      -0.736342       -20.0369
  44   2.0000      -0.729561       -19.8524
  45   2.0000      -0.700782       -19.0693
  46   2.0000      -0.690804       -18.7977
  47   2.0000      -0.679307       -18.4849
  48   2.0000      -0.676584       -18.4108
  49   2.0000      -0.664339       -18.0776
  50   2.0000      -0.655454       -17.8358
  51   2.0000      -0.641439       -17.4544
  52   2.0000      -0.640783       -17.4366
  53   2.0000      -0.616881       -16.7862
  54   2.0000      -0.610605       -16.6154
  55   2.0000      -0.609177       -16.5765
  56   2.0000      -0.606380       -16.5004
  57   2.0000      -0.585630       -15.9358
  58   2.0000      -0.584378       -15.9017
  59   2.0000      -0.578723       -15.7479
  60   2.0000      -0.567508       -15.4427
  61   2.0000      -0.556928       -15.1548
  62   2.0000      -0.538596       -14.6559
  63   2.0000      -0.534877       -14.5547
  64   2.0000      -0.524756       -14.2793
  65   2.0000      -0.515757       -14.0345
  66   2.0000      -0.504464       -13.7272
  67   2.0000      -0.498425       -13.5628
  68   2.0000      -0.490617       -13.3504
  69   2.0000      -0.465079       -12.6554
  70   2.0000      -0.453724       -12.3465
  71   2.0000      -0.449476       -12.2309
  72   2.0000      -0.355937        -9.6855
  73   2.0000      -0.355266        -9.6673
  74   2.0000      -0.330235        -8.9861
  75   2.0000      -0.328804        -8.9472
  76   2.0000      -0.318684        -8.6718
  77   0.0000       0.090489         2.4623
  78   0.0000       0.101612         2.7650
  79   0.0000       0.117594         3.1999
  80   0.0000       0.125024         3.4021
  81   0.0000       0.127586         3.4718

MULLIKEN ATOMIC CHARGES
-----------------------
   0 C :   -0.328082
   1 C :    0.037252
   2 O :   -0.328679
   3 C :    0.392041
   4 O :   -0.375871
   5 C :   -0.162342
   6 C :    0.113864
   7 C :   -0.330154
   8 N :   -0.136555
   9 C :    0.208229
  10 S :   -0.442628
  11 N :   -0.224859
  12 C :    0.082604
  13 C :   -0.005093
  14 C :   -0.199738
  15 C :   -0.136329
  16 C :   -0.271253
  17 C :    0.308966
  18 O :   -0.356273
  19 C :   -0.252525
  20 H :    0.102965
  21 H :    0.121479
  22 H :    0.106141
  23 H :    0.104311
  24 H :    0.125353
  25 H :    0.121520
  26 H :    0.149769
  27 H :    0.120772
  28 H :    0.197039
  29 H :    0.201862
  30 H :    0.165944
  31 H :    0.170081
  32 H :    0.165647
  33 H :    0.134514
  34 H :    0.241912
  35 H :    0.178116
Sum of atomic charges:   -0.0000000

LOEWDIN ATOMIC CHARGES
----------------------
   0 C :    0.103011
   1 C :   -0.014666
   2 O :    0.294970
   3 C :   -0.417175
   4 O :    0.126846
   5 C :   -0.080744
   6 C :   -0.103750
   7 C :    0.125303
   8 N :    0.402087
   9 C :   -0.455440
  10 S :   -0.038693
  11 N :    0.397632
  12 C :   -0.044844
  13 C :   -0.045561
  14 C :    0.019791
  15 C :    0.046187
  16 C :   -0.000189
  17 C :   -0.193864
  18 O :    0.396713
  19 C :    0.026170
  20 H :   -0.034211
  21 H :   -0.021768
  22 H :   -0.028419
  23 H :   -0.032170
  24 H :   -0.019184
  25 H :   -0.009887
  26 H :   -0.008761
  27 H :   -0.016486
  28 H :   -0.057471
  29 H :   -0.064126
  30 H :   -0.002548
  31 H :   -0.021443
  32 H :   -0.017394
  33 H :   -0.033814
  34 H :   -0.152323
  35 H :   -0.023778

  Mayer bond orders larger than 0.100000
B(  0-C ,  1-C ) :   0.9534 B(  0-C , 20-H ) :   0.9763 B(  0-C , 21-H ) :   0.9787
B(  0-C , 22-H ) :   0.9736 B(  1-C ,  2-O ) :   0.9019 B(  1-C , 23-H ) :   0.9654
B(  1-C , 24-H ) :   0.9861 B(  2-O ,  3-C ) :   1.1809 B(  3-C ,  4-O ) :   2.1073
B(  3-C ,  5-C ) :   0.8982 B(  5-C ,  6-C ) :   1.7228 B(  5-C , 12-C ) :   0.9487
B(  6-C ,  7-C ) :   0.9530 B(  6-C ,  8-N ) :   1.0955 B(  7-C , 25-H ) :   0.9804
B(  7-C , 26-H ) :   0.9667 B(  7-C , 27-H ) :   0.9665 B(  8-N ,  9-C ) :   1.2020
B(  8-N , 28-H ) :   0.9517 B(  9-C , 10-S ) :   1.6087 B(  9-C , 11-N ) :   1.2840
B( 11-N , 12-C ) :   0.9927 B( 11-N , 29-H ) :   0.9467 B( 12-C , 13-C ) :   0.9459
B( 12-C , 30-H ) :   0.9965 B( 13-C , 14-C ) :   1.3928 B( 13-C , 19-C ) :   1.3439
B( 14-C , 15-C ) :   1.3966 B( 14-C , 31-H ) :   0.9617 B( 15-C , 16-C ) :   1.3615
B( 15-C , 32-H ) :   0.9693 B( 16-C , 17-C ) :   1.3285 B( 16-C , 33-H ) :   0.9839
B( 17-C , 18-O ) :   1.1126 B( 17-C , 19-C ) :   1.3666 B( 18-O , 34-H ) :   0.9785
B( 19-C , 35-H ) :   0.9577

MP2 TOTAL ENERGY:    -1274.327182483 Eh
FINAL SINGLE POINT ENERGY     -1274.327182483333

DIPOLE MOMENT
-------------
                                X             Y             Z
Electronic contribution:      9.86254       5.05952       6.58918
Nuclear contribution   :    -11.36335      -6.36917      -6.76273
                        -----------------------------------------
Total Dipole Moment    :     -1.50081      -1.30965      -0.17355
                        -----------------------------------------
Magnitude (a.u.)       :      1.99944
Magnitude (Debye)      :      5.08216

Rotational constants in cm-1:     0.012167     0.009282     0.006866
Rotational constants in MHz :   364.745002   278.272669   205.825876

                             ****ORCA TERMINATED NORMALLY****
TOTAL RUN TIME: 0 days 1 hours 54 minutes 30 seconds 181 msec
