                         Program Version 4.2.0 -  RELEASE  -
|  1> ! ri-mp2 cc-pvtz cc-pvtz/c TightSCF  NoKeepInts
|  2>
|  3> %scf
|  4>   MaxCore 4096
|  5> end
|  6> *xyz  0  1
|  7>     C       15.2787201   14.4501981   17.1567354
|  8>     C       15.5575133   14.9581778   15.7227159
|  9>     O       16.5647017   15.9935998   15.7024061
| 10>     C       17.6937454   15.8947167   16.4628437
| 11>     O       18.2992567   14.8414527   16.5734501
| 12>     C       17.8844554   17.0347698   17.4196436
| 13>     C       17.3911540   18.2867737   17.2375258
| 14>     C       16.5981129   18.8097435   16.0577113
| 15>     N       17.6658606   19.2847389   18.1781049
| 16>     C       18.5249961   19.1490825   19.2366577
| 17>     S       18.8820495   20.4169531   20.2368972
| 18>     N       19.0734489   17.9055921   19.4243449
| 19>     C       18.6943813   16.6932685   18.6745163
| 20>     C       17.9206415   15.7295020   19.5702468
| 21>     C       18.3512989   14.3990547   19.7260177
| 22>     C       17.6310580   13.5026457   20.5331303
| 23>     C       16.4685220   13.9391077   21.1907886
| 24>     C       16.0347476   15.2626736   21.0364148
| 25>     O       14.9069873   15.6846522   21.6617535
| 26>     C       16.7540170   16.1527658   20.2329701
| 27>     H       16.1265095   13.8829357   17.5606585
| 28>     H       14.4084393   13.7831896   17.1590024
| 29>     H       15.0648766   15.2866980   17.8335513
| 30>     H       15.8939550   14.1114259   15.1096164
| 31>     H       14.6309061   15.3457276   15.2804335
| 32>     H       15.5703518   18.4268065   16.0820504
| 33>     H       17.0531717   18.4944669   15.1103604
| 34>     H       16.5447054   19.9050346   16.0375293
| 35>     H       17.2738570   20.2049889   18.0574906
| 36>     H       19.6797137   17.8245479   20.2304765
| 37>     H       19.6209028   16.1969853   18.3511804
| 38>     H       19.2382625   14.0532786   19.2005770
| 39>     H       17.9713552   12.4741307   20.6393485
| 40>     H       15.9074979   13.2491003   21.8121753
| 41>     H       14.5856628   14.9502946   22.2062432
| 42>     H       16.4011646   17.1729198   20.1284317
| 43> *
| 44>
| 45>                          ****END OF INPUT****

CARTESIAN COORDINATES (ANGSTROEM)
---------------------------------
  C     15.278720   14.450198   17.156735
  C     15.557513   14.958178   15.722716
  O     16.564702   15.993600   15.702406
  C     17.693745   15.894717   16.462844
  O     18.299257   14.841453   16.573450
  C     17.884455   17.034770   17.419644
  C     17.391154   18.286774   17.237526
  C     16.598113   18.809743   16.057711
  N     17.665861   19.284739   18.178105
  C     18.524996   19.149082   19.236658
  S     18.882050   20.416953   20.236897
  N     19.073449   17.905592   19.424345
  C     18.694381   16.693268   18.674516
  C     17.920641   15.729502   19.570247
  C     18.351299   14.399055   19.726018
  C     17.631058   13.502646   20.533130
  C     16.468522   13.939108   21.190789
  C     16.034748   15.262674   21.036415
  O     14.906987   15.684652   21.661753
  C     16.754017   16.152766   20.232970
  H     16.126510   13.882936   17.560658
  H     14.408439   13.783190   17.159002
  H     15.064877   15.286698   17.833551
  H     15.893955   14.111426   15.109616
  H     14.630906   15.345728   15.280433
  H     15.570352   18.426807   16.082050
  H     17.053172   18.494467   15.110360
  H     16.544705   19.905035   16.037529
  H     17.273857   20.204989   18.057491
  H     19.679714   17.824548   20.230477
  H     19.620903   16.196985   18.351180
  H     19.238263   14.053279   19.200577
  H     17.971355   12.474131   20.639348
  H     15.907498   13.249100   21.812175
  H     14.585663   14.950295   22.206243
  H     16.401165   17.172920   20.128432

 Total Charge           Charge          ....    0
 Multiplicity           Mult            ....    1
 Number of Electrons    NEL             ....  154
 Basis Dimension        Dim             ....  828

ORBITAL ENERGIES
----------------

  NO   OCC          E(Eh)            E(eV)
   0   2.0000     -91.888904     -2500.4242
   1   2.0000     -20.595000      -560.4185
   2   2.0000     -20.589693      -560.2740
   3   2.0000     -20.549445      -559.1788
   4   2.0000     -15.628996      -425.2866
   5   2.0000     -15.607962      -424.7142
   6   2.0000     -11.395376      -310.0839
   7   2.0000     -11.384084      -309.7767
   8   2.0000     -11.335728      -308.4608
   9   2.0000     -11.310864      -307.7843
  10   2.0000     -11.307419      -307.6905
  11   2.0000     -11.302164      -307.5475
  12   2.0000     -11.260296      -306.4082
  13   2.0000     -11.259389      -306.3835
  14   2.0000     -11.256282      -306.2990
  15   2.0000     -11.251114      -306.1584
  16   2.0000     -11.240777      -305.8771
  17   2.0000     -11.236369      -305.7571
  18   2.0000     -11.233608      -305.6820
  19   2.0000     -11.223638      -305.4107
  20   2.0000      -8.893970      -242.0172
  21   2.0000      -6.575546      -178.9297
  22   2.0000      -6.573539      -178.8751
  23   2.0000      -6.572953      -178.8591
  24   2.0000      -1.449180       -39.4342
  25   2.0000      -1.414773       -38.4979
  26   2.0000      -1.354794       -36.8658
  27   2.0000      -1.339998       -36.4632
  28   2.0000      -1.237936       -33.6859
  29   2.0000      -1.155238       -31.4356
  30   2.0000      -1.120744       -30.4970
  31   2.0000      -1.043286       -28.3892
  32   2.0000      -1.030751       -28.0482
  33   2.0000      -1.012677       -27.5564
  34   2.0000      -0.999138       -27.1879
  35   2.0000      -0.984784       -26.7973
  36   2.0000      -0.923313       -25.1246
  37   2.0000      -0.895151       -24.3583
  38   2.0000      -0.848517       -23.0893
  39   2.0000      -0.837595       -22.7921
  40   2.0000      -0.831199       -22.6181
  41   2.0000      -0.816368       -22.2145
  42   2.0000      -0.746207       -20.3053
  43   2.0000      -0.733279       -19.9535
  44   2.0000      -0.727188       -19.7878
  45   2.0000      -0.693019       -18.8580
  46   2.0000      -0.686134       -18.6707
  47   2.0000      -0.676850       -18.4180
  48   2.0000      -0.671965       -18.2851
  49   2.0000      -0.658313       -17.9136
  50   2.0000      -0.653993       -17.7961
  51   2.0000      -0.645517       -17.5654
  52   2.0000      -0.634022       -17.2526
  53   2.0000      -0.618750       -16.8370
  54   2.0000      -0.603116       -16.4116
  55   2.0000      -0.601887       -16.3782
  56   2.0000      -0.598734       -16.2924
  57   2.0000      -0.578667       -15.7463
  58   2.0000      -0.575555       -15.6616
  59   2.0000      -0.563676       -15.3384
  60   2.0000      -0.552237       -15.0271
  61   2.0000      -0.546218       -14.8633
  62   2.0000      -0.534836       -14.5536
  63   2.0000      -0.529508       -14.4087
  64   2.0000      -0.519787       -14.1441
  65   2.0000      -0.510459       -13.8903
  66   2.0000      -0.499317       -13.5871
  67   2.0000      -0.494287       -13.4502
  68   2.0000      -0.480684       -13.0801
  69   2.0000      -0.464449       -12.6383
  70   2.0000      -0.457060       -12.4372
  71   2.0000      -0.449243       -12.2245
  72   2.0000      -0.354421        -9.6443
  73   2.0000      -0.346865        -9.4387
  74   2.0000      -0.328113        -8.9284
  75   2.0000      -0.318270        -8.6606
  76   2.0000      -0.315804        -8.5935
  77   0.0000       0.072670         1.9774
  78   0.0000       0.107473         2.9245
  79   0.0000       0.119614         3.2549
  80   0.0000       0.132731         3.6118
  81   0.0000       0.141091         3.8393

MULLIKEN ATOMIC CHARGES
-----------------------
   0 C :   -0.335910
   1 C :    0.053340
   2 O :   -0.378381
   3 C :    0.461326
   4 O :   -0.417221
   5 C :   -0.188639
   6 C :    0.144545
   7 C :   -0.281740
   8 N :   -0.123414
   9 C :    0.202228
  10 S :   -0.438828
  11 N :   -0.200603
  12 C :    0.049530
  13 C :    0.059729
  14 C :   -0.171625
  15 C :   -0.133265
  16 C :   -0.277859
  17 C :    0.321537
  18 O :   -0.360985
  19 C :   -0.295027
  20 H :    0.132027
  21 H :    0.108348
  22 H :    0.102074
  23 H :    0.104152
  24 H :    0.104882
  25 H :    0.123156
  26 H :    0.128240
  27 H :    0.103238
  28 H :    0.197167
  29 H :    0.194151
  30 H :    0.153944
  31 H :    0.157060
  32 H :    0.161610
  33 H :    0.130393
  34 H :    0.240672
  35 H :    0.170148
Sum of atomic charges:   -0.0000000

LOEWDIN ATOMIC CHARGES
----------------------
   0 C :    0.105484
   1 C :   -0.013982
   2 O :    0.290067
   3 C :   -0.416659
   4 O :    0.115643
   5 C :   -0.093258
   6 C :   -0.068936
   7 C :    0.125803
   8 N :    0.404724
   9 C :   -0.458212
  10 S :   -0.035652
  11 N :    0.397652
  12 C :   -0.045742
  13 C :   -0.040052
  14 C :    0.021841
  15 C :    0.041029
  16 C :   -0.002053
  17 C :   -0.193121
  18 O :    0.393752
  19 C :    0.029921
  20 H :   -0.023117
  21 H :   -0.025652
  22 H :   -0.029588
  23 H :   -0.028324
  24 H :   -0.025575
  25 H :   -0.010293
  26 H :   -0.007171
  27 H :   -0.020494
  28 H :   -0.058828
  29 H :   -0.063823
  30 H :   -0.004696
  31 H :   -0.024881
  32 H :   -0.020667
  33 H :   -0.035817
  34 H :   -0.154203
  35 H :   -0.025124

  Mayer bond orders larger than 0.100000
B(  0-C ,  1-C ) :   0.9589 B(  0-C , 20-H ) :   0.9670 B(  0-C , 21-H ) :   0.9763
B(  0-C , 22-H ) :   0.9718 B(  1-C ,  2-O ) :   0.8965 B(  1-C , 23-H ) :   0.9849
B(  1-C , 24-H ) :   0.9829 B(  2-O ,  3-C ) :   1.0989 B(  3-C ,  4-O ) :   2.0090
B(  3-C ,  5-C ) :   1.0419 B(  5-C ,  6-C ) :   1.6551 B(  5-C , 12-C ) :   0.9649
B(  6-C ,  7-C ) :   0.9539 B(  6-C ,  8-N ) :   1.1447 B(  7-C , 25-H ) :   0.9640
B(  7-C , 26-H ) :   0.9670 B(  7-C , 27-H ) :   0.9901 B(  8-N ,  9-C ) :   1.1813
B(  8-N , 28-H ) :   0.9491 B(  9-C , 10-S ) :   1.6114 B(  9-C , 11-N ) :   1.3024
B( 11-N , 12-C ) :   0.9914 B( 11-N , 29-H ) :   0.9518 B( 12-C , 13-C ) :   0.9446
B( 12-C , 30-H ) :   0.9992 B( 13-C , 14-C ) :   1.3766 B( 13-C , 19-C ) :   1.3566
B( 14-C , 15-C ) :   1.3920 B( 14-C , 31-H ) :   0.9640 B( 15-C , 16-C ) :   1.3619
B( 15-C , 32-H ) :   0.9709 B( 16-C , 17-C ) :   1.3323 B( 16-C , 33-H ) :   0.9848
B( 17-C , 18-O ) :   1.1076 B( 17-C , 19-C ) :   1.3693 B( 18-O , 34-H ) :   0.9803
B( 19-C , 35-H ) :   0.9588

MP2 TOTAL ENERGY:    -1274.336642179 Eh
FINAL SINGLE POINT ENERGY     -1274.336642179313

DIPOLE MOMENT
-------------
                                X             Y             Z
Electronic contribution:      9.74541       9.40888       6.67422
Nuclear contribution   :    -11.18616     -10.65320      -7.46938
                        -----------------------------------------
Total Dipole Moment    :     -1.44076      -1.24433      -0.79517
                        -----------------------------------------
Magnitude (a.u.)       :      2.06311
Magnitude (Debye)      :      5.24401

Rotational constants in cm-1:     0.011860     0.009393     0.006593
Rotational constants in MHz :   355.546483   281.608956   197.647925

                             ****ORCA TERMINATED NORMALLY****
TOTAL RUN TIME: 0 days 1 hours 45 minutes 39 seconds 745 msec
