                         Program Version 5.0.0 -  RELEASE  -
|  1> ! ri-mp2 cc-pvtz cc-pvtz/c TightSCF NoKeepInts
|  2>
|  3> %scf
|  4>   MaxCore 4096
|  5> end
|  6> *xyz  0  1
|  7>     C       16.0363101   13.3292443   15.4725019
|  8>     C       15.3732280   14.4907492   16.2315122
|  9>     O       16.4287792   15.3370190   16.7201845
| 10>     C       16.2693957   16.6950048   16.7478931
| 11>     O       15.3395608   17.2581749   16.1955206
| 12>     C       17.3134765   17.3823410   17.5842764
| 13>     C       17.3823662   18.7330840   17.6984867
| 14>     C       16.4739071   19.7555273   17.0498205
| 15>     N       18.4002065   19.3217475   18.4550301
| 16>     C       19.4404661   18.6432935   19.0318406
| 17>     S       20.6607242   19.4257314   19.8284957
| 18>     N       19.4209741   17.2770744   18.9128372
| 19>     C       18.3153942   16.4903714   18.3359030
| 20>     C       17.6369011   15.6724371   19.4313446
| 21>     C       17.7032594   14.2664195   19.4170682
| 22>     C       17.0770838   13.5106649   20.4224886
| 23>     C       16.3811580   14.1657422   21.4527901
| 24>     C       16.3162923   15.5657686   21.4722786
| 25>     O       15.6456123   16.2011174   22.4660462
| 26>     C       16.9399414   16.3151439   20.4699688
| 27>     H       15.2757907   12.6459787   15.0753716
| 28>     H       16.6967498   12.7596254   16.1378929
| 29>     H       16.6311538   13.7069085   14.6314679
| 30>     H       14.7136348   15.0266627   15.5354866
| 31>     H       14.7675037   14.1170295   17.0673692
| 32>     H       15.4382019   19.6177217   17.3860236
| 33>     H       16.4811958   19.6416592   15.9583532
| 34>     H       16.7605236   20.7892077   17.2759727
| 35>     H       18.4313630   20.3240966   18.5518308
| 36>     H       20.1812714   16.8017903   19.3817566
| 37>     H       18.7564490   15.7962199   17.6067687
| 38>     H       18.2353969   13.7574914   18.6178793
| 39>     H       17.1319635   12.4237077   20.4011636
| 40>     H       15.8962009   13.5866339   22.2316888
| 41>     H       15.3109717   15.5228922   23.0716549
| 42>     H       16.8835924   17.3977183   20.5070322
| 43> *
| 44>
| 45>                          ****END OF INPUT****

CARTESIAN COORDINATES (ANGSTROEM)
---------------------------------
  C     16.036310   13.329244   15.472502
  C     15.373228   14.490749   16.231512
  O     16.428779   15.337019   16.720184
  C     16.269396   16.695005   16.747893
  O     15.339561   17.258175   16.195521
  C     17.313477   17.382341   17.584276
  C     17.382366   18.733084   17.698487
  C     16.473907   19.755527   17.049820
  N     18.400206   19.321747   18.455030
  C     19.440466   18.643293   19.031841
  S     20.660724   19.425731   19.828496
  N     19.420974   17.277074   18.912837
  C     18.315394   16.490371   18.335903
  C     17.636901   15.672437   19.431345
  C     17.703259   14.266419   19.417068
  C     17.077084   13.510665   20.422489
  C     16.381158   14.165742   21.452790
  C     16.316292   15.565769   21.472279
  O     15.645612   16.201117   22.466046
  C     16.939941   16.315144   20.469969
  H     15.275791   12.645979   15.075372
  H     16.696750   12.759625   16.137893
  H     16.631154   13.706909   14.631468
  H     14.713635   15.026663   15.535487
  H     14.767504   14.117029   17.067369
  H     15.438202   19.617722   17.386024
  H     16.481196   19.641659   15.958353
  H     16.760524   20.789208   17.275973
  H     18.431363   20.324097   18.551831
  H     20.181271   16.801790   19.381757
  H     18.756449   15.796220   17.606769
  H     18.235397   13.757491   18.617879
  H     17.131964   12.423708   20.401164
  H     15.896201   13.586634   22.231689
  H     15.310972   15.522892   23.071655
  H     16.883592   17.397718   20.507032

 Total Charge           Charge          ....    0
 Multiplicity           Mult            ....    1
 Number of Electrons    NEL             ....  154
 Basis Dimension        Dim             ....  828

ORBITAL ENERGIES
----------------

  NO   OCC          E(Eh)            E(eV)
   0   2.0000     -91.888714     -2500.4190
   1   2.0000     -20.602085      -560.6112
   2   2.0000     -20.595694      -560.4373
   3   2.0000     -20.541337      -558.9582
   4   2.0000     -15.628862      -425.2830
   5   2.0000     -15.608031      -424.7161
   6   2.0000     -11.395059      -310.0753
   7   2.0000     -11.383793      -309.7688
   8   2.0000     -11.335728      -308.4609
   9   2.0000     -11.312817      -307.8374
  10   2.0000     -11.308669      -307.7245
  11   2.0000     -11.295401      -307.3635
  12   2.0000     -11.258840      -306.3686
  13   2.0000     -11.258689      -306.3645
  14   2.0000     -11.254345      -306.2463
  15   2.0000     -11.251722      -306.1749
  16   2.0000     -11.242221      -305.9164
  17   2.0000     -11.237711      -305.7937
  18   2.0000     -11.237497      -305.7878
  19   2.0000     -11.231036      -305.6120
  20   2.0000      -8.893774      -242.0119
  21   2.0000      -6.575348      -178.9243
  22   2.0000      -6.573344      -178.8698
  23   2.0000      -6.572757      -178.8538
  24   2.0000      -1.451346       -39.4931
  25   2.0000      -1.415351       -38.5136
  26   2.0000      -1.354971       -36.8706
  27   2.0000      -1.339814       -36.4582
  28   2.0000      -1.238232       -33.6940
  29   2.0000      -1.156867       -31.4800
  30   2.0000      -1.120079       -30.4789
  31   2.0000      -1.043315       -28.3900
  32   2.0000      -1.039862       -28.2961
  33   2.0000      -1.014273       -27.5998
  34   2.0000      -0.995545       -27.0902
  35   2.0000      -0.984120       -26.7793
  36   2.0000      -0.922104       -25.0917
  37   2.0000      -0.889524       -24.2052
  38   2.0000      -0.846481       -23.0339
  39   2.0000      -0.836897       -22.7731
  40   2.0000      -0.833231       -22.6734
  41   2.0000      -0.817553       -22.2467
  42   2.0000      -0.765005       -20.8169
  43   2.0000      -0.731855       -19.9148
  44   2.0000      -0.721628       -19.6365
  45   2.0000      -0.694799       -18.9064
  46   2.0000      -0.686305       -18.6753
  47   2.0000      -0.679637       -18.4939
  48   2.0000      -0.676041       -18.3960
  49   2.0000      -0.660283       -17.9672
  50   2.0000      -0.645941       -17.5769
  51   2.0000      -0.644331       -17.5331
  52   2.0000      -0.634866       -17.2756
  53   2.0000      -0.605978       -16.4895
  54   2.0000      -0.602154       -16.3854
  55   2.0000      -0.598542       -16.2872
  56   2.0000      -0.597116       -16.2483
  57   2.0000      -0.577411       -15.7121
  58   2.0000      -0.570448       -15.5227
  59   2.0000      -0.567933       -15.4542
  60   2.0000      -0.562254       -15.2997
  61   2.0000      -0.546478       -14.8704
  62   2.0000      -0.540017       -14.6946
  63   2.0000      -0.526795       -14.3348
  64   2.0000      -0.524434       -14.2706
  65   2.0000      -0.513113       -13.9625
  66   2.0000      -0.501489       -13.6462
  67   2.0000      -0.497236       -13.5305
  68   2.0000      -0.485187       -13.2026
  69   2.0000      -0.465030       -12.6541
  70   2.0000      -0.457971       -12.4620
  71   2.0000      -0.447262       -12.1706
  72   2.0000      -0.354148        -9.6368
  73   2.0000      -0.348655        -9.4874
  74   2.0000      -0.328010        -8.9256
  75   2.0000      -0.320506        -8.7214
  76   2.0000      -0.315746        -8.5919
  77   0.0000       0.076437         2.0800
  78   0.0000       0.107173         2.9163
  79   0.0000       0.124142         3.3781
  80   0.0000       0.132055         3.5934
  81   0.0000       0.135933         3.6989

MULLIKEN ATOMIC CHARGES
-----------------------
   0 C :   -0.263281
   1 C :    0.014672
   2 O :   -0.347983
   3 C :    0.470679
   4 O :   -0.433920
   5 C :   -0.223576
   6 C :    0.149350
   7 C :   -0.274320
   8 N :   -0.120759
   9 C :    0.210138
  10 S :   -0.439738
  11 N :   -0.202894
  12 C :    0.047937
  13 C :    0.067914
  14 C :   -0.184207
  15 C :   -0.132663
  16 C :   -0.278364
  17 C :    0.316064
  18 O :   -0.356611
  19 C :   -0.269382
  20 H :    0.092531
  21 H :    0.090253
  22 H :    0.096874
  23 H :    0.126581
  24 H :    0.099564
  25 H :    0.132614
  26 H :    0.130454
  27 H :    0.094834
  28 H :    0.197407
  29 H :    0.194344
  30 H :    0.150828
  31 H :    0.150201
  32 H :    0.159684
  33 H :    0.129536
  34 H :    0.240524
  35 H :    0.164714
Sum of atomic charges:    0.0000000

LOEWDIN ATOMIC CHARGES
----------------------
   0 C :    0.105246
   1 C :   -0.012466
   2 O :    0.310185
   3 C :   -0.413537
   4 O :    0.095584
   5 C :   -0.094620
   6 C :   -0.058881
   7 C :    0.131484
   8 N :    0.406516
   9 C :   -0.456754
  10 S :   -0.035426
  11 N :    0.396547
  12 C :   -0.052693
  13 C :   -0.038747
  14 C :    0.014017
  15 C :    0.038566
  16 C :   -0.001729
  17 C :   -0.189509
  18 O :    0.395121
  19 C :    0.031668
  20 H :   -0.024916
  21 H :   -0.030942
  22 H :   -0.026076
  23 H :   -0.027462
  24 H :   -0.029706
  25 H :   -0.004385
  26 H :   -0.004092
  27 H :   -0.023478
  28 H :   -0.057592
  29 H :   -0.064554
  30 H :   -0.011159
  31 H :   -0.031140
  32 H :   -0.021636
  33 H :   -0.035708
  34 H :   -0.154049
  35 H :   -0.023678

  Mayer bond orders larger than 0.100000
B(  0-C ,  1-C ) :   0.9726 B(  0-C , 20-H ) :   0.9765 B(  0-C , 21-H ) :   0.9797
B(  0-C , 22-H ) :   0.9776 B(  1-C ,  2-O ) :   0.8868 B(  1-C , 23-H ) :   0.9768
B(  1-C , 24-H ) :   0.9763 B(  2-O ,  3-C ) :   1.1763 B(  3-C ,  4-O ) :   1.9755
B(  3-C ,  5-C ) :   1.0529 B(  5-C ,  6-C ) :   1.6584 B(  5-C , 12-C ) :   0.9719
B(  6-C ,  7-C ) :   0.9675 B(  6-C ,  8-N ) :   1.1643 B(  7-C , 25-H ) :   0.9602
B(  7-C , 26-H ) :   0.9605 B(  7-C , 27-H ) :   0.9903 B(  8-N ,  9-C ) :   1.1827
B(  8-N , 28-H ) :   0.9480 B(  9-C , 10-S ) :   1.6081 B(  9-C , 11-N ) :   1.3044
B( 11-N , 12-C ) :   0.9899 B( 11-N , 29-H ) :   0.9517 B( 12-C , 13-C ) :   0.9353
B( 12-C , 30-H ) :   1.0035 B( 13-C , 14-C ) :   1.3553 B( 13-C , 19-C ) :   1.3825
B( 14-C , 15-C ) :   1.3913 B( 14-C , 31-H ) :   0.9709 B( 15-C , 16-C ) :   1.3638
B( 15-C , 32-H ) :   0.9708 B( 16-C , 17-C ) :   1.3322 B( 16-C , 33-H ) :   0.9852
B( 17-C , 18-O ) :   1.1101 B( 17-C , 19-C ) :   1.3732 B( 18-O , 34-H ) :   0.9800
B( 19-C , 35-H ) :   0.9582

MP2 TOTAL ENERGY:    -1274.350149839 Eh
FINAL SINGLE POINT ENERGY     -1274.350149839265

DIPOLE MOMENT
-------------
                                X             Y             Z
Electronic contribution:      9.06396      10.56991       8.95972
Nuclear contribution   :    -10.29074     -12.15492      -9.33621
                        -----------------------------------------
Total Dipole Moment    :     -1.22678      -1.58502      -0.37649
                        -----------------------------------------
Magnitude (a.u.)       :      2.03937
Magnitude (Debye)      :      5.18366

Rotational constants in cm-1:     0.011260     0.008556     0.006123
Rotational constants in MHz :   337.554833   256.509110   183.566184

                             ****ORCA TERMINATED NORMALLY****
TOTAL RUN TIME: 0 days 1 hours 43 minutes 4 seconds 54 msec
