                         Program Version 4.2.0 -  RELEASE  -
|  1> ! ri-mp2 cc-pvtz cc-pvtz/c TightSCF  NoKeepInts
|  2>
|  3> %scf
|  4>   MaxCore 4096
|  5> end
|  6> *xyz  0  1
|  7>     C       14.4958877   14.6376519   15.9545606
|  8>     C       15.7390435   14.8003174   16.8443788
|  9>     O       16.7613332   15.4219137   16.0497662
| 10>     C       17.9814548   15.5608933   16.6371200
| 11>     O       18.6310872   14.5737017   16.9352662
| 12>     C       18.0726768   16.8226691   17.4401441
| 13>     C       17.5458384   18.0054310   17.0372396
| 14>     C       16.8258677   18.2911827   15.7360933
| 15>     N       17.7101708   19.1453007   17.8297454
| 16>     C       18.4945061   19.2094025   18.9519124
| 17>     S       18.7261810   20.6266232   19.7720485
| 18>     N       19.0763320   18.0354874   19.3620221
| 19>     C       18.8026196   16.7070899   18.7806202
| 20>     C       17.9967098   15.8491329   19.7525327
| 21>     C       18.4436682   14.5633453   20.1080242
| 22>     C       17.6942532   13.7610269   20.9845913
| 23>     C       16.4852188   14.2470182   21.5104944
| 24>     C       16.0341141   15.5253984   21.1558985
| 25>     O       14.8611625   15.9934648   21.6515928
| 26>     C       16.7818269   16.3213910   20.2826346
| 27>     H       14.7262754   14.0145171   15.0812714
| 28>     H       14.1411644   15.6134269   15.6008208
| 29>     H       13.6833603   14.1578680   16.5136361
| 30>     H       15.4998499   15.4182869   17.7202743
| 31>     H       16.0742847   13.8140420   17.1946237
| 32>     H       17.3049687   17.7695341   14.8979517
| 33>     H       16.8214739   19.3592818   15.4864879
| 34>     H       15.7834231   17.9534015   15.7875455
| 35>     H       17.2931038   20.0170862   17.5441877
| 36>     H       19.6268454   18.1059566   20.2083113
| 37>     H       19.7684043   16.2135385   18.5985073
| 38>     H       19.3682317   14.1767052   19.6856052
| 39>     H       18.0489924   12.7656791   21.2465960
| 40>     H       15.9022177   13.6292129   22.1855263
| 41>     H       14.5296241   15.3363437   22.2822271
| 42>     H       16.4148281   17.3086772   20.0237417
| 43> *
| 44>
| 45>                          ****END OF INPUT****

CARTESIAN COORDINATES (ANGSTROEM)
---------------------------------
  C     14.495888   14.637652   15.954561
  C     15.739043   14.800317   16.844379
  O     16.761333   15.421914   16.049766
  C     17.981455   15.560893   16.637120
  O     18.631087   14.573702   16.935266
  C     18.072677   16.822669   17.440144
  C     17.545838   18.005431   17.037240
  C     16.825868   18.291183   15.736093
  N     17.710171   19.145301   17.829745
  C     18.494506   19.209402   18.951912
  S     18.726181   20.626623   19.772049
  N     19.076332   18.035487   19.362022
  C     18.802620   16.707090   18.780620
  C     17.996710   15.849133   19.752533
  C     18.443668   14.563345   20.108024
  C     17.694253   13.761027   20.984591
  C     16.485219   14.247018   21.510494
  C     16.034114   15.525398   21.155898
  O     14.861162   15.993465   21.651593
  C     16.781827   16.321391   20.282635
  H     14.726275   14.014517   15.081271
  H     14.141164   15.613427   15.600821
  H     13.683360   14.157868   16.513636
  H     15.499850   15.418287   17.720274
  H     16.074285   13.814042   17.194624
  H     17.304969   17.769534   14.897952
  H     16.821474   19.359282   15.486488
  H     15.783423   17.953401   15.787546
  H     17.293104   20.017086   17.544188
  H     19.626845   18.105957   20.208311
  H     19.768404   16.213538   18.598507
  H     19.368232   14.176705   19.685605
  H     18.048992   12.765679   21.246596
  H     15.902218   13.629213   22.185526
  H     14.529624   15.336344   22.282227
  H     16.414828   17.308677   20.023742

 Total Charge           Charge          ....    0
 Multiplicity           Mult            ....    1
 Number of Electrons    NEL             ....  154
 Basis Dimension        Dim             ....  828

ORBITAL ENERGIES
----------------

  NO   OCC          E(Eh)            E(eV)
   0   2.0000     -91.889792     -2500.4484
   1   2.0000     -20.596954      -560.4716
   2   2.0000     -20.582411      -560.0759
   3   2.0000     -20.557007      -559.3846
   4   2.0000     -15.629557      -425.3019
   5   2.0000     -15.609167      -424.7470
   6   2.0000     -11.393467      -310.0320
   7   2.0000     -11.385297      -309.8097
   8   2.0000     -11.334354      -308.4235
   9   2.0000     -11.313052      -307.8438
  10   2.0000     -11.309391      -307.7442
  11   2.0000     -11.298279      -307.4418
  12   2.0000     -11.261839      -306.4502
  13   2.0000     -11.259999      -306.4001
  14   2.0000     -11.258524      -306.3600
  15   2.0000     -11.253060      -306.2113
  16   2.0000     -11.242727      -305.9302
  17   2.0000     -11.238595      -305.8177
  18   2.0000     -11.235691      -305.7387
  19   2.0000     -11.232166      -305.6428
  20   2.0000      -8.894860      -242.0414
  21   2.0000      -6.576436      -178.9539
  22   2.0000      -6.574428      -178.8993
  23   2.0000      -6.573842      -178.8833
  24   2.0000      -1.453632       -39.5553
  25   2.0000      -1.416756       -38.5519
  26   2.0000      -1.357401       -36.9368
  27   2.0000      -1.340565       -36.4786
  28   2.0000      -1.238734       -33.7077
  29   2.0000      -1.157163       -31.4880
  30   2.0000      -1.122129       -30.5347
  31   2.0000      -1.045515       -28.4499
  32   2.0000      -1.035378       -28.1741
  33   2.0000      -1.014706       -27.6116
  34   2.0000      -1.000399       -27.2222
  35   2.0000      -0.986067       -26.8322
  36   2.0000      -0.924266       -25.1506
  37   2.0000      -0.879301       -23.9270
  38   2.0000      -0.849813       -23.1246
  39   2.0000      -0.840211       -22.8633
  40   2.0000      -0.833197       -22.6724
  41   2.0000      -0.829492       -22.5716
  42   2.0000      -0.757376       -20.6093
  43   2.0000      -0.736029       -20.0284
  44   2.0000      -0.729250       -19.8439
  45   2.0000      -0.694908       -18.9094
  46   2.0000      -0.687124       -18.6976
  47   2.0000      -0.681776       -18.5521
  48   2.0000      -0.675238       -18.3741
  49   2.0000      -0.657292       -17.8858
  50   2.0000      -0.650028       -17.6882
  51   2.0000      -0.642041       -17.4708
  52   2.0000      -0.629049       -17.1173
  53   2.0000      -0.625961       -17.0333
  54   2.0000      -0.605513       -16.4769
  55   2.0000      -0.603939       -16.4340
  56   2.0000      -0.600488       -16.3401
  57   2.0000      -0.579348       -15.7649
  58   2.0000      -0.576376       -15.6840
  59   2.0000      -0.564628       -15.3643
  60   2.0000      -0.557866       -15.1803
  61   2.0000      -0.549323       -14.9478
  62   2.0000      -0.536062       -14.5870
  63   2.0000      -0.522469       -14.2171
  64   2.0000      -0.522226       -14.2105
  65   2.0000      -0.513263       -13.9666
  66   2.0000      -0.503656       -13.7052
  67   2.0000      -0.498304       -13.5595
  68   2.0000      -0.482194       -13.1212
  69   2.0000      -0.465459       -12.6658
  70   2.0000      -0.458670       -12.4810
  71   2.0000      -0.453013       -12.3271
  72   2.0000      -0.355610        -9.6766
  73   2.0000      -0.348675        -9.4879
  74   2.0000      -0.329060        -8.9542
  75   2.0000      -0.320244        -8.7143
  76   2.0000      -0.316849        -8.6219
  77   0.0000       0.069295         1.8856
  78   0.0000       0.103345         2.8122
  79   0.0000       0.118213         3.2167
  80   0.0000       0.131466         3.5774
  81   0.0000       0.134573         3.6619

MULLIKEN ATOMIC CHARGES
-----------------------
   0 C :   -0.261912
   1 C :    0.028951
   2 O :   -0.371162
   3 C :    0.476571
   4 O :   -0.392367
   5 C :   -0.229756
   6 C :    0.143790
   7 C :   -0.282527
   8 N :   -0.123926
   9 C :    0.200350
  10 S :   -0.438074
  11 N :   -0.201386
  12 C :    0.054551
  13 C :    0.056347
  14 C :   -0.164221
  15 C :   -0.133551
  16 C :   -0.279048
  17 C :    0.323740
  18 O :   -0.360183
  19 C :   -0.310484
  20 H :    0.104013
  21 H :    0.089563
  22 H :    0.092984
  23 H :    0.094568
  24 H :    0.113778
  25 H :    0.126199
  26 H :    0.107725
  27 H :    0.122371
  28 H :    0.197322
  29 H :    0.194276
  30 H :    0.156382
  31 H :    0.158526
  32 H :    0.161600
  33 H :    0.130963
  34 H :    0.241216
  35 H :    0.172813
Sum of atomic charges:   -0.0000000

LOEWDIN ATOMIC CHARGES
----------------------
   0 C :    0.110443
   1 C :   -0.019907
   2 O :    0.289127
   3 C :   -0.419121
   4 O :    0.134157
   5 C :   -0.095361
   6 C :   -0.075525
   7 C :    0.126585
   8 N :    0.404261
   9 C :   -0.457711
  10 S :   -0.035203
  11 N :    0.397014
  12 C :   -0.045531
  13 C :   -0.040969
  14 C :    0.022135
  15 C :    0.042540
  16 C :   -0.001852
  17 C :   -0.195009
  18 O :    0.393440
  19 C :    0.027694
  20 H :   -0.023772
  21 H :   -0.030956
  22 H :   -0.023937
  23 H :   -0.035013
  24 H :   -0.025376
  25 H :   -0.007041
  26 H :   -0.018927
  27 H :   -0.011047
  28 H :   -0.058565
  29 H :   -0.064023
  30 H :   -0.004180
  31 H :   -0.024101
  32 H :   -0.019992
  33 H :   -0.035440
  34 H :   -0.153653
  35 H :   -0.025184

  Mayer bond orders larger than 0.100000
B(  0-C ,  1-C ) :   0.9784 B(  0-C , 20-H ) :   0.9786 B(  0-C , 21-H ) :   0.9788
B(  0-C , 22-H ) :   0.9763 B(  1-C ,  2-O ) :   0.8897 B(  1-C , 23-H ) :   0.9651
B(  1-C , 24-H ) :   0.9773 B(  2-O ,  3-C ) :   1.0979 B(  3-C ,  4-O ) :   2.0445
B(  3-C ,  5-C ) :   1.0081 B(  5-C ,  6-C ) :   1.6641 B(  5-C , 12-C ) :   0.9626
B(  6-C ,  7-C ) :   0.9534 B(  6-C ,  8-N ) :   1.1381 B(  7-C , 25-H ) :   0.9704
B(  7-C , 26-H ) :   0.9872 B(  7-C , 27-H ) :   0.9635 B(  8-N ,  9-C ) :   1.1832
B(  8-N , 28-H ) :   0.9497 B(  9-C , 10-S ) :   1.6132 B(  9-C , 11-N ) :   1.2989
B( 11-N , 12-C ) :   0.9931 B( 11-N , 29-H ) :   0.9519 B( 12-C , 13-C ) :   0.9450
B( 12-C , 30-H ) :   0.9988 B( 13-C , 14-C ) :   1.3808 B( 13-C , 19-C ) :   1.3504
B( 14-C , 15-C ) :   1.3944 B( 14-C , 31-H ) :   0.9626 B( 15-C , 16-C ) :   1.3645
B( 15-C , 32-H ) :   0.9705 B( 16-C , 17-C ) :   1.3315 B( 16-C , 33-H ) :   0.9847
B( 17-C , 18-O ) :   1.1093 B( 17-C , 19-C ) :   1.3660 B( 18-O , 34-H ) :   0.9798
B( 19-C , 35-H ) :   0.9592

MP2 TOTAL ENERGY:    -1274.323687822 Eh
FINAL SINGLE POINT ENERGY     -1274.323687822038

DIPOLE MOMENT
-------------
                                X             Y             Z
Electronic contribution:     11.28779       9.11417       7.72539
Nuclear contribution   :    -12.59784     -10.33583      -8.18548
                        -----------------------------------------
Total Dipole Moment    :     -1.31006      -1.22166      -0.46009
                        -----------------------------------------
Magnitude (a.u.)       :      1.84942
Magnitude (Debye)      :      4.70086

Rotational constants in cm-1:     0.011348     0.009250     0.006651
Rotational constants in MHz :   340.190905   277.311223   199.406314

                             ****ORCA TERMINATED NORMALLY****
TOTAL RUN TIME: 0 days 1 hours 44 minutes 57 seconds 195 msec
