                         Program Version 4.2.0 -  RELEASE  -
|  1> ! ri-mp2 cc-pvtz cc-pvtz/c TightSCF  NoKeepInts
|  2>
|  3> %scf
|  4>   MaxCore 4096
|  5> end
|  6> *xyz  0  1
|  7>     C       15.2175891   14.5442463   17.1928266
|  8>     C       15.5908621   14.9158161   15.7398902
|  9>     O       16.5553449   15.9884494   15.7126673
| 10>     C       17.7022719   15.9004798   16.4472774
| 11>     O       18.3042729   14.8455689   16.5626765
| 12>     C       17.8858470   17.0345918   17.4125387
| 13>     C       17.3853697   18.2844575   17.2358968
| 14>     C       16.5910520   18.8075996   16.0570228
| 15>     N       17.6532668   19.2797781   18.1811558
| 16>     C       18.5137279   19.1448047   19.2387229
| 17>     S       18.8633942   20.4104466   20.2443960
| 18>     N       19.0706797   17.9041371   19.4201478
| 19>     C       18.6984089   16.6925929   18.6656933
| 20>     C       17.9311671   15.7219031   19.5592019
| 21>     C       18.3802790   14.3989295   19.7260849
| 22>     C       17.6662286   13.4963489   20.5318745
| 23>     C       16.4913512   13.9189880   21.1765800
| 24>     C       16.0393049   15.2350824   21.0109771
| 25>     O       14.8996915   15.6435740   21.6236651
| 26>     C       16.7526767   16.1314698   20.2093437
| 27>     H       16.0560405   14.0663280   17.7149026
| 28>     H       14.3793957   13.8373666   17.2005032
| 29>     H       14.9168004   15.4341921   17.7595058
| 30>     H       16.0039257   14.0315343   15.2359589
| 31>     H       14.6893140   15.2252102   15.1959380
| 32>     H       15.5629886   18.4254605   16.0832264
| 33>     H       17.0439766   18.4913390   15.1090058
| 34>     H       16.5388277   19.9029419   16.0364755
| 35>     H       17.2550148   20.1979154   18.0649428
| 36>     H       19.6776356   17.8233889   20.2257778
| 37>     H       19.6274126   16.2026909   18.3398503
| 38>     H       19.2769499   14.0636246   19.2105231
| 39>     H       18.0207531   12.4736049   20.6469241
| 40>     H       15.9350117   13.2240570   21.7966906
| 41>     H       14.5841526   14.9072981   22.1689429
| 42>     H       16.3860144   17.1457830   20.0961934
| 43> *
| 44>
| 45>                          ****END OF INPUT****

CARTESIAN COORDINATES (ANGSTROEM)
---------------------------------
  C     15.217589   14.544246   17.192827
  C     15.590862   14.915816   15.739890
  O     16.555345   15.988449   15.712667
  C     17.702272   15.900480   16.447277
  O     18.304273   14.845569   16.562676
  C     17.885847   17.034592   17.412539
  C     17.385370   18.284457   17.235897
  C     16.591052   18.807600   16.057023
  N     17.653267   19.279778   18.181156
  C     18.513728   19.144805   19.238723
  S     18.863394   20.410447   20.244396
  N     19.070680   17.904137   19.420148
  C     18.698409   16.692593   18.665693
  C     17.931167   15.721903   19.559202
  C     18.380279   14.398929   19.726085
  C     17.666229   13.496349   20.531875
  C     16.491351   13.918988   21.176580
  C     16.039305   15.235082   21.010977
  O     14.899691   15.643574   21.623665
  C     16.752677   16.131470   20.209344
  H     16.056041   14.066328   17.714903
  H     14.379396   13.837367   17.200503
  H     14.916800   15.434192   17.759506
  H     16.003926   14.031534   15.235959
  H     14.689314   15.225210   15.195938
  H     15.562989   18.425460   16.083226
  H     17.043977   18.491339   15.109006
  H     16.538828   19.902942   16.036476
  H     17.255015   20.197915   18.064943
  H     19.677636   17.823389   20.225778
  H     19.627413   16.202691   18.339850
  H     19.276950   14.063625   19.210523
  H     18.020753   12.473605   20.646924
  H     15.935012   13.224057   21.796691
  H     14.584153   14.907298   22.168943
  H     16.386014   17.145783   20.096193

 Total Charge           Charge          ....    0
 Multiplicity           Mult            ....    1
 Number of Electrons    NEL             ....  154
 Basis Dimension        Dim             ....  828

ORBITAL ENERGIES
----------------

  NO   OCC          E(Eh)            E(eV)
   0   2.0000     -91.888845     -2500.4226
   1   2.0000     -20.595029      -560.4192
   2   2.0000     -20.590357      -560.2921
   3   2.0000     -20.549706      -559.1859
   4   2.0000     -15.628920      -425.2845
   5   2.0000     -15.607952      -424.7140
   6   2.0000     -11.395282      -310.0814
   7   2.0000     -11.384051      -309.7758
   8   2.0000     -11.335480      -308.4541
   9   2.0000     -11.310870      -307.7844
  10   2.0000     -11.307566      -307.6945
  11   2.0000     -11.300775      -307.5097
  12   2.0000     -11.260387      -306.4107
  13   2.0000     -11.259389      -306.3835
  14   2.0000     -11.256267      -306.2986
  15   2.0000     -11.251231      -306.1616
  16   2.0000     -11.240873      -305.8797
  17   2.0000     -11.236350      -305.7566
  18   2.0000     -11.233833      -305.6881
  19   2.0000     -11.223425      -305.4049
  20   2.0000      -8.893912      -242.0156
  21   2.0000      -6.575488      -178.9281
  22   2.0000      -6.573481      -178.8735
  23   2.0000      -6.572895      -178.8576
  24   2.0000      -1.450317       -39.4651
  25   2.0000      -1.414786       -38.4983
  26   2.0000      -1.355003       -36.8715
  27   2.0000      -1.339958       -36.4621
  28   2.0000      -1.237926       -33.6857
  29   2.0000      -1.155324       -31.4380
  30   2.0000      -1.120810       -30.4988
  31   2.0000      -1.043384       -28.3919
  32   2.0000      -1.030594       -28.0439
  33   2.0000      -1.012694       -27.5568
  34   2.0000      -0.999134       -27.1878
  35   2.0000      -0.984764       -26.7968
  36   2.0000      -0.923306       -25.1244
  37   2.0000      -0.894333       -24.3360
  38   2.0000      -0.848352       -23.0848
  39   2.0000      -0.837535       -22.7905
  40   2.0000      -0.831255       -22.6196
  41   2.0000      -0.815701       -22.1964
  42   2.0000      -0.747712       -20.3463
  43   2.0000      -0.734340       -19.9824
  44   2.0000      -0.727288       -19.7905
  45   2.0000      -0.693179       -18.8624
  46   2.0000      -0.686224       -18.6731
  47   2.0000      -0.677188       -18.4272
  48   2.0000      -0.671978       -18.2855
  49   2.0000      -0.657941       -17.9035
  50   2.0000      -0.654246       -17.8029
  51   2.0000      -0.645486       -17.5646
  52   2.0000      -0.634200       -17.2574
  53   2.0000      -0.615753       -16.7555
  54   2.0000      -0.602973       -16.4077
  55   2.0000      -0.601978       -16.3807
  56   2.0000      -0.598758       -16.2930
  57   2.0000      -0.579086       -15.7577
  58   2.0000      -0.575712       -15.6659
  59   2.0000      -0.563469       -15.3328
  60   2.0000      -0.552455       -15.0331
  61   2.0000      -0.546837       -14.8802
  62   2.0000      -0.533687       -14.5224
  63   2.0000      -0.531713       -14.4687
  64   2.0000      -0.520164       -14.1544
  65   2.0000      -0.510611       -13.8944
  66   2.0000      -0.499011       -13.5788
  67   2.0000      -0.492799       -13.4097
  68   2.0000      -0.481418       -13.1000
  69   2.0000      -0.464283       -12.6338
  70   2.0000      -0.457947       -12.4614
  71   2.0000      -0.449047       -12.2192
  72   2.0000      -0.354432        -9.6446
  73   2.0000      -0.346949        -9.4410
  74   2.0000      -0.328065        -8.9271
  75   2.0000      -0.318381        -8.6636
  76   2.0000      -0.315809        -8.5936
  77   0.0000       0.072690         1.9780
  78   0.0000       0.107480         2.9247
  79   0.0000       0.119282         3.2458
  80   0.0000       0.132713         3.6113
  81   0.0000       0.141515         3.8508

MULLIKEN ATOMIC CHARGES
-----------------------
   0 C :   -0.333793
   1 C :    0.048399
   2 O :   -0.376333
   3 C :    0.450044
   4 O :   -0.416026
   5 C :   -0.181815
   6 C :    0.144213
   7 C :   -0.281548
   8 N :   -0.123820
   9 C :    0.203023
  10 S :   -0.439050
  11 N :   -0.200073
  12 C :    0.050392
  13 C :    0.047500
  14 C :   -0.163865
  15 C :   -0.133760
  16 C :   -0.278375
  17 C :    0.318491
  18 O :   -0.361100
  19 C :   -0.283651
  20 H :    0.131385
  21 H :    0.108178
  22 H :    0.102212
  23 H :    0.106059
  24 H :    0.106750
  25 H :    0.123727
  26 H :    0.127449
  27 H :    0.102949
  28 H :    0.197195
  29 H :    0.194024
  30 H :    0.153610
  31 H :    0.155693
  32 H :    0.161050
  33 H :    0.130343
  34 H :    0.240791
  35 H :    0.169731
Sum of atomic charges:   -0.0000000

LOEWDIN ATOMIC CHARGES
----------------------
   0 C :    0.105244
   1 C :   -0.015960
   2 O :    0.291532
   3 C :   -0.416128
   4 O :    0.115166
   5 C :   -0.092872
   6 C :   -0.069425
   7 C :    0.125831
   8 N :    0.404688
   9 C :   -0.458088
  10 S :   -0.035756
  11 N :    0.397646
  12 C :   -0.045650
  13 C :   -0.040584
  14 C :    0.021189
  15 C :    0.040756
  16 C :   -0.002062
  17 C :   -0.192828
  18 O :    0.393803
  19 C :    0.030842
  20 H :   -0.022472
  21 H :   -0.025788
  22 H :   -0.029696
  23 H :   -0.028086
  24 H :   -0.025184
  25 H :   -0.010324
  26 H :   -0.007369
  27 H :   -0.020425
  28 H :   -0.058815
  29 H :   -0.063832
  30 H :   -0.004692
  31 H :   -0.024937
  32 H :   -0.020620
  33 H :   -0.035782
  34 H :   -0.154184
  35 H :   -0.025136

  Mayer bond orders larger than 0.100000
B(  0-C ,  1-C ) :   0.9590 B(  0-C , 20-H ) :   0.9668 B(  0-C , 21-H ) :   0.9766
B(  0-C , 22-H ) :   0.9729 B(  1-C ,  2-O ) :   0.8954 B(  1-C , 23-H ) :   0.9838
B(  1-C , 24-H ) :   0.9836 B(  2-O ,  3-C ) :   1.0998 B(  3-C ,  4-O ) :   2.0084
B(  3-C ,  5-C ) :   1.0416 B(  5-C ,  6-C ) :   1.6556 B(  5-C , 12-C ) :   0.9661
B(  6-C ,  7-C ) :   0.9541 B(  6-C ,  8-N ) :   1.1436 B(  7-C , 25-H ) :   0.9636
B(  7-C , 26-H ) :   0.9674 B(  7-C , 27-H ) :   0.9899 B(  8-N ,  9-C ) :   1.1816
B(  8-N , 28-H ) :   0.9492 B(  9-C , 10-S ) :   1.6111 B(  9-C , 11-N ) :   1.3023
B( 11-N , 12-C ) :   0.9916 B( 11-N , 29-H ) :   0.9519 B( 12-C , 13-C ) :   0.9439
B( 12-C , 30-H ) :   0.9990 B( 13-C , 14-C ) :   1.3781 B( 13-C , 19-C ) :   1.3608
B( 14-C , 15-C ) :   1.3925 B( 14-C , 31-H ) :   0.9646 B( 15-C , 16-C ) :   1.3620
B( 15-C , 32-H ) :   0.9712 B( 16-C , 17-C ) :   1.3325 B( 16-C , 33-H ) :   0.9850
B( 17-C , 18-O ) :   1.1074 B( 17-C , 19-C ) :   1.3709 B( 18-O , 34-H ) :   0.9803
B( 19-C , 35-H ) :   0.9583

MP2 TOTAL ENERGY:    -1274.337331226 Eh
FINAL SINGLE POINT ENERGY     -1274.337331226046

DIPOLE MOMENT
-------------
                                X             Y             Z
Electronic contribution:      9.78031       9.25425       6.53844
Nuclear contribution   :    -11.18843     -10.50199      -7.34017
                        -----------------------------------------
Total Dipole Moment    :     -1.40812      -1.24774      -0.80173
                        -----------------------------------------
Magnitude (a.u.)       :      2.04510
Magnitude (Debye)      :      5.19823

Rotational constants in cm-1:     0.011892     0.009400     0.006629
Rotational constants in MHz :   356.503701   281.802033   198.725143

                             ****ORCA TERMINATED NORMALLY****
TOTAL RUN TIME: 0 days 1 hours 46 minutes 38 seconds 812 msec
