                         Program Version 4.2.0 -  RELEASE  -
|  1> ! ri-mp2 cc-pvtz cc-pvtz/c TightSCF  NoKeepInts
|  2>
|  3> %scf
|  4>   MaxCore 4096
|  5> end
|  6> *xyz  0  1
|  7>     C       15.6983181   13.8530816   14.9955749
|  8>     C       15.5294614   14.3074657   16.4558489
|  9>     O       16.6006718   15.2171125   16.7619265
| 10>     C       16.3672157   16.5643845   16.7642120
| 11>     O       15.4011182   17.0597182   16.2087249
| 12>     C       17.3459064   17.3216456   17.6187817
| 13>     C       17.3263715   18.6747619   17.7229771
| 14>     C       16.3718406   19.6326672   17.0427470
| 15>     N       18.2855386   19.3321193   18.4992788
| 16>     C       19.3512645   18.7249606   19.1081363
| 17>     S       20.4983714   19.5886019   19.9292088
| 18>     N       19.4216875   17.3595242   18.9997810
| 19>     C       18.3842992   16.5001146   18.4004944
| 20>     C       17.7338891   15.6450166   19.4845275
| 21>     C       17.9136361   14.2489309   19.4956220
| 22>     C       17.3133858   13.4585160   20.4901681
| 23>     C       16.5292205   14.0688774   21.4839037
| 24>     C       16.3517244   15.4592524   21.4784761
| 25>     O       15.5960953   16.0515855   22.4372062
| 26>     C       16.9498724   16.2431246   20.4870795
| 27>     H       15.6064025   14.7083266   14.3139876
| 28>     H       14.9274603   13.1198745   14.7293235
| 29>     H       16.6815195   13.3911456   14.8431144
| 30>     H       14.5434877   14.7664721   16.6127190
| 31>     H       15.6025778   13.4306939   17.1121284
| 32>     H       15.3400785   19.4398498   17.3636742
| 33>     H       16.4048838   19.5029092   15.9535201
| 34>     H       16.5943272   20.6845949   17.2566169
| 35>     H       18.2505498   20.3350473   18.5885681
| 36>     H       20.1984228   16.9368648   19.4915958
| 37>     H       18.8869395   15.8327075   17.6863660
| 38>     H       18.5153894   13.7741788   18.7252211
| 39>     H       17.4571348   12.3794465   20.4893141
| 40>     H       16.0641810   13.4629815   22.2545682
| 41>     H       15.2978215   15.3573786   23.0437422
| 42>     H       16.8059353   17.3180675   20.5048649
| 43> *
| 44>
| 45>                          ****END OF INPUT****

CARTESIAN COORDINATES (ANGSTROEM)
---------------------------------
  C     15.698318   13.853082   14.995575
  C     15.529461   14.307466   16.455849
  O     16.600672   15.217112   16.761927
  C     16.367216   16.564384   16.764212
  O     15.401118   17.059718   16.208725
  C     17.345906   17.321646   17.618782
  C     17.326372   18.674762   17.722977
  C     16.371841   19.632667   17.042747
  N     18.285539   19.332119   18.499279
  C     19.351264   18.724961   19.108136
  S     20.498371   19.588602   19.929209
  N     19.421687   17.359524   18.999781
  C     18.384299   16.500115   18.400494
  C     17.733889   15.645017   19.484527
  C     17.913636   14.248931   19.495622
  C     17.313386   13.458516   20.490168
  C     16.529221   14.068877   21.483904
  C     16.351724   15.459252   21.478476
  O     15.596095   16.051586   22.437206
  C     16.949872   16.243125   20.487080
  H     15.606402   14.708327   14.313988
  H     14.927460   13.119874   14.729323
  H     16.681520   13.391146   14.843114
  H     14.543488   14.766472   16.612719
  H     15.602578   13.430694   17.112128
  H     15.340078   19.439850   17.363674
  H     16.404884   19.502909   15.953520
  H     16.594327   20.684595   17.256617
  H     18.250550   20.335047   18.588568
  H     20.198423   16.936865   19.491596
  H     18.886940   15.832707   17.686366
  H     18.515389   13.774179   18.725221
  H     17.457135   12.379447   20.489314
  H     16.064181   13.462981   22.254568
  H     15.297821   15.357379   23.043742
  H     16.805935   17.318068   20.504865

 Total Charge           Charge          ....    0
 Multiplicity           Mult            ....    1
 Number of Electrons    NEL             ....  154
 Basis Dimension        Dim             ....  828

ORBITAL ENERGIES
----------------

  NO   OCC          E(Eh)            E(eV)
   0   2.0000     -91.888926     -2500.4248
   1   2.0000     -20.600184      -560.5595
   2   2.0000     -20.596192      -560.4509
   3   2.0000     -20.542521      -558.9904
   4   2.0000     -15.629163      -425.2911
   5   2.0000     -15.608244      -424.7219
   6   2.0000     -11.395459      -310.0862
   7   2.0000     -11.384031      -309.7752
   8   2.0000     -11.336043      -308.4694
   9   2.0000     -11.313353      -307.8520
  10   2.0000     -11.308972      -307.7328
  11   2.0000     -11.296018      -307.3803
  12   2.0000     -11.259340      -306.3822
  13   2.0000     -11.258913      -306.3706
  14   2.0000     -11.254893      -306.2612
  15   2.0000     -11.252162      -306.1869
  16   2.0000     -11.242652      -305.9281
  17   2.0000     -11.238091      -305.8040
  18   2.0000     -11.237874      -305.7981
  19   2.0000     -11.224910      -305.4453
  20   2.0000      -8.893985      -242.0176
  21   2.0000      -6.575559      -178.9301
  22   2.0000      -6.573555      -178.8755
  23   2.0000      -6.572967      -178.8595
  24   2.0000      -1.451583       -39.4996
  25   2.0000      -1.415840       -38.5270
  26   2.0000      -1.354982       -36.8709
  27   2.0000      -1.340086       -36.4656
  28   2.0000      -1.238504       -33.7014
  29   2.0000      -1.157297       -31.4917
  30   2.0000      -1.120389       -30.4873
  31   2.0000      -1.042708       -28.3735
  32   2.0000      -1.037270       -28.2255
  33   2.0000      -1.014708       -27.6116
  34   2.0000      -0.995378       -27.0856
  35   2.0000      -0.984038       -26.7770
  36   2.0000      -0.922442       -25.1009
  37   2.0000      -0.890773       -24.2392
  38   2.0000      -0.847016       -23.0485
  39   2.0000      -0.837515       -22.7899
  40   2.0000      -0.833707       -22.6863
  41   2.0000      -0.818720       -22.2785
  42   2.0000      -0.760748       -20.7010
  43   2.0000      -0.732153       -19.9229
  44   2.0000      -0.723195       -19.6791
  45   2.0000      -0.695308       -18.9203
  46   2.0000      -0.688074       -18.7234
  47   2.0000      -0.680319       -18.5124
  48   2.0000      -0.671647       -18.2765
  49   2.0000      -0.653771       -17.7900
  50   2.0000      -0.646189       -17.5837
  51   2.0000      -0.644590       -17.5402
  52   2.0000      -0.629060       -17.1176
  53   2.0000      -0.614144       -16.7117
  54   2.0000      -0.606424       -16.5016
  55   2.0000      -0.599282       -16.3073
  56   2.0000      -0.598524       -16.2867
  57   2.0000      -0.578828       -15.7507
  58   2.0000      -0.571416       -15.5490
  59   2.0000      -0.569515       -15.4973
  60   2.0000      -0.563671       -15.3383
  61   2.0000      -0.539504       -14.6807
  62   2.0000      -0.534362       -14.5407
  63   2.0000      -0.528332       -14.3766
  64   2.0000      -0.524694       -14.2777
  65   2.0000      -0.513436       -13.9713
  66   2.0000      -0.501102       -13.6357
  67   2.0000      -0.496963       -13.5231
  68   2.0000      -0.486448       -13.2369
  69   2.0000      -0.464115       -12.6292
  70   2.0000      -0.454027       -12.3547
  71   2.0000      -0.449007       -12.2181
  72   2.0000      -0.354344        -9.6422
  73   2.0000      -0.349071        -9.4987
  74   2.0000      -0.328245        -8.9320
  75   2.0000      -0.321050        -8.7362
  76   2.0000      -0.316030        -8.5996
  77   0.0000       0.075864         2.0644
  78   0.0000       0.106652         2.9022
  79   0.0000       0.124987         3.4011
  80   0.0000       0.132570         3.6074
  81   0.0000       0.136906         3.7254

MULLIKEN ATOMIC CHARGES
-----------------------
   0 C :   -0.274596
   1 C :    0.034915
   2 O :   -0.355930
   3 C :    0.462897
   4 O :   -0.434764
   5 C :   -0.218049
   6 C :    0.152005
   7 C :   -0.273830
   8 N :   -0.120900
   9 C :    0.210740
  10 S :   -0.439606
  11 N :   -0.203868
  12 C :    0.053146
  13 C :    0.066795
  14 C :   -0.185942
  15 C :   -0.131626
  16 C :   -0.279072
  17 C :    0.315955
  18 O :   -0.356616
  19 C :   -0.269104
  20 H :    0.106870
  21 H :    0.091545
  22 H :    0.091146
  23 H :    0.104165
  24 H :    0.107099
  25 H :    0.132354
  26 H :    0.130400
  27 H :    0.095221
  28 H :    0.197412
  29 H :    0.194565
  30 H :    0.150781
  31 H :    0.149974
  32 H :    0.160782
  33 H :    0.129765
  34 H :    0.240641
  35 H :    0.164731
Sum of atomic charges:   -0.0000000

LOEWDIN ATOMIC CHARGES
----------------------
   0 C :    0.104536
   1 C :   -0.015142
   2 O :    0.309494
   3 C :   -0.414357
   4 O :    0.095767
   5 C :   -0.094616
   6 C :   -0.058782
   7 C :    0.131579
   8 N :    0.406585
   9 C :   -0.456537
  10 S :   -0.035235
  11 N :    0.396499
  12 C :   -0.052474
  13 C :   -0.038556
  14 C :    0.014493
  15 C :    0.038390
  16 C :   -0.001867
  17 C :   -0.189453
  18 O :    0.395170
  19 C :    0.031416
  20 H :   -0.024282
  21 H :   -0.027437
  22 H :   -0.029486
  23 H :   -0.027648
  24 H :   -0.028131
  25 H :   -0.004498
  26 H :   -0.004054
  27 H :   -0.023360
  28 H :   -0.057553
  29 H :   -0.064558
  30 H :   -0.010822
  31 H :   -0.030165
  32 H :   -0.021539
  33 H :   -0.035671
  34 H :   -0.153955
  35 H :   -0.023749

  Mayer bond orders larger than 0.100000
B(  0-C ,  1-C ) :   0.9722 B(  0-C , 20-H ) :   0.9775 B(  0-C , 21-H ) :   0.9762
B(  0-C , 22-H ) :   0.9781 B(  1-C ,  2-O ) :   0.8853 B(  1-C , 23-H ) :   0.9741
B(  1-C , 24-H ) :   0.9799 B(  2-O ,  3-C ) :   1.1608 B(  3-C ,  4-O ) :   1.9597
B(  3-C ,  5-C ) :   1.0661 B(  5-C ,  6-C ) :   1.6553 B(  5-C , 12-C ) :   0.9729
B(  6-C ,  7-C ) :   0.9672 B(  6-C ,  8-N ) :   1.1639 B(  7-C , 25-H ) :   0.9600
B(  7-C , 26-H ) :   0.9606 B(  7-C , 27-H ) :   0.9906 B(  8-N ,  9-C ) :   1.1826
B(  8-N , 28-H ) :   0.9478 B(  9-C , 10-S ) :   1.6079 B(  9-C , 11-N ) :   1.3049
B( 11-N , 12-C ) :   0.9875 B( 11-N , 29-H ) :   0.9516 B( 12-C , 13-C ) :   0.9364
B( 12-C , 30-H ) :   1.0027 B( 13-C , 14-C ) :   1.3542 B( 13-C , 19-C ) :   1.3824
B( 14-C , 15-C ) :   1.3903 B( 14-C , 31-H ) :   0.9718 B( 15-C , 16-C ) :   1.3638
B( 15-C , 32-H ) :   0.9706 B( 16-C , 17-C ) :   1.3315 B( 16-C , 33-H ) :   0.9851
B( 17-C , 18-O ) :   1.1100 B( 17-C , 19-C ) :   1.3727 B( 18-O , 34-H ) :   0.9799
B( 19-C , 35-H ) :   0.9583

MP2 TOTAL ENERGY:    -1274.348837302 Eh
FINAL SINGLE POINT ENERGY     -1274.348837301924

DIPOLE MOMENT
-------------
                                X             Y             Z
Electronic contribution:      9.62339       9.83884       9.86647
Nuclear contribution   :    -10.76654     -11.45760     -10.16521
                        -----------------------------------------
Total Dipole Moment    :     -1.14315      -1.61876      -0.29874
                        -----------------------------------------
Magnitude (a.u.)       :      2.00410
Magnitude (Debye)      :      5.09402

Rotational constants in cm-1:     0.011167     0.008696     0.006049
Rotational constants in MHz :   334.778657   260.695644   181.340720

                             ****ORCA TERMINATED NORMALLY****
TOTAL RUN TIME: 0 days 1 hours 38 minutes 2 seconds 678 msec
