                         Program Version 4.2.0 -  RELEASE  -
|  1> ! ri-mp2 cc-pvtz cc-pvtz/c TightSCF  NoKeepInts
|  2>
|  3> %scf
|  4>   MaxCore 4096
|  5> end
|  6> *xyz  0  1
|  7>     C       14.2347165   14.9764496   16.4011467
|  8>     C       15.4375776   15.5677262   17.1536307
|  9>     O       16.6220151   15.1617170   16.4407823
| 10>     C       17.8218682   15.8290878   16.4509994
| 11>     O       18.8250603   15.2438395   16.0882603
| 12>     C       17.9277089   16.9609013   17.4170952
| 13>     C       17.3900485   18.1756020   17.1649127
| 14>     C       16.6251891   18.5896683   15.9258062
| 15>     N       17.5815990   19.2218573   18.0693695
| 16>     C       18.3747718   19.1499472   19.1855980
| 17>     S       18.5913643   20.4523140   20.1809223
| 18>     N       18.9769879   17.9412732   19.4399114
| 19>     C       18.7658131   16.7006451   18.6664285
| 20>     C       18.1286921   15.6064164   19.5171123
| 21>     C       18.5582002   14.2734603   19.3834584
| 22>     C       17.9601538   13.2491463   20.1359176
| 23>     C       16.9201732   13.5584432   21.0287097
| 24>     C       16.4840637   14.8835262   21.1597957
| 25>     O       15.4690428   15.1835882   22.0082604
| 26>     C       17.0800863   15.9016021   20.4086307
| 27>     H       13.2967034   15.2391006   16.9052194
| 28>     H       14.3072953   13.8822117   16.3601311
| 29>     H       14.1934318   15.3581406   15.3734272
| 30>     H       15.3156911   16.6542119   17.1819439
| 31>     H       15.4673661   15.1912842   18.1845977
| 32>     H       16.5066399   17.7670807   15.2098641
| 33>     H       17.1511111   19.3964180   15.3991552
| 34>     H       15.6217371   18.9515353   16.1821164
| 35>     H       17.1647866   20.1223436   17.8912342
| 36>     H       19.5416619   17.9141048   20.2796936
| 37>     H       19.7518819   16.3424180   18.3349096
| 38>     H       19.3494189   14.0281449   18.6777396
| 39>     H       18.2991513   12.2211154   20.0187526
| 40>     H       16.4535302   12.7690964   21.6088424
| 41>     H       15.2305460   14.3686501   22.4759119
| 42>     H       16.7209149   16.9189324   20.5237132
| 43> *
| 44>
| 45>                          ****END OF INPUT****

CARTESIAN COORDINATES (ANGSTROEM)
---------------------------------
  C     14.234716   14.976450   16.401147
  C     15.437578   15.567726   17.153631
  O     16.622015   15.161717   16.440782
  C     17.821868   15.829088   16.450999
  O     18.825060   15.243839   16.088260
  C     17.927709   16.960901   17.417095
  C     17.390048   18.175602   17.164913
  C     16.625189   18.589668   15.925806
  N     17.581599   19.221857   18.069370
  C     18.374772   19.149947   19.185598
  S     18.591364   20.452314   20.180922
  N     18.976988   17.941273   19.439911
  C     18.765813   16.700645   18.666428
  C     18.128692   15.606416   19.517112
  C     18.558200   14.273460   19.383458
  C     17.960154   13.249146   20.135918
  C     16.920173   13.558443   21.028710
  C     16.484064   14.883526   21.159796
  O     15.469043   15.183588   22.008260
  C     17.080086   15.901602   20.408631
  H     13.296703   15.239101   16.905219
  H     14.307295   13.882212   16.360131
  H     14.193432   15.358141   15.373427
  H     15.315691   16.654212   17.181944
  H     15.467366   15.191284   18.184598
  H     16.506640   17.767081   15.209864
  H     17.151111   19.396418   15.399155
  H     15.621737   18.951535   16.182116
  H     17.164787   20.122344   17.891234
  H     19.541662   17.914105   20.279694
  H     19.751882   16.342418   18.334910
  H     19.349419   14.028145   18.677740
  H     18.299151   12.221115   20.018753
  H     16.453530   12.769096   21.608842
  H     15.230546   14.368650   22.475912
  H     16.720915   16.918932   20.523713

 Total Charge           Charge          ....    0
 Multiplicity           Mult            ....    1
 Number of Electrons    NEL             ....  154
 Basis Dimension        Dim             ....  828

ORBITAL ENERGIES
----------------

  NO   OCC          E(Eh)            E(eV)
   0   2.0000     -91.889732     -2500.4467
   1   2.0000     -20.601418      -560.5931
   2   2.0000     -20.600323      -560.5633
   3   2.0000     -20.551285      -559.2289
   4   2.0000     -15.626067      -425.2069
   5   2.0000     -15.611887      -424.8210
   6   2.0000     -11.397970      -310.1545
   7   2.0000     -11.386741      -309.8490
   8   2.0000     -11.327267      -308.2306
   9   2.0000     -11.317174      -307.9560
  10   2.0000     -11.316123      -307.9274
  11   2.0000     -11.302059      -307.5447
  12   2.0000     -11.270794      -306.6939
  13   2.0000     -11.264810      -306.5311
  14   2.0000     -11.264196      -306.5144
  15   2.0000     -11.257447      -306.3307
  16   2.0000     -11.246665      -306.0373
  17   2.0000     -11.242456      -305.9228
  18   2.0000     -11.239881      -305.8527
  19   2.0000     -11.233351      -305.6750
  20   2.0000      -8.894854      -242.0413
  21   2.0000      -6.576445      -178.9542
  22   2.0000      -6.574416      -178.8989
  23   2.0000      -6.573843      -178.8834
  24   2.0000      -1.449136       -39.4330
  25   2.0000      -1.420165       -38.6447
  26   2.0000      -1.359969       -37.0066
  27   2.0000      -1.339715       -36.4555
  28   2.0000      -1.239832       -33.7375
  29   2.0000      -1.161938       -31.6179
  30   2.0000      -1.126118       -30.6432
  31   2.0000      -1.049745       -28.5650
  32   2.0000      -1.040738       -28.3199
  33   2.0000      -1.019525       -27.7427
  34   2.0000      -1.005602       -27.3638
  35   2.0000      -0.989545       -26.9269
  36   2.0000      -0.928339       -25.2614
  37   2.0000      -0.882070       -24.0023
  38   2.0000      -0.855327       -23.2746
  39   2.0000      -0.842079       -22.9141
  40   2.0000      -0.837704       -22.7951
  41   2.0000      -0.836945       -22.7744
  42   2.0000      -0.757467       -20.6117
  43   2.0000      -0.739333       -20.1183
  44   2.0000      -0.732550       -19.9337
  45   2.0000      -0.697757       -18.9869
  46   2.0000      -0.688613       -18.7381
  47   2.0000      -0.680660       -18.5217
  48   2.0000      -0.677668       -18.4403
  49   2.0000      -0.666647       -18.1404
  50   2.0000      -0.653243       -17.7756
  51   2.0000      -0.650399       -17.6982
  52   2.0000      -0.639690       -17.4068
  53   2.0000      -0.612582       -16.6692
  54   2.0000      -0.608331       -16.5535
  55   2.0000      -0.604260       -16.4427
  56   2.0000      -0.596517       -16.2320
  57   2.0000      -0.587377       -15.9833
  58   2.0000      -0.578493       -15.7416
  59   2.0000      -0.570534       -15.5250
  60   2.0000      -0.563508       -15.3338
  61   2.0000      -0.560782       -15.2596
  62   2.0000      -0.548759       -14.9325
  63   2.0000      -0.528139       -14.3714
  64   2.0000      -0.523139       -14.2353
  65   2.0000      -0.515338       -14.0231
  66   2.0000      -0.505209       -13.7474
  67   2.0000      -0.502790       -13.6816
  68   2.0000      -0.488388       -13.2897
  69   2.0000      -0.469942       -12.7878
  70   2.0000      -0.453433       -12.3385
  71   2.0000      -0.450022       -12.2457
  72   2.0000      -0.357071        -9.7164
  73   2.0000      -0.352123        -9.5818
  74   2.0000      -0.329489        -8.9658
  75   2.0000      -0.325153        -8.8479
  76   2.0000      -0.318184        -8.6582
  77   0.0000       0.088322         2.4034
  78   0.0000       0.104633         2.8472
  79   0.0000       0.110857         3.0166
  80   0.0000       0.127460         3.4684
  81   0.0000       0.129571         3.5258

MULLIKEN ATOMIC CHARGES
-----------------------
   0 C :   -0.255158
   1 C :    0.012302
   2 O :   -0.306947
   3 C :    0.385750
   4 O :   -0.379867
   5 C :   -0.167651
   6 C :    0.122635
   7 C :   -0.321391
   8 N :   -0.134889
   9 C :    0.205962
  10 S :   -0.441863
  11 N :   -0.218161
  12 C :    0.067220
  13 C :    0.020561
  14 C :   -0.191726
  15 C :   -0.133337
  16 C :   -0.273642
  17 C :    0.319284
  18 O :   -0.359234
  19 C :   -0.279246
  20 H :    0.089120
  21 H :    0.106928
  22 H :    0.094105
  23 H :    0.088979
  24 H :    0.124375
  25 H :    0.120926
  26 H :    0.144002
  27 H :    0.118201
  28 H :    0.195242
  29 H :    0.199415
  30 H :    0.165542
  31 H :    0.167419
  32 H :    0.163964
  33 H :    0.133053
  34 H :    0.241679
  35 H :    0.176447
Sum of atomic charges:    0.0000000

LOEWDIN ATOMIC CHARGES
----------------------
   0 C :    0.109376
   1 C :   -0.021756
   2 O :    0.311120
   3 C :   -0.417785
   4 O :    0.125912
   5 C :   -0.080310
   6 C :   -0.109218
   7 C :    0.123242
   8 N :    0.400780
   9 C :   -0.455275
  10 S :   -0.038485
  11 N :    0.397395
  12 C :   -0.043587
  13 C :   -0.043413
  14 C :    0.023129
  15 C :    0.046023
  16 C :   -0.000558
  17 C :   -0.195089
  18 O :    0.394925
  19 C :    0.027072
  20 H :   -0.025479
  21 H :   -0.023516
  22 H :   -0.028107
  23 H :   -0.038720
  24 H :   -0.027498
  25 H :   -0.009191
  26 H :   -0.008586
  27 H :   -0.016995
  28 H :   -0.058092
  29 H :   -0.063762
  30 H :   -0.002154
  31 H :   -0.021693
  32 H :   -0.018165
  33 H :   -0.034477
  34 H :   -0.152816
  35 H :   -0.024247

  Mayer bond orders larger than 0.100000
B(  0-C ,  1-C ) :   0.9831 B(  0-C , 20-H ) :   0.9769 B(  0-C , 21-H ) :   0.9792
B(  0-C , 22-H ) :   0.9779 B(  1-C ,  2-O ) :   0.9085 B(  1-C , 23-H ) :   0.9671
B(  1-C , 24-H ) :   0.9668 B(  2-O ,  3-C ) :   1.1789 B(  3-C ,  4-O ) :   2.0973
B(  3-C ,  5-C ) :   0.9177 B(  5-C ,  6-C ) :   1.6995 B(  5-C , 12-C ) :   0.9619
B(  6-C ,  7-C ) :   0.9440 B(  6-C ,  8-N ) :   1.1110 B(  7-C , 25-H ) :   0.9818
B(  7-C , 26-H ) :   0.9671 B(  7-C , 27-H ) :   0.9679 B(  8-N ,  9-C ) :   1.1976
B(  8-N , 28-H ) :   0.9526 B(  9-C , 10-S ) :   1.6097 B(  9-C , 11-N ) :   1.2865
B( 11-N , 12-C ) :   0.9950 B( 11-N , 29-H ) :   0.9482 B( 12-C , 13-C ) :   0.9444
B( 12-C , 30-H ) :   0.9976 B( 13-C , 14-C ) :   1.3864 B( 13-C , 19-C ) :   1.3463
B( 14-C , 15-C ) :   1.3972 B( 14-C , 31-H ) :   0.9618 B( 15-C , 16-C ) :   1.3632
B( 15-C , 32-H ) :   0.9699 B( 16-C , 17-C ) :   1.3286 B( 16-C , 33-H ) :   0.9843
B( 17-C , 18-O ) :   1.1084 B( 17-C , 19-C ) :   1.3656 B( 18-O , 34-H ) :   0.9790
B( 19-C , 35-H ) :   0.9587

MP2 TOTAL ENERGY:    -1274.330046050 Eh
FINAL SINGLE POINT ENERGY     -1274.330046049891

DIPOLE MOMENT
-------------
                                X             Y             Z
Electronic contribution:     11.87055       6.83948       7.48298
Nuclear contribution   :    -13.48418      -7.86029      -7.80373
                        -----------------------------------------
Total Dipole Moment    :     -1.61363      -1.02081      -0.32075
                        -----------------------------------------
Magnitude (a.u.)       :      1.93616
Magnitude (Debye)      :      4.92133

Rotational constants in cm-1:     0.011653     0.009127     0.006731
Rotational constants in MHz :   349.337871   273.635398   201.781788

                             ****ORCA TERMINATED NORMALLY****
TOTAL RUN TIME: 0 days 1 hours 47 minutes 31 seconds 257 msec
