                         Program Version 5.0.0 -  RELEASE  -
|  1> ! ri-mp2 cc-pvtz cc-pvtz/c TightSCF NoKeepInts
|  2>
|  3> %scf
|  4>   MaxCore 4096
|  5> end
|  6> *xyz  0  1
|  7>     C       15.1353617   14.4352628   17.0946013
|  8>     C       15.5948794   14.8850259   15.6899834
|  9>     O       16.4633344   16.0298337   15.8007113
| 10>     C       17.6379791   15.9253375   16.4888529
| 11>     O       18.2449226   14.8698070   16.5716529
| 12>     C       17.8759883   17.0613494   17.4384138
| 13>     C       17.3977568   18.3204503   17.2680581
| 14>     C       16.5879221   18.8543071   16.1047529
| 15>     N       17.7048370   19.3125512   18.2045944
| 16>     C       18.5709597   19.1583047   19.2549001
| 17>     S       18.9574937   20.4160965   20.2570016
| 18>     N       19.1013663   17.9054965   19.4328648
| 19>     C       18.7062452   16.7035170   18.6747889
| 20>     C       17.9422520   15.7327215   19.5709474
| 21>     C       18.3920020   14.4099150   19.7372345
| 22>     C       17.6787158   13.5070416   20.5433930
| 23>     C       16.5038697   13.9291567   21.1885471
| 24>     C       16.0508589   15.2449375   21.0227938
| 25>     O       14.9114691   15.6529130   21.6363262
| 26>     C       16.7634793   16.1415954   20.2208075
| 27>     H       15.9706965   14.0296937   17.6795884
| 28>     H       14.3748624   13.6495547   17.0131592
| 29>     H       14.7005192   15.2752845   17.6504472
| 30>     H       16.1149147   14.0588519   15.1860988
| 31>     H       14.7171367   15.1526091   15.0880235
| 32>     H       15.5505092   18.5017754   16.1621297
| 33>     H       17.0062068   18.5154716   15.1487092
| 34>     H       16.5665232   19.9504319   16.0740238
| 35>     H       17.3255776   20.2391196   18.0919198
| 36>     H       19.7118774   17.8114492   20.2343323
| 37>     H       19.6251145   16.2076931   18.3298046
| 38>     H       19.2884069   14.0750108   19.2210896
| 39>     H       18.0336547   12.4844446   20.6583213
| 40>     H       15.9481759   13.2340362   21.8090062
| 41>     H       14.5948627   14.9152903   22.1791067
| 42>     H       16.3962687   17.1556629   20.1070138
| 43> *
| 44>
| 45>                          ****END OF INPUT****

CARTESIAN COORDINATES (ANGSTROEM)
---------------------------------
  C     15.135362   14.435263   17.094601
  C     15.594879   14.885026   15.689983
  O     16.463334   16.029834   15.800711
  C     17.637979   15.925337   16.488853
  O     18.244923   14.869807   16.571653
  C     17.875988   17.061349   17.438414
  C     17.397757   18.320450   17.268058
  C     16.587922   18.854307   16.104753
  N     17.704837   19.312551   18.204594
  C     18.570960   19.158305   19.254900
  S     18.957494   20.416096   20.257002
  N     19.101366   17.905497   19.432865
  C     18.706245   16.703517   18.674789
  C     17.942252   15.732722   19.570947
  C     18.392002   14.409915   19.737234
  C     17.678716   13.507042   20.543393
  C     16.503870   13.929157   21.188547
  C     16.050859   15.244938   21.022794
  O     14.911469   15.652913   21.636326
  C     16.763479   16.141595   20.220807
  H     15.970696   14.029694   17.679588
  H     14.374862   13.649555   17.013159
  H     14.700519   15.275284   17.650447
  H     16.114915   14.058852   15.186099
  H     14.717137   15.152609   15.088023
  H     15.550509   18.501775   16.162130
  H     17.006207   18.515472   15.148709
  H     16.566523   19.950432   16.074024
  H     17.325578   20.239120   18.091920
  H     19.711877   17.811449   20.234332
  H     19.625114   16.207693   18.329805
  H     19.288407   14.075011   19.221090
  H     18.033655   12.484445   20.658321
  H     15.948176   13.234036   21.809006
  H     14.594863   14.915290   22.179107
  H     16.396269   17.155663   20.107014

 Total Charge           Charge          ....    0
 Multiplicity           Mult            ....    1
 Number of Electrons    NEL             ....  154
 Basis Dimension        Dim             ....  828

ORBITAL ENERGIES
----------------

  NO   OCC          E(Eh)            E(eV)
   0   2.0000     -91.888338     -2500.4088
   1   2.0000     -20.594763      -560.4120
   2   2.0000     -20.594657      -560.4091
   3   2.0000     -20.548809      -559.1615
   4   2.0000     -15.628146      -425.2635
   5   2.0000     -15.607656      -424.7059
   6   2.0000     -11.395456      -310.0861
   7   2.0000     -11.383649      -309.7648
   8   2.0000     -11.334491      -308.4272
   9   2.0000     -11.310556      -307.7759
  10   2.0000     -11.307342      -307.6884
  11   2.0000     -11.299560      -307.4767
  12   2.0000     -11.259856      -306.3963
  13   2.0000     -11.258926      -306.3710
  14   2.0000     -11.256002      -306.2914
  15   2.0000     -11.250927      -306.1533
  16   2.0000     -11.240539      -305.8706
  17   2.0000     -11.236129      -305.7506
  18   2.0000     -11.233677      -305.6839
  19   2.0000     -11.223293      -305.4013
  20   2.0000      -8.893408      -242.0019
  21   2.0000      -6.574986      -178.9145
  22   2.0000      -6.572977      -178.8598
  23   2.0000      -6.572393      -178.8439
  24   2.0000      -1.451714       -39.5031
  25   2.0000      -1.414404       -38.4879
  26   2.0000      -1.355921       -36.8965
  27   2.0000      -1.339283       -36.4437
  28   2.0000      -1.237433       -33.6723
  29   2.0000      -1.155096       -31.4318
  30   2.0000      -1.120683       -30.4953
  31   2.0000      -1.043215       -28.3873
  32   2.0000      -1.031152       -28.0591
  33   2.0000      -1.012314       -27.5465
  34   2.0000      -0.998539       -27.1716
  35   2.0000      -0.984071       -26.7779
  36   2.0000      -0.922838       -25.1117
  37   2.0000      -0.893723       -24.3194
  38   2.0000      -0.847799       -23.0698
  39   2.0000      -0.836901       -22.7732
  40   2.0000      -0.830909       -22.6102
  41   2.0000      -0.815128       -22.1808
  42   2.0000      -0.749519       -20.3955
  43   2.0000      -0.735440       -20.0123
  44   2.0000      -0.726971       -19.7819
  45   2.0000      -0.692869       -18.8539
  46   2.0000      -0.685826       -18.6623
  47   2.0000      -0.677844       -18.4451
  48   2.0000      -0.672191       -18.2913
  49   2.0000      -0.657565       -17.8933
  50   2.0000      -0.653412       -17.7803
  51   2.0000      -0.645216       -17.5572
  52   2.0000      -0.633456       -17.2372
  53   2.0000      -0.612870       -16.6770
  54   2.0000      -0.602436       -16.3931
  55   2.0000      -0.601697       -16.3730
  56   2.0000      -0.598245       -16.2791
  57   2.0000      -0.578912       -15.7530
  58   2.0000      -0.575633       -15.6638
  59   2.0000      -0.563515       -15.3340
  60   2.0000      -0.553955       -15.0739
  61   2.0000      -0.547423       -14.8961
  62   2.0000      -0.533435       -14.5155
  63   2.0000      -0.531189       -14.4544
  64   2.0000      -0.519697       -14.1417
  65   2.0000      -0.510075       -13.8798
  66   2.0000      -0.498508       -13.5651
  67   2.0000      -0.492861       -13.4114
  68   2.0000      -0.482118       -13.1191
  69   2.0000      -0.464382       -12.6365
  70   2.0000      -0.459162       -12.4944
  71   2.0000      -0.449495       -12.2314
  72   2.0000      -0.353871        -9.6293
  73   2.0000      -0.346767        -9.4360
  74   2.0000      -0.327607        -8.9146
  75   2.0000      -0.317924        -8.6512
  76   2.0000      -0.315337        -8.5808
  77   0.0000       0.074599         2.0299
  78   0.0000       0.108159         2.9432
  79   0.0000       0.119839         3.2610
  80   0.0000       0.133038         3.6201
  81   0.0000       0.143220         3.8972

MULLIKEN ATOMIC CHARGES
-----------------------
   0 C :   -0.320312
   1 C :    0.042350
   2 O :   -0.367431
   3 C :    0.434169
   4 O :   -0.418636
   5 C :   -0.169739
   6 C :    0.142957
   7 C :   -0.282154
   8 N :   -0.124281
   9 C :    0.205700
  10 S :   -0.440191
  11 N :   -0.201251
  12 C :    0.054630
  13 C :    0.040981
  14 C :   -0.160878
  15 C :   -0.133872
  16 C :   -0.279050
  17 C :    0.313944
  18 O :   -0.360464
  19 C :   -0.273087
  20 H :    0.128837
  21 H :    0.103449
  22 H :    0.099680
  23 H :    0.106531
  24 H :    0.106739
  25 H :    0.125771
  26 H :    0.125780
  27 H :    0.102055
  28 H :    0.197016
  29 H :    0.194363
  30 H :    0.153165
  31 H :    0.154287
  32 H :    0.160635
  33 H :    0.130021
  34 H :    0.240676
  35 H :    0.167611
Sum of atomic charges:   -0.0000000

LOEWDIN ATOMIC CHARGES
----------------------
   0 C :    0.105597
   1 C :   -0.016899
   2 O :    0.296358
   3 C :   -0.414728
   4 O :    0.111858
   5 C :   -0.091887
   6 C :   -0.070334
   7 C :    0.125803
   8 N :    0.404397
   9 C :   -0.457460
  10 S :   -0.036515
  11 N :    0.397551
  12 C :   -0.045579
  13 C :   -0.040600
  14 C :    0.021295
  15 C :    0.040700
  16 C :   -0.002089
  17 C :   -0.192698
  18 O :    0.393683
  19 C :    0.030526
  20 H :   -0.022689
  21 H :   -0.026493
  22 H :   -0.029082
  23 H :   -0.028299
  24 H :   -0.025435
  25 H :   -0.010036
  26 H :   -0.007922
  27 H :   -0.020435
  28 H :   -0.058891
  29 H :   -0.063870
  30 H :   -0.005078
  31 H :   -0.025118
  32 H :   -0.020714
  33 H :   -0.035849
  34 H :   -0.154299
  35 H :   -0.024766

  Mayer bond orders larger than 0.100000
B(  0-C ,  1-C ) :   0.9602 B(  0-C , 20-H ) :   0.9680 B(  0-C , 21-H ) :   0.9768
B(  0-C , 22-H ) :   0.9745 B(  1-C ,  2-O ) :   0.8953 B(  1-C , 23-H ) :   0.9815
B(  1-C , 24-H ) :   0.9841 B(  2-O ,  3-C ) :   1.1159 B(  3-C ,  4-O ) :   2.0029
B(  3-C ,  5-C ) :   1.0389 B(  5-C ,  6-C ) :   1.6563 B(  5-C , 12-C ) :   0.9661
B(  6-C ,  7-C ) :   0.9537 B(  6-C ,  8-N ) :   1.1439 B(  7-C , 25-H ) :   0.9630
B(  7-C , 26-H ) :   0.9682 B(  7-C , 27-H ) :   0.9896 B(  8-N ,  9-C ) :   1.1827
B(  8-N , 28-H ) :   0.9493 B(  9-C , 10-S ) :   1.6095 B(  9-C , 11-N ) :   1.3024
B( 11-N , 12-C ) :   0.9927 B( 11-N , 29-H ) :   0.9516 B( 12-C , 13-C ) :   0.9424
B( 12-C , 30-H ) :   0.9990 B( 13-C , 14-C ) :   1.3768 B( 13-C , 19-C ) :   1.3692
B( 14-C , 15-C ) :   1.3926 B( 14-C , 31-H ) :   0.9652 B( 15-C , 16-C ) :   1.3620
B( 15-C , 32-H ) :   0.9713 B( 16-C , 17-C ) :   1.3321 B( 16-C , 33-H ) :   0.9852
B( 17-C , 18-O ) :   1.1072 B( 17-C , 19-C ) :   1.3742 B( 18-O , 34-H ) :   0.9803
B( 19-C , 35-H ) :   0.9579

MP2 TOTAL ENERGY:    -1274.341452117 Eh
FINAL SINGLE POINT ENERGY     -1274.341452117241

DIPOLE MOMENT
-------------
                                X             Y             Z
Electronic contribution:      9.90531       9.54183       6.88536
Nuclear contribution   :    -11.31309     -10.82091      -7.75784
                        -----------------------------------------
Total Dipole Moment    :     -1.40778      -1.27907      -0.87248
                        -----------------------------------------
Magnitude (a.u.)       :      2.09263
Magnitude (Debye)      :      5.31905

Rotational constants in cm-1:     0.011922     0.009252     0.006549
Rotational constants in MHz :   357.415244   277.358130   196.341787

                             ****ORCA TERMINATED NORMALLY****
TOTAL RUN TIME: 0 days 1 hours 56 minutes 3 seconds 835 msec
