                         Program Version 4.2.0 -  RELEASE  -
|  1> ! ri-mp2 cc-pvtz cc-pvtz/c TightSCF  NoKeepInts
|  2>
|  3> %scf
|  4>   MaxCore 4096
|  5> end
|  6> *xyz  0  1
|  7>     C       15.0262502   14.1301357   15.5998039
|  8>     C       16.4112302   13.8883898   16.2374540
|  9>     O       17.1165259   15.0671017   16.7100356
| 10>     C       16.7277363   16.3821863   16.6247349
| 11>     O       15.8841083   16.8001098   15.8521483
| 12>     C       17.5259134   17.2616395   17.5503405
| 13>     C       17.4062365   18.6144030   17.5576467
| 14>     C       16.5022880   19.4628623   16.6885783
| 15>     N       18.1941943   19.3844951   18.4184334
| 16>     C       19.1814039   18.8933714   19.2298091
| 17>     S       20.1263390   19.8848916   20.1571967
| 18>     N       19.3490882   17.5325748   19.2340699
| 19>     C       18.4844562   16.5663678   18.5326169
| 20>     C       17.7351900   15.7123620   19.5515902
| 21>     C       18.0332946   14.3438373   19.6921155
| 22>     C       17.3427723   13.5540090   20.6267737
| 23>     C       16.3480263   14.1376185   21.4298204
| 24>     C       16.0522555   15.5012045   21.2960653
| 25>     O       15.0936608   16.0678977   22.0712780
| 26>     C       16.7410502   16.2845952   20.3649783
| 27>     H       14.3658674   14.6774737   16.2842167
| 28>     H       14.5456290   13.1729579   15.3649496
| 29>     H       15.1146299   14.6940516   14.6627196
| 30>     H       16.2833143   13.2048451   17.0868603
| 31>     H       17.0440044   13.3715429   15.5046123
| 32>     H       15.4501668   19.1975351   16.8537159
| 33>     H       16.7190240   19.2938873   15.6260938
| 34>     H       16.6062535   20.5371961   16.8801668
| 35>     H       18.0857783   20.3860501   18.4280131
| 36>     H       20.0584266   17.1970953   19.8728482
| 37>     H       19.1428857   15.9103362   17.9461483
| 38>     H       18.7995430   13.8897755   19.0696143
| 39>     H       17.5795087   12.4962633   20.7275525
| 40>     H       15.8123506   13.5322026   22.1535754
| 41>     H       14.7552171   15.3812601   22.6651984
| 42>     H       16.5023807   17.3394742   20.2822253
| 43> *
| 44>
| 45>                          ****END OF INPUT****

CARTESIAN COORDINATES (ANGSTROEM)
---------------------------------
  C     15.026250   14.130136   15.599804
  C     16.411230   13.888390   16.237454
  O     17.116526   15.067102   16.710036
  C     16.727736   16.382186   16.624735
  O     15.884108   16.800110   15.852148
  C     17.525913   17.261640   17.550340
  C     17.406236   18.614403   17.557647
  C     16.502288   19.462862   16.688578
  N     18.194194   19.384495   18.418433
  C     19.181404   18.893371   19.229809
  S     20.126339   19.884892   20.157197
  N     19.349088   17.532575   19.234070
  C     18.484456   16.566368   18.532617
  C     17.735190   15.712362   19.551590
  C     18.033295   14.343837   19.692115
  C     17.342772   13.554009   20.626774
  C     16.348026   14.137618   21.429820
  C     16.052256   15.501205   21.296065
  O     15.093661   16.067898   22.071278
  C     16.741050   16.284595   20.364978
  H     14.365867   14.677474   16.284217
  H     14.545629   13.172958   15.364950
  H     15.114630   14.694052   14.662720
  H     16.283314   13.204845   17.086860
  H     17.044004   13.371543   15.504612
  H     15.450167   19.197535   16.853716
  H     16.719024   19.293887   15.626094
  H     16.606254   20.537196   16.880167
  H     18.085778   20.386050   18.428013
  H     20.058427   17.197095   19.872848
  H     19.142886   15.910336   17.946148
  H     18.799543   13.889776   19.069614
  H     17.579509   12.496263   20.727552
  H     15.812351   13.532203   22.153575
  H     14.755217   15.381260   22.665198
  H     16.502381   17.339474   20.282225

 Total Charge           Charge          ....    0
 Multiplicity           Mult            ....    1
 Number of Electrons    NEL             ....  154
 Basis Dimension        Dim             ....  828

ORBITAL ENERGIES
----------------

  NO   OCC          E(Eh)            E(eV)
   0   2.0000     -91.887733     -2500.3923
   1   2.0000     -20.597892      -560.4971
   2   2.0000     -20.596330      -560.4546
   3   2.0000     -20.539740      -558.9147
   4   2.0000     -15.627700      -425.2513
   5   2.0000     -15.606995      -424.6879
   6   2.0000     -11.397773      -310.1492
   7   2.0000     -11.382743      -309.7402
   8   2.0000     -11.334549      -308.4288
   9   2.0000     -11.313455      -307.8548
  10   2.0000     -11.307239      -307.6856
  11   2.0000     -11.303060      -307.5719
  12   2.0000     -11.259226      -306.3791
  13   2.0000     -11.257737      -306.3386
  14   2.0000     -11.255076      -306.2662
  15   2.0000     -11.250910      -306.1528
  16   2.0000     -11.242731      -305.9303
  17   2.0000     -11.237968      -305.8006
  18   2.0000     -11.237917      -305.7993
  19   2.0000     -11.222968      -305.3925
  20   2.0000      -8.892809      -241.9856
  21   2.0000      -6.574388      -178.8982
  22   2.0000      -6.572380      -178.8436
  23   2.0000      -6.571796      -178.8277
  24   2.0000      -1.441951       -39.2375
  25   2.0000      -1.415973       -38.5306
  26   2.0000      -1.353754       -36.8375
  27   2.0000      -1.338833       -36.4315
  28   2.0000      -1.237341       -33.6698
  29   2.0000      -1.157016       -31.4840
  30   2.0000      -1.118752       -30.4428
  31   2.0000      -1.041864       -28.3506
  32   2.0000      -1.036345       -28.2004
  33   2.0000      -1.014719       -27.6119
  34   2.0000      -0.994494       -27.0615
  35   2.0000      -0.982727       -26.7414
  36   2.0000      -0.921445       -25.0738
  37   2.0000      -0.898211       -24.4416
  38   2.0000      -0.846318       -23.0295
  39   2.0000      -0.837418       -22.7873
  40   2.0000      -0.833687       -22.6858
  41   2.0000      -0.817859       -22.2551
  42   2.0000      -0.743919       -20.2431
  43   2.0000      -0.730018       -19.8648
  44   2.0000      -0.717688       -19.5293
  45   2.0000      -0.695235       -18.9183
  46   2.0000      -0.686935       -18.6924
  47   2.0000      -0.673792       -18.3348
  48   2.0000      -0.670356       -18.2413
  49   2.0000      -0.661776       -18.0078
  50   2.0000      -0.650597       -17.7036
  51   2.0000      -0.643259       -17.5040
  52   2.0000      -0.635115       -17.2823
  53   2.0000      -0.606595       -16.5063
  54   2.0000      -0.602861       -16.4047
  55   2.0000      -0.599721       -16.3192
  56   2.0000      -0.597821       -16.2675
  57   2.0000      -0.577956       -15.7270
  58   2.0000      -0.574797       -15.6410
  59   2.0000      -0.569830       -15.5059
  60   2.0000      -0.560604       -15.2548
  61   2.0000      -0.539113       -14.6700
  62   2.0000      -0.535199       -14.5635
  63   2.0000      -0.525351       -14.2955
  64   2.0000      -0.522473       -14.2172
  65   2.0000      -0.512376       -13.9425
  66   2.0000      -0.501251       -13.6397
  67   2.0000      -0.498118       -13.5545
  68   2.0000      -0.484850       -13.1934
  69   2.0000      -0.462571       -12.5872
  70   2.0000      -0.450956       -12.2711
  71   2.0000      -0.440076       -11.9751
  72   2.0000      -0.352769        -9.5993
  73   2.0000      -0.348927        -9.4948
  74   2.0000      -0.327264        -8.9053
  75   2.0000      -0.321108        -8.7378
  76   2.0000      -0.315026        -8.5723
  77   0.0000       0.077889         2.1195
  78   0.0000       0.106508         2.8982
  79   0.0000       0.125497         3.4149
  80   0.0000       0.133288         3.6269
  81   0.0000       0.138190         3.7603

MULLIKEN ATOMIC CHARGES
-----------------------
   0 C :   -0.291440
   1 C :    0.053067
   2 O :   -0.364561
   3 C :    0.457722
   4 O :   -0.429545
   5 C :   -0.206825
   6 C :    0.149738
   7 C :   -0.272364
   8 N :   -0.120538
   9 C :    0.212418
  10 S :   -0.442161
  11 N :   -0.205199
  12 C :    0.056595
  13 C :    0.068248
  14 C :   -0.190996
  15 C :   -0.130606
  16 C :   -0.279895
  17 C :    0.316636
  18 O :   -0.356610
  19 C :   -0.270381
  20 H :    0.104875
  21 H :    0.096696
  22 H :    0.116615
  23 H :    0.092996
  24 H :    0.090656
  25 H :    0.130653
  26 H :    0.131163
  27 H :    0.094730
  28 H :    0.197012
  29 H :    0.194701
  30 H :    0.149214
  31 H :    0.150722
  32 H :    0.161019
  33 H :    0.129832
  34 H :    0.240639
  35 H :    0.165174
Sum of atomic charges:   -0.0000000

LOEWDIN ATOMIC CHARGES
----------------------
   0 C :    0.102658
   1 C :   -0.008360
   2 O :    0.295580
   3 C :   -0.412368
   4 O :    0.106753
   5 C :   -0.093511
   6 C :   -0.059470
   7 C :    0.130583
   8 N :    0.406310
   9 C :   -0.456675
  10 S :   -0.037144
  11 N :    0.396457
  12 C :   -0.052882
  13 C :   -0.038117
  14 C :    0.014535
  15 C :    0.038265
  16 C :   -0.002152
  17 C :   -0.189537
  18 O :    0.395186
  19 C :    0.031277
  20 H :   -0.025530
  21 H :   -0.027698
  22 H :   -0.024819
  23 H :   -0.028196
  24 H :   -0.028486
  25 H :   -0.005114
  26 H :   -0.004225
  27 H :   -0.023761
  28 H :   -0.057819
  29 H :   -0.064752
  30 H :   -0.011816
  31 H :   -0.030223
  32 H :   -0.021569
  33 H :   -0.035715
  34 H :   -0.153978
  35 H :   -0.023688

  Mayer bond orders larger than 0.100000
B(  0-C ,  1-C ) :   0.9812 B(  0-C , 20-H ) :   0.9750 B(  0-C , 21-H ) :   0.9731
B(  0-C , 22-H ) :   0.9729 B(  1-C ,  2-O ) :   0.9002 B(  1-C , 23-H ) :   0.9748
B(  1-C , 24-H ) :   0.9795 B(  2-O ,  3-C ) :   1.1492 B(  3-C ,  4-O ) :   1.9782
B(  3-C ,  5-C ) :   1.0589 B(  5-C ,  6-C ) :   1.6554 B(  5-C , 12-C ) :   0.9752
B(  6-C ,  7-C ) :   0.9672 B(  6-C ,  8-N ) :   1.1613 B(  7-C , 25-H ) :   0.9607
B(  7-C , 26-H ) :   0.9601 B(  7-C , 27-H ) :   0.9909 B(  8-N ,  9-C ) :   1.1844
B(  8-N , 28-H ) :   0.9479 B(  9-C , 10-S ) :   1.6048 B(  9-C , 11-N ) :   1.3063
B( 11-N , 12-C ) :   0.9854 B( 11-N , 29-H ) :   0.9515 B( 12-C , 13-C ) :   0.9361
B( 12-C , 30-H ) :   1.0029 B( 13-C , 14-C ) :   1.3524 B( 13-C , 19-C ) :   1.3828
B( 14-C , 15-C ) :   1.3898 B( 14-C , 31-H ) :   0.9717 B( 15-C , 16-C ) :   1.3639
B( 15-C , 32-H ) :   0.9704 B( 16-C , 17-C ) :   1.3314 B( 16-C , 33-H ) :   0.9851
B( 17-C , 18-O ) :   1.1098 B( 17-C , 19-C ) :   1.3712 B( 18-O , 34-H ) :   0.9799
B( 19-C , 35-H ) :   0.9585

MP2 TOTAL ENERGY:    -1274.338871908 Eh
FINAL SINGLE POINT ENERGY     -1274.338871908347

DIPOLE MOMENT
-------------
                                X             Y             Z
Electronic contribution:      9.91297      10.12959       9.20624
Nuclear contribution   :    -10.92016     -11.95730      -9.61384
                        -----------------------------------------
Total Dipole Moment    :     -1.00719      -1.82771      -0.40761
                        -----------------------------------------
Magnitude (a.u.)       :      2.12629
Magnitude (Debye)      :      5.40460

Rotational constants in cm-1:     0.011510     0.008682     0.006089
Rotational constants in MHz :   345.055040   260.275997   182.545652

                             ****ORCA TERMINATED NORMALLY****
TOTAL RUN TIME: 0 days 2 hours 1 minutes 37 seconds 495 msec
