                         Program Version 4.2.0 -  RELEASE  -
|  1> ! ri-mp2 cc-pvtz cc-pvtz/c TightSCF  NoKeepInts
|  2>
|  3> %scf
|  4>   MaxCore 4096
|  5> end
|  6> *xyz  0  1
|  7>     C       14.7431124   14.8017395   14.4953188
|  8>     C       15.4228373   14.4844333   15.8378837
|  9>     O       16.2723960   15.5991443   16.1604653
| 10>     C       17.3506726   15.4112846   16.9761001
| 11>     O       17.7623735   14.2995806   17.2657251
| 12>     C       17.8240703   16.6519101   17.6797344
| 13>     C       17.5243951   17.9248735   17.3081786
| 14>     C       16.6831041   18.3842164   16.1345595
| 15>     N       18.0797956   19.0010301   18.0087210
| 16>     C       19.0479729   18.8941296   18.9718483
| 17>     S       19.7486923   20.2271122   19.6558129
| 18>     N       19.4061390   17.6219884   19.3385319
| 19>     C       18.7182606   16.3939201   18.8983307
| 20>     C       17.9182391   15.7891348   20.0493639
| 21>     C       18.1247296   14.4516140   20.4348211
| 22>     C       17.3903492   13.8888081   21.4921214
| 23>     C       16.4399783   14.6695917   22.1716449
| 24>     C       16.2283730   16.0010118   21.7887555
| 25>     O       15.3070903   16.7558373   22.4390547
| 26>     C       16.9605177   16.5582391   20.7356862
| 27>     H       14.1399410   15.7147618   14.5729873
| 28>     H       14.0835248   13.9785653   14.1946960
| 29>     H       15.4926290   14.9461340   13.7071909
| 30>     H       14.6782308   14.3265369   16.6290983
| 31>     H       16.0087686   13.5623872   15.7199570
| 32>     H       17.0108825   17.8993876   15.2065093
| 33>     H       16.7412499   19.4667729   15.9688807
| 34>     H       15.6272258   18.1316065   16.2931925
| 35>     H       17.8298819   19.9431056   17.7538761
| 36>     H       20.0991472   17.5696414   20.0739959
| 37>     H       19.4908435   15.6706402   18.5996778
| 38>     H       18.8469826   13.8403263   19.8991731
| 39>     H       17.5555365   12.8510547   21.7759599
| 40>     H       15.8693455   14.2383652   22.9873063
| 41>     H       14.9364560   16.2113691   23.1496246
| 42>     H       16.7832555   17.5917456   20.4592164
| 43> *
| 44>
| 45>                          ****END OF INPUT****

CARTESIAN COORDINATES (ANGSTROEM)
---------------------------------
  C     14.743112   14.801739   14.495319
  C     15.422837   14.484433   15.837884
  O     16.272396   15.599144   16.160465
  C     17.350673   15.411285   16.976100
  O     17.762373   14.299581   17.265725
  C     17.824070   16.651910   17.679734
  C     17.524395   17.924874   17.308179
  C     16.683104   18.384216   16.134560
  N     18.079796   19.001030   18.008721
  C     19.047973   18.894130   18.971848
  S     19.748692   20.227112   19.655813
  N     19.406139   17.621988   19.338532
  C     18.718261   16.393920   18.898331
  C     17.918239   15.789135   20.049364
  C     18.124730   14.451614   20.434821
  C     17.390349   13.888808   21.492121
  C     16.439978   14.669592   22.171645
  C     16.228373   16.001012   21.788756
  O     15.307090   16.755837   22.439055
  C     16.960518   16.558239   20.735686
  H     14.139941   15.714762   14.572987
  H     14.083525   13.978565   14.194696
  H     15.492629   14.946134   13.707191
  H     14.678231   14.326537   16.629098
  H     16.008769   13.562387   15.719957
  H     17.010883   17.899388   15.206509
  H     16.741250   19.466773   15.968881
  H     15.627226   18.131607   16.293192
  H     17.829882   19.943106   17.753876
  H     20.099147   17.569641   20.073996
  H     19.490844   15.670640   18.599678
  H     18.846983   13.840326   19.899173
  H     17.555536   12.851055   21.775960
  H     15.869345   14.238365   22.987306
  H     14.936456   16.211369   23.149625
  H     16.783255   17.591746   20.459216

 Total Charge           Charge          ....    0
 Multiplicity           Mult            ....    1
 Number of Electrons    NEL             ....  154
 Basis Dimension        Dim             ....  828

ORBITAL ENERGIES
----------------

  NO   OCC          E(Eh)            E(eV)
   0   2.0000     -91.887958     -2500.3984
   1   2.0000     -20.603302      -560.6444
   2   2.0000     -20.591180      -560.3145
   3   2.0000     -20.545726      -559.0776
   4   2.0000     -15.628364      -425.2694
   5   2.0000     -15.606503      -424.6745
   6   2.0000     -11.395653      -310.0915
   7   2.0000     -11.382815      -309.7421
   8   2.0000     -11.336390      -308.4789
   9   2.0000     -11.306940      -307.6775
  10   2.0000     -11.305278      -307.6323
  11   2.0000     -11.298658      -307.4521
  12   2.0000     -11.260507      -306.4140
  13   2.0000     -11.259003      -306.3730
  14   2.0000     -11.252893      -306.2068
  15   2.0000     -11.247039      -306.0475
  16   2.0000     -11.236714      -305.7665
  17   2.0000     -11.234383      -305.7031
  18   2.0000     -11.232866      -305.6618
  19   2.0000     -11.229798      -305.5783
  20   2.0000      -8.893021      -241.9914
  21   2.0000      -6.574599      -178.9039
  22   2.0000      -6.572592      -178.8493
  23   2.0000      -6.572006      -178.8334
  24   2.0000      -1.454515       -39.5794
  25   2.0000      -1.410913       -38.3929
  26   2.0000      -1.357356       -36.9355
  27   2.0000      -1.339257       -36.4430
  28   2.0000      -1.236807       -33.6552
  29   2.0000      -1.151609       -31.3369
  30   2.0000      -1.119328       -30.4585
  31   2.0000      -1.044688       -28.4274
  32   2.0000      -1.036795       -28.2126
  33   2.0000      -1.008966       -27.4554
  34   2.0000      -0.997401       -27.1407
  35   2.0000      -0.983056       -26.7503
  36   2.0000      -0.920783       -25.0558
  37   2.0000      -0.888515       -24.1777
  38   2.0000      -0.846941       -23.0464
  39   2.0000      -0.834586       -22.7102
  40   2.0000      -0.827269       -22.5111
  41   2.0000      -0.817911       -22.2565
  42   2.0000      -0.761899       -20.7323
  43   2.0000      -0.735913       -20.0252
  44   2.0000      -0.724457       -19.7135
  45   2.0000      -0.689905       -18.7733
  46   2.0000      -0.683859       -18.6087
  47   2.0000      -0.680624       -18.5207
  48   2.0000      -0.675622       -18.3846
  49   2.0000      -0.655418       -17.8348
  50   2.0000      -0.651176       -17.7194
  51   2.0000      -0.642833       -17.4924
  52   2.0000      -0.633920       -17.2498
  53   2.0000      -0.604139       -16.4394
  54   2.0000      -0.600395       -16.3376
  55   2.0000      -0.599094       -16.3022
  56   2.0000      -0.594531       -16.1780
  57   2.0000      -0.580048       -15.7839
  58   2.0000      -0.572690       -15.5837
  59   2.0000      -0.563190       -15.3252
  60   2.0000      -0.562129       -15.2963
  61   2.0000      -0.546697       -14.8764
  62   2.0000      -0.542973       -14.7751
  63   2.0000      -0.526605       -14.3297
  64   2.0000      -0.516653       -14.0588
  65   2.0000      -0.509027       -13.8513
  66   2.0000      -0.500882       -13.6297
  67   2.0000      -0.494984       -13.4692
  68   2.0000      -0.481432       -13.1004
  69   2.0000      -0.462969       -12.5980
  70   2.0000      -0.462027       -12.5724
  71   2.0000      -0.452962       -12.3257
  72   2.0000      -0.354144        -9.6368
  73   2.0000      -0.343500        -9.3471
  74   2.0000      -0.327065        -8.8999
  75   2.0000      -0.315394        -8.5823
  76   2.0000      -0.313306        -8.5255
  77   0.0000       0.075850         2.0640
  78   0.0000       0.113487         3.0881
  79   0.0000       0.120510         3.2793
  80   0.0000       0.135927         3.6988
  81   0.0000       0.138748         3.7755

MULLIKEN ATOMIC CHARGES
-----------------------
   0 C :   -0.268415
   1 C :    0.031404
   2 O :   -0.341645
   3 C :    0.447531
   4 O :   -0.427107
   5 C :   -0.178277
   6 C :    0.142513
   7 C :   -0.288441
   8 N :   -0.122061
   9 C :    0.201418
  10 S :   -0.439309
  11 N :   -0.196899
  12 C :    0.035143
  13 C :    0.057187
  14 C :   -0.159943
  15 C :   -0.133919
  16 C :   -0.278986
  17 C :    0.311302
  18 O :   -0.359251
  19 C :   -0.272509
  20 H :    0.091235
  21 H :    0.097717
  22 H :    0.097225
  23 H :    0.094511
  24 H :    0.113653
  25 H :    0.126453
  26 H :    0.103953
  27 H :    0.127583
  28 H :    0.196754
  29 H :    0.193537
  30 H :    0.153563
  31 H :    0.153047
  32 H :    0.158831
  33 H :    0.127834
  34 H :    0.239992
  35 H :    0.164377
Sum of atomic charges:   -0.0000000

LOEWDIN ATOMIC CHARGES
----------------------
   0 C :    0.105698
   1 C :   -0.013811
   2 O :    0.305920
   3 C :   -0.414002
   4 O :    0.104329
   5 C :   -0.091240
   6 C :   -0.065837
   7 C :    0.124903
   8 N :    0.404816
   9 C :   -0.458921
  10 S :   -0.036016
  11 N :    0.397864
  12 C :   -0.046459
  13 C :   -0.038780
  14 C :    0.022334
  15 C :    0.040979
  16 C :   -0.002372
  17 C :   -0.192657
  18 O :    0.392906
  19 C :    0.028358
  20 H :   -0.030138
  21 H :   -0.023736
  22 H :   -0.026215
  23 H :   -0.029917
  24 H :   -0.027028
  25 H :   -0.008718
  26 H :   -0.020966
  27 H :   -0.010158
  28 H :   -0.059191
  29 H :   -0.063667
  30 H :   -0.005002
  31 H :   -0.025335
  32 H :   -0.021280
  33 H :   -0.036476
  34 H :   -0.154979
  35 H :   -0.025206

  Mayer bond orders larger than 0.100000
B(  0-C ,  1-C ) :   0.9723 B(  0-C , 20-H ) :   0.9792 B(  0-C , 21-H ) :   0.9776
B(  0-C , 22-H ) :   0.9773 B(  1-C ,  2-O ) :   0.8943 B(  1-C , 23-H ) :   0.9768
B(  1-C , 24-H ) :   0.9765 B(  2-O ,  3-C ) :   1.1627 B(  3-C ,  4-O ) :   1.9882
B(  3-C ,  5-C ) :   1.0509 B(  5-C ,  6-C ) :   1.6459 B(  5-C , 12-C ) :   0.9665
B(  6-C ,  7-C ) :   0.9543 B(  6-C ,  8-N ) :   1.1471 B(  7-C , 25-H ) :   0.9660
B(  7-C , 26-H ) :   0.9923 B(  7-C , 27-H ) :   0.9631 B(  8-N ,  9-C ) :   1.1782
B(  8-N , 28-H ) :   0.9489 B(  9-C , 10-S ) :   1.6108 B(  9-C , 11-N ) :   1.3044
B( 11-N , 12-C ) :   0.9921 B( 11-N , 29-H ) :   0.9520 B( 12-C , 13-C ) :   0.9477
B( 12-C , 30-H ) :   0.9999 B( 13-C , 14-C ) :   1.3763 B( 13-C , 19-C ) :   1.3692
B( 14-C , 15-C ) :   1.3948 B( 14-C , 31-H ) :   0.9649 B( 15-C , 16-C ) :   1.3626
B( 15-C , 32-H ) :   0.9715 B( 16-C , 17-C ) :   1.3315 B( 16-C , 33-H ) :   0.9861
B( 17-C , 18-O ) :   1.1078 B( 17-C , 19-C ) :   1.3794 B( 18-O , 34-H ) :   0.9807
B( 19-C , 35-H ) :   0.9585

MP2 TOTAL ENERGY:    -1274.346784399 Eh
FINAL SINGLE POINT ENERGY     -1274.346784398729

DIPOLE MOMENT
-------------
                                X             Y             Z
Electronic contribution:     11.62778       8.36135      11.99793
Nuclear contribution   :    -13.26518      -9.55030     -12.92279
                        -----------------------------------------
Total Dipole Moment    :     -1.63740      -1.18894      -0.92486
                        -----------------------------------------
Magnitude (a.u.)       :      2.22487
Magnitude (Debye)      :      5.65517

Rotational constants in cm-1:     0.010398     0.008752     0.005764
Rotational constants in MHz :   311.718665   262.375302   172.811578

                             ****ORCA TERMINATED NORMALLY****
TOTAL RUN TIME: 0 days 1 hours 35 minutes 32 seconds 477 msec
