                         Program Version 4.2.0 -  RELEASE  -
|  1> ! ri-mp2 cc-pvtz cc-pvtz/c TightSCF  NoKeepInts
|  2>
|  3> %scf
|  4>   MaxCore 4096
|  5> end
|  6> *xyz  0  1
|  7>     C       15.2571431   14.2646849   16.9910417
|  8>     C       15.5278940   14.9640192   15.6377222
|  9>     O       16.4799623   16.0430565   15.7676707
| 10>     C       17.6124913   15.9105285   16.5187369
| 11>     O       18.2213442   14.8560351   16.5954266
| 12>     C       17.8648702   17.0562516   17.4535226
| 13>     C       17.3994859   18.3196006   17.2762014
| 14>     C       16.5866984   18.8560639   16.1160563
| 15>     N       17.7241329   19.3152575   18.2032236
| 16>     C       18.5956893   19.1599249   19.2487881
| 17>     S       19.0034158   20.4214556   20.2376753
| 18>     N       19.1119245   17.9024281   19.4341482
| 19>     C       18.6961792   16.6990950   18.6894312
| 20>     C       17.9233417   15.7457767   19.5971375
| 21>     C       18.3376704   14.4094054   19.7462686
| 22>     C       17.6164454   13.5226374   20.5630932
| 23>     C       16.4693132   13.9747965   21.2370241
| 24>     C       16.0512609   15.3041112   21.0884858
| 25>     O       14.9385413   15.7413513   21.7301590
| 26>     C       16.7712209   16.1844341   20.2749247
| 27>     H       16.1138017   13.6634162   17.3195119
| 28>     H       14.3989162   13.5881097   16.9015294
| 29>     H       15.0285141   14.9997776   17.7730026
| 30>     H       15.9130972   14.2199935   14.9277711
| 31>     H       14.5879708   15.3598688   15.2324173
| 32>     H       15.5523320   18.4941845   16.1684173
| 33>     H       17.0105042   18.5292250   15.1582143
| 34>     H       16.5548007   19.9521396   16.0941958
| 35>     H       17.3556720   20.2454775   18.0851000
| 36>     H       19.7273958   17.8077604   20.2317550
| 37>     H       19.6069058   16.1879988   18.3449798
| 38>     H       19.2123493   14.0517260   19.2084106
| 39>     H       17.9439914   12.4895164   20.6643948
| 40>     H       15.9077505   13.2924147   21.8662787
| 41>     H       14.6131921   15.0102100   22.2765317
| 42>     H       16.4307814   17.2092675   20.1747520
| 43> *
| 44>
| 45>                          ****END OF INPUT****

CARTESIAN COORDINATES (ANGSTROEM)
---------------------------------
  C     15.257143   14.264685   16.991042
  C     15.527894   14.964019   15.637722
  O     16.479962   16.043056   15.767671
  C     17.612491   15.910528   16.518737
  O     18.221344   14.856035   16.595427
  C     17.864870   17.056252   17.453523
  C     17.399486   18.319601   17.276201
  C     16.586698   18.856064   16.116056
  N     17.724133   19.315257   18.203224
  C     18.595689   19.159925   19.248788
  S     19.003416   20.421456   20.237675
  N     19.111925   17.902428   19.434148
  C     18.696179   16.699095   18.689431
  C     17.923342   15.745777   19.597137
  C     18.337670   14.409405   19.746269
  C     17.616445   13.522637   20.563093
  C     16.469313   13.974797   21.237024
  C     16.051261   15.304111   21.088486
  O     14.938541   15.741351   21.730159
  C     16.771221   16.184434   20.274925
  H     16.113802   13.663416   17.319512
  H     14.398916   13.588110   16.901529
  H     15.028514   14.999778   17.773003
  H     15.913097   14.219993   14.927771
  H     14.587971   15.359869   15.232417
  H     15.552332   18.494184   16.168417
  H     17.010504   18.529225   15.158214
  H     16.554801   19.952140   16.094196
  H     17.355672   20.245477   18.085100
  H     19.727396   17.807760   20.231755
  H     19.606906   16.187999   18.344980
  H     19.212349   14.051726   19.208411
  H     17.943991   12.489516   20.664395
  H     15.907750   13.292415   21.866279
  H     14.613192   15.010210   22.276532
  H     16.430781   17.209267   20.174752

 Total Charge           Charge          ....    0
 Multiplicity           Mult            ....    1
 Number of Electrons    NEL             ....  154
 Basis Dimension        Dim             ....  828

ORBITAL ENERGIES
----------------

  NO   OCC          E(Eh)            E(eV)
   0   2.0000     -91.888414     -2500.4109
   1   2.0000     -20.594440      -560.4032
   2   2.0000     -20.593468      -560.3768
   3   2.0000     -20.548117      -559.1427
   4   2.0000     -15.628320      -425.2682
   5   2.0000     -15.607579      -424.7038
   6   2.0000     -11.395646      -310.0913
   7   2.0000     -11.383623      -309.7641
   8   2.0000     -11.335109      -308.4440
   9   2.0000     -11.310371      -307.7708
  10   2.0000     -11.306901      -307.6764
  11   2.0000     -11.302523      -307.5573
  12   2.0000     -11.259796      -306.3946
  13   2.0000     -11.258802      -306.3676
  14   2.0000     -11.255826      -306.2866
  15   2.0000     -11.250565      -306.1434
  16   2.0000     -11.240224      -305.8620
  17   2.0000     -11.236014      -305.7475
  18   2.0000     -11.233166      -305.6700
  19   2.0000     -11.223883      -305.4174
  20   2.0000      -8.893482      -242.0039
  21   2.0000      -6.575060      -178.9165
  22   2.0000      -6.573051      -178.8618
  23   2.0000      -6.572467      -178.8459
  24   2.0000      -1.449468       -39.4420
  25   2.0000      -1.414220       -38.4829
  26   2.0000      -1.355451       -36.8837
  27   2.0000      -1.339384       -36.4465
  28   2.0000      -1.237426       -33.6721
  29   2.0000      -1.154777       -31.4231
  30   2.0000      -1.120394       -30.4875
  31   2.0000      -1.042912       -28.3791
  32   2.0000      -1.031486       -28.0682
  33   2.0000      -1.012110       -27.5409
  34   2.0000      -0.998488       -27.1702
  35   2.0000      -0.984042       -26.7771
  36   2.0000      -0.922771       -25.1099
  37   2.0000      -0.895560       -24.3694
  38   2.0000      -0.848077       -23.0774
  39   2.0000      -0.836949       -22.7746
  40   2.0000      -0.830648       -22.6031
  41   2.0000      -0.816332       -22.2135
  42   2.0000      -0.746156       -20.3039
  43   2.0000      -0.733515       -19.9600
  44   2.0000      -0.726675       -19.7738
  45   2.0000      -0.692457       -18.8427
  46   2.0000      -0.685602       -18.6562
  47   2.0000      -0.677118       -18.4253
  48   2.0000      -0.671970       -18.2852
  49   2.0000      -0.657713       -17.8973
  50   2.0000      -0.653874       -17.7928
  51   2.0000      -0.645098       -17.5540
  52   2.0000      -0.633242       -17.2314
  53   2.0000      -0.618291       -16.8245
  54   2.0000      -0.602604       -16.3977
  55   2.0000      -0.601394       -16.3648
  56   2.0000      -0.598042       -16.2736
  57   2.0000      -0.578043       -15.7293
  58   2.0000      -0.575274       -15.6540
  59   2.0000      -0.563869       -15.3437
  60   2.0000      -0.553720       -15.0675
  61   2.0000      -0.545623       -14.8471
  62   2.0000      -0.535570       -14.5736
  63   2.0000      -0.527507       -14.3542
  64   2.0000      -0.518888       -14.1197
  65   2.0000      -0.509837       -13.8734
  66   2.0000      -0.499539       -13.5931
  67   2.0000      -0.495421       -13.4811
  68   2.0000      -0.480349       -13.0710
  69   2.0000      -0.464303       -12.6343
  70   2.0000      -0.457677       -12.4540
  71   2.0000      -0.449629       -12.2350
  72   2.0000      -0.353876        -9.6295
  73   2.0000      -0.346469        -9.4279
  74   2.0000      -0.327656        -8.9160
  75   2.0000      -0.317607        -8.6425
  76   2.0000      -0.315283        -8.5793
  77   0.0000       0.074424         2.0252
  78   0.0000       0.108580         2.9546
  79   0.0000       0.120661         3.2833
  80   0.0000       0.133183         3.6241
  81   0.0000       0.142055         3.8655

MULLIKEN ATOMIC CHARGES
-----------------------
   0 C :   -0.326777
   1 C :    0.052626
   2 O :   -0.370231
   3 C :    0.453587
   4 O :   -0.421688
   5 C :   -0.182643
   6 C :    0.144417
   7 C :   -0.281818
   8 N :   -0.123333
   9 C :    0.204108
  10 S :   -0.439767
  11 N :   -0.201458
  12 C :    0.051560
  13 C :    0.053795
  14 C :   -0.167570
  15 C :   -0.134011
  16 C :   -0.278116
  17 C :    0.317329
  18 O :   -0.360660
  19 C :   -0.285468
  20 H :    0.130244
  21 H :    0.104180
  22 H :    0.101244
  23 H :    0.101530
  24 H :    0.103950
  25 H :    0.124518
  26 H :    0.127323
  27 H :    0.102344
  28 H :    0.196947
  29 H :    0.194419
  30 H :    0.153681
  31 H :    0.156338
  32 H :    0.161278
  33 H :    0.129916
  34 H :    0.240529
  35 H :    0.167677
Sum of atomic charges:   -0.0000000

LOEWDIN ATOMIC CHARGES
----------------------
   0 C :    0.105582
   1 C :   -0.013102
   2 O :    0.293114
   3 C :   -0.415505
   4 O :    0.112804
   5 C :   -0.092474
   6 C :   -0.068961
   7 C :    0.125633
   8 N :    0.404539
   9 C :   -0.457857
  10 S :   -0.036292
  11 N :    0.397622
  12 C :   -0.045857
  13 C :   -0.039937
  14 C :    0.022408
  15 C :    0.041141
  16 C :   -0.002136
  17 C :   -0.193309
  18 O :    0.393518
  19 C :    0.028961
  20 H :   -0.024027
  21 H :   -0.026290
  22 H :   -0.028231
  23 H :   -0.028722
  24 H :   -0.025528
  25 H :   -0.010097
  26 H :   -0.007542
  27 H :   -0.020678
  28 H :   -0.058938
  29 H :   -0.063837
  30 H :   -0.005069
  31 H :   -0.024999
  32 H :   -0.020807
  33 H :   -0.035939
  34 H :   -0.154370
  35 H :   -0.024819

  Mayer bond orders larger than 0.100000
B(  0-C ,  1-C ) :   0.9588 B(  0-C , 20-H ) :   0.9695 B(  0-C , 21-H ) :   0.9766
B(  0-C , 22-H ) :   0.9713 B(  1-C ,  2-O ) :   0.8985 B(  1-C , 23-H ) :   0.9842
B(  1-C , 24-H ) :   0.9831 B(  2-O ,  3-C ) :   1.1148 B(  3-C ,  4-O ) :   2.0016
B(  3-C ,  5-C ) :   1.0410 B(  5-C ,  6-C ) :   1.6556 B(  5-C , 12-C ) :   0.9638
B(  6-C ,  7-C ) :   0.9534 B(  6-C ,  8-N ) :   1.1464 B(  7-C , 25-H ) :   0.9637
B(  7-C , 26-H ) :   0.9671 B(  7-C , 27-H ) :   0.9901 B(  8-N ,  9-C ) :   1.1818
B(  8-N , 28-H ) :   0.9491 B(  9-C , 10-S ) :   1.6101 B(  9-C , 11-N ) :   1.3027
B( 11-N , 12-C ) :   0.9922 B( 11-N , 29-H ) :   0.9516 B( 12-C , 13-C ) :   0.9441
B( 12-C , 30-H ) :   0.9994 B( 13-C , 14-C ) :   1.3758 B( 13-C , 19-C ) :   1.3641
B( 14-C , 15-C ) :   1.3924 B( 14-C , 31-H ) :   0.9640 B( 15-C , 16-C ) :   1.3623
B( 15-C , 32-H ) :   0.9708 B( 16-C , 17-C ) :   1.3320 B( 16-C , 33-H ) :   0.9850
B( 17-C , 18-O ) :   1.1075 B( 17-C , 19-C ) :   1.3720 B( 18-O , 34-H ) :   0.9802
B( 19-C , 35-H ) :   0.9588

MP2 TOTAL ENERGY:    -1274.339837678 Eh
FINAL SINGLE POINT ENERGY     -1274.339837677763

DIPOLE MOMENT
-------------
                                X             Y             Z
Electronic contribution:      9.84237       9.80412       7.19921
Nuclear contribution   :    -11.31937     -11.07686      -8.06255
                        -----------------------------------------
Total Dipole Moment    :     -1.47700      -1.27274      -0.86335
                        -----------------------------------------
Magnitude (a.u.)       :      2.13232
Magnitude (Debye)      :      5.41991

Rotational constants in cm-1:     0.011790     0.009258     0.006470
Rotational constants in MHz :   353.448615   277.550074   193.967001

                             ****ORCA TERMINATED NORMALLY****
TOTAL RUN TIME: 0 days 1 hours 39 minutes 57 seconds 855 msec
