                         Program Version 4.2.0 -  RELEASE  -
|  1> ! ri-mp2 cc-pvtz cc-pvtz/c TightSCF  NoKeepInts
|  2>
|  3> %scf
|  4>   MaxCore 4096
|  5> end
|  6> *xyz  0  1
|  7>     C       14.9793244   14.1580007   15.8997630
|  8>     C       16.4409245   13.9034792   16.3278452
|  9>     O       17.2223046   15.0841392   16.6495541
| 10>     C       16.8263277   16.3953633   16.5582336
| 11>     O       15.9967399   16.8006655   15.7636244
| 12>     C       17.5813156   17.2798170   17.5140492
| 13>     C       17.4436320   18.6306509   17.5230731
| 14>     C       16.5605889   19.4706809   16.6249268
| 15>     N       18.1880812   19.4064372   18.4167211
| 16>     C       19.1452688   18.9231193   19.2677959
| 17>     S       20.0366420   19.9213057   20.2399727
| 18>     N       19.3295179   17.5644350   19.2733950
| 19>     C       18.5127479   16.5909306   18.5262763
| 20>     C       17.7410934   15.7093241   19.5042227
| 21>     C       18.0796940   14.3519029   19.6597967
| 22>     C       17.3672353   13.5353100   20.5540841
| 23>     C       16.3095550   14.0809208   21.3014794
| 24>     C       15.9736276   15.4336839   21.1533636
| 25>     O       14.9542680   15.9637828   21.8750395
| 26>     C       16.6843292   16.2437548   20.2624499
| 27>     H       14.4494727   14.7668387   16.6431794
| 28>     H       14.4430698   13.2066056   15.8016831
| 29>     H       14.9333959   14.6636740   14.9271045
| 30>     H       16.4323542   13.2495212   17.2095366
| 31>     H       16.9475583   13.3526958   15.5249820
| 32>     H       15.5062694   19.1947130   16.7548130
| 33>     H       16.8141237   19.3047019   15.5701193
| 34>     H       16.6476461   20.5458562   16.8202157
| 35>     H       18.0670261   20.4065559   18.4261723
| 36>     H       20.0146808   17.2346087   19.9408711
| 37>     H       19.2062192   15.9550309   17.9582104
| 38>     H       18.8949222   13.9272125   19.0801551
| 39>     H       17.6359206   12.4864333   20.6671555
| 40>     H       15.7567952   13.4548248   21.9941668
| 41>     H       14.6109732   15.2652056   22.4520583
| 42>     H       16.4133547   17.2898181   20.1679109
| 43> *
| 44>
| 45>                          ****END OF INPUT****

CARTESIAN COORDINATES (ANGSTROEM)
---------------------------------
  C     14.979324   14.158001   15.899763
  C     16.440925   13.903479   16.327845
  O     17.222305   15.084139   16.649554
  C     16.826328   16.395363   16.558234
  O     15.996740   16.800666   15.763624
  C     17.581316   17.279817   17.514049
  C     17.443632   18.630651   17.523073
  C     16.560589   19.470681   16.624927
  N     18.188081   19.406437   18.416721
  C     19.145269   18.923119   19.267796
  S     20.036642   19.921306   20.239973
  N     19.329518   17.564435   19.273395
  C     18.512748   16.590931   18.526276
  C     17.741093   15.709324   19.504223
  C     18.079694   14.351903   19.659797
  C     17.367235   13.535310   20.554084
  C     16.309555   14.080921   21.301479
  C     15.973628   15.433684   21.153364
  O     14.954268   15.963783   21.875039
  C     16.684329   16.243755   20.262450
  H     14.449473   14.766839   16.643179
  H     14.443070   13.206606   15.801683
  H     14.933396   14.663674   14.927104
  H     16.432354   13.249521   17.209537
  H     16.947558   13.352696   15.524982
  H     15.506269   19.194713   16.754813
  H     16.814124   19.304702   15.570119
  H     16.647646   20.545856   16.820216
  H     18.067026   20.406556   18.426172
  H     20.014681   17.234609   19.940871
  H     19.206219   15.955031   17.958210
  H     18.894922   13.927212   19.080155
  H     17.635921   12.486433   20.667155
  H     15.756795   13.454825   21.994167
  H     14.610973   15.265206   22.452058
  H     16.413355   17.289818   20.167911

 Total Charge           Charge          ....    0
 Multiplicity           Mult            ....    1
 Number of Electrons    NEL             ....  154
 Basis Dimension        Dim             ....  828

ORBITAL ENERGIES
----------------

  NO   OCC          E(Eh)            E(eV)
   0   2.0000     -91.888055     -2500.4011
   1   2.0000     -20.597388      -560.4834
   2   2.0000     -20.595927      -560.4437
   3   2.0000     -20.540218      -558.9278
   4   2.0000     -15.628029      -425.2603
   5   2.0000     -15.607414      -424.6993
   6   2.0000     -11.396856      -310.1242
   7   2.0000     -11.383129      -309.7507
   8   2.0000     -11.334852      -308.4370
   9   2.0000     -11.314662      -307.8876
  10   2.0000     -11.307780      -307.7003
  11   2.0000     -11.301966      -307.5421
  12   2.0000     -11.260345      -306.4096
  13   2.0000     -11.257727      -306.3383
  14   2.0000     -11.256261      -306.2984
  15   2.0000     -11.251197      -306.1606
  16   2.0000     -11.243844      -305.9605
  17   2.0000     -11.239003      -305.8288
  18   2.0000     -11.238942      -305.8272
  19   2.0000     -11.223084      -305.3956
  20   2.0000      -8.893130      -241.9944
  21   2.0000      -6.574708      -178.9069
  22   2.0000      -6.572701      -178.8523
  23   2.0000      -6.572117      -178.8364
  24   2.0000      -1.441973       -39.2381
  25   2.0000      -1.417033       -38.5594
  26   2.0000      -1.353076       -36.8191
  27   2.0000      -1.339155       -36.4403
  28   2.0000      -1.237749       -33.6808
  29   2.0000      -1.158062       -31.5125
  30   2.0000      -1.119250       -30.4563
  31   2.0000      -1.042580       -28.3700
  32   2.0000      -1.035573       -28.1794
  33   2.0000      -1.015871       -27.6433
  34   2.0000      -0.994978       -27.0747
  35   2.0000      -0.983208       -26.7544
  36   2.0000      -0.922042       -25.0900
  37   2.0000      -0.897801       -24.4304
  38   2.0000      -0.846743       -23.0411
  39   2.0000      -0.838239       -22.8096
  40   2.0000      -0.834720       -22.7139
  41   2.0000      -0.817987       -22.2586
  42   2.0000      -0.743906       -20.2427
  43   2.0000      -0.730903       -19.8889
  44   2.0000      -0.718172       -19.5424
  45   2.0000      -0.696170       -18.9437
  46   2.0000      -0.687379       -18.7045
  47   2.0000      -0.673728       -18.3331
  48   2.0000      -0.670738       -18.2517
  49   2.0000      -0.661090       -17.9892
  50   2.0000      -0.651267       -17.7219
  51   2.0000      -0.643517       -17.5110
  52   2.0000      -0.635633       -17.2965
  53   2.0000      -0.608422       -16.5560
  54   2.0000      -0.606834       -16.5128
  55   2.0000      -0.600560       -16.3421
  56   2.0000      -0.598481       -16.2855
  57   2.0000      -0.577858       -15.7243
  58   2.0000      -0.571286       -15.5455
  59   2.0000      -0.569891       -15.5075
  60   2.0000      -0.559994       -15.2382
  61   2.0000      -0.539535       -14.6815
  62   2.0000      -0.535215       -14.5640
  63   2.0000      -0.525841       -14.3089
  64   2.0000      -0.522055       -14.2058
  65   2.0000      -0.512976       -13.9588
  66   2.0000      -0.501205       -13.6385
  67   2.0000      -0.497878       -13.5480
  68   2.0000      -0.486093       -13.2273
  69   2.0000      -0.462908       -12.5964
  70   2.0000      -0.451714       -12.2918
  71   2.0000      -0.440354       -11.9826
  72   2.0000      -0.353038        -9.6066
  73   2.0000      -0.349908        -9.5215
  74   2.0000      -0.327685        -8.9168
  75   2.0000      -0.322243        -8.7687
  76   2.0000      -0.315495        -8.5851
  77   0.0000       0.077245         2.1020
  78   0.0000       0.104966         2.8563
  79   0.0000       0.125114         3.4045
  80   0.0000       0.132764         3.6127
  81   0.0000       0.138743         3.7754

MULLIKEN ATOMIC CHARGES
-----------------------
   0 C :   -0.295908
   1 C :    0.051074
   2 O :   -0.367847
   3 C :    0.457625
   4 O :   -0.425902
   5 C :   -0.220270
   6 C :    0.154562
   7 C :   -0.271264
   8 N :   -0.121355
   9 C :    0.212936
  10 S :   -0.441975
  11 N :   -0.206701
  12 C :    0.065627
  13 C :    0.067906
  14 C :   -0.202141
  15 C :   -0.126516
  16 C :   -0.281024
  17 C :    0.317449
  18 O :   -0.356334
  19 C :   -0.271092
  20 H :    0.102614
  21 H :    0.096874
  22 H :    0.120017
  23 H :    0.095434
  24 H :    0.095796
  25 H :    0.130434
  26 H :    0.131554
  27 H :    0.094851
  28 H :    0.197025
  29 H :    0.195163
  30 H :    0.149298
  31 H :    0.152674
  32 H :    0.162353
  33 H :    0.130535
  34 H :    0.240833
  35 H :    0.165695
Sum of atomic charges:   -0.0000000

LOEWDIN ATOMIC CHARGES
----------------------
   0 C :    0.103280
   1 C :   -0.008823
   2 O :    0.295027
   3 C :   -0.413683
   4 O :    0.107097
   5 C :   -0.094433
   6 C :   -0.059429
   7 C :    0.130847
   8 N :    0.406408
   9 C :   -0.456324
  10 S :   -0.036915
  11 N :    0.396350
  12 C :   -0.052623
  13 C :   -0.037979
  14 C :    0.014769
  15 C :    0.038325
  16 C :   -0.002305
  17 C :   -0.189550
  18 O :    0.395389
  19 C :    0.031047
  20 H :   -0.026243
  21 H :   -0.027333
  22 H :   -0.024626
  23 H :   -0.028751
  24 H :   -0.028382
  25 H :   -0.005126
  26 H :   -0.004001
  27 H :   -0.023690
  28 H :   -0.057760
  29 H :   -0.064768
  30 H :   -0.011527
  31 H :   -0.029950
  32 H :   -0.021363
  33 H :   -0.035547
  34 H :   -0.153789
  35 H :   -0.023617

  Mayer bond orders larger than 0.100000
B(  0-C ,  1-C ) :   0.9771 B(  0-C , 20-H ) :   0.9755 B(  0-C , 21-H ) :   0.9733
B(  0-C , 22-H ) :   0.9725 B(  1-C ,  2-O ) :   0.8982 B(  1-C , 23-H ) :   0.9738
B(  1-C , 24-H ) :   0.9806 B(  2-O ,  3-C ) :   1.1479 B(  3-C ,  4-O ) :   1.9853
B(  3-C ,  5-C ) :   1.0525 B(  5-C ,  6-C ) :   1.6539 B(  5-C , 12-C ) :   0.9734
B(  6-C ,  7-C ) :   0.9666 B(  6-C ,  8-N ) :   1.1615 B(  7-C , 25-H ) :   0.9606
B(  7-C , 26-H ) :   0.9602 B(  7-C , 27-H ) :   0.9908 B(  8-N ,  9-C ) :   1.1848
B(  8-N , 28-H ) :   0.9479 B(  9-C , 10-S ) :   1.6046 B(  9-C , 11-N ) :   1.3068
B( 11-N , 12-C ) :   0.9844 B( 11-N , 29-H ) :   0.9514 B( 12-C , 13-C ) :   0.9358
B( 12-C , 30-H ) :   1.0024 B( 13-C , 14-C ) :   1.3497 B( 13-C , 19-C ) :   1.3824
B( 14-C , 15-C ) :   1.3870 B( 14-C , 31-H ) :   0.9718 B( 15-C , 16-C ) :   1.3638
B( 15-C , 32-H ) :   0.9701 B( 16-C , 17-C ) :   1.3311 B( 16-C , 33-H ) :   0.9849
B( 17-C , 18-O ) :   1.1102 B( 17-C , 19-C ) :   1.3697 B( 18-O , 34-H ) :   0.9797
B( 19-C , 35-H ) :   0.9585

MP2 TOTAL ENERGY:    -1274.339111339 Eh
FINAL SINGLE POINT ENERGY     -1274.339111338888

DIPOLE MOMENT
-------------
                                X             Y             Z
Electronic contribution:      9.97636      10.13005       8.50244
Nuclear contribution   :    -10.97479     -11.95105      -8.84263
                        -----------------------------------------
Total Dipole Moment    :     -0.99843      -1.82100      -0.34019
                        -----------------------------------------
Magnitude (a.u.)       :      2.10443
Magnitude (Debye)      :      5.34903

Rotational constants in cm-1:     0.011882     0.008658     0.006177
Rotational constants in MHz :   356.198443   259.550926   185.171679

                             ****ORCA TERMINATED NORMALLY****
TOTAL RUN TIME: 0 days 2 hours 4 minutes 11 seconds 670 msec
