                         Program Version 4.2.0 -  RELEASE  -
|  1> ! ri-mp2 cc-pvtz cc-pvtz/c TightSCF  NoKeepInts
|  2>
|  3> %scf
|  4>   MaxCore 4096
|  5> end
|  6> *xyz  0  1
|  7>     C       14.5823687   16.1054375   16.5708728
|  8>     C       15.5430183   15.0590527   17.1640807
|  9>     O       16.7466206   14.9332703   16.3756423
| 10>     C       17.8598919   15.7364363   16.4364832
| 11>     O       18.9251547   15.3127096   16.0297063
| 12>     C       17.8304083   16.8652804   17.4081791
| 13>     C       17.3533376   18.0801179   17.0566527
| 14>     C       16.7898983   18.4762520   15.7083639
| 15>     N       17.4592884   19.1541807   17.9422219
| 16>     C       18.1204745   19.1120816   19.1420657
| 17>     S       18.2289341   20.4397202   20.1216555
| 18>     N       18.6919785   17.9128394   19.4910822
| 19>     C       18.5873520   16.6559062   18.7221770
| 20>     C       17.9927429   15.5256525   19.5574630
| 21>     C       18.4393102   14.2056097   19.3619668
| 22>     C       17.8918413   13.1458438   20.1035255
| 23>     C       16.8878512   13.4061206   21.0512516
| 24>     C       16.4375947   14.7181635   21.2486491
| 25>     O       15.4594115   14.9712372   22.1536928
| 26>     C       16.9821246   15.7718004   20.5071968
| 27>     H       14.7980777   17.1062734   16.9555229
| 28>     H       13.5504686   15.8684166   16.8579846
| 29>     H       14.6328973   16.1139024   15.4748997
| 30>     H       15.7565044   15.2819423   18.2139789
| 31>     H       15.0326418   14.0874041   17.1414442
| 32>     H       16.6133887   17.6126121   15.0562205
| 33>     H       17.4909906   19.1355045   15.1806311
| 34>     H       15.8381267   19.0114932   15.8123577
| 35>     H       17.0737384   20.0509664   17.6908384
| 36>     H       19.1651572   17.9103502   20.3860548
| 37>     H       19.6111306   16.3547829   18.4538349
| 38>     H       19.2077441   13.9985938   18.6193552
| 39>     H       18.2447838   12.1289494   19.9388857
| 40>     H       16.4617994   12.5897179   21.6253052
| 41>     H       15.2524253   14.1365779   22.6010556
| 42>     H       16.6075230   16.7768004   20.6727017
| 43> *
| 44>
| 45>                          ****END OF INPUT****

CARTESIAN COORDINATES (ANGSTROEM)
---------------------------------
  C     14.582369   16.105438   16.570873
  C     15.543018   15.059053   17.164081
  O     16.746621   14.933270   16.375642
  C     17.859892   15.736436   16.436483
  O     18.925155   15.312710   16.029706
  C     17.830408   16.865280   17.408179
  C     17.353338   18.080118   17.056653
  C     16.789898   18.476252   15.708364
  N     17.459288   19.154181   17.942222
  C     18.120475   19.112082   19.142066
  S     18.228934   20.439720   20.121655
  N     18.691979   17.912839   19.491082
  C     18.587352   16.655906   18.722177
  C     17.992743   15.525652   19.557463
  C     18.439310   14.205610   19.361967
  C     17.891841   13.145844   20.103525
  C     16.887851   13.406121   21.051252
  C     16.437595   14.718163   21.248649
  O     15.459411   14.971237   22.153693
  C     16.982125   15.771800   20.507197
  H     14.798078   17.106273   16.955523
  H     13.550469   15.868417   16.857985
  H     14.632897   16.113902   15.474900
  H     15.756504   15.281942   18.213979
  H     15.032642   14.087404   17.141444
  H     16.613389   17.612612   15.056220
  H     17.490991   19.135504   15.180631
  H     15.838127   19.011493   15.812358
  H     17.073738   20.050966   17.690838
  H     19.165157   17.910350   20.386055
  H     19.611131   16.354783   18.453835
  H     19.207744   13.998594   18.619355
  H     18.244784   12.128949   19.938886
  H     16.461799   12.589718   21.625305
  H     15.252425   14.136578   22.601056
  H     16.607523   16.776800   20.672702

 Total Charge           Charge          ....    0
 Multiplicity           Mult            ....    1
 Number of Electrons    NEL             ....  154
 Basis Dimension        Dim             ....  828

ORBITAL ENERGIES
----------------

  NO   OCC          E(Eh)            E(eV)
   0   2.0000     -91.889732     -2500.4467
   1   2.0000     -20.602159      -560.6132
   2   2.0000     -20.598607      -560.5166
   3   2.0000     -20.551899      -559.2456
   4   2.0000     -15.625092      -425.1804
   5   2.0000     -15.612463      -424.8367
   6   2.0000     -11.398825      -310.1778
   7   2.0000     -11.386733      -309.8488
   8   2.0000     -11.326330      -308.2051
   9   2.0000     -11.319873      -308.0294
  10   2.0000     -11.318275      -307.9859
  11   2.0000     -11.302378      -307.5533
  12   2.0000     -11.267522      -306.6049
  13   2.0000     -11.266607      -306.5799
  14   2.0000     -11.264589      -306.5250
  15   2.0000     -11.260332      -306.4092
  16   2.0000     -11.248771      -306.0946
  17   2.0000     -11.244550      -305.9798
  18   2.0000     -11.242089      -305.9128
  19   2.0000     -11.235552      -305.7349
  20   2.0000      -8.894854      -242.0413
  21   2.0000      -6.576447      -178.9542
  22   2.0000      -6.574416      -178.8989
  23   2.0000      -6.573845      -178.8834
  24   2.0000      -1.446595       -39.3638
  25   2.0000      -1.421970       -38.6938
  26   2.0000      -1.358858       -36.9764
  27   2.0000      -1.339519       -36.4502
  28   2.0000      -1.240170       -33.7467
  29   2.0000      -1.163817       -31.6691
  30   2.0000      -1.126149       -30.6441
  31   2.0000      -1.050533       -28.5865
  32   2.0000      -1.039974       -28.2991
  33   2.0000      -1.021846       -27.8058
  34   2.0000      -1.005244       -27.3541
  35   2.0000      -0.990336       -26.9484
  36   2.0000      -0.928792       -25.2737
  37   2.0000      -0.895450       -24.3664
  38   2.0000      -0.853006       -23.2115
  39   2.0000      -0.842604       -22.9284
  40   2.0000      -0.838894       -22.8275
  41   2.0000      -0.835265       -22.7287
  42   2.0000      -0.754347       -20.5268
  43   2.0000      -0.735448       -20.0126
  44   2.0000      -0.730384       -19.8747
  45   2.0000      -0.699535       -19.0353
  46   2.0000      -0.690927       -18.8011
  47   2.0000      -0.679867       -18.5001
  48   2.0000      -0.677291       -18.4300
  49   2.0000      -0.665950       -18.1214
  50   2.0000      -0.655005       -17.8236
  51   2.0000      -0.640040       -17.4164
  52   2.0000      -0.636765       -17.3272
  53   2.0000      -0.622462       -16.9380
  54   2.0000      -0.611311       -16.6346
  55   2.0000      -0.608611       -16.5612
  56   2.0000      -0.605396       -16.4737
  57   2.0000      -0.587311       -15.9815
  58   2.0000      -0.579902       -15.7799
  59   2.0000      -0.576256       -15.6807
  60   2.0000      -0.567566       -15.4443
  61   2.0000      -0.558335       -15.1931
  62   2.0000      -0.539252       -14.6738
  63   2.0000      -0.537201       -14.6180
  64   2.0000      -0.524041       -14.2599
  65   2.0000      -0.515682       -14.0324
  66   2.0000      -0.504135       -13.7182
  67   2.0000      -0.499059       -13.5801
  68   2.0000      -0.489275       -13.3138
  69   2.0000      -0.468771       -12.7559
  70   2.0000      -0.452585       -12.3155
  71   2.0000      -0.450632       -12.2623
  72   2.0000      -0.356866        -9.7108
  73   2.0000      -0.353462        -9.6182
  74   2.0000      -0.329622        -8.9695
  75   2.0000      -0.327567        -8.9135
  76   2.0000      -0.319089        -8.6828
  77   0.0000       0.092560         2.5187
  78   0.0000       0.103034         2.8037
  79   0.0000       0.116317         3.1651
  80   0.0000       0.125850         3.4246
  81   0.0000       0.128025         3.4837

MULLIKEN ATOMIC CHARGES
-----------------------
   0 C :   -0.324321
   1 C :    0.039819
   2 O :   -0.321802
   3 C :    0.389263
   4 O :   -0.377079
   5 C :   -0.166463
   6 C :    0.115902
   7 C :   -0.324945
   8 N :   -0.139485
   9 C :    0.211739
  10 S :   -0.443467
  11 N :   -0.231935
  12 C :    0.092634
  13 C :    0.000342
  14 C :   -0.202256
  15 C :   -0.136163
  16 C :   -0.271569
  17 C :    0.314019
  18 O :   -0.355717
  19 C :   -0.262872
  20 H :    0.096122
  21 H :    0.118479
  22 H :    0.108695
  23 H :    0.104666
  24 H :    0.123178
  25 H :    0.119201
  26 H :    0.150465
  27 H :    0.116209
  28 H :    0.196034
  29 H :    0.204285
  30 H :    0.165284
  31 H :    0.169641
  32 H :    0.165563
  33 H :    0.133933
  34 H :    0.241661
  35 H :    0.180940
Sum of atomic charges:   -0.0000000

LOEWDIN ATOMIC CHARGES
----------------------
   0 C :    0.103277
   1 C :   -0.016621
   2 O :    0.302544
   3 C :   -0.417937
   4 O :    0.125698
   5 C :   -0.079749
   6 C :   -0.107216
   7 C :    0.124328
   8 N :    0.401484
   9 C :   -0.454947
  10 S :   -0.039144
  11 N :    0.397553
  12 C :   -0.043467
  13 C :   -0.044438
  14 C :    0.021599
  15 C :    0.046793
  16 C :    0.000028
  17 C :   -0.193468
  18 O :    0.396265
  19 C :    0.024357
  20 H :   -0.033757
  21 H :   -0.022305
  22 H :   -0.026235
  23 H :   -0.034658
  24 H :   -0.019487
  25 H :   -0.010402
  26 H :   -0.008240
  27 H :   -0.017477
  28 H :   -0.058045
  29 H :   -0.064128
  30 H :   -0.002634
  31 H :   -0.021189
  32 H :   -0.017434
  33 H :   -0.034108
  34 H :   -0.152461
  35 H :   -0.024382

  Mayer bond orders larger than 0.100000
B(  0-C ,  1-C ) :   0.9541 B(  0-C , 20-H ) :   0.9770 B(  0-C , 21-H ) :   0.9797
B(  0-C , 22-H ) :   0.9747 B(  1-C ,  2-O ) :   0.8971 B(  1-C , 23-H ) :   0.9607
B(  1-C , 24-H ) :   0.9868 B(  2-O ,  3-C ) :   1.1799 B(  3-C ,  4-O ) :   2.1011
B(  3-C ,  5-C ) :   0.8950 B(  5-C ,  6-C ) :   1.7174 B(  5-C , 12-C ) :   0.9485
B(  6-C ,  7-C ) :   0.9524 B(  6-C ,  8-N ) :   1.1000 B(  7-C , 25-H ) :   0.9806
B(  7-C , 26-H ) :   0.9645 B(  7-C , 27-H ) :   0.9695 B(  8-N ,  9-C ) :   1.2046
B(  8-N , 28-H ) :   0.9519 B(  9-C , 10-S ) :   1.6056 B(  9-C , 11-N ) :   1.2850
B( 11-N , 12-C ) :   0.9889 B( 11-N , 29-H ) :   0.9452 B( 12-C , 13-C ) :   0.9565
B( 12-C , 30-H ) :   0.9960 B( 13-C , 14-C ) :   1.3909 B( 13-C , 19-C ) :   1.3361
B( 14-C , 15-C ) :   1.3996 B( 14-C , 31-H ) :   0.9621 B( 15-C , 16-C ) :   1.3606
B( 15-C , 32-H ) :   0.9690 B( 16-C , 17-C ) :   1.3305 B( 16-C , 33-H ) :   0.9840
B( 17-C , 18-O ) :   1.1103 B( 17-C , 19-C ) :   1.3654 B( 18-O , 34-H ) :   0.9789
B( 19-C , 35-H ) :   0.9584

MP2 TOTAL ENERGY:    -1274.327353917 Eh
FINAL SINGLE POINT ENERGY     -1274.327353916886

DIPOLE MOMENT
-------------
                                X             Y             Z
Electronic contribution:     10.14289       4.93973       7.38541
Nuclear contribution   :    -11.64903      -6.20328      -7.62662
                        -----------------------------------------
Total Dipole Moment    :     -1.50613      -1.26355      -0.24121
                        -----------------------------------------
Magnitude (a.u.)       :      1.98070
Magnitude (Debye)      :      5.03455

Rotational constants in cm-1:     0.011916     0.009237     0.006724
Rotational constants in MHz :   357.226222   276.918016   201.574344

                             ****ORCA TERMINATED NORMALLY****
TOTAL RUN TIME: 0 days 1 hours 52 minutes 23 seconds 988 msec
