                         Program Version 4.2.0 -  RELEASE  -
|  1> ! ri-mp2 cc-pvtz cc-pvtz/c TightSCF  NoKeepInts
|  2>
|  3> %scf
|  4>   MaxCore 4096
|  5> end
|  6> *xyz  0  1
|  7>     C       15.9709048   13.1017095   16.4419582
|  8>     C       15.6873416   14.5828486   16.7421061
|  9>     O       16.8777698   15.3236489   16.4232723
| 10>     C       16.7705227   16.6794725   16.3184400
| 11>     O       15.8817432   17.1858820   15.6560388
| 12>     C       17.5415562   17.4118893   17.3839400
| 13>     C       17.4857287   18.7616316   17.5220701
| 14>     C       16.6704728   19.7363739   16.6991375
| 15>     N       18.2742479   19.4012587   18.4833675
| 16>     C       19.2401148   18.7887256   19.2362679
| 17>     S       20.2197538   19.6378890   20.2633640
| 18>     N       19.3607645   17.4307704   19.0874461
| 19>     C       18.4360821   16.5785751   18.3184673
| 20>     C       17.6287066   15.7138274   19.2817853
| 21>     C       17.9086149   14.3400628   19.4066656
| 22>     C       17.1631382   13.5352522   20.2844261
| 23>     C       16.1333420   14.1096527   21.0488122
| 24>     C       15.8588901   15.4793629   20.9351010
| 25>     O       14.8664570   16.0373667   21.6727405
| 26>     C       16.6006611   16.2773031   20.0586777
| 27>     H       16.8016997   12.7344209   17.0564664
| 28>     H       16.2331344   12.9655555   15.3853294
| 29>     H       15.0867779   12.4900909   16.6585186
| 30>     H       14.8456915   14.9167692   16.1196962
| 31>     H       15.4154797   14.7181690   17.7971228
| 32>     H       15.5976376   19.5385127   16.8197822
| 33>     H       16.9038865   19.6314851   15.6319233
| 34>     H       16.8475750   20.7829708   16.9732436
| 35>     H       18.2028793   20.3993868   18.6009383
| 36>     H       20.0604115   17.0029459   19.6801607
| 37>     H       19.0459182   15.9160040   17.6880229
| 38>     H       18.7020551   13.8926741   18.8137696
| 39>     H       17.3853723   12.4729905   20.3716060
| 40>     H       15.5557622   13.4925143   21.7293453
| 41>     H       14.5092106   15.3475532   22.2521454
| 42>     H       16.3766958   17.3364545   19.9918452
| 43> *
| 44>
| 45>                          ****END OF INPUT****

CARTESIAN COORDINATES (ANGSTROEM)
---------------------------------
  C     15.970905   13.101709   16.441958
  C     15.687342   14.582849   16.742106
  O     16.877770   15.323649   16.423272
  C     16.770523   16.679472   16.318440
  O     15.881743   17.185882   15.656039
  C     17.541556   17.411889   17.383940
  C     17.485729   18.761632   17.522070
  C     16.670473   19.736374   16.699137
  N     18.274248   19.401259   18.483367
  C     19.240115   18.788726   19.236268
  S     20.219754   19.637889   20.263364
  N     19.360764   17.430770   19.087446
  C     18.436082   16.578575   18.318467
  C     17.628707   15.713827   19.281785
  C     17.908615   14.340063   19.406666
  C     17.163138   13.535252   20.284426
  C     16.133342   14.109653   21.048812
  C     15.858890   15.479363   20.935101
  O     14.866457   16.037367   21.672740
  C     16.600661   16.277303   20.058678
  H     16.801700   12.734421   17.056466
  H     16.233134   12.965556   15.385329
  H     15.086778   12.490091   16.658519
  H     14.845691   14.916769   16.119696
  H     15.415480   14.718169   17.797123
  H     15.597638   19.538513   16.819782
  H     16.903886   19.631485   15.631923
  H     16.847575   20.782971   16.973244
  H     18.202879   20.399387   18.600938
  H     20.060412   17.002946   19.680161
  H     19.045918   15.916004   17.688023
  H     18.702055   13.892674   18.813770
  H     17.385372   12.472990   20.371606
  H     15.555762   13.492514   21.729345
  H     14.509211   15.347553   22.252145
  H     16.376696   17.336454   19.991845

 Total Charge           Charge          ....    0
 Multiplicity           Mult            ....    1
 Number of Electrons    NEL             ....  154
 Basis Dimension        Dim             ....  828

ORBITAL ENERGIES
----------------

  NO   OCC          E(Eh)            E(eV)
   0   2.0000     -91.890152     -2500.4582
   1   2.0000     -20.600573      -560.5701
   2   2.0000     -20.588083      -560.2302
   3   2.0000     -20.545309      -559.0663
   4   2.0000     -15.630515      -425.3279
   5   2.0000     -15.609544      -424.7573
   6   2.0000     -11.393015      -310.0197
   7   2.0000     -11.385122      -309.8049
   8   2.0000     -11.336952      -308.4942
   9   2.0000     -11.318408      -307.9895
  10   2.0000     -11.311164      -307.7924
  11   2.0000     -11.292616      -307.2877
  12   2.0000     -11.263381      -306.4922
  13   2.0000     -11.259828      -306.3955
  14   2.0000     -11.259441      -306.3850
  15   2.0000     -11.253023      -306.2103
  16   2.0000     -11.247424      -306.0580
  17   2.0000     -11.242199      -305.9158
  18   2.0000     -11.242009      -305.9106
  19   2.0000     -11.226402      -305.4859
  20   2.0000      -8.895202      -242.0507
  21   2.0000      -6.576773      -178.9631
  22   2.0000      -6.574771      -178.9086
  23   2.0000      -6.574181      -178.8926
  24   2.0000      -1.449783       -39.4506
  25   2.0000      -1.420263       -38.6473
  26   2.0000      -1.352999       -36.8170
  27   2.0000      -1.341567       -36.5059
  28   2.0000      -1.240162       -33.7465
  29   2.0000      -1.161456       -31.6048
  30   2.0000      -1.121391       -30.5146
  31   2.0000      -1.045440       -28.4479
  32   2.0000      -1.035724       -28.1835
  33   2.0000      -1.019556       -27.7435
  34   2.0000      -0.997106       -27.1326
  35   2.0000      -0.985557       -26.8184
  36   2.0000      -0.924785       -25.1647
  37   2.0000      -0.881540       -23.9879
  38   2.0000      -0.848571       -23.0908
  39   2.0000      -0.840918       -22.8825
  40   2.0000      -0.837686       -22.7946
  41   2.0000      -0.824173       -22.4269
  42   2.0000      -0.762340       -20.7443
  43   2.0000      -0.735719       -20.0199
  44   2.0000      -0.724164       -19.7055
  45   2.0000      -0.699661       -19.0387
  46   2.0000      -0.689802       -18.7705
  47   2.0000      -0.678381       -18.4597
  48   2.0000      -0.673948       -18.3391
  49   2.0000      -0.656941       -17.8763
  50   2.0000      -0.647884       -17.6298
  51   2.0000      -0.643700       -17.5160
  52   2.0000      -0.633381       -17.2352
  53   2.0000      -0.616742       -16.7824
  54   2.0000      -0.611222       -16.6322
  55   2.0000      -0.603173       -16.4132
  56   2.0000      -0.600647       -16.3444
  57   2.0000      -0.580943       -15.8083
  58   2.0000      -0.571969       -15.5641
  59   2.0000      -0.566041       -15.4028
  60   2.0000      -0.556101       -15.1323
  61   2.0000      -0.540397       -14.7050
  62   2.0000      -0.533695       -14.5226
  63   2.0000      -0.528659       -14.3855
  64   2.0000      -0.520641       -14.1674
  65   2.0000      -0.515496       -14.0273
  66   2.0000      -0.505330       -13.7507
  67   2.0000      -0.499737       -13.5985
  68   2.0000      -0.487239       -13.2585
  69   2.0000      -0.464914       -12.6509
  70   2.0000      -0.457045       -12.4368
  71   2.0000      -0.445031       -12.1099
  72   2.0000      -0.356014        -9.6876
  73   2.0000      -0.353479        -9.6187
  74   2.0000      -0.329969        -8.9789
  75   2.0000      -0.325754        -8.8642
  76   2.0000      -0.317452        -8.6383
  77   0.0000       0.070813         1.9269
  78   0.0000       0.102165         2.7801
  79   0.0000       0.123214         3.3528
  80   0.0000       0.129184         3.5153
  81   0.0000       0.134192         3.6515

MULLIKEN ATOMIC CHARGES
-----------------------
   0 C :   -0.266602
   1 C :    0.007540
   2 O :   -0.378085
   3 C :    0.502398
   4 O :   -0.417492
   5 C :   -0.276026
   6 C :    0.161273
   7 C :   -0.269492
   8 N :   -0.123811
   9 C :    0.213374
  10 S :   -0.438704
  11 N :   -0.205216
  12 C :    0.062714
  13 C :    0.021371
  14 C :   -0.171859
  15 C :   -0.134474
  16 C :   -0.273652
  17 C :    0.307514
  18 O :   -0.356142
  19 C :   -0.245329
  20 H :    0.088595
  21 H :    0.103787
  22 H :    0.089554
  23 H :    0.127561
  24 H :    0.109431
  25 H :    0.131923
  26 H :    0.131299
  27 H :    0.095253
  28 H :    0.197982
  29 H :    0.194386
  30 H :    0.149453
  31 H :    0.154819
  32 H :    0.164458
  33 H :    0.133119
  34 H :    0.241483
  35 H :    0.167599
Sum of atomic charges:   -0.0000000

LOEWDIN ATOMIC CHARGES
----------------------
   0 C :    0.108470
   1 C :   -0.018203
   2 O :    0.295740
   3 C :   -0.416429
   4 O :    0.110756
   5 C :   -0.097860
   6 C :   -0.058339
   7 C :    0.131497
   8 N :    0.406962
   9 C :   -0.456175
  10 S :   -0.034203
  11 N :    0.396195
  12 C :   -0.052749
  13 C :   -0.038305
  14 C :    0.015052
  15 C :    0.041726
  16 C :   -0.002116
  17 C :   -0.190576
  18 O :    0.396570
  19 C :    0.030399
  20 H :   -0.032321
  21 H :   -0.025513
  22 H :   -0.025268
  23 H :   -0.028507
  24 H :   -0.032053
  25 H :   -0.004708
  26 H :   -0.003657
  27 H :   -0.023227
  28 H :   -0.057336
  29 H :   -0.064955
  30 H :   -0.008900
  31 H :   -0.030194
  32 H :   -0.020253
  33 H :   -0.034652
  34 H :   -0.152966
  35 H :   -0.023900

  Mayer bond orders larger than 0.100000
B(  0-C ,  1-C ) :   0.9774 B(  0-C , 20-H ) :   0.9779 B(  0-C , 21-H ) :   0.9783
B(  0-C , 22-H ) :   0.9766 B(  1-C ,  2-O ) :   0.8738 B(  1-C , 23-H ) :   0.9789
B(  1-C , 24-H ) :   0.9653 B(  2-O ,  3-C ) :   1.1204 B(  3-C ,  4-O ) :   2.0035
B(  3-C ,  5-C ) :   1.0678 B(  5-C ,  6-C ) :   1.6497 B(  5-C , 12-C ) :   0.9718
B(  6-C ,  7-C ) :   0.9666 B(  6-C ,  8-N ) :   1.1605 B(  7-C , 25-H ) :   0.9597
B(  7-C , 26-H ) :   0.9603 B(  7-C , 27-H ) :   0.9903 B(  8-N ,  9-C ) :   1.1821
B(  8-N , 28-H ) :   0.9477 B(  9-C , 10-S ) :   1.6078 B(  9-C , 11-N ) :   1.3061
B( 11-N , 12-C ) :   0.9760 B( 11-N , 29-H ) :   0.9525 B( 12-C , 13-C ) :   0.9409
B( 12-C , 30-H ) :   1.0012 B( 13-C , 14-C ) :   1.3561 B( 13-C , 19-C ) :   1.3788
B( 14-C , 15-C ) :   1.3864 B( 14-C , 31-H ) :   0.9719 B( 15-C , 16-C ) :   1.3634
B( 15-C , 32-H ) :   0.9693 B( 16-C , 17-C ) :   1.3291 B( 16-C , 33-H ) :   0.9841
B( 17-C , 18-O ) :   1.1140 B( 17-C , 19-C ) :   1.3743 B( 18-O , 34-H ) :   0.9791
B( 19-C , 35-H ) :   0.9576

MP2 TOTAL ENERGY:    -1274.338046802 Eh
FINAL SINGLE POINT ENERGY     -1274.338046802290

DIPOLE MOMENT
-------------
                                X             Y             Z
Electronic contribution:      8.82270      11.25892       6.28219
Nuclear contribution   :     -9.87826     -12.77144      -6.29969
                        -----------------------------------------
Total Dipole Moment    :     -1.05555      -1.51253      -0.01750
                        -----------------------------------------
Magnitude (a.u.)       :      1.84451
Magnitude (Debye)      :      4.68838

Rotational constants in cm-1:     0.012614     0.008577     0.006388
Rotational constants in MHz :   378.156820   257.137103   191.510140

                             ****ORCA TERMINATED NORMALLY****
TOTAL RUN TIME: 0 days 2 hours 14 minutes 20 seconds 923 msec
