                         Program Version 4.2.0 -  RELEASE  -
|  1> ! ri-mp2 cc-pvtz cc-pvtz/c TightSCF  NoKeepInts
|  2>
|  3> %scf
|  4>   MaxCore 4096
|  5> end
|  6> *xyz  0  1
|  7>     C       14.6738453   14.4469893   17.2806648
|  8>     C       15.5955313   15.5147007   16.6698297
|  9>     O       16.9260169   14.9726053   16.6766993
| 10>     C       18.0363743   15.7446954   16.4714747
| 11>     O       19.0840168   15.1800246   16.2195738
| 12>     C       18.0696205   16.9333887   17.3690870
| 13>     C       17.5904117   18.1331644   16.9749668
| 14>     C       16.9646394   18.4552966   15.6352836
| 15>     N       17.6832771   19.2334574   17.8297219
| 16>     C       18.3266217   19.2243061   19.0408016
| 17>     S       18.4408639   20.5865347   19.9711438
| 18>     N       18.8641153   18.0265016   19.4472891
| 19>     C       18.7202319   16.7392385   18.7369116
| 20>     C       17.9400953   15.7285323   19.5711140
| 21>     C       18.3923917   14.4004970   19.6749003
| 22>     C       17.6692746   13.4542194   20.4200049
| 23>     C       16.4810409   13.8373745   21.0649227
| 24>     C       16.0227631   15.1572003   20.9566791
| 25>     O       14.8665605   15.5260782   21.5631247
| 26>     C       16.7440120   16.0974185   20.2142602
| 27>     H       14.9965115   14.1968574   18.2990707
| 28>     H       14.6942381   13.5295554   16.6792768
| 29>     H       13.6391884   14.8074691   17.3264121
| 30>     H       15.2811783   15.7572416   15.6463823
| 31>     H       15.5267510   16.4167628   17.2902849
| 32>     H       17.2228665   17.7132535   14.8695408
| 33>     H       17.3146568   19.4255190   15.2598404
| 34>     H       15.8713521   18.4990121   15.7113284
| 35>     H       17.3048171   20.1239619   17.5471714
| 36>     H       19.3117249   18.0457474   20.3549316
| 37>     H       19.7295170   16.3360864   18.5669846
| 38>     H       19.2999978   14.0964435   19.1581682
| 39>     H       18.0269690   12.4282223   20.4870050
| 40>     H       15.9176969   13.1079844   21.6373728
| 41>     H       14.5491998   14.7631886   22.0697819
| 42>     H       16.3686303   17.1124711   20.1419944
| 43> *
| 44>
| 45>                          ****END OF INPUT****

CARTESIAN COORDINATES (ANGSTROEM)
---------------------------------
  C     14.673845   14.446989   17.280665
  C     15.595531   15.514701   16.669830
  O     16.926017   14.972605   16.676699
  C     18.036374   15.744695   16.471475
  O     19.084017   15.180025   16.219574
  C     18.069620   16.933389   17.369087
  C     17.590412   18.133164   16.974967
  C     16.964639   18.455297   15.635284
  N     17.683277   19.233457   17.829722
  C     18.326622   19.224306   19.040802
  S     18.440864   20.586535   19.971144
  N     18.864115   18.026502   19.447289
  C     18.720232   16.739238   18.736912
  C     17.940095   15.728532   19.571114
  C     18.392392   14.400497   19.674900
  C     17.669275   13.454219   20.420005
  C     16.481041   13.837374   21.064923
  C     16.022763   15.157200   20.956679
  O     14.866561   15.526078   21.563125
  C     16.744012   16.097418   20.214260
  H     14.996512   14.196857   18.299071
  H     14.694238   13.529555   16.679277
  H     13.639188   14.807469   17.326412
  H     15.281178   15.757242   15.646382
  H     15.526751   16.416763   17.290285
  H     17.222866   17.713254   14.869541
  H     17.314657   19.425519   15.259840
  H     15.871352   18.499012   15.711328
  H     17.304817   20.123962   17.547171
  H     19.311725   18.045747   20.354932
  H     19.729517   16.336086   18.566985
  H     19.299998   14.096443   19.158168
  H     18.026969   12.428222   20.487005
  H     15.917697   13.107984   21.637373
  H     14.549200   14.763189   22.069782
  H     16.368630   17.112471   20.141994

 Total Charge           Charge          ....    0
 Multiplicity           Mult            ....    1
 Number of Electrons    NEL             ....  154
 Basis Dimension        Dim             ....  828

ORBITAL ENERGIES
----------------

  NO   OCC          E(Eh)            E(eV)
   0   2.0000     -91.887656     -2500.3902
   1   2.0000     -20.602173      -560.6136
   2   2.0000     -20.599325      -560.5361
   3   2.0000     -20.557706      -559.4036
   4   2.0000     -15.623007      -425.1236
   5   2.0000     -15.610534      -424.7842
   6   2.0000     -11.395318      -310.0824
   7   2.0000     -11.384679      -309.7929
   8   2.0000     -11.321793      -308.0816
   9   2.0000     -11.316046      -307.9253
  10   2.0000     -11.315772      -307.9178
  11   2.0000     -11.304049      -307.5988
  12   2.0000     -11.269571      -306.6606
  13   2.0000     -11.263387      -306.4924
  14   2.0000     -11.262570      -306.4701
  15   2.0000     -11.255970      -306.2905
  16   2.0000     -11.244957      -305.9908
  17   2.0000     -11.240962      -305.8821
  18   2.0000     -11.238592      -305.8176
  19   2.0000     -11.230310      -305.5923
  20   2.0000      -8.892798      -241.9853
  21   2.0000      -6.574395      -178.8984
  22   2.0000      -6.572361      -178.8430
  23   2.0000      -6.571795      -178.8276
  24   2.0000      -1.455685       -39.6112
  25   2.0000      -1.419114       -38.6160
  26   2.0000      -1.363373       -37.0993
  27   2.0000      -1.337255       -36.3886
  28   2.0000      -1.237815       -33.6827
  29   2.0000      -1.160073       -31.5672
  30   2.0000      -1.124429       -30.5973
  31   2.0000      -1.048250       -28.5243
  32   2.0000      -1.040189       -28.3050
  33   2.0000      -1.017692       -27.6928
  34   2.0000      -1.003887       -27.3171
  35   2.0000      -0.987516       -26.8717
  36   2.0000      -0.926889       -25.2219
  37   2.0000      -0.881389       -23.9838
  38   2.0000      -0.853271       -23.2187
  39   2.0000      -0.840261       -22.8647
  40   2.0000      -0.836256       -22.7557
  41   2.0000      -0.835785       -22.7429
  42   2.0000      -0.759058       -20.6550
  43   2.0000      -0.737425       -20.0664
  44   2.0000      -0.730744       -19.8846
  45   2.0000      -0.697857       -18.9897
  46   2.0000      -0.690160       -18.7802
  47   2.0000      -0.683625       -18.6024
  48   2.0000      -0.676726       -18.4147
  49   2.0000      -0.661216       -17.9926
  50   2.0000      -0.655863       -17.8469
  51   2.0000      -0.646934       -17.6040
  52   2.0000      -0.638568       -17.3763
  53   2.0000      -0.611157       -16.6304
  54   2.0000      -0.611100       -16.6289
  55   2.0000      -0.606016       -16.4905
  56   2.0000      -0.601729       -16.3739
  57   2.0000      -0.586720       -15.9655
  58   2.0000      -0.577554       -15.7161
  59   2.0000      -0.566372       -15.4118
  60   2.0000      -0.560546       -15.2532
  61   2.0000      -0.552595       -15.0369
  62   2.0000      -0.544667       -14.8211
  63   2.0000      -0.529784       -14.4162
  64   2.0000      -0.520933       -14.1753
  65   2.0000      -0.513492       -13.9728
  66   2.0000      -0.503279       -13.6949
  67   2.0000      -0.501170       -13.6375
  68   2.0000      -0.489468       -13.3191
  69   2.0000      -0.467589       -12.7237
  70   2.0000      -0.457158       -12.4399
  71   2.0000      -0.452621       -12.3164
  72   2.0000      -0.354910        -9.6576
  73   2.0000      -0.350638        -9.5414
  74   2.0000      -0.327616        -8.9149
  75   2.0000      -0.323274        -8.7967
  76   2.0000      -0.315744        -8.5918
  77   0.0000       0.091549         2.4912
  78   0.0000       0.099814         2.7161
  79   0.0000       0.107362         2.9215
  80   0.0000       0.126618         3.4455
  81   0.0000       0.128718         3.5026

MULLIKEN ATOMIC CHARGES
-----------------------
   0 C :   -0.265119
   1 C :    0.002398
   2 O :   -0.302055
   3 C :    0.381087
   4 O :   -0.363459
   5 C :   -0.145028
   6 C :    0.112148
   7 C :   -0.320112
   8 N :   -0.134445
   9 C :    0.207626
  10 S :   -0.445122
  11 N :   -0.211470
  12 C :    0.045078
  13 C :    0.038196
  14 C :   -0.181844
  15 C :   -0.128950
  16 C :   -0.276371
  17 C :    0.293220
  18 O :   -0.362129
  19 C :   -0.256483
  20 H :    0.113955
  21 H :    0.103767
  22 H :    0.087650
  23 H :    0.108563
  24 H :    0.092743
  25 H :    0.121369
  26 H :    0.129612
  27 H :    0.123238
  28 H :    0.194796
  29 H :    0.197553
  30 H :    0.165847
  31 H :    0.159950
  32 H :    0.162330
  33 H :    0.132923
  34 H :    0.241707
  35 H :    0.176828
Sum of atomic charges:   -0.0000000

LOEWDIN ATOMIC CHARGES
----------------------
   0 C :    0.113216
   1 C :   -0.031438
   2 O :    0.325586
   3 C :   -0.423866
   4 O :    0.140112
   5 C :   -0.079773
   6 C :   -0.114917
   7 C :    0.123762
   8 N :    0.399131
   9 C :   -0.455000
  10 S :   -0.041255
  11 N :    0.397481
  12 C :   -0.041822
  13 C :   -0.039812
  14 C :    0.024391
  15 C :    0.046101
  16 C :   -0.001369
  17 C :   -0.194314
  18 O :    0.394837
  19 C :    0.027969
  20 H :   -0.022377
  21 H :   -0.025563
  22 H :   -0.025755
  23 H :   -0.036257
  24 H :   -0.039001
  25 H :   -0.010301
  26 H :   -0.011198
  27 H :   -0.016943
  28 H :   -0.059976
  29 H :   -0.063777
  30 H :   -0.002560
  31 H :   -0.023432
  32 H :   -0.018885
  33 H :   -0.035168
  34 H :   -0.153169
  35 H :   -0.024656

  Mayer bond orders larger than 0.100000
B(  0-C ,  1-C ) :   0.9816 B(  0-C , 20-H ) :   0.9725 B(  0-C , 21-H ) :   0.9810
B(  0-C , 22-H ) :   0.9761 B(  1-C ,  2-O ) :   0.9222 B(  1-C , 23-H ) :   0.9765
B(  1-C , 24-H ) :   0.9626 B(  2-O ,  3-C ) :   1.1223 B(  3-C ,  4-O ) :   2.1046
B(  3-C ,  5-C ) :   0.9237 B(  5-C ,  6-C ) :   1.7138 B(  5-C , 12-C ) :   0.9676
B(  6-C ,  7-C ) :   0.9381 B(  6-C ,  8-N ) :   1.1032 B(  7-C , 25-H ) :   0.9819
B(  7-C , 26-H ) :   0.9763 B(  7-C , 27-H ) :   0.9652 B(  8-N ,  9-C ) :   1.2009
B(  8-N , 28-H ) :   0.9535 B(  9-C , 10-S ) :   1.6066 B(  9-C , 11-N ) :   1.2848
B( 11-N , 12-C ) :   0.9980 B( 11-N , 29-H ) :   0.9487 B( 12-C , 13-C ) :   0.9472
B( 12-C , 30-H ) :   0.9979 B( 13-C , 14-C ) :   1.3832 B( 13-C , 19-C ) :   1.3485
B( 14-C , 15-C ) :   1.3972 B( 14-C , 31-H ) :   0.9649 B( 15-C , 16-C ) :   1.3610
B( 15-C , 32-H ) :   0.9706 B( 16-C , 17-C ) :   1.3306 B( 16-C , 33-H ) :   0.9850
B( 17-C , 18-O ) :   1.1042 B( 17-C , 19-C ) :   1.3716 B( 18-O , 34-H ) :   0.9792
B( 19-C , 35-H ) :   0.9565

MP2 TOTAL ENERGY:    -1274.320693381 Eh
FINAL SINGLE POINT ENERGY     -1274.320693380693

DIPOLE MOMENT
-------------
                                X             Y             Z
Electronic contribution:     10.67017       8.03916       6.24537
Nuclear contribution   :    -12.28805      -9.17971      -6.88469
                        -----------------------------------------
Total Dipole Moment    :     -1.61789      -1.14055      -0.63931
                        -----------------------------------------
Magnitude (a.u.)       :      2.08017
Magnitude (Debye)      :      5.28738

Rotational constants in cm-1:     0.012636     0.009017     0.006896
Rotational constants in MHz :   378.805594   270.311324   206.749862

                             ****ORCA TERMINATED NORMALLY****
TOTAL RUN TIME: 0 days 1 hours 48 minutes 27 seconds 907 msec
