                         Program Version 5.0.0 -  RELEASE  -
|  1> ! ri-mp2 cc-pvtz cc-pvtz/c TightSCF NoKeepInts
|  2>
|  3> %scf
|  4>   MaxCore 4096
|  5> end
|  6> *xyz  0  1
|  7>     C       15.3058086   14.6920866   17.4201016
|  8>     C       16.2240020   14.3852866   16.2256380
|  9>     O       17.5764150   14.8314474   16.4709890
| 10>     C       17.8988561   16.1088692   16.1150257
| 11>     O       17.7030254   16.4701290   14.9677673
| 12>     C       17.8367008   17.0609253   17.2755086
| 13>     C       17.3433321   18.3206362   17.1672190
| 14>     C       16.6267422   18.9283809   15.9807971
| 15>     N       17.5235078   19.2307255   18.2133671
| 16>     C       18.3862808   19.0407236   19.2610518
| 17>     S       18.7120687   20.2362730   20.3562446
| 18>     N       18.9713544   17.8020333   19.3510488
| 19>     C       18.5598043   16.6252098   18.5613611
| 20>     C       17.7611023   15.6759452   19.4499265
| 21>     C       18.1750760   14.3397069   19.6101878
| 22>     C       17.4761528   13.4705783   20.4650383
| 23>     C       16.3554828   13.9411549   21.1704283
| 24>     C       15.9424255   15.2717667   21.0180933
| 25>     O       14.8588757   15.7283480   21.6947195
| 26>     C       16.6401170   16.1346605   20.1670450
| 27>     H       15.6271856   14.1344879   18.3057729
| 28>     H       14.2762830   14.3901148   17.1935451
| 29>     H       15.2983921   15.7633088   17.6523817
| 30>     H       16.2338547   13.2988322   16.0703762
| 31>     H       15.8201462   14.8418939   15.3114742
| 32>     H       15.8592175   18.2438929   15.5985074
| 33>     H       17.3329652   19.1175413   15.1620444
| 34>     H       16.1296354   19.8749986   16.2228136
| 35>     H       17.1156180   20.1498347   18.1493336
| 36>     H       19.5823551   17.6810172   20.1487186
| 37>     H       19.4769633   16.1022440   18.2559855
| 38>     H       19.0411326   13.9713075   19.0665782
| 39>     H       17.8041936   12.4387472   20.5789800
| 40>     H       15.8126606   13.2736394   21.8316113
| 41>     H       14.5504296   15.0120414   22.2698433
| 42>     H       16.3088374   17.1632115   20.0744758
| 43> *
| 44>
| 45>                          ****END OF INPUT****

CARTESIAN COORDINATES (ANGSTROEM)
---------------------------------
  C     15.305809   14.692087   17.420102
  C     16.224002   14.385287   16.225638
  O     17.576415   14.831447   16.470989
  C     17.898856   16.108869   16.115026
  O     17.703025   16.470129   14.967767
  C     17.836701   17.060925   17.275509
  C     17.343332   18.320636   17.167219
  C     16.626742   18.928381   15.980797
  N     17.523508   19.230725   18.213367
  C     18.386281   19.040724   19.261052
  S     18.712069   20.236273   20.356245
  N     18.971354   17.802033   19.351049
  C     18.559804   16.625210   18.561361
  C     17.761102   15.675945   19.449927
  C     18.175076   14.339707   19.610188
  C     17.476153   13.470578   20.465038
  C     16.355483   13.941155   21.170428
  C     15.942425   15.271767   21.018093
  O     14.858876   15.728348   21.694719
  C     16.640117   16.134660   20.167045
  H     15.627186   14.134488   18.305773
  H     14.276283   14.390115   17.193545
  H     15.298392   15.763309   17.652382
  H     16.233855   13.298832   16.070376
  H     15.820146   14.841894   15.311474
  H     15.859217   18.243893   15.598507
  H     17.332965   19.117541   15.162044
  H     16.129635   19.874999   16.222814
  H     17.115618   20.149835   18.149334
  H     19.582355   17.681017   20.148719
  H     19.476963   16.102244   18.255986
  H     19.041133   13.971307   19.066578
  H     17.804194   12.438747   20.578980
  H     15.812661   13.273639   21.831611
  H     14.550430   15.012041   22.269843
  H     16.308837   17.163211   20.074476

 Total Charge           Charge          ....    0
 Multiplicity           Mult            ....    1
 Number of Electrons    NEL             ....  154
 Basis Dimension        Dim             ....  828

ORBITAL ENERGIES
----------------

  NO   OCC          E(Eh)            E(eV)
   0   2.0000     -91.890533     -2500.4685
   1   2.0000     -20.597925      -560.4980
   2   2.0000     -20.582235      -560.0711
   3   2.0000     -20.555640      -559.3474
   4   2.0000     -15.629791      -425.3082
   5   2.0000     -15.609400      -424.7534
   6   2.0000     -11.395138      -310.0775
   7   2.0000     -11.385107      -309.8045
   8   2.0000     -11.334820      -308.4361
   9   2.0000     -11.314990      -307.8965
  10   2.0000     -11.313246      -307.8491
  11   2.0000     -11.297660      -307.4250
  12   2.0000     -11.261099      -306.4301
  13   2.0000     -11.260993      -306.4272
  14   2.0000     -11.256476      -306.3043
  15   2.0000     -11.254721      -306.2565
  16   2.0000     -11.245038      -305.9931
  17   2.0000     -11.239496      -305.8422
  18   2.0000     -11.239427      -305.8404
  19   2.0000     -11.221213      -305.3447
  20   2.0000      -8.895555      -242.0604
  21   2.0000      -6.577122      -178.9726
  22   2.0000      -6.575126      -178.9183
  23   2.0000      -6.574531      -178.9021
  24   2.0000      -1.451222       -39.4898
  25   2.0000      -1.417691       -38.5773
  26   2.0000      -1.353336       -36.8261
  27   2.0000      -1.341314       -36.4990
  28   2.0000      -1.239781       -33.7362
  29   2.0000      -1.158440       -31.5228
  30   2.0000      -1.121058       -30.5055
  31   2.0000      -1.044010       -28.4090
  32   2.0000      -1.032812       -28.1042
  33   2.0000      -1.016600       -27.6631
  34   2.0000      -0.999491       -27.1975
  35   2.0000      -0.986195       -26.8357
  36   2.0000      -0.924711       -25.1627
  37   2.0000      -0.889593       -24.2070
  38   2.0000      -0.847746       -23.0683
  39   2.0000      -0.841052       -22.8862
  40   2.0000      -0.835616       -22.7383
  41   2.0000      -0.818680       -22.2774
  42   2.0000      -0.756163       -20.5763
  43   2.0000      -0.733490       -19.9593
  44   2.0000      -0.724581       -19.7169
  45   2.0000      -0.697515       -18.9804
  46   2.0000      -0.690469       -18.7886
  47   2.0000      -0.680032       -18.5046
  48   2.0000      -0.670262       -18.2388
  49   2.0000      -0.666768       -18.1437
  50   2.0000      -0.649938       -17.6857
  51   2.0000      -0.646822       -17.6009
  52   2.0000      -0.636750       -17.3269
  53   2.0000      -0.608333       -16.5536
  54   2.0000      -0.603503       -16.4222
  55   2.0000      -0.600621       -16.3437
  56   2.0000      -0.592252       -16.1160
  57   2.0000      -0.579055       -15.7569
  58   2.0000      -0.574540       -15.6340
  59   2.0000      -0.568437       -15.4679
  60   2.0000      -0.564387       -15.3578
  61   2.0000      -0.550435       -14.9781
  62   2.0000      -0.540137       -14.6979
  63   2.0000      -0.525728       -14.3058
  64   2.0000      -0.516253       -14.0479
  65   2.0000      -0.514552       -14.0017
  66   2.0000      -0.504648       -13.7322
  67   2.0000      -0.502569       -13.6756
  68   2.0000      -0.475821       -12.9478
  69   2.0000      -0.464062       -12.6278
  70   2.0000      -0.453548       -12.3417
  71   2.0000      -0.447031       -12.1643
  72   2.0000      -0.357343        -9.7238
  73   2.0000      -0.348937        -9.4951
  74   2.0000      -0.329616        -8.9693
  75   2.0000      -0.323653        -8.8070
  76   2.0000      -0.317381        -8.6364
  77   0.0000       0.068165         1.8549
  78   0.0000       0.104572         2.8456
  79   0.0000       0.116873         3.1803
  80   0.0000       0.129887         3.5344
  81   0.0000       0.131458         3.5772

MULLIKEN ATOMIC CHARGES
-----------------------
   0 C :   -0.315126
   1 C :    0.039889
   2 O :   -0.378175
   3 C :    0.470210
   4 O :   -0.396945
   5 C :   -0.232966
   6 C :    0.161046
   7 C :   -0.275957
   8 N :   -0.122822
   9 C :    0.193501
  10 S :   -0.433406
  11 N :   -0.190872
  12 C :    0.025364
  13 C :    0.073738
  14 C :   -0.178674
  15 C :   -0.134615
  16 C :   -0.280377
  17 C :    0.314119
  18 O :   -0.358530
  19 C :   -0.270626
  20 H :    0.111436
  21 H :    0.117339
  22 H :    0.098403
  23 H :    0.108958
  24 H :    0.108391
  25 H :    0.121325
  26 H :    0.140580
  27 H :    0.095011
  28 H :    0.198163
  29 H :    0.190765
  30 H :    0.148323
  31 H :    0.147278
  32 H :    0.161651
  33 H :    0.131826
  34 H :    0.240906
  35 H :    0.170870
Sum of atomic charges:    0.0000000

LOEWDIN ATOMIC CHARGES
----------------------
   0 C :    0.104066
   1 C :   -0.013674
   2 O :    0.281774
   3 C :   -0.417325
   4 O :    0.131811
   5 C :   -0.094763
   6 C :   -0.067593
   7 C :    0.128720
   8 N :    0.406081
   9 C :   -0.458857
  10 S :   -0.032224
  11 N :    0.396742
  12 C :   -0.052226
  13 C :   -0.038721
  14 C :    0.015770
  15 C :    0.038872
  16 C :   -0.002667
  17 C :   -0.191632
  18 O :    0.396409
  19 C :    0.034847
  20 H :   -0.024534
  21 H :   -0.026000
  22 H :   -0.033581
  23 H :   -0.023213
  24 H :   -0.029801
  25 H :   -0.008668
  26 H :   -0.003647
  27 H :   -0.022537
  28 H :   -0.058072
  29 H :   -0.065018
  30 H :   -0.007146
  31 H :   -0.029164
  32 H :   -0.020652
  33 H :   -0.035212
  34 H :   -0.153589
  35 H :   -0.024577

  Mayer bond orders larger than 0.100000
B(  0-C ,  1-C ) :   0.9649 B(  0-C , 20-H ) :   0.9731 B(  0-C , 21-H ) :   0.9772
B(  0-C , 22-H ) :   0.9710 B(  1-C ,  2-O ) :   0.8817 B(  1-C , 23-H ) :   0.9864
B(  1-C , 24-H ) :   0.9781 B(  2-O ,  3-C ) :   1.1088 B(  3-C ,  4-O ) :   2.0220
B(  3-C ,  5-C ) :   1.0296 B(  5-C ,  6-C ) :   1.6686 B(  5-C , 12-C ) :   0.9704
B(  6-C ,  7-C ) :   0.9654 B(  6-C ,  8-N ) :   1.1325 B(  7-C , 25-H ) :   0.9692
B(  7-C , 26-H ) :   0.9576 B(  7-C , 27-H ) :   0.9867 B(  8-N ,  9-C ) :   1.1812
B(  8-N , 28-H ) :   0.9491 B(  9-C , 10-S ) :   1.6201 B(  9-C , 11-N ) :   1.2943
B( 11-N , 12-C ) :   0.9939 B( 11-N , 29-H ) :   0.9536 B( 12-C , 13-C ) :   0.9383
B( 12-C , 30-H ) :   1.0088 B( 13-C , 14-C ) :   1.3653 B( 13-C , 19-C ) :   1.3576
B( 14-C , 15-C ) :   1.3919 B( 14-C , 31-H ) :   0.9706 B( 15-C , 16-C ) :   1.3597
B( 15-C , 32-H ) :   0.9713 B( 16-C , 17-C ) :   1.3318 B( 16-C , 33-H ) :   0.9849
B( 17-C , 18-O ) :   1.1124 B( 17-C , 19-C ) :   1.3721 B( 18-O , 34-H ) :   0.9797
B( 19-C , 35-H ) :   0.9574

MP2 TOTAL ENERGY:    -1274.319017188 Eh
FINAL SINGLE POINT ENERGY     -1274.319017187827

DIPOLE MOMENT
-------------
                                X             Y             Z
Electronic contribution:      9.52979       8.74627       5.66167
Nuclear contribution   :    -10.60309     -10.40119      -5.79469
                        -----------------------------------------
Total Dipole Moment    :     -1.07330      -1.65492      -0.13301
                        -----------------------------------------
Magnitude (a.u.)       :      1.97698
Magnitude (Debye)      :      5.02507

Rotational constants in cm-1:     0.011715     0.009967     0.006576
Rotational constants in MHz :   351.215641   298.817482   197.154559

                             ****ORCA TERMINATED NORMALLY****
TOTAL RUN TIME: 0 days 1 hours 42 minutes 59 seconds 225 msec
