                         Program Version 4.2.0 -  RELEASE  -
|  1> ! ri-mp2 cc-pvtz cc-pvtz/c TightSCF  NoKeepInts
|  2>
|  3> %scf
|  4>   MaxCore 4096
|  5> end
|  6> *xyz  0  1
|  7>     C       15.3172195   13.4849124   16.2125518
|  8>     C       15.7535543   14.7704042   16.9337009
|  9>     O       16.9619480   15.2238229   16.2945896
| 10>     C       17.1194906   16.5665794   16.1174599
| 11>     O       16.5307547   17.1099634   15.2010233
| 12>     C       17.6118750   17.3007869   17.3372099
| 13>     C       17.4015959   18.6305918   17.5208249
| 14>     C       16.5602616   19.5583788   16.6705394
| 15>     N       18.0466658   19.3013149   18.5651106
| 16>     C       19.0856881   18.7822959   19.2919180
| 17>     S       19.9482724   19.6965197   20.3667751
| 18>     N       19.3847707   17.4624226   19.0658017
| 19>     C       18.5250300   16.5333290   18.3104414
| 20>     C       17.7715572   15.6562856   19.3027473
| 21>     C       18.1296890   14.3043163   19.4648735
| 22>     C       17.4423570   13.4875746   20.3784260
| 23>     C       16.3936491   14.0279065   21.1420250
| 24>     C       16.0426521   15.3764176   20.9926239
| 25>     O       15.0310611   15.9016063   21.7281050
| 26>     C       16.7259409   16.1865275   20.0804985
| 27>     H       14.3850595   13.0990922   16.6425280
| 28>     H       16.0872042   12.7091782   16.3062259
| 29>     H       15.1494521   13.6800480   15.1457046
| 30>     H       14.9567192   15.5204948   16.8331279
| 31>     H       15.9017182   14.5624152   17.9968971
| 32>     H       15.5534172   19.1464110   16.5265149
| 33>     H       17.0083294   19.6805052   15.6759326
| 34>     H       16.4459309   20.5562985   17.1097645
| 35>     H       17.8514378   20.2767620   18.7256709
| 36>     H       20.1422523   17.0998551   19.6304364
| 37>     H       19.1791217   15.8863946   17.7085954
| 38>     H       18.9394250   13.8822951   18.8751132
| 39>     H       17.7244447   12.4422233   20.4940835
| 40>     H       15.8610600   13.4009012   21.8498312
| 41>     H       14.7331799   15.2174759   22.3468287
| 42>     H       16.4442145   17.2296934   19.9894994
| 43> *
| 44>
| 45>                          ****END OF INPUT****

CARTESIAN COORDINATES (ANGSTROEM)
---------------------------------
  C     15.317219   13.484912   16.212552
  C     15.753554   14.770404   16.933701
  O     16.961948   15.223823   16.294590
  C     17.119491   16.566579   16.117460
  O     16.530755   17.109963   15.201023
  C     17.611875   17.300787   17.337210
  C     17.401596   18.630592   17.520825
  C     16.560262   19.558379   16.670539
  N     18.046666   19.301315   18.565111
  C     19.085688   18.782296   19.291918
  S     19.948272   19.696520   20.366775
  N     19.384771   17.462423   19.065802
  C     18.525030   16.533329   18.310441
  C     17.771557   15.656286   19.302747
  C     18.129689   14.304316   19.464873
  C     17.442357   13.487575   20.378426
  C     16.393649   14.027907   21.142025
  C     16.042652   15.376418   20.992624
  O     15.031061   15.901606   21.728105
  C     16.725941   16.186528   20.080499
  H     14.385060   13.099092   16.642528
  H     16.087204   12.709178   16.306226
  H     15.149452   13.680048   15.145705
  H     14.956719   15.520495   16.833128
  H     15.901718   14.562415   17.996897
  H     15.553417   19.146411   16.526515
  H     17.008329   19.680505   15.675933
  H     16.445931   20.556298   17.109765
  H     17.851438   20.276762   18.725671
  H     20.142252   17.099855   19.630436
  H     19.179122   15.886395   17.708595
  H     18.939425   13.882295   18.875113
  H     17.724445   12.442223   20.494083
  H     15.861060   13.400901   21.849831
  H     14.733180   15.217476   22.346829
  H     16.444215   17.229693   19.989499

 Total Charge           Charge          ....    0
 Multiplicity           Mult            ....    1
 Number of Electrons    NEL             ....  154
 Basis Dimension        Dim             ....  828

ORBITAL ENERGIES
----------------

  NO   OCC          E(Eh)            E(eV)
   0   2.0000     -91.891605     -2500.4977
   1   2.0000     -20.602571      -560.6245
   2   2.0000     -20.579877      -560.0069
   3   2.0000     -20.549790      -559.1882
   4   2.0000     -15.631989      -425.3681
   5   2.0000     -15.610408      -424.7808
   6   2.0000     -11.392476      -310.0050
   7   2.0000     -11.386061      -309.8305
   8   2.0000     -11.338192      -308.5279
   9   2.0000     -11.320568      -308.0483
  10   2.0000     -11.313435      -307.8542
  11   2.0000     -11.293231      -307.3044
  12   2.0000     -11.264907      -306.5337
  13   2.0000     -11.261935      -306.4528
  14   2.0000     -11.260322      -306.4089
  15   2.0000     -11.254238      -306.2434
  16   2.0000     -11.249594      -306.1170
  17   2.0000     -11.243941      -305.9632
  18   2.0000     -11.243785      -305.9589
  19   2.0000     -11.223180      -305.3982
  20   2.0000      -8.896617      -242.0892
  21   2.0000      -6.578179      -179.0013
  22   2.0000      -6.576188      -178.9472
  23   2.0000      -6.575589      -178.9309
  24   2.0000      -1.448028       -39.4028
  25   2.0000      -1.422246       -38.7013
  26   2.0000      -1.352164       -36.7943
  27   2.0000      -1.343218       -36.5508
  28   2.0000      -1.241595       -33.7855
  29   2.0000      -1.163200       -31.6523
  30   2.0000      -1.121959       -30.5300
  31   2.0000      -1.047127       -28.4938
  32   2.0000      -1.032485       -28.0953
  33   2.0000      -1.021500       -27.7964
  34   2.0000      -0.999236       -27.1906
  35   2.0000      -0.986472       -26.8433
  36   2.0000      -0.926545       -25.2126
  37   2.0000      -0.876076       -23.8393
  38   2.0000      -0.850358       -23.1394
  39   2.0000      -0.844475       -22.9793
  40   2.0000      -0.839624       -22.8473
  41   2.0000      -0.831253       -22.6195
  42   2.0000      -0.760193       -20.6859
  43   2.0000      -0.736740       -20.0477
  44   2.0000      -0.724409       -19.7122
  45   2.0000      -0.701939       -19.1007
  46   2.0000      -0.692686       -18.8490
  47   2.0000      -0.679021       -18.4771
  48   2.0000      -0.671920       -18.2839
  49   2.0000      -0.658490       -17.9184
  50   2.0000      -0.649625       -17.6772
  51   2.0000      -0.646027       -17.5793
  52   2.0000      -0.638017       -17.3613
  53   2.0000      -0.613129       -16.6841
  54   2.0000      -0.611581       -16.6420
  55   2.0000      -0.603843       -16.4314
  56   2.0000      -0.600703       -16.3460
  57   2.0000      -0.582781       -15.8583
  58   2.0000      -0.573472       -15.6050
  59   2.0000      -0.566014       -15.4020
  60   2.0000      -0.559263       -15.2183
  61   2.0000      -0.541740       -14.7415
  62   2.0000      -0.537265       -14.6197
  63   2.0000      -0.530768       -14.4429
  64   2.0000      -0.518425       -14.1071
  65   2.0000      -0.510390       -13.8884
  66   2.0000      -0.506090       -13.7714
  67   2.0000      -0.497184       -13.5291
  68   2.0000      -0.487236       -13.2584
  69   2.0000      -0.467002       -12.7078
  70   2.0000      -0.453012       -12.3271
  71   2.0000      -0.444783       -12.1032
  72   2.0000      -0.359386        -9.7794
  73   2.0000      -0.355026        -9.6608
  74   2.0000      -0.331823        -9.0294
  75   2.0000      -0.327836        -8.9209
  76   2.0000      -0.318438        -8.6651
  77   0.0000       0.067306         1.8315
  78   0.0000       0.101470         2.7611
  79   0.0000       0.120851         3.2885
  80   0.0000       0.126322         3.4374
  81   0.0000       0.131322         3.5734

MULLIKEN ATOMIC CHARGES
-----------------------
   0 C :   -0.259894
   1 C :    0.035318
   2 O :   -0.378924
   3 C :    0.478297
   4 O :   -0.392757
   5 C :   -0.267488
   6 C :    0.153333
   7 C :   -0.269826
   8 N :   -0.125431
   9 C :    0.211620
  10 S :   -0.434543
  11 N :   -0.195890
  12 C :    0.042376
  13 C :    0.032222
  14 C :   -0.175473
  15 C :   -0.132245
  16 C :   -0.274234
  17 C :    0.305325
  18 O :   -0.356411
  19 C :   -0.242537
  20 H :    0.084219
  21 H :    0.092314
  22 H :    0.106558
  23 H :    0.094578
  24 H :    0.115907
  25 H :    0.127070
  26 H :    0.137351
  27 H :    0.094238
  28 H :    0.198839
  29 H :    0.191353
  30 H :    0.148033
  31 H :    0.150255
  32 H :    0.162894
  33 H :    0.133657
  34 H :    0.242138
  35 H :    0.167757
Sum of atomic charges:   -0.0000000

LOEWDIN ATOMIC CHARGES
----------------------
   0 C :    0.109111
   1 C :   -0.014797
   2 O :    0.285080
   3 C :   -0.424417
   4 O :    0.125606
   5 C :   -0.099393
   6 C :   -0.059084
   7 C :    0.130353
   8 N :    0.406996
   9 C :   -0.456670
  10 S :   -0.031207
  11 N :    0.396253
  12 C :   -0.053487
  13 C :   -0.039720
  14 C :    0.012345
  15 C :    0.042234
  16 C :   -0.000943
  17 C :   -0.190737
  18 O :    0.396753
  19 C :    0.031282
  20 H :   -0.027566
  21 H :   -0.028432
  22 H :   -0.023289
  23 H :   -0.030965
  24 H :   -0.034602
  25 H :   -0.006116
  26 H :   -0.002822
  27 H :   -0.023092
  28 H :   -0.057393
  29 H :   -0.065516
  30 H :   -0.006020
  31 H :   -0.029133
  32 H :   -0.019275
  33 H :   -0.034022
  34 H :   -0.152334
  35 H :   -0.024982

  Mayer bond orders larger than 0.100000
B(  0-C ,  1-C ) :   0.9862 B(  0-C , 20-H ) :   0.9760 B(  0-C , 21-H ) :   0.9796
B(  0-C , 22-H ) :   0.9798 B(  1-C ,  2-O ) :   0.8736 B(  1-C , 23-H ) :   0.9747
B(  1-C , 24-H ) :   0.9638 B(  2-O ,  3-C ) :   1.1104 B(  3-C ,  4-O ) :   2.0400
B(  3-C ,  5-C ) :   1.0431 B(  5-C ,  6-C ) :   1.6559 B(  5-C , 12-C ) :   0.9728
B(  6-C ,  7-C ) :   0.9712 B(  6-C ,  8-N ) :   1.1523 B(  7-C , 25-H ) :   0.9654
B(  7-C , 26-H ) :   0.9559 B(  7-C , 27-H ) :   0.9879 B(  8-N ,  9-C ) :   1.1777
B(  8-N , 28-H ) :   0.9483 B(  9-C , 10-S ) :   1.6157 B(  9-C , 11-N ) :   1.3007
B( 11-N , 12-C ) :   0.9718 B( 11-N , 29-H ) :   0.9546 B( 12-C , 13-C ) :   0.9465
B( 12-C , 30-H ) :   1.0034 B( 13-C , 14-C ) :   1.3537 B( 13-C , 19-C ) :   1.3747
B( 14-C , 15-C ) :   1.3912 B( 14-C , 31-H ) :   0.9730 B( 15-C , 16-C ) :   1.3657
B( 15-C , 32-H ) :   0.9705 B( 16-C , 17-C ) :   1.3257 B( 16-C , 33-H ) :   0.9839
B( 17-C , 18-O ) :   1.1153 B( 17-C , 19-C ) :   1.3790 B( 18-O , 34-H ) :   0.9786
B( 19-C , 35-H ) :   0.9561

MP2 TOTAL ENERGY:    -1274.325268898 Eh
FINAL SINGLE POINT ENERGY     -1274.325268898260

DIPOLE MOMENT
-------------
                                X             Y             Z
Electronic contribution:     10.41697      10.20582       6.23871
Nuclear contribution   :    -11.55735     -11.63726      -5.88316
                        -----------------------------------------
Total Dipole Moment    :     -1.14038      -1.43144       0.35554
                        -----------------------------------------
Magnitude (a.u.)       :      1.86437
Magnitude (Debye)      :      4.73886

Rotational constants in cm-1:     0.011933     0.009141     0.006344
Rotational constants in MHz :   357.755986   274.053971   190.192159

                             ****ORCA TERMINATED NORMALLY****
TOTAL RUN TIME: 0 days 1 hours 49 minutes 29 seconds 915 msec
