                         Program Version 5.0.0 -  RELEASE  -
|  1> ! ri-mp2 cc-pvtz cc-pvtz/c TightSCF NoKeepInts
|  2>
|  3> %scf
|  4>   MaxCore 4096
|  5> end
|  6> *xyz  0  1
|  7>     C       14.8141992   14.0942546   15.3411390
|  8>     C       15.3909171   14.8030395   16.5778560
|  9>     O       16.4012966   15.7182217   16.1178223
| 10>     C       17.6338147   15.6701214   16.6991010
| 11>     O       18.1833194   14.6049596   16.9257203
| 12>     C       17.9289530   16.8932332   17.5141925
| 13>     C       17.5013977   18.1406877   17.1935131
| 14>     C       16.7017838   18.5567979   15.9763060
| 15>     N       17.8649787   19.2272920   17.9949678
| 16>     C       18.7535231   19.1684675   19.0364433
| 17>     S       19.2170335   20.5236969   19.8633991
| 18>     N       19.2391575   17.9258901   19.3582833
| 19>     C       18.7675548   16.6560240   18.7737349
| 20>     C       17.9782303   15.8525982   19.8040492
| 21>     C       18.3441247   14.5284823   20.1084063
| 22>     C       17.6134419   13.7808973   21.0470591
| 23>     C       16.5056067   14.3612684   21.6877663
| 24>     C       16.1351270   15.6783443   21.3844675
| 25>     O       15.0606884   16.2388977   21.9947739
| 26>     C       16.8638376   16.4196311   20.4491283
| 27>     H       15.5993563   13.5307076   14.8212705
| 28>     H       14.3870986   14.8219633   14.6401505
| 29>     H       14.0243829   13.3916604   15.6332596
| 30>     H       14.5990390   15.3524643   17.1030489
| 31>     H       15.8030557   14.0538804   17.2686103
| 32>     H       17.0695400   18.0523429   15.0739301
| 33>     H       16.7587754   19.6352858   15.7848958
| 34>     H       15.6438084   18.2939106   16.0996641
| 35>     H       17.5202187   20.1479158   17.7739987
| 36>     H       19.8693782   17.9069592   20.1498040
| 37>     H       19.6528159   16.0719386   18.4831263
| 38>     H       19.1893189   14.0709891   19.5997223
| 39>     H       17.9039924   12.7555820   21.2691289
| 40>     H       15.9375461   13.7866887   22.4118029
| 41>     H       14.7279315   15.5985355   22.6415095
| 42>     H       16.5617561   17.4383704   20.2319482
| 43> *
| 44>
| 45>                          ****END OF INPUT****

CARTESIAN COORDINATES (ANGSTROEM)
---------------------------------
  C     14.814199   14.094255   15.341139
  C     15.390917   14.803039   16.577856
  O     16.401297   15.718222   16.117822
  C     17.633815   15.670121   16.699101
  O     18.183319   14.604960   16.925720
  C     17.928953   16.893233   17.514193
  C     17.501398   18.140688   17.193513
  C     16.701784   18.556798   15.976306
  N     17.864979   19.227292   17.994968
  C     18.753523   19.168467   19.036443
  S     19.217033   20.523697   19.863399
  N     19.239157   17.925890   19.358283
  C     18.767555   16.656024   18.773735
  C     17.978230   15.852598   19.804049
  C     18.344125   14.528482   20.108406
  C     17.613442   13.780897   21.047059
  C     16.505607   14.361268   21.687766
  C     16.135127   15.678344   21.384467
  O     15.060688   16.238898   21.994774
  C     16.863838   16.419631   20.449128
  H     15.599356   13.530708   14.821271
  H     14.387099   14.821963   14.640150
  H     14.024383   13.391660   15.633260
  H     14.599039   15.352464   17.103049
  H     15.803056   14.053880   17.268610
  H     17.069540   18.052343   15.073930
  H     16.758775   19.635286   15.784896
  H     15.643808   18.293911   16.099664
  H     17.520219   20.147916   17.773999
  H     19.869378   17.906959   20.149804
  H     19.652816   16.071939   18.483126
  H     19.189319   14.070989   19.599722
  H     17.903992   12.755582   21.269129
  H     15.937546   13.786689   22.411803
  H     14.727931   15.598535   22.641510
  H     16.561756   17.438370   20.231948

 Total Charge           Charge          ....    0
 Multiplicity           Mult            ....    1
 Number of Electrons    NEL             ....  154
 Basis Dimension        Dim             ....  828

ORBITAL ENERGIES
----------------

  NO   OCC          E(Eh)            E(eV)
   0   2.0000     -91.888595     -2500.4158
   1   2.0000     -20.594732      -560.4111
   2   2.0000     -20.588875      -560.2518
   3   2.0000     -20.553387      -559.2861
   4   2.0000     -15.628379      -425.2698
   5   2.0000     -15.607871      -424.7118
   6   2.0000     -11.395398      -310.0845
   7   2.0000     -11.383935      -309.7726
   8   2.0000     -11.333887      -308.4107
   9   2.0000     -11.310827      -307.7833
  10   2.0000     -11.307848      -307.7022
  11   2.0000     -11.298970      -307.4606
  12   2.0000     -11.259975      -306.3995
  13   2.0000     -11.259822      -306.3953
  14   2.0000     -11.256526      -306.3056
  15   2.0000     -11.251006      -306.1554
  16   2.0000     -11.240597      -305.8722
  17   2.0000     -11.236579      -305.7629
  18   2.0000     -11.233779      -305.6867
  19   2.0000     -11.227312      -305.5107
  20   2.0000      -8.893666      -242.0090
  21   2.0000      -6.575245      -178.9215
  22   2.0000      -6.573236      -178.8668
  23   2.0000      -6.572651      -178.8509
  24   2.0000      -1.453113       -39.5412
  25   2.0000      -1.414485       -38.4901
  26   2.0000      -1.357190       -36.9310
  27   2.0000      -1.339448       -36.4482
  28   2.0000      -1.237572       -33.6760
  29   2.0000      -1.155081       -31.4313
  30   2.0000      -1.120870       -30.5004
  31   2.0000      -1.044102       -28.4115
  32   2.0000      -1.034773       -28.1576
  33   2.0000      -1.012509       -27.5518
  34   2.0000      -0.998642       -27.1744
  35   2.0000      -0.983982       -26.7755
  36   2.0000      -0.922699       -25.1079
  37   2.0000      -0.883310       -24.0361
  38   2.0000      -0.848282       -23.0829
  39   2.0000      -0.837849       -22.7990
  40   2.0000      -0.831081       -22.6149
  41   2.0000      -0.824501       -22.4358
  42   2.0000      -0.757204       -20.6046
  43   2.0000      -0.735534       -20.0149
  44   2.0000      -0.727431       -19.7944
  45   2.0000      -0.692982       -18.8570
  46   2.0000      -0.686094       -18.6696
  47   2.0000      -0.680797       -18.5254
  48   2.0000      -0.673368       -18.3233
  49   2.0000      -0.658354       -17.9147
  50   2.0000      -0.647261       -17.6129
  51   2.0000      -0.641152       -17.4466
  52   2.0000      -0.629230       -17.1222
  53   2.0000      -0.617643       -16.8069
  54   2.0000      -0.603086       -16.4108
  55   2.0000      -0.602228       -16.3875
  56   2.0000      -0.598060       -16.2740
  57   2.0000      -0.580470       -15.7954
  58   2.0000      -0.575613       -15.6632
  59   2.0000      -0.563348       -15.3295
  60   2.0000      -0.562298       -15.3009
  61   2.0000      -0.548426       -14.9234
  62   2.0000      -0.534053       -14.5323
  63   2.0000      -0.520416       -14.1612
  64   2.0000      -0.518390       -14.1061
  65   2.0000      -0.511337       -13.9142
  66   2.0000      -0.502138       -13.6639
  67   2.0000      -0.497146       -13.5280
  68   2.0000      -0.482159       -13.1202
  69   2.0000      -0.464174       -12.6308
  70   2.0000      -0.459211       -12.4958
  71   2.0000      -0.452219       -12.3055
  72   2.0000      -0.353993        -9.6326
  73   2.0000      -0.346834        -9.4378
  74   2.0000      -0.327857        -8.9214
  75   2.0000      -0.317969        -8.6524
  76   2.0000      -0.315469        -8.5843
  77   0.0000       0.072243         1.9658
  78   0.0000       0.107016         2.9120
  79   0.0000       0.119319         3.2468
  80   0.0000       0.133570         3.6346
  81   0.0000       0.136901         3.7253

MULLIKEN ATOMIC CHARGES
-----------------------
   0 C :   -0.260041
   1 C :    0.042893
   2 O :   -0.371756
   3 C :    0.447629
   4 O :   -0.404840
   5 C :   -0.187255
   6 C :    0.139855
   7 C :   -0.281431
   8 N :   -0.124679
   9 C :    0.202897
  10 S :   -0.439743
  11 N :   -0.200468
  12 C :    0.050854
  13 C :    0.051594
  14 C :   -0.165435
  15 C :   -0.133669
  16 C :   -0.280552
  17 C :    0.312942
  18 O :   -0.358651
  19 C :   -0.279234
  20 H :    0.103549
  21 H :    0.090414
  22 H :    0.087092
  23 H :    0.093640
  24 H :    0.110914
  25 H :    0.124806
  26 H :    0.103916
  27 H :    0.125100
  28 H :    0.197170
  29 H :    0.194155
  30 H :    0.154556
  31 H :    0.155887
  32 H :    0.160652
  33 H :    0.129704
  34 H :    0.240621
  35 H :    0.166912
Sum of atomic charges:    0.0000000

LOEWDIN ATOMIC CHARGES
----------------------
   0 C :    0.105989
   1 C :   -0.013019
   2 O :    0.295780
   3 C :   -0.416658
   4 O :    0.121150
   5 C :   -0.093252
   6 C :   -0.072379
   7 C :    0.125821
   8 N :    0.404236
   9 C :   -0.457778
  10 S :   -0.036345
  11 N :    0.397192
  12 C :   -0.045647
  13 C :   -0.039992
  14 C :    0.021186
  15 C :    0.040828
  16 C :   -0.002232
  17 C :   -0.193353
  18 O :    0.393225
  19 C :    0.028235
  20 H :   -0.023122
  21 H :   -0.029523
  22 H :   -0.027260
  23 H :   -0.032284
  24 H :   -0.025120
  25 H :   -0.008022
  26 H :   -0.019808
  27 H :   -0.009972
  28 H :   -0.058791
  29 H :   -0.063992
  30 H :   -0.004771
  31 H :   -0.024874
  32 H :   -0.020654
  33 H :   -0.035913
  34 H :   -0.154330
  35 H :   -0.024551

  Mayer bond orders larger than 0.100000
B(  0-C ,  1-C ) :   0.9790 B(  0-C , 20-H ) :   0.9776 B(  0-C , 21-H ) :   0.9795
B(  0-C , 22-H ) :   0.9759 B(  1-C ,  2-O ) :   0.8822 B(  1-C , 23-H ) :   0.9776
B(  1-C , 24-H ) :   0.9701 B(  2-O ,  3-C ) :   1.0959 B(  3-C ,  4-O ) :   2.0170
B(  3-C ,  5-C ) :   1.0367 B(  5-C ,  6-C ) :   1.6641 B(  5-C , 12-C ) :   0.9651
B(  6-C ,  7-C ) :   0.9520 B(  6-C ,  8-N ) :   1.1399 B(  7-C , 25-H ) :   0.9697
B(  7-C , 26-H ) :   0.9886 B(  7-C , 27-H ) :   0.9637 B(  8-N ,  9-C ) :   1.1833
B(  8-N , 28-H ) :   0.9496 B(  9-C , 10-S ) :   1.6106 B(  9-C , 11-N ) :   1.3008
B( 11-N , 12-C ) :   0.9919 B( 11-N , 29-H ) :   0.9517 B( 12-C , 13-C ) :   0.9448
B( 12-C , 30-H ) :   0.9984 B( 13-C , 14-C ) :   1.3767 B( 13-C , 19-C ) :   1.3686
B( 14-C , 15-C ) :   1.3940 B( 14-C , 31-H ) :   0.9640 B( 15-C , 16-C ) :   1.3634
B( 15-C , 32-H ) :   0.9709 B( 16-C , 17-C ) :   1.3310 B( 16-C , 33-H ) :   0.9854
B( 17-C , 18-O ) :   1.1090 B( 17-C , 19-C ) :   1.3755 B( 18-O , 34-H ) :   0.9801
B( 19-C , 35-H ) :   0.9580

MP2 TOTAL ENERGY:    -1274.328987146 Eh
FINAL SINGLE POINT ENERGY     -1274.328987145549

DIPOLE MOMENT
-------------
                                X             Y             Z
Electronic contribution:     11.17859      10.21104       9.38929
Nuclear contribution   :    -12.64079     -11.45270      -9.98605
                        -----------------------------------------
Total Dipole Moment    :     -1.46221      -1.24166      -0.59676
                        -----------------------------------------
Magnitude (a.u.)       :      2.00895
Magnitude (Debye)      :      5.10635

Rotational constants in cm-1:     0.011056     0.009038     0.006172
Rotational constants in MHz :   331.441374   270.938568   185.037837

                             ****ORCA TERMINATED NORMALLY****
TOTAL RUN TIME: 0 days 1 hours 28 minutes 19 seconds 720 msec
