                         Program Version 5.0.0 -  RELEASE  -
|  1> ! ri-mp2 cc-pvtz cc-pvtz/c TightSCF NoKeepInts
|  2>
|  3> %scf
|  4>   MaxCore 4096
|  5> end
|  6> *xyz  0  1
|  7>     C       14.2706522   14.9582491   14.9495571
|  8>     C       15.6741354   14.5892570   15.4586590
|  9>     O       16.2460494   15.7727376   16.0387591
| 10>     C       17.3486237   15.6498528   16.8323232
| 11>     O       17.9634537   14.5998875   16.9290466
| 12>     C       17.6804681   16.8626778   17.6564210
| 13>     C       17.1339550   18.0977097   17.4967186
| 14>     C       16.0941248   18.5414073   16.4876458
| 15>     N       17.5797436   19.1610061   18.2894839
| 16>     C       18.6536702   19.1109060   19.1382528
| 17>     S       19.1984859   20.4534930   19.9359306
| 18>     N       19.2534076   17.8871692   19.2913403
| 19>     C       18.7299470   16.6201381   18.7479076
| 20>     C       18.1670435   15.7507747   19.8695661
| 21>     C       18.6269311   14.4329037   20.0482389
| 22>     C       18.1116789   13.6272412   21.0774954
| 23>     C       17.1271071   14.1427942   21.9373704
| 24>     C       16.6635303   15.4535203   21.7609276
| 25>     O       15.7085739   15.9523549   22.5859372
| 26>     C       17.1779775   16.2528536   20.7353010
| 27>     H       13.6416514   15.3157566   15.7743215
| 28>     H       13.7832334   14.0845303   14.5000082
| 29>     H       14.3297858   15.7475211   14.1899000
| 30>     H       15.5864483   13.7958330   16.2139448
| 31>     H       16.3025567   14.2218516   14.6364035
| 32>     H       16.4138153   18.2978902   15.4667567
| 33>     H       15.9065929   19.6215159   16.5174904
| 34>     H       15.1366719   18.0381212   16.6717696
| 35>     H       17.1525134   20.0680455   18.1914205
| 36>     H       20.0230609   17.8687897   19.9479994
| 37>     H       19.5731296   16.0842644   18.2884382
| 38>     H       19.3759847   14.0258414   19.3733635
| 39>     H       18.4715837   12.6073883   21.2005535
| 40>     H       16.7250366   13.5233926   22.7320760
| 41>     H       15.5078154   15.2688146   23.2425865
| 42>     H       16.8075612   17.2655098   20.6200852
| 43> *
| 44>
| 45>                          ****END OF INPUT****

CARTESIAN COORDINATES (ANGSTROEM)
---------------------------------
  C     14.270652   14.958249   14.949557
  C     15.674135   14.589257   15.458659
  O     16.246049   15.772738   16.038759
  C     17.348624   15.649853   16.832323
  O     17.963454   14.599887   16.929047
  C     17.680468   16.862678   17.656421
  C     17.133955   18.097710   17.496719
  C     16.094125   18.541407   16.487646
  N     17.579744   19.161006   18.289484
  C     18.653670   19.110906   19.138253
  S     19.198486   20.453493   19.935931
  N     19.253408   17.887169   19.291340
  C     18.729947   16.620138   18.747908
  C     18.167043   15.750775   19.869566
  C     18.626931   14.432904   20.048239
  C     18.111679   13.627241   21.077495
  C     17.127107   14.142794   21.937370
  C     16.663530   15.453520   21.760928
  O     15.708574   15.952355   22.585937
  C     17.177977   16.252854   20.735301
  H     13.641651   15.315757   15.774321
  H     13.783233   14.084530   14.500008
  H     14.329786   15.747521   14.189900
  H     15.586448   13.795833   16.213945
  H     16.302557   14.221852   14.636403
  H     16.413815   18.297890   15.466757
  H     15.906593   19.621516   16.517490
  H     15.136672   18.038121   16.671770
  H     17.152513   20.068046   18.191420
  H     20.023061   17.868790   19.947999
  H     19.573130   16.084264   18.288438
  H     19.375985   14.025841   19.373363
  H     18.471584   12.607388   21.200553
  H     16.725037   13.523393   22.732076
  H     15.507815   15.268815   23.242587
  H     16.807561   17.265510   20.620085

 Total Charge           Charge          ....    0
 Multiplicity           Mult            ....    1
 Number of Electrons    NEL             ....  154
 Basis Dimension        Dim             ....  828

ORBITAL ENERGIES
----------------

  NO   OCC          E(Eh)            E(eV)
   0   2.0000     -91.888069     -2500.4015
   1   2.0000     -20.605150      -560.6946
   2   2.0000     -20.590968      -560.3087
   3   2.0000     -20.544872      -559.0544
   4   2.0000     -15.628631      -425.2767
   5   2.0000     -15.606511      -424.6748
   6   2.0000     -11.395079      -310.0759
   7   2.0000     -11.382825      -309.7424
   8   2.0000     -11.337150      -308.4995
   9   2.0000     -11.306691      -307.6707
  10   2.0000     -11.305013      -307.6250
  11   2.0000     -11.299635      -307.4787
  12   2.0000     -11.260808      -306.4222
  13   2.0000     -11.259049      -306.3743
  14   2.0000     -11.252652      -306.2002
  15   2.0000     -11.246761      -306.0399
  16   2.0000     -11.236461      -305.7596
  17   2.0000     -11.235762      -305.7406
  18   2.0000     -11.232660      -305.6562
  19   2.0000     -11.229499      -305.5702
  20   2.0000      -8.893129      -241.9943
  21   2.0000      -6.574706      -178.9068
  22   2.0000      -6.572700      -178.8523
  23   2.0000      -6.572113      -178.8363
  24   2.0000      -1.455845       -39.6156
  25   2.0000      -1.410702       -38.3871
  26   2.0000      -1.357162       -36.9302
  27   2.0000      -1.339463       -36.4486
  28   2.0000      -1.236917       -33.6582
  29   2.0000      -1.151423       -31.3318
  30   2.0000      -1.119288       -30.4574
  31   2.0000      -1.045112       -28.4389
  32   2.0000      -1.036940       -28.2166
  33   2.0000      -1.008777       -27.4502
  34   2.0000      -0.997527       -27.1441
  35   2.0000      -0.983187       -26.7539
  36   2.0000      -0.920725       -25.0542
  37   2.0000      -0.889247       -24.1977
  38   2.0000      -0.846970       -23.0472
  39   2.0000      -0.834391       -22.7049
  40   2.0000      -0.827009       -22.5041
  41   2.0000      -0.817273       -22.2391
  42   2.0000      -0.762632       -20.7523
  43   2.0000      -0.735865       -20.0239
  44   2.0000      -0.724232       -19.7073
  45   2.0000      -0.690569       -18.7913
  46   2.0000      -0.684558       -18.6278
  47   2.0000      -0.681187       -18.5360
  48   2.0000      -0.675739       -18.3878
  49   2.0000      -0.659948       -17.9581
  50   2.0000      -0.648924       -17.6581
  51   2.0000      -0.643407       -17.5080
  52   2.0000      -0.634798       -17.2737
  53   2.0000      -0.600600       -16.3432
  54   2.0000      -0.599672       -16.3179
  55   2.0000      -0.594719       -16.1831
  56   2.0000      -0.591802       -16.1038
  57   2.0000      -0.584072       -15.8934
  58   2.0000      -0.572438       -15.5768
  59   2.0000      -0.564520       -15.3614
  60   2.0000      -0.562198       -15.2982
  61   2.0000      -0.555199       -15.1077
  62   2.0000      -0.539489       -14.6802
  63   2.0000      -0.520346       -14.1593
  64   2.0000      -0.516833       -14.0637
  65   2.0000      -0.511256       -13.9120
  66   2.0000      -0.504309       -13.7230
  67   2.0000      -0.495229       -13.4759
  68   2.0000      -0.480752       -13.0819
  69   2.0000      -0.464976       -12.6526
  70   2.0000      -0.459337       -12.4992
  71   2.0000      -0.455603       -12.3976
  72   2.0000      -0.354334        -9.6419
  73   2.0000      -0.343348        -9.3430
  74   2.0000      -0.327145        -8.9021
  75   2.0000      -0.315438        -8.5835
  76   2.0000      -0.312985        -8.5168
  77   0.0000       0.076081         2.0703
  78   0.0000       0.114181         3.1070
  79   0.0000       0.120317         3.2740
  80   0.0000       0.136118         3.7040
  81   0.0000       0.138618         3.7720

MULLIKEN ATOMIC CHARGES
-----------------------
   0 C :   -0.274027
   1 C :    0.044452
   2 O :   -0.332509
   3 C :    0.431101
   4 O :   -0.430878
   5 C :   -0.167464
   6 C :    0.143863
   7 C :   -0.288029
   8 N :   -0.120460
   9 C :    0.201092
  10 S :   -0.438925
  11 N :   -0.196568
  12 C :    0.033329
  13 C :    0.060102
  14 C :   -0.160000
  15 C :   -0.134081
  16 C :   -0.278908
  17 C :    0.311598
  18 O :   -0.359357
  19 C :   -0.273405
  20 H :    0.096404
  21 H :    0.102213
  22 H :    0.094032
  23 H :    0.095966
  24 H :    0.094328
  25 H :    0.127325
  26 H :    0.104150
  27 H :    0.127714
  28 H :    0.196591
  29 H :    0.193443
  30 H :    0.153302
  31 H :    0.152929
  32 H :    0.158792
  33 H :    0.127738
  34 H :    0.239989
  35 H :    0.164160
Sum of atomic charges:    0.0000000

LOEWDIN ATOMIC CHARGES
----------------------
   0 C :    0.106763
   1 C :   -0.017539
   2 O :    0.307844
   3 C :   -0.415076
   4 O :    0.102186
   5 C :   -0.091346
   6 C :   -0.064645
   7 C :    0.124890
   8 N :    0.404955
   9 C :   -0.459106
  10 S :   -0.035727
  11 N :    0.398024
  12 C :   -0.046678
  13 C :   -0.038686
  14 C :    0.022570
  15 C :    0.040931
  16 C :   -0.002375
  17 C :   -0.192669
  18 O :    0.392851
  19 C :    0.028202
  20 H :   -0.027285
  21 H :   -0.022701
  22 H :   -0.028634
  23 H :   -0.026268
  24 H :   -0.029235
  25 H :   -0.008783
  26 H :   -0.021181
  27 H :   -0.009934
  28 H :   -0.059265
  29 H :   -0.063586
  30 H :   -0.005055
  31 H :   -0.025308
  32 H :   -0.021300
  33 H :   -0.036501
  34 H :   -0.154994
  35 H :   -0.025342

  Mayer bond orders larger than 0.100000
B(  0-C ,  1-C ) :   0.9705 B(  0-C , 20-H ) :   0.9770 B(  0-C , 21-H ) :   0.9790
B(  0-C , 22-H ) :   0.9778 B(  1-C ,  2-O ) :   0.9041 B(  1-C , 23-H ) :   0.9748
B(  1-C , 24-H ) :   0.9801 B(  2-O ,  3-C ) :   1.1768 B(  3-C ,  4-O ) :   1.9744
B(  3-C ,  5-C ) :   1.0643 B(  5-C ,  6-C ) :   1.6399 B(  5-C , 12-C ) :   0.9669
B(  6-C ,  7-C ) :   0.9549 B(  6-C ,  8-N ) :   1.1515 B(  7-C , 25-H ) :   0.9647
B(  7-C , 26-H ) :   0.9923 B(  7-C , 27-H ) :   0.9638 B(  8-N ,  9-C ) :   1.1767
B(  8-N , 28-H ) :   0.9487 B(  9-C , 10-S ) :   1.6111 B(  9-C , 11-N ) :   1.3052
B( 11-N , 12-C ) :   0.9928 B( 11-N , 29-H ) :   0.9521 B( 12-C , 13-C ) :   0.9479
B( 12-C , 30-H ) :   1.0004 B( 13-C , 14-C ) :   1.3754 B( 13-C , 19-C ) :   1.3689
B( 14-C , 15-C ) :   1.3947 B( 14-C , 31-H ) :   0.9651 B( 15-C , 16-C ) :   1.3623
B( 15-C , 32-H ) :   0.9715 B( 16-C , 17-C ) :   1.3316 B( 16-C , 33-H ) :   0.9861
B( 17-C , 18-O ) :   1.1078 B( 17-C , 19-C ) :   1.3796 B( 18-O , 34-H ) :   0.9807
B( 19-C , 35-H ) :   0.9586

MP2 TOTAL ENERGY:    -1274.350247453 Eh
FINAL SINGLE POINT ENERGY     -1274.350247453465

DIPOLE MOMENT
-------------
                                X             Y             Z
Electronic contribution:     11.90036       8.61670      11.33277
Nuclear contribution   :    -13.41468      -9.93032     -12.31713
                        -----------------------------------------
Total Dipole Moment    :     -1.51433      -1.31361      -0.98436
                        -----------------------------------------
Magnitude (a.u.)       :      2.23332
Magnitude (Debye)      :      5.67665

Rotational constants in cm-1:     0.010337     0.008753     0.005806
Rotational constants in MHz :   309.888117   262.413078   174.071835

                             ****ORCA TERMINATED NORMALLY****
TOTAL RUN TIME: 0 days 1 hours 52 minutes 31 seconds 898 msec
