                         Program Version 4.2.0 -  RELEASE  -
|  1> ! ri-mp2 cc-pvtz cc-pvtz/c TightSCF  NoKeepInts
|  2>
|  3> %scf
|  4>   MaxCore 4096
|  5> end
|  6> *xyz  0  1
|  7>     C       15.0623621   14.9189937   17.1666191
|  8>     C       15.7319826   14.8316260   15.7808698
|  9>     O       16.6881628   15.8987344   15.6382596
| 10>     C       17.8253876   15.8729825   16.3916737
| 11>     O       18.4522046   14.8373177   16.5406609
| 12>     C       17.9006452   16.9888640   17.3940303
| 13>     C       17.3337274   18.2110705   17.2225242
| 14>     C       16.5449404   18.7088409   16.0288482
| 15>     N       17.5270731   19.2072915   18.1851388
| 16>     C       18.4016362   19.1187071   19.2362479
| 17>     S       18.6820067   20.3971038   20.2473432
| 18>     N       19.0323908   17.9119932   19.4058541
| 19>     C       18.7042589   16.6805521   18.6625873
| 20>     C       17.9550440   15.6976681   19.5589889
| 21>     C       18.3927635   14.3654921   19.6759318
| 22>     C       17.6996470   13.4514275   20.4869591
| 23>     C       16.5571823   13.8716115   21.1888095
| 24>     C       16.1158154   15.1966037   21.0737225
| 25>     O       15.0069162   15.6030069   21.7416154
| 26>     C       16.8075675   16.1040338   20.2654457
| 27>     H       15.7729049   14.6558982   17.9592634
| 28>     H       14.2211659   14.2182457   17.2289664
| 29>     H       14.6818618   15.9298108   17.3580295
| 30>     H       16.2158595   13.8535206   15.6523880
| 31>     H       14.9630306   14.9338825   15.0045184
| 32>     H       15.5411221   18.2665670   16.0161838
| 33>     H       17.0438405   18.4382116   15.0898229
| 34>     H       16.4281111   19.7993887   16.0255316
| 35>     H       17.0742764   20.1007055   18.0760443
| 36>     H       19.6509225   17.8628965   20.2052358
| 37>     H       19.6517450   16.2138389   18.3563782
| 38>     H       19.2651301   14.0327122   19.1183402
| 39>     H       18.0459372   12.4222167   20.5629900
| 40>     H       16.0174857   13.1681483   21.8140233
| 41>     H       14.7047181   14.8578560   22.2823403
| 42>     H       16.4471743   17.1241798   20.1918140
| 43> *
| 44>
| 45>                          ****END OF INPUT****

CARTESIAN COORDINATES (ANGSTROEM)
---------------------------------
  C     15.062362   14.918994   17.166619
  C     15.731983   14.831626   15.780870
  O     16.688163   15.898734   15.638260
  C     17.825388   15.872982   16.391674
  O     18.452205   14.837318   16.540661
  C     17.900645   16.988864   17.394030
  C     17.333727   18.211071   17.222524
  C     16.544940   18.708841   16.028848
  N     17.527073   19.207292   18.185139
  C     18.401636   19.118707   19.236248
  S     18.682007   20.397104   20.247343
  N     19.032391   17.911993   19.405854
  C     18.704259   16.680552   18.662587
  C     17.955044   15.697668   19.558989
  C     18.392764   14.365492   19.675932
  C     17.699647   13.451427   20.486959
  C     16.557182   13.871612   21.188810
  C     16.115815   15.196604   21.073722
  O     15.006916   15.603007   21.741615
  C     16.807568   16.104034   20.265446
  H     15.772905   14.655898   17.959263
  H     14.221166   14.218246   17.228966
  H     14.681862   15.929811   17.358029
  H     16.215860   13.853521   15.652388
  H     14.963031   14.933882   15.004518
  H     15.541122   18.266567   16.016184
  H     17.043841   18.438212   15.089823
  H     16.428111   19.799389   16.025532
  H     17.074276   20.100705   18.076044
  H     19.650922   17.862897   20.205236
  H     19.651745   16.213839   18.356378
  H     19.265130   14.032712   19.118340
  H     18.045937   12.422217   20.562990
  H     16.017486   13.168148   21.814023
  H     14.704718   14.857856   22.282340
  H     16.447174   17.124180   20.191814

 Total Charge           Charge          ....    0
 Multiplicity           Mult            ....    1
 Number of Electrons    NEL             ....  154
 Basis Dimension        Dim             ....  828

ORBITAL ENERGIES
----------------

  NO   OCC          E(Eh)            E(eV)
   0   2.0000     -91.889471     -2500.4396
   1   2.0000     -20.594721      -560.4109
   2   2.0000     -20.588405      -560.2390
   3   2.0000     -20.551624      -559.2381
   4   2.0000     -15.629695      -425.3056
   5   2.0000     -15.608200      -424.7207
   6   2.0000     -11.395416      -310.0850
   7   2.0000     -11.384461      -309.7869
   8   2.0000     -11.336124      -308.4716
   9   2.0000     -11.310848      -307.7838
  10   2.0000     -11.308001      -307.7064
  11   2.0000     -11.299687      -307.4801
  12   2.0000     -11.261113      -306.4305
  13   2.0000     -11.260086      -306.4025
  14   2.0000     -11.256606      -306.3078
  15   2.0000     -11.251326      -306.1641
  16   2.0000     -11.240964      -305.8822
  17   2.0000     -11.236405      -305.7581
  18   2.0000     -11.233722      -305.6851
  19   2.0000     -11.225532      -305.4622
  20   2.0000      -8.894526      -242.0324
  21   2.0000      -6.576100      -178.9448
  22   2.0000      -6.574095      -178.8902
  23   2.0000      -6.573507      -178.8742
  24   2.0000      -1.451857       -39.5070
  25   2.0000      -1.414524       -38.4911
  26   2.0000      -1.355693       -36.8903
  27   2.0000      -1.340628       -36.4803
  28   2.0000      -1.238312       -33.6962
  29   2.0000      -1.155297       -31.4372
  30   2.0000      -1.120963       -30.5030
  31   2.0000      -1.043608       -28.3980
  32   2.0000      -1.031822       -28.0773
  33   2.0000      -1.012827       -27.5604
  34   2.0000      -0.999631       -27.2014
  35   2.0000      -0.985601       -26.8196
  36   2.0000      -0.923533       -25.1306
  37   2.0000      -0.893043       -24.3009
  38   2.0000      -0.848556       -23.0904
  39   2.0000      -0.838043       -22.8043
  40   2.0000      -0.831217       -22.6186
  41   2.0000      -0.815840       -22.2001
  42   2.0000      -0.751808       -20.4577
  43   2.0000      -0.735202       -20.0059
  44   2.0000      -0.727419       -19.7941
  45   2.0000      -0.693433       -18.8693
  46   2.0000      -0.686633       -18.6842
  47   2.0000      -0.677473       -18.4350
  48   2.0000      -0.672824       -18.3085
  49   2.0000      -0.659696       -17.9512
  50   2.0000      -0.653681       -17.7876
  51   2.0000      -0.645712       -17.5707
  52   2.0000      -0.635989       -17.3061
  53   2.0000      -0.610033       -16.5998
  54   2.0000      -0.602232       -16.3876
  55   2.0000      -0.601142       -16.3579
  56   2.0000      -0.598509       -16.2862
  57   2.0000      -0.581169       -15.8144
  58   2.0000      -0.575325       -15.6554
  59   2.0000      -0.562402       -15.3037
  60   2.0000      -0.555634       -15.1196
  61   2.0000      -0.550132       -14.9698
  62   2.0000      -0.540778       -14.7153
  63   2.0000      -0.528076       -14.3697
  64   2.0000      -0.520347       -14.1594
  65   2.0000      -0.511887       -13.9291
  66   2.0000      -0.499069       -13.5804
  67   2.0000      -0.492639       -13.4054
  68   2.0000      -0.480984       -13.0883
  69   2.0000      -0.463732       -12.6188
  70   2.0000      -0.459288       -12.4979
  71   2.0000      -0.449269       -12.2252
  72   2.0000      -0.355400        -9.6709
  73   2.0000      -0.346767        -9.4360
  74   2.0000      -0.328605        -8.9418
  75   2.0000      -0.318762        -8.6739
  76   2.0000      -0.316290        -8.6067
  77   0.0000       0.070864         1.9283
  78   0.0000       0.108124         2.9422
  79   0.0000       0.119439         3.2501
  80   0.0000       0.133170         3.6237
  81   0.0000       0.139290         3.7903

MULLIKEN ATOMIC CHARGES
-----------------------
   0 C :   -0.319775
   1 C :    0.036981
   2 O :   -0.374719
   3 C :    0.452485
   4 O :   -0.410187
   5 C :   -0.178601
   6 C :    0.138099
   7 C :   -0.282565
   8 N :   -0.122969
   9 C :    0.195723
  10 S :   -0.437006
  11 N :   -0.198113
  12 C :    0.047245
  13 C :    0.026067
  14 C :   -0.157751
  15 C :   -0.138557
  16 C :   -0.276329
  17 C :    0.309447
  18 O :   -0.360039
  19 C :   -0.260298
  20 H :    0.122843
  21 H :    0.110178
  22 H :    0.096948
  23 H :    0.113098
  24 H :    0.108099
  25 H :    0.122281
  26 H :    0.127967
  27 H :    0.103892
  28 H :    0.197330
  29 H :    0.193351
  30 H :    0.155834
  31 H :    0.159284
  32 H :    0.160658
  33 H :    0.130476
  34 H :    0.240614
  35 H :    0.168008
Sum of atomic charges:   -0.0000000

LOEWDIN ATOMIC CHARGES
----------------------
   0 C :    0.105482
   1 C :   -0.018871
   2 O :    0.291778
   3 C :   -0.415732
   4 O :    0.118238
   5 C :   -0.093145
   6 C :   -0.068730
   7 C :    0.125790
   8 N :    0.405207
   9 C :   -0.459237
  10 S :   -0.034690
  11 N :    0.397568
  12 C :   -0.045487
  13 C :   -0.041956
  14 C :    0.020464
  15 C :    0.040729
  16 C :   -0.002413
  17 C :   -0.193932
  18 O :    0.394252
  19 C :    0.030021
  20 H :   -0.023274
  21 H :   -0.024983
  22 H :   -0.030165
  23 H :   -0.026622
  24 H :   -0.024917
  25 H :   -0.011726
  26 H :   -0.007079
  27 H :   -0.020205
  28 H :   -0.058801
  29 H :   -0.063935
  30 H :   -0.003846
  31 H :   -0.024299
  32 H :   -0.020384
  33 H :   -0.035719
  34 H :   -0.154305
  35 H :   -0.025076

  Mayer bond orders larger than 0.100000
B(  0-C ,  1-C ) :   0.9602 B(  0-C , 20-H ) :   0.9668 B(  0-C , 21-H ) :   0.9781
B(  0-C , 22-H ) :   0.9749 B(  1-C ,  2-O ) :   0.8918 B(  1-C , 23-H ) :   0.9805
B(  1-C , 24-H ) :   0.9844 B(  2-O ,  3-C ) :   1.0988 B(  3-C ,  4-O ) :   2.0075
B(  3-C ,  5-C ) :   1.0394 B(  5-C ,  6-C ) :   1.6611 B(  5-C , 12-C ) :   0.9623
B(  6-C ,  7-C ) :   0.9549 B(  6-C ,  8-N ) :   1.1392 B(  7-C , 25-H ) :   0.9637
B(  7-C , 26-H ) :   0.9673 B(  7-C , 27-H ) :   0.9899 B(  8-N ,  9-C ) :   1.1799
B(  8-N , 28-H ) :   0.9492 B(  9-C , 10-S ) :   1.6143 B(  9-C , 11-N ) :   1.3009
B( 11-N , 12-C ) :   0.9890 B( 11-N , 29-H ) :   0.9523 B( 12-C , 13-C ) :   0.9442
B( 12-C , 30-H ) :   0.9990 B( 13-C , 14-C ) :   1.3838 B( 13-C , 19-C ) :   1.3663
B( 14-C , 15-C ) :   1.3942 B( 14-C , 31-H ) :   0.9621 B( 15-C , 16-C ) :   1.3624
B( 15-C , 32-H ) :   0.9715 B( 16-C , 17-C ) :   1.3310 B( 16-C , 33-H ) :   0.9852
B( 17-C , 18-O ) :   1.1101 B( 17-C , 19-C ) :   1.3762 B( 18-O , 34-H ) :   0.9802
B( 19-C , 35-H ) :   0.9579

MP2 TOTAL ENERGY:    -1274.334038814 Eh
FINAL SINGLE POINT ENERGY     -1274.334038813556

DIPOLE MOMENT
-------------
                                X             Y             Z
Electronic contribution:     10.03918       8.56074       6.47879
Nuclear contribution   :    -11.39832      -9.81543      -7.26139
                        -----------------------------------------
Total Dipole Moment    :     -1.35914      -1.25469      -0.78260
                        -----------------------------------------
Magnitude (a.u.)       :      2.00848
Magnitude (Debye)      :      5.10514

Rotational constants in cm-1:     0.011585     0.009649     0.006716
Rotational constants in MHz :   347.305397   289.282441   201.332586

                             ****ORCA TERMINATED NORMALLY****
TOTAL RUN TIME: 0 days 1 hours 52 minutes 15 seconds 90 msec
