                         Program Version 4.2.0 -  RELEASE  -
|  1> ! ri-mp2 cc-pvtz cc-pvtz/c TightSCF  NoKeepInts
|  2>
|  3> %scf
|  4>   MaxCore 4096
|  5> end
|  6> *xyz  0  1
|  7>     C       15.3306220   13.6663428   16.5940056
|  8>     C       16.6123133   14.0754193   15.8428496
|  9>     O       17.2692077   15.1079982   16.5986159
| 10>     C       16.8318784   16.4021070   16.5181335
| 11>     O       15.9912961   16.7599481   15.7100160
| 12>     C       17.5424090   17.3127485   17.4806169
| 13>     C       17.3669023   18.6584682   17.4764939
| 14>     C       16.4804661   19.4640799   16.5510013
| 15>     N       18.0713261   19.4602970   18.3795079
| 16>     C       19.0241602   19.0080147   19.2527254
| 17>     S       19.8697192   20.0364897   20.2341595
| 18>     N       19.2436012   17.6543368   19.2727689
| 19>     C       18.4660596   16.6543055   18.5182891
| 20>     C       17.6862080   15.7667923   19.4844635
| 21>     C       18.0013173   14.4008795   19.6122305
| 22>     C       17.2781752   13.5795228   20.4934578
| 23>     C       16.2328762   14.1285371   21.2555515
| 24>     C       15.9193349   15.4892592   21.1341290
| 25>     O       14.9109276   16.0223401   21.8689341
| 26>     C       16.6407412   16.3041239   20.2562733
| 27>     H       15.5636319   13.3689693   17.6243538
| 28>     H       14.8446072   12.8208795   16.0925803
| 29>     H       14.6152707   14.4977574   16.6279351
| 30>     H       17.2747863   13.2035378   15.7702946
| 31>     H       16.3778761   14.4127262   14.8237812
| 32>     H       15.4310816   19.1634921   16.6656827
| 33>     H       16.7573596   19.2909158   15.5033066
| 34>     H       16.5375265   20.5434809   16.7337836
| 35>     H       17.9232655   20.4568450   18.3796452
| 36>     H       19.9233592   17.3470146   19.9563829
| 37>     H       19.1858606   16.0272877   17.9736659
| 38>     H       18.8039602   13.9723324   19.0181716
| 39>     H       17.5275936   12.5237023   20.5828227
| 40>     H       15.6713136   13.4984037   21.9373172
| 41>     H       14.5539847   15.3168492   22.4289471
| 42>     H       16.3859811   17.3557957   20.1811065
| 43> *
| 44>
| 45>                          ****END OF INPUT****

CARTESIAN COORDINATES (ANGSTROEM)
---------------------------------
  C     15.330622   13.666343   16.594006
  C     16.612313   14.075419   15.842850
  O     17.269208   15.107998   16.598616
  C     16.831878   16.402107   16.518134
  O     15.991296   16.759948   15.710016
  C     17.542409   17.312748   17.480617
  C     17.366902   18.658468   17.476494
  C     16.480466   19.464080   16.551001
  N     18.071326   19.460297   18.379508
  C     19.024160   19.008015   19.252725
  S     19.869719   20.036490   20.234159
  N     19.243601   17.654337   19.272769
  C     18.466060   16.654305   18.518289
  C     17.686208   15.766792   19.484464
  C     18.001317   14.400879   19.612230
  C     17.278175   13.579523   20.493458
  C     16.232876   14.128537   21.255551
  C     15.919335   15.489259   21.134129
  O     14.910928   16.022340   21.868934
  C     16.640741   16.304124   20.256273
  H     15.563632   13.368969   17.624354
  H     14.844607   12.820880   16.092580
  H     14.615271   14.497757   16.627935
  H     17.274786   13.203538   15.770295
  H     16.377876   14.412726   14.823781
  H     15.431082   19.163492   16.665683
  H     16.757360   19.290916   15.503307
  H     16.537526   20.543481   16.733784
  H     17.923265   20.456845   18.379645
  H     19.923359   17.347015   19.956383
  H     19.185861   16.027288   17.973666
  H     18.803960   13.972332   19.018172
  H     17.527594   12.523702   20.582823
  H     15.671314   13.498404   21.937317
  H     14.553985   15.316849   22.428947
  H     16.385981   17.355796   20.181106

 Total Charge           Charge          ....    0
 Multiplicity           Mult            ....    1
 Number of Electrons    NEL             ....  154
 Basis Dimension        Dim             ....  828

ORBITAL ENERGIES
----------------

  NO   OCC          E(Eh)            E(eV)
   0   2.0000     -91.888655     -2500.4174
   1   2.0000     -20.601667      -560.5999
   2   2.0000     -20.596251      -560.4525
   3   2.0000     -20.541761      -558.9697
   4   2.0000     -15.628796      -425.2812
   5   2.0000     -15.608103      -424.7181
   6   2.0000     -11.395507      -310.0875
   7   2.0000     -11.383842      -309.7701
   8   2.0000     -11.335779      -308.4622
   9   2.0000     -11.313459      -307.8549
  10   2.0000     -11.308558      -307.7215
  11   2.0000     -11.296740      -307.3999
  12   2.0000     -11.259255      -306.3799
  13   2.0000     -11.258875      -306.3696
  14   2.0000     -11.254762      -306.2576
  15   2.0000     -11.251926      -306.1805
  16   2.0000     -11.243012      -305.9379
  17   2.0000     -11.238412      -305.8127
  18   2.0000     -11.237865      -305.7978
  19   2.0000     -11.222482      -305.3793
  20   2.0000      -8.893720      -242.0104
  21   2.0000      -6.575296      -178.9229
  22   2.0000      -6.573290      -178.8683
  23   2.0000      -6.572704      -178.8524
  24   2.0000      -1.451433       -39.4955
  25   2.0000      -1.415929       -38.5294
  26   2.0000      -1.354807       -36.8662
  27   2.0000      -1.339759       -36.4567
  28   2.0000      -1.238255       -33.6946
  29   2.0000      -1.157505       -31.4973
  30   2.0000      -1.120393       -30.4875
  31   2.0000      -1.042648       -28.3719
  32   2.0000      -1.035861       -28.1872
  33   2.0000      -1.014807       -27.6143
  34   2.0000      -0.995046       -27.0766
  35   2.0000      -0.983967       -26.7751
  36   2.0000      -0.922302       -25.0971
  37   2.0000      -0.893881       -24.3237
  38   2.0000      -0.846770       -23.0418
  39   2.0000      -0.837427       -22.7876
  40   2.0000      -0.833799       -22.6888
  41   2.0000      -0.815943       -22.2029
  42   2.0000      -0.756932       -20.5972
  43   2.0000      -0.732322       -19.9275
  44   2.0000      -0.723103       -19.6766
  45   2.0000      -0.695589       -18.9279
  46   2.0000      -0.688629       -18.7386
  47   2.0000      -0.679390       -18.4871
  48   2.0000      -0.670657       -18.2495
  49   2.0000      -0.659612       -17.9490
  50   2.0000      -0.648158       -17.6373
  51   2.0000      -0.641107       -17.4454
  52   2.0000      -0.631142       -17.1742
  53   2.0000      -0.611066       -16.6279
  54   2.0000      -0.606331       -16.4991
  55   2.0000      -0.599510       -16.3135
  56   2.0000      -0.598547       -16.2873
  57   2.0000      -0.577337       -15.7101
  58   2.0000      -0.570497       -15.5240
  59   2.0000      -0.569059       -15.4849
  60   2.0000      -0.560871       -15.2621
  61   2.0000      -0.543482       -14.7889
  62   2.0000      -0.533805       -14.5256
  63   2.0000      -0.529009       -14.3951
  64   2.0000      -0.524453       -14.2711
  65   2.0000      -0.513055       -13.9609
  66   2.0000      -0.500840       -13.6285
  67   2.0000      -0.499339       -13.5877
  68   2.0000      -0.482342       -13.1252
  69   2.0000      -0.463966       -12.6252
  70   2.0000      -0.454959       -12.3801
  71   2.0000      -0.447640       -12.1809
  72   2.0000      -0.354074        -9.6348
  73   2.0000      -0.349348        -9.5062
  74   2.0000      -0.328039        -8.9264
  75   2.0000      -0.320920        -8.7327
  76   2.0000      -0.315900        -8.5961
  77   0.0000       0.076648         2.0857
  78   0.0000       0.106746         2.9047
  79   0.0000       0.125176         3.4062
  80   0.0000       0.132871         3.6156
  81   0.0000       0.138661         3.7732

MULLIKEN ATOMIC CHARGES
-----------------------
   0 C :   -0.294972
   1 C :    0.016259
   2 O :   -0.352183
   3 C :    0.471035
   4 O :   -0.438063
   5 C :   -0.222019
   6 C :    0.150361
   7 C :   -0.274016
   8 N :   -0.119981
   9 C :    0.211085
  10 S :   -0.440375
  11 N :   -0.204890
  12 C :    0.055732
  13 C :    0.064158
  14 C :   -0.185161
  15 C :   -0.135966
  16 C :   -0.277180
  17 C :    0.315466
  18 O :   -0.356548
  19 C :   -0.266538
  20 H :    0.104320
  21 H :    0.095839
  22 H :    0.110462
  23 H :    0.110581
  24 H :    0.115670
  25 H :    0.131969
  26 H :    0.130790
  27 H :    0.095186
  28 H :    0.197028
  29 H :    0.194822
  30 H :    0.150492
  31 H :    0.148935
  32 H :    0.161412
  33 H :    0.130276
  34 H :    0.240590
  35 H :    0.165425
Sum of atomic charges:   -0.0000000

LOEWDIN ATOMIC CHARGES
----------------------
   0 C :    0.105106
   1 C :   -0.018291
   2 O :    0.309164
   3 C :   -0.412822
   4 O :    0.094734
   5 C :   -0.093802
   6 C :   -0.059353
   7 C :    0.131539
   8 N :    0.406483
   9 C :   -0.456419
  10 S :   -0.035844
  11 N :    0.396542
  12 C :   -0.052245
  13 C :   -0.039481
  14 C :    0.014349
  15 C :    0.038956
  16 C :   -0.001732
  17 C :   -0.189549
  18 O :    0.395265
  19 C :    0.031932
  20 H :   -0.026861
  21 H :   -0.028046
  22 H :   -0.025171
  23 H :   -0.026272
  24 H :   -0.027732
  25 H :   -0.004593
  26 H :   -0.004032
  27 H :   -0.023423
  28 H :   -0.057611
  29 H :   -0.064494
  30 H :   -0.011547
  31 H :   -0.030161
  32 H :   -0.021616
  33 H :   -0.035508
  34 H :   -0.153960
  35 H :   -0.023507

  Mayer bond orders larger than 0.100000
B(  0-C ,  1-C ) :   0.9622 B(  0-C , 20-H ) :   0.9720 B(  0-C , 21-H ) :   0.9770
B(  0-C , 22-H ) :   0.9765 B(  1-C ,  2-O ) :   0.8962 B(  1-C , 23-H ) :   0.9849
B(  1-C , 24-H ) :   0.9789 B(  2-O ,  3-C ) :   1.1663 B(  3-C ,  4-O ) :   1.9568
B(  3-C ,  5-C ) :   1.0639 B(  5-C ,  6-C ) :   1.6551 B(  5-C , 12-C ) :   0.9723
B(  6-C ,  7-C ) :   0.9666 B(  6-C ,  8-N ) :   1.1655 B(  7-C , 25-H ) :   0.9605
B(  7-C , 26-H ) :   0.9604 B(  7-C , 27-H ) :   0.9904 B(  8-N ,  9-C ) :   1.1833
B(  8-N , 28-H ) :   0.9478 B(  9-C , 10-S ) :   1.6070 B(  9-C , 11-N ) :   1.3052
B( 11-N , 12-C ) :   0.9886 B( 11-N , 29-H ) :   0.9513 B( 12-C , 13-C ) :   0.9356
B( 12-C , 30-H ) :   1.0023 B( 13-C , 14-C ) :   1.3543 B( 13-C , 19-C ) :   1.3827
B( 14-C , 15-C ) :   1.3923 B( 14-C , 31-H ) :   0.9719 B( 15-C , 16-C ) :   1.3600
B( 15-C , 32-H ) :   0.9708 B( 16-C , 17-C ) :   1.3319 B( 16-C , 33-H ) :   0.9851
B( 17-C , 18-O ) :   1.1102 B( 17-C , 19-C ) :   1.3714 B( 18-O , 34-H ) :   0.9799
B( 19-C , 35-H ) :   0.9580

MP2 TOTAL ENERGY:    -1274.351969458 Eh
FINAL SINGLE POINT ENERGY     -1274.351969457854

DIPOLE MOMENT
-------------
                                X             Y             Z
Electronic contribution:      9.02744      11.07187       7.77730
Nuclear contribution   :     -9.86977     -12.85361      -8.26807
                        -----------------------------------------
Total Dipole Moment    :     -0.84233      -1.78173      -0.49078
                        -----------------------------------------
Magnitude (a.u.)       :      2.03100
Magnitude (Debye)      :      5.16239

Rotational constants in cm-1:     0.012074     0.008665     0.006212
Rotational constants in MHz :   361.966596   259.778860   186.218952

                             ****ORCA TERMINATED NORMALLY****
TOTAL RUN TIME: 0 days 1 hours 42 minutes 37 seconds 936 msec
