                         Program Version 4.2.0 -  RELEASE  -
|  1> ! ri-mp2 cc-pvtz cc-pvtz/c TightSCF  NoKeepInts
|  2>
|  3> %scf
|  4>   MaxCore 4096
|  5> end
|  6> *xyz  0  1
|  7>     C       15.2556945   14.5137021   17.1497155
|  8>     C       16.4535842   14.0327402   16.3033986
|  9>     O       17.5996940   14.8998858   16.4502461
| 10>     C       17.4840193   16.2221545   16.1281910
| 11>     O       16.8747925   16.5619956   15.1285067
| 12>     C       17.7506719   17.1345130   17.2953899
| 13>     C       17.4048547   18.4479244   17.2899726
| 14>     C       16.6360622   19.1941410   16.2205106
| 15>     N       17.8207668   19.2835581   18.3317327
| 16>     C       18.7510623   18.9404702   19.2772207
| 17>     S       19.3403640   20.0370473   20.3661224
| 18>     N       19.1762696   17.6359636   19.2667697
| 19>     C       18.5486711   16.5592550   18.4782530
| 20>     C       17.7066987   15.6855656   19.4029995
| 21>     C       18.0417740   14.3327930   19.6027089
| 22>     C       17.2858138   13.5291661   20.4728578
| 23>     C       16.1888063   14.0833474   21.1544077
| 24>     C       15.8560702   15.4315383   20.9639125
| 25>     O       14.7967402   15.9691716   21.6191083
| 26>     C       16.6086661   16.2282270   20.0954176
| 27>     H       15.4852914   14.4628736   18.2178694
| 28>     H       14.3862324   13.8706103   16.9684759
| 29>     H       14.9664450   15.5415069   16.8987919
| 30>     H       16.7260483   13.0143296   16.6083380
| 31>     H       16.1561104   13.9965229   15.2465075
| 32>     H       17.1925172   19.1936670   15.2745184
| 33>     H       16.4341498   20.2381858   16.4868737
| 34>     H       15.6695299   18.7098751   16.0316337
| 35>     H       17.5265383   20.2471042   18.3439869
| 36>     H       19.8413374   17.4031544   19.9929753
| 37>     H       19.3574342   15.9407801   18.0642155
| 38>     H       18.8895144   13.9012655   19.0770640
| 39>     H       17.5523993   12.4837614   20.6186876
| 40>     H       15.6028932   13.4671225   21.8284924
| 41>     H       14.4404007   15.2869756   22.2078296
| 42>     H       16.3390817   17.2711049   19.9702985
| 43> *
| 44>
| 45>                          ****END OF INPUT****

CARTESIAN COORDINATES (ANGSTROEM)
---------------------------------
  C     15.255695   14.513702   17.149715
  C     16.453584   14.032740   16.303399
  O     17.599694   14.899886   16.450246
  C     17.484019   16.222154   16.128191
  O     16.874793   16.561996   15.128507
  C     17.750672   17.134513   17.295390
  C     17.404855   18.447924   17.289973
  C     16.636062   19.194141   16.220511
  N     17.820767   19.283558   18.331733
  C     18.751062   18.940470   19.277221
  S     19.340364   20.037047   20.366122
  N     19.176270   17.635964   19.266770
  C     18.548671   16.559255   18.478253
  C     17.706699   15.685566   19.402999
  C     18.041774   14.332793   19.602709
  C     17.285814   13.529166   20.472858
  C     16.188806   14.083347   21.154408
  C     15.856070   15.431538   20.963912
  O     14.796740   15.969172   21.619108
  C     16.608666   16.228227   20.095418
  H     15.485291   14.462874   18.217869
  H     14.386232   13.870610   16.968476
  H     14.966445   15.541507   16.898792
  H     16.726048   13.014330   16.608338
  H     16.156110   13.996523   15.246507
  H     17.192517   19.193667   15.274518
  H     16.434150   20.238186   16.486874
  H     15.669530   18.709875   16.031634
  H     17.526538   20.247104   18.343987
  H     19.841337   17.403154   19.992975
  H     19.357434   15.940780   18.064215
  H     18.889514   13.901265   19.077064
  H     17.552399   12.483761   20.618688
  H     15.602893   13.467122   21.828492
  H     14.440401   15.286976   22.207830
  H     16.339082   17.271105   19.970298

 Total Charge           Charge          ....    0
 Multiplicity           Mult            ....    1
 Number of Electrons    NEL             ....  154
 Basis Dimension        Dim             ....  828

ORBITAL ENERGIES
----------------

  NO   OCC          E(Eh)            E(eV)
   0   2.0000     -91.890504     -2500.4677
   1   2.0000     -20.598589      -560.5161
   2   2.0000     -20.587830      -560.2233
   3   2.0000     -20.545900      -559.0824
   4   2.0000     -15.630874      -425.3377
   5   2.0000     -15.609000      -424.7425
   6   2.0000     -11.394355      -310.0562
   7   2.0000     -11.385005      -309.8017
   8   2.0000     -11.337259      -308.5025
   9   2.0000     -11.316040      -307.9251
  10   2.0000     -11.310862      -307.7842
  11   2.0000     -11.297465      -307.4197
  12   2.0000     -11.261348      -306.4368
  13   2.0000     -11.260277      -306.4077
  14   2.0000     -11.257656      -306.3364
  15   2.0000     -11.253312      -306.2182
  16   2.0000     -11.245623      -306.0090
  17   2.0000     -11.240173      -305.8607
  18   2.0000     -11.239973      -305.8552
  19   2.0000     -11.221656      -305.3568
  20   2.0000      -8.895523      -242.0595
  21   2.0000      -6.577088      -178.9717
  22   2.0000      -6.575095      -178.9174
  23   2.0000      -6.574499      -178.9012
  24   2.0000      -1.448436       -39.4140
  25   2.0000      -1.418322       -38.5945
  26   2.0000      -1.351457       -36.7750
  27   2.0000      -1.341775       -36.5116
  28   2.0000      -1.239823       -33.7373
  29   2.0000      -1.159256       -31.5449
  30   2.0000      -1.120924       -30.5019
  31   2.0000      -1.043994       -28.4085
  32   2.0000      -1.031698       -28.0739
  33   2.0000      -1.017330       -27.6830
  34   2.0000      -0.997681       -27.1483
  35   2.0000      -0.985780       -26.8244
  36   2.0000      -0.924129       -25.1468
  37   2.0000      -0.894827       -24.3495
  38   2.0000      -0.847980       -23.0747
  39   2.0000      -0.840900       -22.8821
  40   2.0000      -0.836047       -22.7500
  41   2.0000      -0.815595       -22.1935
  42   2.0000      -0.750706       -20.4278
  43   2.0000      -0.733901       -19.9705
  44   2.0000      -0.722775       -19.6677
  45   2.0000      -0.697960       -18.9925
  46   2.0000      -0.690835       -18.7986
  47   2.0000      -0.676382       -18.4053
  48   2.0000      -0.668671       -18.1955
  49   2.0000      -0.665487       -18.1088
  50   2.0000      -0.649505       -17.6739
  51   2.0000      -0.643874       -17.5207
  52   2.0000      -0.636549       -17.3214
  53   2.0000      -0.613753       -16.7011
  54   2.0000      -0.608893       -16.5688
  55   2.0000      -0.601317       -16.3627
  56   2.0000      -0.600028       -16.3276
  57   2.0000      -0.579505       -15.7691
  58   2.0000      -0.571497       -15.5512
  59   2.0000      -0.565325       -15.3833
  60   2.0000      -0.551773       -15.0145
  61   2.0000      -0.543647       -14.7934
  62   2.0000      -0.536819       -14.6076
  63   2.0000      -0.530204       -14.4276
  64   2.0000      -0.526792       -14.3347
  65   2.0000      -0.515154       -14.0180
  66   2.0000      -0.503275       -13.6948
  67   2.0000      -0.501501       -13.6465
  68   2.0000      -0.475710       -12.9447
  69   2.0000      -0.465158       -12.6576
  70   2.0000      -0.452698       -12.3186
  71   2.0000      -0.444255       -12.0888
  72   2.0000      -0.357067        -9.7163
  73   2.0000      -0.351107        -9.5541
  74   2.0000      -0.329719        -8.9721
  75   2.0000      -0.324461        -8.8290
  76   2.0000      -0.317253        -8.6329
  77   0.0000       0.069246         1.8843
  78   0.0000       0.105507         2.8710
  79   0.0000       0.122123         3.3231
  80   0.0000       0.130011         3.5378
  81   0.0000       0.135392         3.6842

MULLIKEN ATOMIC CHARGES
-----------------------
   0 C :   -0.322068
   1 C :    0.032668
   2 O :   -0.385072
   3 C :    0.463720
   4 O :   -0.418904
   5 C :   -0.209967
   6 C :    0.150379
   7 C :   -0.270456
   8 N :   -0.123845
   9 C :    0.202791
  10 S :   -0.434649
  11 N :   -0.194987
  12 C :    0.033598
  13 C :    0.046566
  14 C :   -0.179041
  15 C :   -0.134546
  16 C :   -0.272846
  17 C :    0.299089
  18 O :   -0.358937
  19 C :   -0.243461
  20 H :    0.111555
  21 H :    0.112276
  22 H :    0.107134
  23 H :    0.113727
  24 H :    0.119839
  25 H :    0.134518
  26 H :    0.094821
  27 H :    0.128844
  28 H :    0.198547
  29 H :    0.191428
  30 H :    0.151315
  31 H :    0.155550
  32 H :    0.161286
  33 H :    0.131804
  34 H :    0.240963
  35 H :    0.166360
Sum of atomic charges:   -0.0000000

LOEWDIN ATOMIC CHARGES
----------------------
   0 C :    0.107853
   1 C :   -0.014752
   2 O :    0.286794
   3 C :   -0.418473
   4 O :    0.110285
   5 C :   -0.096623
   6 C :   -0.057983
   7 C :    0.130957
   8 N :    0.406823
   9 C :   -0.458229
  10 S :   -0.032120
  11 N :    0.396736
  12 C :   -0.052457
  13 C :   -0.039166
  14 C :    0.014910
  15 C :    0.038945
  16 C :   -0.002528
  17 C :   -0.191622
  18 O :    0.396529
  19 C :    0.032556
  20 H :   -0.028353
  21 H :   -0.024694
  22 H :   -0.028099
  23 H :   -0.023830
  24 H :   -0.028511
  25 H :   -0.003207
  26 H :   -0.023238
  27 H :   -0.006201
  28 H :   -0.057680
  29 H :   -0.065015
  30 H :   -0.006988
  31 H :   -0.028866
  32 H :   -0.020741
  33 H :   -0.035111
  34 H :   -0.153440
  35 H :   -0.024464

  Mayer bond orders larger than 0.100000
B(  0-C ,  1-C ) :   0.9565 B(  0-C , 20-H ) :   0.9704 B(  0-C , 21-H ) :   0.9782
B(  0-C , 22-H ) :   0.9734 B(  1-C ,  2-O ) :   0.8845 B(  1-C , 23-H ) :   0.9826
B(  1-C , 24-H ) :   0.9842 B(  2-O ,  3-C ) :   1.1104 B(  3-C ,  4-O ) :   1.9925
B(  3-C ,  5-C ) :   1.0685 B(  5-C ,  6-C ) :   1.6526 B(  5-C , 12-C ) :   0.9706
B(  6-C ,  7-C ) :   0.9704 B(  6-C ,  8-N ) :   1.1498 B(  7-C , 25-H ) :   0.9576
B(  7-C , 26-H ) :   0.9892 B(  7-C , 27-H ) :   0.9637 B(  8-N ,  9-C ) :   1.1782
B(  8-N , 28-H ) :   0.9483 B(  9-C , 10-S ) :   1.6173 B(  9-C , 11-N ) :   1.3005
B( 11-N , 12-C ) :   0.9848 B( 11-N , 29-H ) :   0.9538 B( 12-C , 13-C ) :   0.9367
B( 12-C , 30-H ) :   1.0041 B( 13-C , 14-C ) :   1.3627 B( 13-C , 19-C ) :   1.3780
B( 14-C , 15-C ) :   1.3863 B( 14-C , 31-H ) :   0.9690 B( 15-C , 16-C ) :   1.3620
B( 15-C , 32-H ) :   0.9715 B( 16-C , 17-C ) :   1.3308 B( 16-C , 33-H ) :   0.9848
B( 17-C , 18-O ) :   1.1135 B( 17-C , 19-C ) :   1.3784 B( 18-O , 34-H ) :   0.9796
B( 19-C , 35-H ) :   0.9565

MP2 TOTAL ENERGY:    -1274.336465013 Eh
FINAL SINGLE POINT ENERGY     -1274.336465012840

DIPOLE MOMENT
-------------
                                X             Y             Z
Electronic contribution:      9.70404       9.23295       5.82856
Nuclear contribution   :    -10.70765     -10.89950      -5.90478
                        -----------------------------------------
Total Dipole Moment    :     -1.00361      -1.66654      -0.07622
                        -----------------------------------------
Magnitude (a.u.)       :      1.94690
Magnitude (Debye)      :      4.94862

Rotational constants in cm-1:     0.011982     0.009570     0.006568
Rotational constants in MHz :   359.199135   286.891400   196.892366

                             ****ORCA TERMINATED NORMALLY****
TOTAL RUN TIME: 0 days 1 hours 48 minutes 44 seconds 474 msec
