                         Program Version 5.0.0 -  RELEASE  -
|  1> ! ri-mp2 cc-pvtz cc-pvtz/c TightSCF NoKeepInts
|  2>
|  3> %scf
|  4>   MaxCore 4096
|  5> end
|  6> *xyz  0  1
|  7>     C       14.9670658   16.1023079   17.3019453
|  8>     C       15.5230391   14.9766607   16.4070556
|  9>     O       16.9645578   14.8394218   16.2650944
| 10>     C       18.0505786   15.6532043   16.5054935
| 11>     O       19.1606368   15.1782234   16.3526225
| 12>     C       17.8964633   16.8249899   17.4089224
| 13>     C       17.4573501   18.0130099   16.9377857
| 14>     C       17.0286491   18.3112994   15.5162641
| 15>     N       17.4609524   19.1370327   17.7659438
| 16>     C       17.9758997   19.1663010   19.0358890
| 17>     S       17.9632661   20.5469209   19.9459085
| 18>     N       18.5078652   17.9940517   19.5153416
| 19>     C       18.5101731   16.6974736   18.8068866
| 20>     C       17.8625080   15.5860808   19.6333819
| 21>     C       18.3186335   14.2613863   19.4972978
| 22>     C       17.7382860   13.2202451   20.2402260
| 23>     C       16.6917177   13.5031069   21.1334261
| 24>     C       16.2345329   14.8195936   21.2764838
| 25>     O       15.2188549   15.0955875   22.1325290
| 26>     C       16.8142846   15.8547325   20.5358141
| 27>     H       15.4712434   16.1414818   18.2699790
| 28>     H       13.9068214   15.9093578   17.5066977
| 29>     H       15.0126510   17.0789331   16.8145538
| 30>     H       15.1413460   14.0215181   16.7911270
| 31>     H       15.0891142   15.1002161   15.4063998
| 32>     H       16.7175032   17.4087065   14.9770629
| 33>     H       17.8589784   18.7569954   14.9535203
| 34>     H       16.1861835   19.0133315   15.4875156
| 35>     H       17.1045913   20.0150799   17.4227922
| 36>     H       18.8727580   18.0446260   20.4581877
| 37>     H       19.5631949   16.4121104   18.6641890
| 38>     H       19.1244102   14.0353706   18.8016257
| 39>     H       18.0998464   12.2004934   20.1188424
| 40>     H       16.2396403   12.7014564   21.7080408
| 41>     H       14.9807560   14.2681467   22.5773886
| 42>     H       16.4326467   16.8625464   20.6617657
| 43> *
| 44>
| 45>                          ****END OF INPUT****

CARTESIAN COORDINATES (ANGSTROEM)
---------------------------------
  C     14.967066   16.102308   17.301945
  C     15.523039   14.976661   16.407056
  O     16.964558   14.839422   16.265094
  C     18.050579   15.653204   16.505494
  O     19.160637   15.178223   16.352622
  C     17.896463   16.824990   17.408922
  C     17.457350   18.013010   16.937786
  C     17.028649   18.311299   15.516264
  N     17.460952   19.137033   17.765944
  C     17.975900   19.166301   19.035889
  S     17.963266   20.546921   19.945909
  N     18.507865   17.994052   19.515342
  C     18.510173   16.697474   18.806887
  C     17.862508   15.586081   19.633382
  C     18.318634   14.261386   19.497298
  C     17.738286   13.220245   20.240226
  C     16.691718   13.503107   21.133426
  C     16.234533   14.819594   21.276484
  O     15.218855   15.095588   22.132529
  C     16.814285   15.854732   20.535814
  H     15.471243   16.141482   18.269979
  H     13.906821   15.909358   17.506698
  H     15.012651   17.078933   16.814554
  H     15.141346   14.021518   16.791127
  H     15.089114   15.100216   15.406400
  H     16.717503   17.408707   14.977063
  H     17.858978   18.756995   14.953520
  H     16.186183   19.013331   15.487516
  H     17.104591   20.015080   17.422792
  H     18.872758   18.044626   20.458188
  H     19.563195   16.412110   18.664189
  H     19.124410   14.035371   18.801626
  H     18.099846   12.200493   20.118842
  H     16.239640   12.701456   21.708041
  H     14.980756   14.268147   22.577389
  H     16.432647   16.862546   20.661766

 Total Charge           Charge          ....    0
 Multiplicity           Mult            ....    1
 Number of Electrons    NEL             ....  154
 Basis Dimension        Dim             ....  828

ORBITAL ENERGIES
----------------

  NO   OCC          E(Eh)            E(eV)
   0   2.0000     -91.889205     -2500.4324
   1   2.0000     -20.598924      -560.5252
   2   2.0000     -20.597757      -560.4935
   3   2.0000     -20.548938      -559.1650
   4   2.0000     -15.625310      -425.1863
   5   2.0000     -15.611354      -424.8065
   6   2.0000     -11.400524      -310.2240
   7   2.0000     -11.386153      -309.8330
   8   2.0000     -11.324707      -308.1610
   9   2.0000     -11.315847      -307.9199
  10   2.0000     -11.315839      -307.9196
  11   2.0000     -11.312917      -307.8401
  12   2.0000     -11.269383      -306.6555
  13   2.0000     -11.264717      -306.5285
  14   2.0000     -11.262134      -306.4583
  15   2.0000     -11.255936      -306.2896
  16   2.0000     -11.244710      -305.9841
  17   2.0000     -11.241287      -305.8910
  18   2.0000     -11.237478      -305.7873
  19   2.0000     -11.235949      -305.7457
  20   2.0000      -8.894325      -242.0269
  21   2.0000      -6.575918      -178.9398
  22   2.0000      -6.573888      -178.8846
  23   2.0000      -6.573317      -178.8691
  24   2.0000      -1.442495       -39.2523
  25   2.0000      -1.418722       -38.6054
  26   2.0000      -1.353793       -36.8386
  27   2.0000      -1.338636       -36.4261
  28   2.0000      -1.238954       -33.7137
  29   2.0000      -1.159915       -31.5629
  30   2.0000      -1.124800       -30.6074
  31   2.0000      -1.048202       -28.5230
  32   2.0000      -1.042409       -28.3654
  33   2.0000      -1.018581       -27.7170
  34   2.0000      -1.004601       -27.3366
  35   2.0000      -0.990041       -26.9404
  36   2.0000      -0.927454       -25.2373
  37   2.0000      -0.903376       -24.5821
  38   2.0000      -0.852517       -23.1982
  39   2.0000      -0.840172       -22.8622
  40   2.0000      -0.835001       -22.7215
  41   2.0000      -0.828885       -22.5551
  42   2.0000      -0.745502       -20.2861
  43   2.0000      -0.733207       -19.9516
  44   2.0000      -0.730669       -19.8825
  45   2.0000      -0.695875       -18.9357
  46   2.0000      -0.685232       -18.6461
  47   2.0000      -0.676322       -18.4037
  48   2.0000      -0.674566       -18.3559
  49   2.0000      -0.664003       -18.0684
  50   2.0000      -0.657296       -17.8859
  51   2.0000      -0.652821       -17.7642
  52   2.0000      -0.638456       -17.3733
  53   2.0000      -0.612611       -16.6700
  54   2.0000      -0.607127       -16.5208
  55   2.0000      -0.603239       -16.4150
  56   2.0000      -0.600250       -16.3336
  57   2.0000      -0.595307       -16.1991
  58   2.0000      -0.584660       -15.9094
  59   2.0000      -0.575698       -15.6656
  60   2.0000      -0.566349       -15.4111
  61   2.0000      -0.558561       -15.1992
  62   2.0000      -0.543413       -14.7870
  63   2.0000      -0.530471       -14.4349
  64   2.0000      -0.515901       -14.0384
  65   2.0000      -0.513427       -13.9710
  66   2.0000      -0.501801       -13.6547
  67   2.0000      -0.499887       -13.6026
  68   2.0000      -0.485906       -13.2222
  69   2.0000      -0.466403       -12.6915
  70   2.0000      -0.452891       -12.3238
  71   2.0000      -0.448953       -12.2166
  72   2.0000      -0.354553        -9.6479
  73   2.0000      -0.348497        -9.4831
  74   2.0000      -0.328953        -8.9513
  75   2.0000      -0.323320        -8.7980
  76   2.0000      -0.317789        -8.6475
  77   0.0000       0.092978         2.5301
  78   0.0000       0.106660         2.9024
  79   0.0000       0.111568         3.0359
  80   0.0000       0.126924         3.4538
  81   0.0000       0.130383         3.5479

MULLIKEN ATOMIC CHARGES
-----------------------
   0 C :   -0.344371
   1 C :    0.044207
   2 O :   -0.333747
   3 C :    0.388887
   4 O :   -0.379516
   5 C :   -0.192541
   6 C :    0.150151
   7 C :   -0.315142
   8 N :   -0.142177
   9 C :    0.214677
  10 S :   -0.444420
  11 N :   -0.238860
  12 C :    0.115585
  13 C :    0.012786
  14 C :   -0.218058
  15 C :   -0.134285
  16 C :   -0.275422
  17 C :    0.326809
  18 O :   -0.356712
  19 C :   -0.286420
  20 H :    0.130134
  21 H :    0.126402
  22 H :    0.096603
  23 H :    0.119748
  24 H :    0.100697
  25 H :    0.113486
  26 H :    0.152018
  27 H :    0.108123
  28 H :    0.195267
  29 H :    0.205696
  30 H :    0.166414
  31 H :    0.173215
  32 H :    0.164564
  33 H :    0.131775
  34 H :    0.241175
  35 H :    0.183253
Sum of atomic charges:    0.0000000

LOEWDIN ATOMIC CHARGES
----------------------
   0 C :    0.105369
   1 C :   -0.014386
   2 O :    0.295661
   3 C :   -0.419135
   4 O :    0.125413
   5 C :   -0.080483
   6 C :   -0.105955
   7 C :    0.123788
   8 N :    0.402122
   9 C :   -0.454237
  10 S :   -0.039739
  11 N :    0.398247
  12 C :   -0.041747
  13 C :   -0.041547
  14 C :    0.023039
  15 C :    0.045191
  16 C :   -0.001385
  17 C :   -0.193376
  18 O :    0.395180
  19 C :    0.023958
  20 H :   -0.029157
  21 H :   -0.019427
  22 H :   -0.033753
  23 H :   -0.017969
  24 H :   -0.029827
  25 H :   -0.011496
  26 H :   -0.006370
  27 H :   -0.017648
  28 H :   -0.059327
  29 H :   -0.064299
  30 H :   -0.002936
  31 H :   -0.021259
  32 H :   -0.018215
  33 H :   -0.035027
  34 H :   -0.153279
  35 H :   -0.025987

  Mayer bond orders larger than 0.100000
B(  0-C ,  1-C ) :   0.9568 B(  0-C , 20-H ) :   0.9656 B(  0-C , 21-H ) :   0.9786
B(  0-C , 22-H ) :   0.9753 B(  1-C ,  2-O ) :   0.9149 B(  1-C , 23-H ) :   0.9783
B(  1-C , 24-H ) :   0.9796 B(  2-O ,  3-C ) :   1.1492 B(  3-C ,  4-O ) :   2.0839
B(  3-C ,  5-C ) :   0.9298 B(  5-C ,  6-C ) :   1.6975 B(  5-C , 12-C ) :   0.9418
B(  6-C ,  7-C ) :   0.9433 B(  6-C ,  8-N ) :   1.1097 B(  7-C , 25-H ) :   0.9812
B(  7-C , 26-H ) :   0.9638 B(  7-C , 27-H ) :   0.9748 B(  8-N ,  9-C ) :   1.2034
B(  8-N , 28-H ) :   0.9518 B(  9-C , 10-S ) :   1.6021 B(  9-C , 11-N ) :   1.2878
B( 11-N , 12-C ) :   0.9852 B( 11-N , 29-H ) :   0.9444 B( 12-C , 13-C ) :   0.9607
B( 12-C , 30-H ) :   0.9935 B( 13-C , 14-C ) :   1.3904 B( 13-C , 19-C ) :   1.3348
B( 14-C , 15-C ) :   1.4050 B( 14-C , 31-H ) :   0.9596 B( 15-C , 16-C ) :   1.3557
B( 15-C , 32-H ) :   0.9695 B( 16-C , 17-C ) :   1.3345 B( 16-C , 33-H ) :   0.9848
B( 17-C , 18-O ) :   1.1077 B( 17-C , 19-C ) :   1.3641 B( 18-O , 34-H ) :   0.9795
B( 19-C , 35-H ) :   0.9569

MP2 TOTAL ENERGY:    -1274.315861211 Eh
FINAL SINGLE POINT ENERGY     -1274.315861210662

DIPOLE MOMENT
-------------
                                X             Y             Z
Electronic contribution:      9.11860       5.36653       6.89592
Nuclear contribution   :    -10.69182      -6.59504      -7.55425
                        -----------------------------------------
Total Dipole Moment    :     -1.57322      -1.22851      -0.65833
                        -----------------------------------------
Magnitude (a.u.)       :      2.10182
Magnitude (Debye)      :      5.34240

Rotational constants in cm-1:     0.012079     0.009286     0.006694
Rotational constants in MHz :   362.111210   278.386057   200.693136

                             ****ORCA TERMINATED NORMALLY****
TOTAL RUN TIME: 0 days 2 hours 17 minutes 0 seconds 723 msec
