                         Program Version 4.2.0 -  RELEASE  -
|  1> ! ri-mp2 cc-pvtz cc-pvtz/c TightSCF  NoKeepInts
|  2>
|  3> %scf
|  4>   MaxCore 4096
|  5> end
|  6> *xyz  0  1
|  7>     C       15.0895238   13.8792081   15.7862048
|  8>     C       15.6150866   15.0850838   14.9741349
|  9>     O       16.2926840   16.0664382   15.7938786
| 10>     C       17.1940767   15.7574171   16.7752960
| 11>     O       17.7017689   14.6536974   16.8828299
| 12>     C       17.6568563   16.9264162   17.6028812
| 13>     C       17.2750077   18.2215561   17.4347727
| 14>     C       16.3073089   18.7961224   16.4198443
| 15>     N       17.8367444   19.2203906   18.2380534
| 16>     C       18.8726980   19.0346288   19.1143970
| 17>     S       19.5670755   20.2982449   19.9248768
| 18>     N       19.3019223   17.7438024   19.2852014
| 19>     C       18.6321037   16.5545977   18.7273111
| 20>     C       17.9254780   15.7718932   19.8315276
| 21>     C       18.1950907   14.4034999   20.0186071
| 22>     C       17.5458587   13.6766294   21.0305525
| 23>     C       16.6178070   14.3227956   21.8646446
| 24>     C       16.3434566   15.6846179   21.6797570
| 25>     O       15.4431942   16.3101000   22.4795756
| 26>     C       16.9908042   16.4052828   20.6712379
| 27>     H       15.8945281   13.1806142   16.0440338
| 28>     H       14.3524635   13.3205424   15.1970165
| 29>     H       14.6025410   14.2115427   16.7114304
| 30>     H       16.3032354   14.7149095   14.2027253
| 31>     H       14.7746392   15.5720495   14.4632320
| 32>     H       16.6569418   18.6034440   15.3979256
| 33>     H       16.1803537   19.8808263   16.5200003
| 34>     H       15.3143600   18.3430447   16.5313574
| 35>     H       17.5356843   20.1753104   18.1274156
| 36>     H       20.0455422   17.6271710   19.9614037
| 37>     H       19.4118735   15.9108228   18.2950828
| 38>     H       18.8994804   13.8971990   19.3629711
| 39>     H       17.7589484   12.6170941   21.1599462
| 40>     H       16.1126650   13.7647834   22.6458746
| 41>     H       15.1333101   15.6611737   23.1288819
| 42>     H       16.7658874   17.4590497   20.5491185
| 43> *
| 44>
| 45>                          ****END OF INPUT****

CARTESIAN COORDINATES (ANGSTROEM)
---------------------------------
  C     15.089524   13.879208   15.786205
  C     15.615087   15.085084   14.974135
  O     16.292684   16.066438   15.793879
  C     17.194077   15.757417   16.775296
  O     17.701769   14.653697   16.882830
  C     17.656856   16.926416   17.602881
  C     17.275008   18.221556   17.434773
  C     16.307309   18.796122   16.419844
  N     17.836744   19.220391   18.238053
  C     18.872698   19.034629   19.114397
  S     19.567076   20.298245   19.924877
  N     19.301922   17.743802   19.285201
  C     18.632104   16.554598   18.727311
  C     17.925478   15.771893   19.831528
  C     18.195091   14.403500   20.018607
  C     17.545859   13.676629   21.030552
  C     16.617807   14.322796   21.864645
  C     16.343457   15.684618   21.679757
  O     15.443194   16.310100   22.479576
  C     16.990804   16.405283   20.671238
  H     15.894528   13.180614   16.044034
  H     14.352464   13.320542   15.197017
  H     14.602541   14.211543   16.711430
  H     16.303235   14.714909   14.202725
  H     14.774639   15.572049   14.463232
  H     16.656942   18.603444   15.397926
  H     16.180354   19.880826   16.520000
  H     15.314360   18.343045   16.531357
  H     17.535684   20.175310   18.127416
  H     20.045542   17.627171   19.961404
  H     19.411873   15.910823   18.295083
  H     18.899480   13.897199   19.362971
  H     17.758948   12.617094   21.159946
  H     16.112665   13.764783   22.645875
  H     15.133310   15.661174   23.128882
  H     16.765887   17.459050   20.549118

 Total Charge           Charge          ....    0
 Multiplicity           Mult            ....    1
 Number of Electrons    NEL             ....  154
 Basis Dimension        Dim             ....  828

ORBITAL ENERGIES
----------------

  NO   OCC          E(Eh)            E(eV)
   0   2.0000     -91.887707     -2500.3916
   1   2.0000     -20.602236      -560.6154
   2   2.0000     -20.590868      -560.3060
   3   2.0000     -20.543637      -559.0208
   4   2.0000     -15.628164      -425.2640
   5   2.0000     -15.606140      -424.6647
   6   2.0000     -11.397492      -310.1415
   7   2.0000     -11.382288      -309.7278
   8   2.0000     -11.336859      -308.4916
   9   2.0000     -11.306588      -307.6679
  10   2.0000     -11.305247      -307.6314
  11   2.0000     -11.304285      -307.6052
  12   2.0000     -11.260653      -306.4180
  13   2.0000     -11.258238      -306.3522
  14   2.0000     -11.252477      -306.1955
  15   2.0000     -11.246667      -306.0374
  16   2.0000     -11.236366      -305.7571
  17   2.0000     -11.232551      -305.6532
  18   2.0000     -11.229309      -305.5650
  19   2.0000     -11.225546      -305.4626
  20   2.0000      -8.892768      -241.9845
  21   2.0000      -6.574345      -178.8970
  22   2.0000      -6.572340      -178.8425
  23   2.0000      -6.571754      -178.8265
  24   2.0000      -1.449638       -39.4466
  25   2.0000      -1.410608       -38.3846
  26   2.0000      -1.356270       -36.9060
  27   2.0000      -1.339097       -36.4387
  28   2.0000      -1.236531       -33.6477
  29   2.0000      -1.151131       -31.3239
  30   2.0000      -1.118282       -30.4300
  31   2.0000      -1.041317       -28.3357
  32   2.0000      -1.033998       -28.1365
  33   2.0000      -1.008573       -27.4447
  34   2.0000      -0.996651       -27.1203
  35   2.0000      -0.982036       -26.7226
  36   2.0000      -0.920821       -25.0568
  37   2.0000      -0.897055       -24.4101
  38   2.0000      -0.847607       -23.0646
  39   2.0000      -0.835026       -22.7222
  40   2.0000      -0.826930       -22.5019
  41   2.0000      -0.816245       -22.2112
  42   2.0000      -0.746159       -20.3040
  43   2.0000      -0.732044       -19.9199
  44   2.0000      -0.723909       -19.6986
  45   2.0000      -0.689577       -18.7643
  46   2.0000      -0.684719       -18.6321
  47   2.0000      -0.678518       -18.4634
  48   2.0000      -0.671170       -18.2635
  49   2.0000      -0.658675       -17.9235
  50   2.0000      -0.649062       -17.6619
  51   2.0000      -0.643522       -17.5111
  52   2.0000      -0.631710       -17.1897
  53   2.0000      -0.612778       -16.6745
  54   2.0000      -0.599779       -16.3208
  55   2.0000      -0.598665       -16.2905
  56   2.0000      -0.594368       -16.1736
  57   2.0000      -0.581358       -15.8196
  58   2.0000      -0.572594       -15.5811
  59   2.0000      -0.565745       -15.3947
  60   2.0000      -0.557988       -15.1836
  61   2.0000      -0.541360       -14.7312
  62   2.0000      -0.538564       -14.6551
  63   2.0000      -0.523712       -14.2509
  64   2.0000      -0.515783       -14.0352
  65   2.0000      -0.510669       -13.8960
  66   2.0000      -0.501417       -13.6442
  67   2.0000      -0.494766       -13.4633
  68   2.0000      -0.479024       -13.0349
  69   2.0000      -0.463612       -12.6155
  70   2.0000      -0.455481       -12.3943
  71   2.0000      -0.449201       -12.2234
  72   2.0000      -0.353761        -9.6263
  73   2.0000      -0.343218        -9.3394
  74   2.0000      -0.326804        -8.8928
  75   2.0000      -0.315160        -8.5759
  76   2.0000      -0.312663        -8.5080
  77   0.0000       0.075781         2.0621
  78   0.0000       0.114399         3.1130
  79   0.0000       0.122145         3.3237
  80   0.0000       0.136708         3.7200
  81   0.0000       0.140690         3.8284

MULLIKEN ATOMIC CHARGES
-----------------------
   0 C :   -0.306570
   1 C :    0.044953
   2 O :   -0.348902
   3 C :    0.460901
   4 O :   -0.437545
   5 C :   -0.179346
   6 C :    0.142174
   7 C :   -0.280983
   8 N :   -0.119972
   9 C :    0.200975
  10 S :   -0.439323
  11 N :   -0.196651
  12 C :    0.034404
  13 C :    0.059958
  14 C :   -0.161545
  15 C :   -0.134068
  16 C :   -0.278882
  17 C :    0.311560
  18 O :   -0.359333
  19 C :   -0.274829
  20 H :    0.129935
  21 H :    0.095998
  22 H :    0.097050
  23 H :    0.094300
  24 H :    0.102968
  25 H :    0.128451
  26 H :    0.101176
  27 H :    0.124742
  28 H :    0.196571
  29 H :    0.193455
  30 H :    0.154086
  31 H :    0.153342
  32 H :    0.158686
  33 H :    0.127728
  34 H :    0.239983
  35 H :    0.164552
Sum of atomic charges:   -0.0000000

LOEWDIN ATOMIC CHARGES
----------------------
   0 C :    0.104791
   1 C :   -0.011231
   2 O :    0.298444
   3 C :   -0.414171
   4 O :    0.106861
   5 C :   -0.090562
   6 C :   -0.063296
   7 C :    0.124578
   8 N :    0.404980
   9 C :   -0.459496
  10 S :   -0.036101
  11 N :    0.398290
  12 C :   -0.046943
  13 C :   -0.038680
  14 C :    0.022379
  15 C :    0.040614
  16 C :   -0.002490
  17 C :   -0.192809
  18 O :    0.392837
  19 C :    0.027974
  20 H :   -0.024553
  21 H :   -0.027766
  22 H :   -0.027455
  23 H :   -0.028673
  24 H :   -0.025365
  25 H :   -0.008228
  26 H :   -0.021682
  27 H :   -0.010045
  28 H :   -0.059423
  29 H :   -0.063530
  30 H :   -0.005652
  31 H :   -0.025359
  32 H :   -0.021395
  33 H :   -0.036526
  34 H :   -0.154991
  35 H :   -0.025325

  Mayer bond orders larger than 0.100000
B(  0-C ,  1-C ) :   0.9639 B(  0-C , 20-H ) :   0.9713 B(  0-C , 21-H ) :   0.9767
B(  0-C , 22-H ) :   0.9754 B(  1-C ,  2-O ) :   0.9023 B(  1-C , 23-H ) :   0.9807
B(  1-C , 24-H ) :   0.9838 B(  2-O ,  3-C ) :   1.1640 B(  3-C ,  4-O ) :   1.9567
B(  3-C ,  5-C ) :   1.0663 B(  5-C ,  6-C ) :   1.6385 B(  5-C , 12-C ) :   0.9676
B(  6-C ,  7-C ) :   0.9579 B(  6-C ,  8-N ) :   1.1538 B(  7-C , 25-H ) :   0.9629
B(  7-C , 26-H ) :   0.9919 B(  7-C , 27-H ) :   0.9653 B(  8-N ,  9-C ) :   1.1764
B(  8-N , 28-H ) :   0.9486 B(  9-C , 10-S ) :   1.6108 B(  9-C , 11-N ) :   1.3058
B( 11-N , 12-C ) :   0.9926 B( 11-N , 29-H ) :   0.9520 B( 12-C , 13-C ) :   0.9453
B( 12-C , 30-H ) :   1.0016 B( 13-C , 14-C ) :   1.3751 B( 13-C , 19-C ) :   1.3688
B( 14-C , 15-C ) :   1.3948 B( 14-C , 31-H ) :   0.9649 B( 15-C , 16-C ) :   1.3620
B( 15-C , 32-H ) :   0.9715 B( 16-C , 17-C ) :   1.3319 B( 16-C , 33-H ) :   0.9861
B( 17-C , 18-O ) :   1.1078 B( 17-C , 19-C ) :   1.3793 B( 18-O , 34-H ) :   0.9807
B( 19-C , 35-H ) :   0.9583

MP2 TOTAL ENERGY:    -1274.343197687 Eh
FINAL SINGLE POINT ENERGY     -1274.343197686907

DIPOLE MOMENT
-------------
                                X             Y             Z
Electronic contribution:     10.60226      10.06239      10.05024
Nuclear contribution   :    -12.23203     -11.23873     -11.12421
                        -----------------------------------------
Total Dipole Moment    :     -1.62977      -1.17634      -1.07397
                        -----------------------------------------
Magnitude (a.u.)       :      2.27889
Magnitude (Debye)      :      5.79247

Rotational constants in cm-1:     0.010570     0.009037     0.005852
Rotational constants in MHz :   316.888196   270.917344   175.425938

                             ****ORCA TERMINATED NORMALLY****
TOTAL RUN TIME: 0 days 1 hours 36 minutes 36 seconds 512 msec
