                         Program Version 4.2.0 -  RELEASE  -
|  1> ! ri-mp2 cc-pvtz cc-pvtz/c TightSCF  NoKeepInts
|  2>
|  3> %scf
|  4>   MaxCore 4096
|  5> end
|  6> *xyz  0  1
|  7>     C       15.3351940   14.1357002   15.0409756
|  8>     C       15.9053044   14.0102468   16.4711559
|  9>     O       16.8347943   15.0672543   16.8019509
| 10>     C       16.5558321   16.4053893   16.6914326
| 11>     O       15.5921798   16.8449211   16.0898742
| 12>     C       17.4383441   17.2410058   17.5796240
| 13>     C       17.3600062   18.5960649   17.6174449
| 14>     C       16.4260257   19.4849041   16.8238677
| 15>     N       18.2335878   19.3270929   18.4282777
| 16>     C       19.2781431   18.7942707   19.1351750
| 17>     S       20.3308151   19.7419077   19.9895041
| 18>     N       19.4107801   17.4299696   19.0950872
| 19>     C       18.4491815   16.5016062   18.4730558
| 20>     C       17.7579712   15.6774537   19.5559958
| 21>     C       18.0097134   14.2972727   19.6713258
| 22>     C       17.3733941   13.5349082   20.6653776
| 23>     C       16.4802266   14.1577941   21.5537583
| 24>     C       16.2309678   15.5328298   21.4449439
| 25>     O       15.3704782   16.1373565   22.3023507
| 26>     C       16.8654222   16.2887545   20.4544519
| 27>     H       14.5399253   14.8888221   14.9875300
| 28>     H       14.9000873   13.1808653   14.7225503
| 29>     H       16.1236848   14.4053395   14.3275489
| 30>     H       15.0752987   14.0097624   17.1901087
| 31>     H       16.4248104   13.0481234   16.5648514
| 32>     H       15.3813300   19.2785461   17.0899450
| 33>     H       16.5327329   19.2955549   15.7482331
| 34>     H       16.6057207   20.5535342   16.9896950
| 35>     H       18.1516875   20.3304223   18.4685858
| 36>     H       20.1678113   17.0633137   19.6574233
| 37>     H       19.0242926   15.8194681   17.8313207
| 38>     H       18.6968834   13.8127222   18.9829689
| 39>     H       17.5735999   12.4679165   20.7457866
| 40>     H       15.9869371   13.5737037   22.3236822
| 41>     H       15.0595986   15.4644673   22.9262838
| 42>     H       16.6642381   17.3527348   20.3918567
| 43> *
| 44>
| 45>                          ****END OF INPUT****

CARTESIAN COORDINATES (ANGSTROEM)
---------------------------------
  C     15.335194   14.135700   15.040976
  C     15.905304   14.010247   16.471156
  O     16.834794   15.067254   16.801951
  C     16.555832   16.405389   16.691433
  O     15.592180   16.844921   16.089874
  C     17.438344   17.241006   17.579624
  C     17.360006   18.596065   17.617445
  C     16.426026   19.484904   16.823868
  N     18.233588   19.327093   18.428278
  C     19.278143   18.794271   19.135175
  S     20.330815   19.741908   19.989504
  N     19.410780   17.429970   19.095087
  C     18.449182   16.501606   18.473056
  C     17.757971   15.677454   19.555996
  C     18.009713   14.297273   19.671326
  C     17.373394   13.534908   20.665378
  C     16.480227   14.157794   21.553758
  C     16.230968   15.532830   21.444944
  O     15.370478   16.137356   22.302351
  C     16.865422   16.288754   20.454452
  H     14.539925   14.888822   14.987530
  H     14.900087   13.180865   14.722550
  H     16.123685   14.405340   14.327549
  H     15.075299   14.009762   17.190109
  H     16.424810   13.048123   16.564851
  H     15.381330   19.278546   17.089945
  H     16.532733   19.295555   15.748233
  H     16.605721   20.553534   16.989695
  H     18.151688   20.330422   18.468586
  H     20.167811   17.063314   19.657423
  H     19.024293   15.819468   17.831321
  H     18.696883   13.812722   18.982969
  H     17.573600   12.467916   20.745787
  H     15.986937   13.573704   22.323682
  H     15.059599   15.464467   22.926284
  H     16.664238   17.352735   20.391857

 Total Charge           Charge          ....    0
 Multiplicity           Mult            ....    1
 Number of Electrons    NEL             ....  154
 Basis Dimension        Dim             ....  828

ORBITAL ENERGIES
----------------

  NO   OCC          E(Eh)            E(eV)
   0   2.0000     -91.888120     -2500.4029
   1   2.0000     -20.598643      -560.5176
   2   2.0000     -20.595725      -560.4382
   3   2.0000     -20.541982      -558.9758
   4   2.0000     -15.628231      -425.2658
   5   2.0000     -15.607331      -424.6971
   6   2.0000     -11.396928      -310.1262
   7   2.0000     -11.383126      -309.7506
   8   2.0000     -11.334899      -308.4383
   9   2.0000     -11.312779      -307.8364
  10   2.0000     -11.307974      -307.7056
  11   2.0000     -11.301365      -307.5258
  12   2.0000     -11.258657      -306.3636
  13   2.0000     -11.258372      -306.3559
  14   2.0000     -11.254316      -306.2455
  15   2.0000     -11.251522      -306.1695
  16   2.0000     -11.241960      -305.9093
  17   2.0000     -11.237284      -305.7820
  18   2.0000     -11.237139      -305.7781
  19   2.0000     -11.220845      -305.3347
  20   2.0000      -8.893188      -241.9959
  21   2.0000      -6.574764      -178.9084
  22   2.0000      -6.572759      -178.8539
  23   2.0000      -6.572173      -178.8379
  24   2.0000      -1.446502       -39.3613
  25   2.0000      -1.415362       -38.5140
  26   2.0000      -1.355168       -36.8760
  27   2.0000      -1.339273       -36.4435
  28   2.0000      -1.237678       -33.6789
  29   2.0000      -1.156457       -31.4688
  30   2.0000      -1.119148       -30.4536
  31   2.0000      -1.041673       -28.3454
  32   2.0000      -1.035372       -28.1739
  33   2.0000      -1.014032       -27.5932
  34   2.0000      -0.994401       -27.0590
  35   2.0000      -0.982862       -26.7450
  36   2.0000      -0.921610       -25.0783
  37   2.0000      -0.895309       -24.3626
  38   2.0000      -0.846541       -23.0356
  39   2.0000      -0.837144       -22.7798
  40   2.0000      -0.833033       -22.6680
  41   2.0000      -0.818669       -22.2771
  42   2.0000      -0.749677       -20.3997
  43   2.0000      -0.730232       -19.8706
  44   2.0000      -0.720192       -19.5974
  45   2.0000      -0.694838       -18.9075
  46   2.0000      -0.687729       -18.7141
  47   2.0000      -0.679816       -18.4987
  48   2.0000      -0.668706       -18.1964
  49   2.0000      -0.653794       -17.7906
  50   2.0000      -0.650970       -17.7138
  51   2.0000      -0.644567       -17.5395
  52   2.0000      -0.633402       -17.2357
  53   2.0000      -0.606245       -16.4968
  54   2.0000      -0.603547       -16.4234
  55   2.0000      -0.598280       -16.2800
  56   2.0000      -0.597808       -16.2672
  57   2.0000      -0.581417       -15.8212
  58   2.0000      -0.573896       -15.6165
  59   2.0000      -0.570268       -15.5178
  60   2.0000      -0.561935       -15.2910
  61   2.0000      -0.538330       -14.6487
  62   2.0000      -0.535651       -14.5758
  63   2.0000      -0.524139       -14.2625
  64   2.0000      -0.520501       -14.1635
  65   2.0000      -0.512299       -13.9404
  66   2.0000      -0.502119       -13.6633
  67   2.0000      -0.498918       -13.5763
  68   2.0000      -0.483638       -13.1604
  69   2.0000      -0.463500       -12.6125
  70   2.0000      -0.455366       -12.3911
  71   2.0000      -0.440411       -11.9842
  72   2.0000      -0.353353        -9.6152
  73   2.0000      -0.348370        -9.4796
  74   2.0000      -0.327508        -8.9119
  75   2.0000      -0.320370        -8.7177
  76   2.0000      -0.315212        -8.5774
  77   0.0000       0.076608         2.0846
  78   0.0000       0.108046         2.9401
  79   0.0000       0.125112         3.4045
  80   0.0000       0.133152         3.6232
  81   0.0000       0.137752         3.7484

MULLIKEN ATOMIC CHARGES
-----------------------
   0 C :   -0.293101
   1 C :    0.050611
   2 O :   -0.363023
   3 C :    0.465601
   4 O :   -0.433267
   5 C :   -0.208280
   6 C :    0.147435
   7 C :   -0.274007
   8 N :   -0.120290
   9 C :    0.212124
  10 S :   -0.441134
  11 N :   -0.203930
  12 C :    0.052516
  13 C :    0.072799
  14 C :   -0.189951
  15 C :   -0.129906
  16 C :   -0.279594
  17 C :    0.315947
  18 O :   -0.356686
  19 C :   -0.270262
  20 H :    0.125166
  21 H :    0.094101
  22 H :    0.094113
  23 H :    0.091017
  24 H :    0.101014
  25 H :    0.132566
  26 H :    0.129148
  27 H :    0.095175
  28 H :    0.197137
  29 H :    0.194206
  30 H :    0.149134
  31 H :    0.149145
  32 H :    0.159701
  33 H :    0.129589
  34 H :    0.240560
  35 H :    0.164626
Sum of atomic charges:    0.0000000

LOEWDIN ATOMIC CHARGES
----------------------
   0 C :    0.103485
   1 C :   -0.010781
   2 O :    0.298000
   3 C :   -0.412383
   4 O :    0.106120
   5 C :   -0.093499
   6 C :   -0.059532
   7 C :    0.130742
   8 N :    0.406377
   9 C :   -0.456669
  10 S :   -0.036359
  11 N :    0.396374
  12 C :   -0.052658
  13 C :   -0.037723
  14 C :    0.013774
  15 C :    0.038688
  16 C :   -0.002369
  17 C :   -0.189503
  18 O :    0.395122
  19 C :    0.031273
  20 H :   -0.026276
  21 H :   -0.029665
  22 H :   -0.027171
  23 H :   -0.028206
  24 H :   -0.024790
  25 H :   -0.004759
  26 H :   -0.004529
  27 H :   -0.023522
  28 H :   -0.057741
  29 H :   -0.064770
  30 H :   -0.011022
  31 H :   -0.030605
  32 H :   -0.021615
  33 H :   -0.035841
  34 H :   -0.154080
  35 H :   -0.023888

  Mayer bond orders larger than 0.100000
B(  0-C ,  1-C ) :   0.9742 B(  0-C , 20-H ) :   0.9717 B(  0-C , 21-H ) :   0.9781
B(  0-C , 22-H ) :   0.9757 B(  1-C ,  2-O ) :   0.8962 B(  1-C , 23-H ) :   0.9749
B(  1-C , 24-H ) :   0.9835 B(  2-O ,  3-C ) :   1.1484 B(  3-C ,  4-O ) :   1.9642
B(  3-C ,  5-C ) :   1.0641 B(  5-C ,  6-C ) :   1.6571 B(  5-C , 12-C ) :   0.9742
B(  6-C ,  7-C ) :   0.9677 B(  6-C ,  8-N ) :   1.1631 B(  7-C , 25-H ) :   0.9599
B(  7-C , 26-H ) :   0.9609 B(  7-C , 27-H ) :   0.9909 B(  8-N ,  9-C ) :   1.1828
B(  8-N , 28-H ) :   0.9481 B(  9-C , 10-S ) :   1.6062 B(  9-C , 11-N ) :   1.3056
B( 11-N , 12-C ) :   0.9855 B( 11-N , 29-H ) :   0.9518 B( 12-C , 13-C ) :   0.9365
B( 12-C , 30-H ) :   1.0025 B( 13-C , 14-C ) :   1.3536 B( 13-C , 19-C ) :   1.3837
B( 14-C , 15-C ) :   1.3917 B( 14-C , 31-H ) :   0.9719 B( 15-C , 16-C ) :   1.3641
B( 15-C , 32-H ) :   0.9708 B( 16-C , 17-C ) :   1.3317 B( 16-C , 33-H ) :   0.9852
B( 17-C , 18-O ) :   1.1102 B( 17-C , 19-C ) :   1.3726 B( 18-O , 34-H ) :   0.9800
B( 19-C , 35-H ) :   0.9583

MP2 TOTAL ENERGY:    -1274.342142717 Eh
FINAL SINGLE POINT ENERGY     -1274.342142716588

DIPOLE MOMENT
-------------
                                X             Y             Z
Electronic contribution:      9.96206       9.69303       9.85387
Nuclear contribution   :    -11.02460     -11.41584     -10.22234
                        -----------------------------------------
Total Dipole Moment    :     -1.06254      -1.72280      -0.36847
                        -----------------------------------------
Magnitude (a.u.)       :      2.05738
Magnitude (Debye)      :      5.22945

Rotational constants in cm-1:     0.011194     0.008784     0.006036
Rotational constants in MHz :   335.593200   263.344611   180.961327

                             ****ORCA TERMINATED NORMALLY****
TOTAL RUN TIME: 0 days 1 hours 44 minutes 0 seconds 530 msec
