                         Program Version 5.0.0 -  RELEASE  -
|  1> ! ri-mp2 cc-pvtz cc-pvtz/c TightSCF NoKeepInts
|  2>
|  3> %scf
|  4>   MaxCore 4096
|  5> end
|  6> *xyz  0  1
|  7>     C       15.0739743   14.6884891   17.1619025
|  8>     C       15.6832773   14.8298214   15.7521686
|  9>     O       16.5692061   15.9647026   15.7295695
| 10>     C       17.7400964   15.9074613   16.4288206
| 11>     O       18.3593393   14.8626425   16.5457719
| 12>     C       17.8935417   17.0312549   17.4112535
| 13>     C       17.3677261   18.2718766   17.2441189
| 14>     C       16.5691697   18.7883813   16.0651765
| 15>     N       17.6132957   19.2646047   18.1981476
| 16>     C       18.4827885   19.1412819   19.2498795
| 17>     S       18.8116024   20.4075219   20.2618041
| 18>     N       19.0670793   17.9114391   19.4196909
| 19>     C       18.7090937   16.6959847   18.6642899
| 20>     C       17.9512847   15.7161184   19.5560396
| 21>     C       18.4001904   14.3905216   19.7012621
| 22>     C       17.6958520   13.4796697   20.5062972
| 23>     C       16.5308431   13.8965233   21.1723239
| 24>     C       16.0784352   15.2149963   21.0280067
| 25>     O       14.9481230   15.6179379   21.6612606
| 26>     C       16.7817823   16.1193812   20.2264569
| 27>     H       15.8386740   14.3938434   17.8914931
| 28>     H       14.2944599   13.9172799   17.1659747
| 29>     H       14.6241672   15.6331730   17.4916123
| 30>     H       16.2162617   13.9106695   15.4722413
| 31>     H       14.8757154   14.9889267   15.0262606
| 32>     H       15.5457995   18.3935500   16.0888738
| 33>     H       17.0268971   18.4798139   15.1169748
| 34>     H       16.5039929   19.8830775   16.0474418
| 35>     H       17.1944568   20.1745489   18.0901241
| 36>     H       19.6808990   17.8384213   20.2208373
| 37>     H       19.6438572   16.2166159   18.3392672
| 38>     H       19.2894624   14.0600382   19.1699086
| 39>     H       18.0504856   12.4552316   20.6047678
| 40>     H       15.9822755   13.1953713   21.7923674
| 41>     H       14.6387234   14.8758047   22.2020507
| 42>     H       16.4141713   17.1350234   20.1295632
| 43> *
| 44>
| 45>                          ****END OF INPUT****

CARTESIAN COORDINATES (ANGSTROEM)
---------------------------------
  C     15.073974   14.688489   17.161903
  C     15.683277   14.829821   15.752169
  O     16.569206   15.964703   15.729570
  C     17.740096   15.907461   16.428821
  O     18.359339   14.862642   16.545772
  C     17.893542   17.031255   17.411254
  C     17.367726   18.271877   17.244119
  C     16.569170   18.788381   16.065176
  N     17.613296   19.264605   18.198148
  C     18.482788   19.141282   19.249879
  S     18.811602   20.407522   20.261804
  N     19.067079   17.911439   19.419691
  C     18.709094   16.695985   18.664290
  C     17.951285   15.716118   19.556040
  C     18.400190   14.390522   19.701262
  C     17.695852   13.479670   20.506297
  C     16.530843   13.896523   21.172324
  C     16.078435   15.214996   21.028007
  O     14.948123   15.617938   21.661261
  C     16.781782   16.119381   20.226457
  H     15.838674   14.393843   17.891493
  H     14.294460   13.917280   17.165975
  H     14.624167   15.633173   17.491612
  H     16.216262   13.910669   15.472241
  H     14.875715   14.988927   15.026261
  H     15.545799   18.393550   16.088874
  H     17.026897   18.479814   15.116975
  H     16.503993   19.883077   16.047442
  H     17.194457   20.174549   18.090124
  H     19.680899   17.838421   20.220837
  H     19.643857   16.216616   18.339267
  H     19.289462   14.060038   19.169909
  H     18.050486   12.455232   20.604768
  H     15.982276   13.195371   21.792367
  H     14.638723   14.875805   22.202051
  H     16.414171   17.135023   20.129563

 Total Charge           Charge          ....    0
 Multiplicity           Mult            ....    1
 Number of Electrons    NEL             ....  154
 Basis Dimension        Dim             ....  828

ORBITAL ENERGIES
----------------

  NO   OCC          E(Eh)            E(eV)
   0   2.0000     -91.888781     -2500.4208
   1   2.0000     -20.594715      -560.4107
   2   2.0000     -20.591929      -560.3349
   3   2.0000     -20.550428      -559.2056
   4   2.0000     -15.628718      -425.2790
   5   2.0000     -15.607866      -424.7116
   6   2.0000     -11.395482      -310.0868
   7   2.0000     -11.383949      -309.7730
   8   2.0000     -11.334880      -308.4378
   9   2.0000     -11.310743      -307.7810
  10   2.0000     -11.307721      -307.6987
  11   2.0000     -11.298680      -307.4527
  12   2.0000     -11.260393      -306.4109
  13   2.0000     -11.259387      -306.3835
  14   2.0000     -11.256302      -306.2995
  15   2.0000     -11.251252      -306.1621
  16   2.0000     -11.240867      -305.8795
  17   2.0000     -11.236287      -305.7549
  18   2.0000     -11.233871      -305.6892
  19   2.0000     -11.224234      -305.4269
  20   2.0000      -8.893843      -242.0138
  21   2.0000      -6.575420      -178.9263
  22   2.0000      -6.573413      -178.8717
  23   2.0000      -6.572827      -178.8557
  24   2.0000      -1.452204       -39.5165
  25   2.0000      -1.414489       -38.4902
  26   2.0000      -1.355975       -36.8980
  27   2.0000      -1.339795       -36.4577
  28   2.0000      -1.237764       -33.6813
  29   2.0000      -1.155282       -31.4368
  30   2.0000      -1.120824       -30.4992
  31   2.0000      -1.043506       -28.3952
  32   2.0000      -1.031404       -28.0659
  33   2.0000      -1.012617       -27.5547
  34   2.0000      -0.998996       -27.1841
  35   2.0000      -0.984709       -26.7953
  36   2.0000      -0.923134       -25.1198
  37   2.0000      -0.892855       -24.2958
  38   2.0000      -0.847972       -23.0745
  39   2.0000      -0.837418       -22.7873
  40   2.0000      -0.831133       -22.6163
  41   2.0000      -0.814973       -22.1766
  42   2.0000      -0.751444       -20.4478
  43   2.0000      -0.735560       -20.0156
  44   2.0000      -0.727234       -19.7890
  45   2.0000      -0.693224       -18.8636
  46   2.0000      -0.686245       -18.6737
  47   2.0000      -0.677850       -18.4452
  48   2.0000      -0.672500       -18.2997
  49   2.0000      -0.659005       -17.9324
  50   2.0000      -0.653126       -17.7725
  51   2.0000      -0.645441       -17.5633
  52   2.0000      -0.634707       -17.2713
  53   2.0000      -0.609905       -16.5963
  54   2.0000      -0.601976       -16.3806
  55   2.0000      -0.601583       -16.3699
  56   2.0000      -0.598491       -16.2858
  57   2.0000      -0.580064       -15.7843
  58   2.0000      -0.575556       -15.6617
  59   2.0000      -0.562812       -15.3149
  60   2.0000      -0.553958       -15.0740
  61   2.0000      -0.549774       -14.9601
  62   2.0000      -0.536929       -14.6106
  63   2.0000      -0.529976       -14.4214
  64   2.0000      -0.520210       -14.1556
  65   2.0000      -0.511038       -13.9061
  66   2.0000      -0.498714       -13.5707
  67   2.0000      -0.492278       -13.3956
  68   2.0000      -0.481534       -13.1032
  69   2.0000      -0.464036       -12.6271
  70   2.0000      -0.459694       -12.5089
  71   2.0000      -0.449121       -12.2212
  72   2.0000      -0.354487        -9.6461
  73   2.0000      -0.346889        -9.4393
  74   2.0000      -0.327990        -8.9251
  75   2.0000      -0.318412        -8.6644
  76   2.0000      -0.315705        -8.5908
  77   0.0000       0.072935         1.9847
  78   0.0000       0.108064         2.9406
  79   0.0000       0.119173         3.2429
  80   0.0000       0.133035         3.6201
  81   0.0000       0.141429         3.8485

MULLIKEN ATOMIC CHARGES
-----------------------
   0 C :   -0.315214
   1 C :    0.037167
   2 O :   -0.370240
   3 C :    0.437516
   4 O :   -0.413862
   5 C :   -0.168130
   6 C :    0.138507
   7 C :   -0.282419
   8 N :   -0.123828
   9 C :    0.201408
  10 S :   -0.438922
  11 N :   -0.199273
  12 C :    0.050800
  13 C :    0.028122
  14 C :   -0.154926
  15 C :   -0.136175
  16 C :   -0.277933
  17 C :    0.309857
  18 O :   -0.360380
  19 C :   -0.262312
  20 H :    0.123541
  21 H :    0.105819
  22 H :    0.098175
  23 H :    0.111612
  24 H :    0.106795
  25 H :    0.124599
  26 H :    0.126237
  27 H :    0.102704
  28 H :    0.197196
  29 H :    0.193683
  30 H :    0.154465
  31 H :    0.156412
  32 H :    0.160401
  33 H :    0.130211
  34 H :    0.240678
  35 H :    0.167708
Sum of atomic charges:    0.0000000

LOEWDIN ATOMIC CHARGES
----------------------
   0 C :    0.105614
   1 C :   -0.018582
   2 O :    0.295115
   3 C :   -0.414885
   4 O :    0.114696
   5 C :   -0.092408
   6 C :   -0.070083
   7 C :    0.125834
   8 N :    0.404635
   9 C :   -0.458275
  10 S :   -0.035792
  11 N :    0.397578
  12 C :   -0.045481
  13 C :   -0.041634
  14 C :    0.020718
  15 C :    0.040617
  16 C :   -0.002322
  17 C :   -0.193319
  18 O :    0.394064
  19 C :    0.030573
  20 H :   -0.022592
  21 H :   -0.025878
  22 H :   -0.029228
  23 H :   -0.027390
  24 H :   -0.025588
  25 H :   -0.010612
  26 H :   -0.007683
  27 H :   -0.020291
  28 H :   -0.058850
  29 H :   -0.063927
  30 H :   -0.004456
  31 H :   -0.024678
  32 H :   -0.020533
  33 H :   -0.035770
  34 H :   -0.154301
  35 H :   -0.024888

  Mayer bond orders larger than 0.100000
B(  0-C ,  1-C ) :   0.9608 B(  0-C , 20-H ) :   0.9676 B(  0-C , 21-H ) :   0.9773
B(  0-C , 22-H ) :   0.9751 B(  1-C ,  2-O ) :   0.8925 B(  1-C , 23-H ) :   0.9798
B(  1-C , 24-H ) :   0.9846 B(  2-O ,  3-C ) :   1.1071 B(  3-C ,  4-O ) :   2.0043
B(  3-C ,  5-C ) :   1.0378 B(  5-C ,  6-C ) :   1.6603 B(  5-C , 12-C ) :   0.9645
B(  6-C ,  7-C ) :   0.9543 B(  6-C ,  8-N ) :   1.1405 B(  7-C , 25-H ) :   0.9632
B(  7-C , 26-H ) :   0.9681 B(  7-C , 27-H ) :   0.9896 B(  8-N ,  9-C ) :   1.1817
B(  8-N , 28-H ) :   0.9493 B(  9-C , 10-S ) :   1.6117 B(  9-C , 11-N ) :   1.3014
B( 11-N , 12-C ) :   0.9914 B( 11-N , 29-H ) :   0.9521 B( 12-C , 13-C ) :   0.9427
B( 12-C , 30-H ) :   0.9990 B( 13-C , 14-C ) :   1.3809 B( 13-C , 19-C ) :   1.3700
B( 14-C , 15-C ) :   1.3934 B( 14-C , 31-H ) :   0.9637 B( 15-C , 16-C ) :   1.3621
B( 15-C , 32-H ) :   0.9716 B( 16-C , 17-C ) :   1.3317 B( 16-C , 33-H ) :   0.9853
B( 17-C , 18-O ) :   1.1088 B( 17-C , 19-C ) :   1.3753 B( 18-O , 34-H ) :   0.9802
B( 19-C , 35-H ) :   0.9577

MP2 TOTAL ENERGY:    -1274.337816671 Eh
FINAL SINGLE POINT ENERGY     -1274.337816671058

DIPOLE MOMENT
-------------
                                X             Y             Z
Electronic contribution:      9.98600       9.06398       6.58774
Nuclear contribution   :    -11.35305     -10.34359      -7.42093
                        -----------------------------------------
Total Dipole Moment    :     -1.36704      -1.27961      -0.83319
                        -----------------------------------------
Magnitude (a.u.)       :      2.04949
Magnitude (Debye)      :      5.20939

Rotational constants in cm-1:     0.011803     0.009435     0.006653
Rotational constants in MHz :   353.855256   282.847436   199.459213

                             ****ORCA TERMINATED NORMALLY****
TOTAL RUN TIME: 0 days 1 hours 51 minutes 26 seconds 640 msec
