                         Program Version 4.2.0 -  RELEASE  -
|  1> ! ri-mp2 cc-pvtz cc-pvtz/c TightSCF  NoKeepInts
|  2>
|  3> %scf
|  4>   MaxCore 4096
|  5> end
|  6> *xyz  0  1
|  7>     C       15.3097268   14.0074049   15.1515193
|  8>     C       15.7475013   14.1296579   16.6266658
|  9>     O       16.7968629   15.1078951   16.7669683
| 10>     C       16.5434393   16.4496272   16.6646431
| 11>     O       15.5525496   16.8937714   16.1114012
| 12>     C       17.4431776   17.2673439   17.5514414
| 13>     C       17.3725478   18.6219369   17.6083905
| 14>     C       16.4328164   19.5250893   16.8382268
| 15>     N       18.2609831   19.3373860   18.4168881
| 16>     C       19.3122955   18.7893801   19.1019420
| 17>     S       20.3812283   19.7196868   19.9550885
| 18>     N       19.4376415   17.4250818   19.0407608
| 19>     C       18.4632563   16.5100815   18.4188149
| 20>     C       17.7842496   15.6724325   19.4991937
| 21>     C       18.0376588   14.2910211   19.5944722
| 22>     C       17.4108713   13.5155864   20.5844266
| 23>     C       16.5257695   14.1265494   21.4890002
| 24>     C       16.2751292   15.5027804   21.4003531
| 25>     O       15.4222841   16.0957721   22.2732700
| 26>     C       16.8998391   16.2716718   20.4136543
| 27>     H       14.7627611   14.8961051   14.8153573
| 28>     H       14.6464700   13.1436338   15.0232672
| 29>     H       16.1805013   13.8684245   14.4991475
| 30>     H       14.8880951   14.3970884   17.2563378
| 31>     H       16.1240380   13.1562074   16.9658459
| 32>     H       15.3915652   19.3300135   17.1254902
| 33>     H       16.5144356   19.3392222   15.7597903
| 34>     H       16.6291744   20.5907576   17.0043253
| 35>     H       18.1846909   20.3404477   18.4724864
| 36>     H       20.2007428   17.0469644   19.5871084
| 37>     H       19.0253579   15.8350884   17.7581913
| 38>     H       18.7184401   13.8156493   18.8933840
| 39>     H       17.6125013   12.4477711   20.6493571
| 40>     H       16.0400448   13.5323721   22.2560424
| 41>     H       15.1208196   15.4158443   22.8942272
| 42>     H       16.6975339   17.3362539   20.3665211
| 43> *
| 44>
| 45>                          ****END OF INPUT****

CARTESIAN COORDINATES (ANGSTROEM)
---------------------------------
  C     15.309727   14.007405   15.151519
  C     15.747501   14.129658   16.626666
  O     16.796863   15.107895   16.766968
  C     16.543439   16.449627   16.664643
  O     15.552550   16.893771   16.111401
  C     17.443178   17.267344   17.551441
  C     17.372548   18.621937   17.608390
  C     16.432816   19.525089   16.838227
  N     18.260983   19.337386   18.416888
  C     19.312296   18.789380   19.101942
  S     20.381228   19.719687   19.955088
  N     19.437641   17.425082   19.040761
  C     18.463256   16.510081   18.418815
  C     17.784250   15.672432   19.499194
  C     18.037659   14.291021   19.594472
  C     17.410871   13.515586   20.584427
  C     16.525769   14.126549   21.489000
  C     16.275129   15.502780   21.400353
  O     15.422284   16.095772   22.273270
  C     16.899839   16.271672   20.413654
  H     14.762761   14.896105   14.815357
  H     14.646470   13.143634   15.023267
  H     16.180501   13.868424   14.499147
  H     14.888095   14.397088   17.256338
  H     16.124038   13.156207   16.965846
  H     15.391565   19.330013   17.125490
  H     16.514436   19.339222   15.759790
  H     16.629174   20.590758   17.004325
  H     18.184691   20.340448   18.472486
  H     20.200743   17.046964   19.587108
  H     19.025358   15.835088   17.758191
  H     18.718440   13.815649   18.893384
  H     17.612501   12.447771   20.649357
  H     16.040045   13.532372   22.256042
  H     15.120820   15.415844   22.894227
  H     16.697534   17.336254   20.366521

 Total Charge           Charge          ....    0
 Multiplicity           Mult            ....    1
 Number of Electrons    NEL             ....  154
 Basis Dimension        Dim             ....  828

ORBITAL ENERGIES
----------------

  NO   OCC          E(Eh)            E(eV)
   0   2.0000     -91.888644     -2500.4171
   1   2.0000     -20.597624      -560.4898
   2   2.0000     -20.596483      -560.4588
   3   2.0000     -20.543601      -559.0198
   4   2.0000     -15.628826      -425.2820
   5   2.0000     -15.607932      -424.7134
   6   2.0000     -11.396294      -310.1089
   7   2.0000     -11.383703      -309.7663
   8   2.0000     -11.335441      -308.4530
   9   2.0000     -11.313656      -307.8602
  10   2.0000     -11.308809      -307.7283
  11   2.0000     -11.299146      -307.4654
  12   2.0000     -11.259527      -306.3873
  13   2.0000     -11.258833      -306.3684
  14   2.0000     -11.255177      -306.2689
  15   2.0000     -11.252122      -306.1858
  16   2.0000     -11.242775      -305.9315
  17   2.0000     -11.238117      -305.8047
  18   2.0000     -11.237921      -305.7994
  19   2.0000     -11.219719      -305.3041
  20   2.0000      -8.893707      -242.0101
  21   2.0000      -6.575282      -178.9225
  22   2.0000      -6.573278      -178.8680
  23   2.0000      -6.572691      -178.8520
  24   2.0000      -1.449233       -39.4356
  25   2.0000      -1.416124       -38.5347
  26   2.0000      -1.355429       -36.8831
  27   2.0000      -1.339829       -36.4586
  28   2.0000      -1.238270       -33.6950
  29   2.0000      -1.157294       -31.4916
  30   2.0000      -1.119864       -30.4731
  31   2.0000      -1.042363       -28.3641
  32   2.0000      -1.034677       -28.1550
  33   2.0000      -1.014893       -27.6166
  34   2.0000      -0.994814       -27.0703
  35   2.0000      -0.983398       -26.7596
  36   2.0000      -0.922298       -25.0970
  37   2.0000      -0.892319       -24.2812
  38   2.0000      -0.847055       -23.0495
  39   2.0000      -0.837825       -22.7984
  40   2.0000      -0.833839       -22.6899
  41   2.0000      -0.819639       -22.3035
  42   2.0000      -0.753924       -20.5153
  43   2.0000      -0.731433       -19.9033
  44   2.0000      -0.721799       -19.6412
  45   2.0000      -0.695551       -18.9269
  46   2.0000      -0.688358       -18.7312
  47   2.0000      -0.680652       -18.5215
  48   2.0000      -0.669852       -18.2276
  49   2.0000      -0.653100       -17.7717
  50   2.0000      -0.648837       -17.6558
  51   2.0000      -0.645435       -17.5632
  52   2.0000      -0.632380       -17.2079
  53   2.0000      -0.607188       -16.5224
  54   2.0000      -0.605127       -16.4663
  55   2.0000      -0.598975       -16.2989
  56   2.0000      -0.598570       -16.2879
  57   2.0000      -0.580957       -15.8086
  58   2.0000      -0.573669       -15.6103
  59   2.0000      -0.570689       -15.5292
  60   2.0000      -0.562986       -15.3196
  61   2.0000      -0.538711       -14.6591
  62   2.0000      -0.535872       -14.5818
  63   2.0000      -0.524816       -14.2810
  64   2.0000      -0.519338       -14.1319
  65   2.0000      -0.513002       -13.9595
  66   2.0000      -0.501241       -13.6395
  67   2.0000      -0.499119       -13.5817
  68   2.0000      -0.485359       -13.2073
  69   2.0000      -0.463858       -12.6222
  70   2.0000      -0.455850       -12.4043
  71   2.0000      -0.443100       -12.0574
  72   2.0000      -0.353878        -9.6295
  73   2.0000      -0.349169        -9.5014
  74   2.0000      -0.328036        -8.9263
  75   2.0000      -0.321222        -8.7409
  76   2.0000      -0.315785        -8.5930
  77   0.0000       0.075301         2.0490
  78   0.0000       0.106679         2.9029
  79   0.0000       0.125174         3.4061
  80   0.0000       0.132580         3.6077
  81   0.0000       0.137900         3.7525

MULLIKEN ATOMIC CHARGES
-----------------------
   0 C :   -0.292552
   1 C :    0.047278
   2 O :   -0.362874
   3 C :    0.459442
   4 O :   -0.431366
   5 C :   -0.208406
   6 C :    0.150178
   7 C :   -0.273847
   8 N :   -0.120857
   9 C :    0.212001
  10 S :   -0.440381
  11 N :   -0.204595
  12 C :    0.056614
  13 C :    0.066519
  14 C :   -0.188743
  15 C :   -0.129636
  16 C :   -0.279969
  17 C :    0.315859
  18 O :   -0.356492
  19 C :   -0.269458
  20 H :    0.125365
  21 H :    0.093160
  22 H :    0.090713
  23 H :    0.093453
  24 H :    0.103896
  25 H :    0.132809
  26 H :    0.129112
  27 H :    0.095467
  28 H :    0.197252
  29 H :    0.194491
  30 H :    0.149636
  31 H :    0.149492
  32 H :    0.160643
  33 H :    0.130080
  34 H :    0.240716
  35 H :    0.164997
Sum of atomic charges:    0.0000000

LOEWDIN ATOMIC CHARGES
----------------------
   0 C :    0.104826
   1 C :   -0.013698
   2 O :    0.300752
   3 C :   -0.412535
   4 O :    0.105075
   5 C :   -0.094252
   6 C :   -0.059407
   7 C :    0.131027
   8 N :    0.406480
   9 C :   -0.456512
  10 S :   -0.035751
  11 N :    0.396332
  12 C :   -0.052412
  13 C :   -0.037823
  14 C :    0.014146
  15 C :    0.038586
  16 C :   -0.002323
  17 C :   -0.189524
  18 O :    0.395269
  19 C :    0.031135
  20 H :   -0.026606
  21 H :   -0.029323
  22 H :   -0.029451
  23 H :   -0.028180
  24 H :   -0.025211
  25 H :   -0.004684
  26 H :   -0.004430
  27 H :   -0.023346
  28 H :   -0.057638
  29 H :   -0.064710
  30 H :   -0.010554
  31 H :   -0.030321
  32 H :   -0.021481
  33 H :   -0.035707
  34 H :   -0.153931
  35 H :   -0.023814

  Mayer bond orders larger than 0.100000
B(  0-C ,  1-C ) :   0.9761 B(  0-C , 20-H ) :   0.9721 B(  0-C , 21-H ) :   0.9783
B(  0-C , 22-H ) :   0.9753 B(  1-C ,  2-O ) :   0.8925 B(  1-C , 23-H ) :   0.9735
B(  1-C , 24-H ) :   0.9825 B(  2-O ,  3-C ) :   1.1424 B(  3-C ,  4-O ) :   1.9623
B(  3-C ,  5-C ) :   1.0618 B(  5-C ,  6-C ) :   1.6553 B(  5-C , 12-C ) :   0.9735
B(  6-C ,  7-C ) :   0.9674 B(  6-C ,  8-N ) :   1.1622 B(  7-C , 25-H ) :   0.9595
B(  7-C , 26-H ) :   0.9612 B(  7-C , 27-H ) :   0.9909 B(  8-N ,  9-C ) :   1.1828
B(  8-N , 28-H ) :   0.9480 B(  9-C , 10-S ) :   1.6068 B(  9-C , 11-N ) :   1.3055
B( 11-N , 12-C ) :   0.9846 B( 11-N , 29-H ) :   0.9517 B( 12-C , 13-C ) :   0.9355
B( 12-C , 30-H ) :   1.0024 B( 13-C , 14-C ) :   1.3554 B( 13-C , 19-C ) :   1.3836
B( 14-C , 15-C ) :   1.3908 B( 14-C , 31-H ) :   0.9720 B( 15-C , 16-C ) :   1.3640
B( 15-C , 32-H ) :   0.9706 B( 16-C , 17-C ) :   1.3314 B( 16-C , 33-H ) :   0.9849
B( 17-C , 18-O ) :   1.1104 B( 17-C , 19-C ) :   1.3722 B( 18-O , 34-H ) :   0.9799
B( 19-C , 35-H ) :   0.9582

MP2 TOTAL ENERGY:    -1274.343619109 Eh
FINAL SINGLE POINT ENERGY     -1274.343619108832

DIPOLE MOMENT
-------------
                                X             Y             Z
Electronic contribution:     10.25871       9.82783       9.32584
Nuclear contribution   :    -11.33632     -11.48232      -9.60205
                        -----------------------------------------
Total Dipole Moment    :     -1.07761      -1.65449      -0.27622
                        -----------------------------------------
Magnitude (a.u.)       :      1.99372
Magnitude (Debye)      :      5.06762

Rotational constants in cm-1:     0.011405     0.008741     0.006071
Rotational constants in MHz :   341.910991   262.052122   182.012920

                             ****ORCA TERMINATED NORMALLY****
TOTAL RUN TIME: 0 days 1 hours 47 minutes 11 seconds 363 msec
