                         Program Version 5.0.0 -  RELEASE  -
|  1> ! ri-mp2 cc-pvtz cc-pvtz/c TightSCF NoKeepInts
|  2>
|  3> %scf
|  4>   MaxCore 4096
|  5> end
|  6> *xyz  0  1
|  7>     C       14.8265048   14.5639308   17.3831458
|  8>     C       15.5898764   15.5334209   16.4663394
|  9>     O       16.9262618   15.0131664   16.3280986
| 10>     C       18.0947704   15.7218636   16.4621603
| 11>     O       19.1460221   15.1202146   16.3450392
| 12>     C       18.0319884   16.9045760   17.3702170
| 13>     C       17.5478193   18.0991852   16.9604632
| 14>     C       16.9919591   18.4314063   15.5918865
| 15>     N       17.5967229   19.2011707   17.8165682
| 16>     C       18.2273337   19.2120649   19.0338644
| 17>     S       18.3053265   20.5810435   19.9578851
| 18>     N       18.7894214   18.0290672   19.4487402
| 19>     C       18.6670013   16.7336094   18.7491701
| 20>     C       17.8948585   15.7149725   19.5826038
| 21>     C       18.3040598   14.3689858   19.5998824
| 22>     C       17.6018905   13.4156695   20.3558221
| 23>     C       16.4784505   13.8099880   21.1020008
| 24>     C       16.0618948   15.1478017   21.0815764
| 25>     O       14.9678703   15.5285726   21.7876777
| 26>     C       16.7601686   16.0943993   20.3247995
| 27>     H       15.3255688   14.4744770   18.3547342
| 28>     H       14.7777426   13.5650355   16.9319845
| 29>     H       13.8019468   14.9157164   17.5537350
| 30>     H       15.1023905   15.5965637   15.4848777
| 31>     H       15.5612872   16.5207324   16.9362577
| 32>     H       17.1414501   17.6188552   14.8704482
| 33>     H       17.4893898   19.3166175   15.1748021
| 34>     H       15.9167090   18.6425456   15.6426014
| 35>     H       17.2061676   20.0831045   17.5236169
| 36>     H       19.2331374   18.0628070   20.3579385
| 37>     H       19.6839632   16.3419228   18.5980482
| 38>     H       19.1650276   14.0582534   19.0113514
| 39>     H       17.9276790   12.3768473   20.3562834
| 40>     H       15.9326347   13.0760711   21.6856452
| 41>     H       14.6574124   14.7547304   22.2817755
| 42>     H       16.4142923   17.1226114   20.3219590
| 43> *
| 44>
| 45>                          ****END OF INPUT****

CARTESIAN COORDINATES (ANGSTROEM)
---------------------------------
  C     14.826505   14.563931   17.383146
  C     15.589876   15.533421   16.466339
  O     16.926262   15.013166   16.328099
  C     18.094770   15.721864   16.462160
  O     19.146022   15.120215   16.345039
  C     18.031988   16.904576   17.370217
  C     17.547819   18.099185   16.960463
  C     16.991959   18.431406   15.591886
  N     17.596723   19.201171   17.816568
  C     18.227334   19.212065   19.033864
  S     18.305326   20.581043   19.957885
  N     18.789421   18.029067   19.448740
  C     18.667001   16.733609   18.749170
  C     17.894859   15.714972   19.582604
  C     18.304060   14.368986   19.599882
  C     17.601890   13.415669   20.355822
  C     16.478451   13.809988   21.102001
  C     16.061895   15.147802   21.081576
  O     14.967870   15.528573   21.787678
  C     16.760169   16.094399   20.324800
  H     15.325569   14.474477   18.354734
  H     14.777743   13.565036   16.931984
  H     13.801947   14.915716   17.553735
  H     15.102390   15.596564   15.484878
  H     15.561287   16.520732   16.936258
  H     17.141450   17.618855   14.870448
  H     17.489390   19.316617   15.174802
  H     15.916709   18.642546   15.642601
  H     17.206168   20.083105   17.523617
  H     19.233137   18.062807   20.357938
  H     19.683963   16.341923   18.598048
  H     19.165028   14.058253   19.011351
  H     17.927679   12.376847   20.356283
  H     15.932635   13.076071   21.685645
  H     14.657412   14.754730   22.281775
  H     16.414292   17.122611   20.321959

 Total Charge           Charge          ....    0
 Multiplicity           Mult            ....    1
 Number of Electrons    NEL             ....  154
 Basis Dimension        Dim             ....  828

ORBITAL ENERGIES
----------------

  NO   OCC          E(Eh)            E(eV)
   0   2.0000     -91.889617     -2500.4436
   1   2.0000     -20.603030      -560.6370
   2   2.0000     -20.599140      -560.5311
   3   2.0000     -20.551416      -559.2325
   4   2.0000     -15.626088      -425.2075
   5   2.0000     -15.611563      -424.8122
   6   2.0000     -11.398361      -310.1652
   7   2.0000     -11.386465      -309.8415
   8   2.0000     -11.327357      -308.2330
   9   2.0000     -11.316073      -307.9260
  10   2.0000     -11.315736      -307.9168
  11   2.0000     -11.304082      -307.5997
  12   2.0000     -11.271396      -306.7103
  13   2.0000     -11.265925      -306.5614
  14   2.0000     -11.263612      -306.4985
  15   2.0000     -11.256437      -306.3032
  16   2.0000     -11.245319      -306.0007
  17   2.0000     -11.241560      -305.8984
  18   2.0000     -11.238608      -305.8181
  19   2.0000     -11.226963      -305.5012
  20   2.0000      -8.894735      -242.0380
  21   2.0000      -6.576326      -178.9509
  22   2.0000      -6.574296      -178.8957
  23   2.0000      -6.573724      -178.8801
  24   2.0000      -1.450295       -39.4645
  25   2.0000      -1.418949       -38.6116
  26   2.0000      -1.359990       -37.0072
  27   2.0000      -1.339820       -36.4583
  28   2.0000      -1.239690       -33.7337
  29   2.0000      -1.160792       -31.5868
  30   2.0000      -1.125902       -30.6374
  31   2.0000      -1.049092       -28.5472
  32   2.0000      -1.039018       -28.2731
  33   2.0000      -1.018536       -27.7158
  34   2.0000      -1.005376       -27.3577
  35   2.0000      -0.989374       -26.9222
  36   2.0000      -0.927991       -25.2519
  37   2.0000      -0.883743       -24.0479
  38   2.0000      -0.854717       -23.2580
  39   2.0000      -0.841498       -22.8983
  40   2.0000      -0.836381       -22.7591
  41   2.0000      -0.835259       -22.7285
  42   2.0000      -0.757378       -20.6093
  43   2.0000      -0.739633       -20.1264
  44   2.0000      -0.731124       -19.8949
  45   2.0000      -0.697367       -18.9763
  46   2.0000      -0.689431       -18.7604
  47   2.0000      -0.683150       -18.5895
  48   2.0000      -0.676545       -18.4097
  49   2.0000      -0.662320       -18.0226
  50   2.0000      -0.654582       -17.8121
  51   2.0000      -0.643193       -17.5022
  52   2.0000      -0.639240       -17.3946
  53   2.0000      -0.614151       -16.7119
  54   2.0000      -0.610391       -16.6096
  55   2.0000      -0.606965       -16.5164
  56   2.0000      -0.602239       -16.3877
  57   2.0000      -0.587372       -15.9832
  58   2.0000      -0.577834       -15.7236
  59   2.0000      -0.568091       -15.4585
  60   2.0000      -0.560854       -15.2616
  61   2.0000      -0.557346       -15.1661
  62   2.0000      -0.542466       -14.7613
  63   2.0000      -0.532393       -14.4871
  64   2.0000      -0.519235       -14.1291
  65   2.0000      -0.513624       -13.9764
  66   2.0000      -0.503031       -13.6882
  67   2.0000      -0.501657       -13.6508
  68   2.0000      -0.487008       -13.2522
  69   2.0000      -0.469907       -12.7868
  70   2.0000      -0.453483       -12.3399
  71   2.0000      -0.450434       -12.2569
  72   2.0000      -0.357218        -9.7204
  73   2.0000      -0.351587        -9.5672
  74   2.0000      -0.329331        -8.9616
  75   2.0000      -0.324061        -8.8182
  76   2.0000      -0.318058        -8.6548
  77   0.0000       0.088639         2.4120
  78   0.0000       0.104782         2.8513
  79   0.0000       0.108405         2.9498
  80   0.0000       0.128587         3.4990
  81   0.0000       0.130792         3.5590

MULLIKEN ATOMIC CHARGES
-----------------------
   0 C :   -0.263423
   1 C :    0.014635
   2 O :   -0.308240
   3 C :    0.388972
   4 O :   -0.378641
   5 C :   -0.155924
   6 C :    0.117576
   7 C :   -0.321043
   8 N :   -0.136348
   9 C :    0.204853
  10 S :   -0.441694
  11 N :   -0.219125
  12 C :    0.060527
  13 C :    0.018332
  14 C :   -0.194721
  15 C :   -0.133257
  16 C :   -0.272660
  17 C :    0.302076
  18 O :   -0.360539
  19 C :   -0.250706
  20 H :    0.113618
  21 H :    0.103899
  22 H :    0.088491
  23 H :    0.109918
  24 H :    0.088060
  25 H :    0.120323
  26 H :    0.137994
  27 H :    0.122395
  28 H :    0.195880
  29 H :    0.200023
  30 H :    0.167749
  31 H :    0.168057
  32 H :    0.163287
  33 H :    0.132142
  34 H :    0.241352
  35 H :    0.176162
Sum of atomic charges:   -0.0000000

LOEWDIN ATOMIC CHARGES
----------------------
   0 C :    0.110966
   1 C :   -0.023542
   2 O :    0.317567
   3 C :   -0.420005
   4 O :    0.126986
   5 C :   -0.079923
   6 C :   -0.109891
   7 C :    0.124144
   8 N :    0.400561
   9 C :   -0.456084
  10 S :   -0.038661
  11 N :    0.397813
  12 C :   -0.042773
  13 C :   -0.042085
  14 C :    0.023050
  15 C :    0.045510
  16 C :   -0.001520
  17 C :   -0.194096
  18 O :    0.395689
  19 C :    0.025799
  20 H :   -0.022960
  21 H :   -0.025947
  22 H :   -0.026567
  23 H :   -0.032370
  24 H :   -0.039998
  25 H :   -0.009334
  26 H :   -0.009478
  27 H :   -0.016520
  28 H :   -0.058431
  29 H :   -0.063614
  30 H :   -0.001749
  31 H :   -0.021663
  32 H :   -0.018407
  33 H :   -0.034938
  34 H :   -0.153083
  35 H :   -0.024447

  Mayer bond orders larger than 0.100000
B(  0-C ,  1-C ) :   0.9781 B(  0-C , 20-H ) :   0.9701 B(  0-C , 21-H ) :   0.9821
B(  0-C , 22-H ) :   0.9754 B(  1-C ,  2-O ) :   0.9210 B(  1-C , 23-H ) :   0.9790
B(  1-C , 24-H ) :   0.9615 B(  2-O ,  3-C ) :   1.1537 B(  3-C ,  4-O ) :   2.0898
B(  3-C ,  5-C ) :   0.9229 B(  5-C ,  6-C ) :   1.6970 B(  5-C , 12-C ) :   0.9610
B(  6-C ,  7-C ) :   0.9482 B(  6-C ,  8-N ) :   1.1073 B(  7-C , 25-H ) :   0.9809
B(  7-C , 26-H ) :   0.9710 B(  7-C , 27-H ) :   0.9658 B(  8-N ,  9-C ) :   1.1973
B(  8-N , 28-H ) :   0.9527 B(  9-C , 10-S ) :   1.6094 B(  9-C , 11-N ) :   1.2865
B( 11-N , 12-C ) :   0.9917 B( 11-N , 29-H ) :   0.9482 B( 12-C , 13-C ) :   0.9475
B( 12-C , 30-H ) :   0.9962 B( 13-C , 14-C ) :   1.3877 B( 13-C , 19-C ) :   1.3526
B( 14-C , 15-C ) :   1.3980 B( 14-C , 31-H ) :   0.9615 B( 15-C , 16-C ) :   1.3582
B( 15-C , 32-H ) :   0.9707 B( 16-C , 17-C ) :   1.3329 B( 16-C , 33-H ) :   0.9854
B( 17-C , 18-O ) :   1.1087 B( 17-C , 19-C ) :   1.3690 B( 18-O , 34-H ) :   0.9793
B( 19-C , 35-H ) :   0.9558

MP2 TOTAL ENERGY:    -1274.328166035 Eh
FINAL SINGLE POINT ENERGY     -1274.328166035161

DIPOLE MOMENT
-------------
                                X             Y             Z
Electronic contribution:     10.16382       7.90891       6.19479
Nuclear contribution   :    -11.73641      -8.91645      -6.80883
                        -----------------------------------------
Total Dipole Moment    :     -1.57259      -1.00754      -0.61404
                        -----------------------------------------
Magnitude (a.u.)       :      1.96602
Magnitude (Debye)      :      4.99722

Rotational constants in cm-1:     0.012260     0.009228     0.006813
Rotational constants in MHz :   367.556331   276.661731   204.259455

                             ****ORCA TERMINATED NORMALLY****
TOTAL RUN TIME: 0 days 1 hours 41 minutes 34 seconds 862 msec
