                         Program Version 4.2.0 -  RELEASE  -
|  1> ! ri-mp2 cc-pvtz cc-pvtz/c TightSCF  NoKeepInts
|  2>
|  3> %scf
|  4>   MaxCore 4096
|  5> end
|  6> *xyz  0  1
|  7>     C       14.9716497   14.8150678   16.4131780
|  8>     C       16.3401481   14.2201650   16.8089337
|  9>     O       17.4362639   14.9524526   16.2085229
| 10>     C       17.4066075   16.3125784   16.0677434
| 11>     O       16.9885628   16.8001113   15.0332452
| 12>     C       17.7051046   17.1089864   17.3109279
| 13>     C       17.3663172   18.4201165   17.4209467
| 14>     C       16.5357312   19.2412049   16.4581119
| 15>     N       17.8480778   19.1776785   18.4936721
| 16>     C       18.8644038   18.7791397   19.3220078
| 17>     S       19.5543561   19.8029975   20.4225649
| 18>     N       19.2959827   17.4851732   19.1716020
| 19>     C       18.5707873   16.4569255   18.4039325
| 20>     C       17.7885019   15.5956107   19.3876408
| 21>     C       18.2918419   14.3390705   19.7753901
| 22>     C       17.5818226   13.5327060   20.6807473
| 23>     C       16.3621217   13.9884696   21.2091766
| 24>     C       15.8646353   15.2444979   20.8367565
| 25>     O       14.6883536   15.6887778   21.3457910
| 26>     C       16.5718993   16.0444505   19.9341626
| 27>     H       14.8252314   15.8080843   16.8559851
| 28>     H       14.1595560   14.1685841   16.7671371
| 29>     H       14.8858018   14.9016863   15.3222055
| 30>     H       16.4102164   14.2022465   17.8976173
| 31>     H       16.3895981   13.1773783   16.4701141
| 32>     H       15.6125920   18.7114932   16.1909680
| 33>     H       17.0906356   19.4188454   15.5277340
| 34>     H       16.2464269   20.2161643   16.8674487
| 35>     H       17.5570970   20.1369224   18.5962461
| 36>     H       20.0356787   17.2121702   19.8057020
| 37>     H       19.3150824   15.8210564   17.9035219
| 38>     H       19.2357307   13.9836588   19.3699275
| 39>     H       17.9785298   12.5616313   20.9730529
| 40>     H       15.8111481   13.3696167   21.9100811
| 41>     H       14.3888287   15.0393258   22.0001197
| 42>     H       16.1716773   17.0169556   19.6710853
| 43> *
| 44>
| 45>                          ****END OF INPUT****

CARTESIAN COORDINATES (ANGSTROEM)
---------------------------------
  C     14.971650   14.815068   16.413178
  C     16.340148   14.220165   16.808934
  O     17.436264   14.952453   16.208523
  C     17.406607   16.312578   16.067743
  O     16.988563   16.800111   15.033245
  C     17.705105   17.108986   17.310928
  C     17.366317   18.420116   17.420947
  C     16.535731   19.241205   16.458112
  N     17.848078   19.177678   18.493672
  C     18.864404   18.779140   19.322008
  S     19.554356   19.802998   20.422565
  N     19.295983   17.485173   19.171602
  C     18.570787   16.456926   18.403932
  C     17.788502   15.595611   19.387641
  C     18.291842   14.339070   19.775390
  C     17.581823   13.532706   20.680747
  C     16.362122   13.988470   21.209177
  C     15.864635   15.244498   20.836756
  O     14.688354   15.688778   21.345791
  C     16.571899   16.044450   19.934163
  H     14.825231   15.808084   16.855985
  H     14.159556   14.168584   16.767137
  H     14.885802   14.901686   15.322205
  H     16.410216   14.202246   17.897617
  H     16.389598   13.177378   16.470114
  H     15.612592   18.711493   16.190968
  H     17.090636   19.418845   15.527734
  H     16.246427   20.216164   16.867449
  H     17.557097   20.136922   18.596246
  H     20.035679   17.212170   19.805702
  H     19.315082   15.821056   17.903522
  H     19.235731   13.983659   19.369927
  H     17.978530   12.561631   20.973053
  H     15.811148   13.369617   21.910081
  H     14.388829   15.039326   22.000120
  H     16.171677   17.016956   19.671085

 Total Charge           Charge          ....    0
 Multiplicity           Mult            ....    1
 Number of Electrons    NEL             ....  154
 Basis Dimension        Dim             ....  828

ORBITAL ENERGIES
----------------

  NO   OCC          E(Eh)            E(eV)
   0   2.0000     -91.891543     -2500.4960
   1   2.0000     -20.603845      -560.6591
   2   2.0000     -20.580476      -560.0232
   3   2.0000     -20.546828      -559.1076
   4   2.0000     -15.631979      -425.3678
   5   2.0000     -15.610355      -424.7794
   6   2.0000     -11.392631      -310.0092
   7   2.0000     -11.385934      -309.8270
   8   2.0000     -11.337850      -308.5186
   9   2.0000     -11.321857      -308.0834
  10   2.0000     -11.313805      -307.8643
  11   2.0000     -11.296298      -307.3879
  12   2.0000     -11.266346      -306.5729
  13   2.0000     -11.263234      -306.4882
  14   2.0000     -11.259632      -306.3902
  15   2.0000     -11.254242      -306.2435
  16   2.0000     -11.250523      -306.1423
  17   2.0000     -11.245085      -305.9943
  18   2.0000     -11.244781      -305.9861
  19   2.0000     -11.225537      -305.4624
  20   2.0000      -8.896544      -242.0873
  21   2.0000      -6.578104      -178.9993
  22   2.0000      -6.576117      -178.9452
  23   2.0000      -6.575517      -178.9289
  24   2.0000      -1.441734       -39.2316
  25   2.0000      -1.423468       -38.7345
  26   2.0000      -1.350012       -36.7357
  27   2.0000      -1.343269       -36.5522
  28   2.0000      -1.241701       -33.7884
  29   2.0000      -1.164285       -31.6818
  30   2.0000      -1.122073       -30.5332
  31   2.0000      -1.047918       -28.5153
  32   2.0000      -1.030204       -28.0333
  33   2.0000      -1.022709       -27.8293
  34   2.0000      -1.000371       -27.2215
  35   2.0000      -0.987023       -26.8583
  36   2.0000      -0.926878       -25.2216
  37   2.0000      -0.891825       -24.2678
  38   2.0000      -0.850446       -23.1418
  39   2.0000      -0.846128       -23.0243
  40   2.0000      -0.840367       -22.8676
  41   2.0000      -0.826125       -22.4800
  42   2.0000      -0.748703       -20.3732
  43   2.0000      -0.736860       -20.0510
  44   2.0000      -0.714877       -19.4528
  45   2.0000      -0.702611       -19.1190
  46   2.0000      -0.692602       -18.8467
  47   2.0000      -0.676419       -18.4063
  48   2.0000      -0.670251       -18.2385
  49   2.0000      -0.663897       -18.0656
  50   2.0000      -0.653881       -17.7930
  51   2.0000      -0.649755       -17.6807
  52   2.0000      -0.638472       -17.3737
  53   2.0000      -0.620770       -16.8920
  54   2.0000      -0.614496       -16.7213
  55   2.0000      -0.605518       -16.4770
  56   2.0000      -0.602296       -16.3893
  57   2.0000      -0.583732       -15.8842
  58   2.0000      -0.573841       -15.6150
  59   2.0000      -0.567261       -15.4360
  60   2.0000      -0.547476       -14.8976
  61   2.0000      -0.541657       -14.7392
  62   2.0000      -0.538325       -14.6486
  63   2.0000      -0.532404       -14.4875
  64   2.0000      -0.527118       -14.3436
  65   2.0000      -0.517838       -14.0911
  66   2.0000      -0.507648       -13.8138
  67   2.0000      -0.496218       -13.5028
  68   2.0000      -0.479649       -13.0519
  69   2.0000      -0.466272       -12.6879
  70   2.0000      -0.452306       -12.3079
  71   2.0000      -0.442083       -12.0297
  72   2.0000      -0.360261        -9.8032
  73   2.0000      -0.356144        -9.6912
  74   2.0000      -0.332611        -9.0508
  75   2.0000      -0.328100        -8.9281
  76   2.0000      -0.318166        -8.6577
  77   0.0000       0.069051         1.8790
  78   0.0000       0.101027         2.7491
  79   0.0000       0.120607         3.2819
  80   0.0000       0.126106         3.4315
  81   0.0000       0.130685         3.5561

MULLIKEN ATOMIC CHARGES
-----------------------
   0 C :   -0.298622
   1 C :    0.030833
   2 O :   -0.382531
   3 C :    0.478144
   4 O :   -0.393665
   5 C :   -0.260479
   6 C :    0.148170
   7 C :   -0.272110
   8 N :   -0.123885
   9 C :    0.215043
  10 S :   -0.435541
  11 N :   -0.199014
  12 C :    0.046289
  13 C :    0.051457
  14 C :   -0.199086
  15 C :   -0.127767
  16 C :   -0.276058
  17 C :    0.306519
  18 O :   -0.356165
  19 C :   -0.245461
  20 H :    0.087750
  21 H :    0.105734
  22 H :    0.120793
  23 H :    0.103145
  24 H :    0.116193
  25 H :    0.125684
  26 H :    0.139881
  27 H :    0.094247
  28 H :    0.199011
  29 H :    0.191081
  30 H :    0.151425
  31 H :    0.150585
  32 H :    0.163291
  33 H :    0.133790
  34 H :    0.242648
  35 H :    0.168673
Sum of atomic charges:   -0.0000000

LOEWDIN ATOMIC CHARGES
----------------------
   0 C :    0.105486
   1 C :   -0.012216
   2 O :    0.277993
   3 C :   -0.422826
   4 O :    0.124525
   5 C :   -0.098912
   6 C :   -0.059547
   7 C :    0.130339
   8 N :    0.407617
   9 C :   -0.455090
  10 S :   -0.031296
  11 N :    0.396188
  12 C :   -0.052834
  13 C :   -0.039225
  14 C :    0.010910
  15 C :    0.043558
  16 C :   -0.000400
  17 C :   -0.189994
  18 O :    0.396843
  19 C :    0.030434
  20 H :   -0.032277
  21 H :   -0.024475
  22 H :   -0.021703
  23 H :   -0.038708
  24 H :   -0.022853
  25 H :   -0.007145
  26 H :   -0.002178
  27 H :   -0.022983
  28 H :   -0.057264
  29 H :   -0.066258
  30 H :   -0.005058
  31 H :   -0.029475
  32 H :   -0.018971
  33 H :   -0.033866
  34 H :   -0.152015
  35 H :   -0.026323

  Mayer bond orders larger than 0.100000
B(  0-C ,  1-C ) :   0.9720 B(  0-C , 20-H ) :   0.9739 B(  0-C , 21-H ) :   0.9756
B(  0-C , 22-H ) :   0.9726 B(  1-C ,  2-O ) :   0.8977 B(  1-C , 23-H ) :   0.9650
B(  1-C , 24-H ) :   0.9824 B(  2-O ,  3-C ) :   1.1027 B(  3-C ,  4-O ) :   2.0410
B(  3-C ,  5-C ) :   1.0363 B(  5-C ,  6-C ) :   1.6518 B(  5-C , 12-C ) :   0.9718
B(  6-C ,  7-C ) :   0.9740 B(  6-C ,  8-N ) :   1.1546 B(  7-C , 25-H ) :   0.9663
B(  7-C , 26-H ) :   0.9548 B(  7-C , 27-H ) :   0.9868 B(  8-N ,  9-C ) :   1.1786
B(  8-N , 28-H ) :   0.9486 B(  9-C , 10-S ) :   1.6140 B(  9-C , 11-N ) :   1.3005
B( 11-N , 12-C ) :   0.9611 B( 11-N , 29-H ) :   0.9548 B( 12-C , 13-C ) :   0.9541
B( 12-C , 30-H ) :   1.0000 B( 13-C , 14-C ) :   1.3507 B( 13-C , 19-C ) :   1.3682
B( 14-C , 15-C ) :   1.3920 B( 14-C , 31-H ) :   0.9737 B( 15-C , 16-C ) :   1.3666
B( 15-C , 32-H ) :   0.9700 B( 16-C , 17-C ) :   1.3274 B( 16-C , 33-H ) :   0.9837
B( 17-C , 18-O ) :   1.1166 B( 17-C , 19-C ) :   1.3762 B( 18-O , 34-H ) :   0.9785
B( 19-C , 35-H ) :   0.9555

MP2 TOTAL ENERGY:    -1274.329107144 Eh
FINAL SINGLE POINT ENERGY     -1274.329107143894

DIPOLE MOMENT
-------------
                                X             Y             Z
Electronic contribution:     10.42381       7.96967       5.90251
Nuclear contribution   :    -11.59872      -9.54996      -5.41516
                        -----------------------------------------
Total Dipole Moment    :     -1.17491      -1.58029       0.48735
                        -----------------------------------------
Magnitude (a.u.)       :      2.02861
Magnitude (Debye)      :      5.15631

Rotational constants in cm-1:     0.011529     0.009690     0.006656
Rotational constants in MHz :   345.626991   290.497300   199.554470

                             ****ORCA TERMINATED NORMALLY****
TOTAL RUN TIME: 0 days 1 hours 48 minutes 8 seconds 375 msec
