                         Program Version 5.0.0 -  RELEASE  -
|  1> ! ri-mp2 cc-pvtz cc-pvtz/c TightSCF NoKeepInts
|  2>
|  3> %scf
|  4>   MaxCore 4096
|  5> end
|  6> *xyz  0  1
|  7>     C       14.9776283   15.6243718   17.5274173
|  8>     C       15.6603299   15.1586045   16.2251504
|  9>     O       17.0373191   14.7987804   16.4515688
| 10>     C       18.1052563   15.6606558   16.4660672
| 11>     O       19.2143323   15.1762159   16.3385795
| 12>     C       17.9517459   16.8354852   17.3708304
| 13>     C       17.4038356   17.9970774   16.9479475
| 14>     C       16.8507080   18.2915533   15.5707922
| 15>     N       17.3719631   19.1027914   17.8004174
| 16>     C       17.9900134   19.1606779   19.0225077
| 17>     S       17.9697516   20.5359377   19.9404057
| 18>     N       18.6269745   18.0200675   19.4467062
| 19>     C       18.5914873   16.7146654   18.7557889
| 20>     C       17.9062690   15.6436978   19.6018299
| 21>     C       18.3659852   14.3146936   19.5515960
| 22>     C       17.7453341   13.3105681   20.3128058
| 23>     C       16.6536568   13.6360898   21.1349999
| 24>     C       16.1899721   14.9572109   21.1875238
| 25>     O       15.1279220   15.2724543   21.9706838
| 26>     C       16.8088111   15.9551697   20.4278153
| 27>     H       15.1481294   14.8925849   18.3269316
| 28>     H       13.8943515   15.7052762   17.3769748
| 29>     H       15.3340254   16.5997531   17.8693502
| 30>     H       15.1318252   14.2623860   15.8747568
| 31>     H       15.5693914   15.9144829   15.4371955
| 32>     H       17.1974661   17.5684119   14.8225489
| 33>     H       17.1751471   19.2798854   15.2203326
| 34>     H       15.7539638   18.2822421   15.5769517
| 35>     H       16.9239249   19.9547861   17.5017638
| 36>     H       19.0624972   18.0874918   20.3579062
| 37>     H       19.6339574   16.3966500   18.6058394
| 38>     H       19.2019001   14.0564748   18.9044945
| 39>     H       18.1087810   12.2858672   20.2579732
| 40>     H       16.1698576   12.8627942   21.7223574
| 41>     H       14.8689778   14.4683479   22.4455380
| 42>     H       16.4235082   16.9677973   20.4816518
| 43> *
| 44>
| 45>                          ****END OF INPUT****

CARTESIAN COORDINATES (ANGSTROEM)
---------------------------------
  C     14.977628   15.624372   17.527417
  C     15.660330   15.158604   16.225150
  O     17.037319   14.798780   16.451569
  C     18.105256   15.660656   16.466067
  O     19.214332   15.176216   16.338580
  C     17.951746   16.835485   17.370830
  C     17.403836   17.997077   16.947948
  C     16.850708   18.291553   15.570792
  N     17.371963   19.102791   17.800417
  C     17.990013   19.160678   19.022508
  S     17.969752   20.535938   19.940406
  N     18.626974   18.020067   19.446706
  C     18.591487   16.714665   18.755789
  C     17.906269   15.643698   19.601830
  C     18.365985   14.314694   19.551596
  C     17.745334   13.310568   20.312806
  C     16.653657   13.636090   21.135000
  C     16.189972   14.957211   21.187524
  O     15.127922   15.272454   21.970684
  C     16.808811   15.955170   20.427815
  H     15.148129   14.892585   18.326932
  H     13.894351   15.705276   17.376975
  H     15.334025   16.599753   17.869350
  H     15.131825   14.262386   15.874757
  H     15.569391   15.914483   15.437195
  H     17.197466   17.568412   14.822549
  H     17.175147   19.279885   15.220333
  H     15.753964   18.282242   15.576952
  H     16.923925   19.954786   17.501764
  H     19.062497   18.087492   20.357906
  H     19.633957   16.396650   18.605839
  H     19.201900   14.056475   18.904494
  H     18.108781   12.285867   20.257973
  H     16.169858   12.862794   21.722357
  H     14.868978   14.468348   22.445538
  H     16.423508   16.967797   20.481652

 Total Charge           Charge          ....    0
 Multiplicity           Mult            ....    1
 Number of Electrons    NEL             ....  154
 Basis Dimension        Dim             ....  828

ORBITAL ENERGIES
----------------

  NO   OCC          E(Eh)            E(eV)
   0   2.0000     -91.888533     -2500.4141
   1   2.0000     -20.599295      -560.5353
   2   2.0000     -20.596610      -560.4623
   3   2.0000     -20.556951      -559.3831
   4   2.0000     -15.624672      -425.1689
   5   2.0000     -15.610571      -424.7852
   6   2.0000     -11.398295      -310.1634
   7   2.0000     -11.385289      -309.8095
   8   2.0000     -11.324156      -308.1459
   9   2.0000     -11.315351      -307.9064
  10   2.0000     -11.312823      -307.8376
  11   2.0000     -11.308615      -307.7231
  12   2.0000     -11.271563      -306.7148
  13   2.0000     -11.265309      -306.5446
  14   2.0000     -11.260790      -306.4217
  15   2.0000     -11.253448      -306.2219
  16   2.0000     -11.242759      -305.9310
  17   2.0000     -11.238348      -305.8110
  18   2.0000     -11.235700      -305.7389
  19   2.0000     -11.229234      -305.5630
  20   2.0000      -8.893657      -242.0087
  21   2.0000      -6.575253      -178.9217
  22   2.0000      -6.573220      -178.8664
  23   2.0000      -6.572651      -178.8509
  24   2.0000      -1.452161       -39.5153
  25   2.0000      -1.416448       -38.5435
  26   2.0000      -1.360989       -37.0344
  27   2.0000      -1.338581       -36.4247
  28   2.0000      -1.238537       -33.7023
  29   2.0000      -1.157938       -31.5091
  30   2.0000      -1.124289       -30.5935
  31   2.0000      -1.047336       -28.4995
  32   2.0000      -1.038854       -28.2686
  33   2.0000      -1.015975       -27.6461
  34   2.0000      -1.004382       -27.3306
  35   2.0000      -0.988834       -26.9076
  36   2.0000      -0.926832       -25.2204
  37   2.0000      -0.894696       -24.3459
  38   2.0000      -0.853008       -23.2115
  39   2.0000      -0.839280       -22.8380
  40   2.0000      -0.833436       -22.6790
  41   2.0000      -0.830245       -22.5921
  42   2.0000      -0.753365       -20.5001
  43   2.0000      -0.738073       -20.0840
  44   2.0000      -0.729852       -19.8603
  45   2.0000      -0.694370       -18.8948
  46   2.0000      -0.687524       -18.7085
  47   2.0000      -0.681189       -18.5361
  48   2.0000      -0.675481       -18.3808
  49   2.0000      -0.664789       -18.0898
  50   2.0000      -0.651427       -17.7262
  51   2.0000      -0.644058       -17.5257
  52   2.0000      -0.639817       -17.4103
  53   2.0000      -0.613691       -16.6994
  54   2.0000      -0.608805       -16.5664
  55   2.0000      -0.604820       -16.4580
  56   2.0000      -0.601306       -16.3624
  57   2.0000      -0.590185       -16.0597
  58   2.0000      -0.583767       -15.8851
  59   2.0000      -0.573879       -15.6160
  60   2.0000      -0.564730       -15.3671
  61   2.0000      -0.557537       -15.1714
  62   2.0000      -0.542288       -14.7564
  63   2.0000      -0.526925       -14.3384
  64   2.0000      -0.516462       -14.0537
  65   2.0000      -0.512045       -13.9334
  66   2.0000      -0.502987       -13.6870
  67   2.0000      -0.500307       -13.6140
  68   2.0000      -0.486219       -13.2307
  69   2.0000      -0.463014       -12.5993
  70   2.0000      -0.456617       -12.4252
  71   2.0000      -0.453164       -12.3312
  72   2.0000      -0.355071        -9.6620
  73   2.0000      -0.347301        -9.4505
  74   2.0000      -0.328296        -8.9334
  75   2.0000      -0.321170        -8.7395
  76   2.0000      -0.316642        -8.6163
  77   0.0000       0.089072         2.4238
  78   0.0000       0.101127         2.7518
  79   0.0000       0.112105         3.0505
  80   0.0000       0.128453         3.4954
  81   0.0000       0.131106         3.5676

MULLIKEN ATOMIC CHARGES
-----------------------
   0 C :   -0.312635
   1 C :    0.004470
   2 O :   -0.316724
   3 C :    0.388608
   4 O :   -0.365985
   5 C :   -0.154696
   6 C :    0.122844
   7 C :   -0.333514
   8 N :   -0.135198
   9 C :    0.208060
  10 S :   -0.443643
  11 N :   -0.227267
  12 C :    0.074652
  13 C :    0.047509
  14 C :   -0.203295
  15 C :   -0.134527
  16 C :   -0.276577
  17 C :    0.314166
  18 O :   -0.359895
  19 C :   -0.282665
  20 H :    0.124670
  21 H :    0.111927
  22 H :    0.103296
  23 H :    0.131297
  24 H :    0.089481
  25 H :    0.121069
  26 H :    0.134550
  27 H :    0.124512
  28 H :    0.195306
  29 H :    0.202148
  30 H :    0.169340
  31 H :    0.166346
  32 H :    0.162551
  33 H :    0.131701
  34 H :    0.240966
  35 H :    0.177151
Sum of atomic charges:   -0.0000000

LOEWDIN ATOMIC CHARGES
----------------------
   0 C :    0.104465
   1 C :   -0.023917
   2 O :    0.311603
   3 C :   -0.419947
   4 O :    0.138166
   5 C :   -0.076519
   6 C :   -0.110534
   7 C :    0.122099
   8 N :    0.400415
   9 C :   -0.456342
  10 S :   -0.040187
  11 N :    0.398630
  12 C :   -0.041367
  13 C :   -0.040718
  14 C :    0.024043
  15 C :    0.044139
  16 C :   -0.002407
  17 C :   -0.194668
  18 O :    0.395011
  19 C :    0.029376
  20 H :   -0.019451
  21 H :   -0.026287
  22 H :   -0.037481
  23 H :   -0.018892
  24 H :   -0.039867
  25 H :   -0.011448
  26 H :   -0.010118
  27 H :   -0.017221
  28 H :   -0.059374
  29 H :   -0.063652
  30 H :   -0.001623
  31 H :   -0.022250
  32 H :   -0.019003
  33 H :   -0.035310
  34 H :   -0.153800
  35 H :   -0.025565

  Mayer bond orders larger than 0.100000
B(  0-C ,  1-C ) :   0.9585 B(  0-C , 20-H ) :   0.9711 B(  0-C , 21-H ) :   0.9768
B(  0-C , 22-H ) :   0.9731 B(  1-C ,  2-O ) :   0.9143 B(  1-C , 23-H ) :   0.9840
B(  1-C , 24-H ) :   0.9783 B(  2-O ,  3-C ) :   1.1174 B(  3-C ,  4-O ) :   2.0918
B(  3-C ,  5-C ) :   0.9181 B(  5-C ,  6-C ) :   1.7157 B(  5-C , 12-C ) :   0.9564
B(  6-C ,  7-C ) :   0.9384 B(  6-C ,  8-N ) :   1.0978 B(  7-C , 25-H ) :   0.9821
B(  7-C , 26-H ) :   0.9751 B(  7-C , 27-H ) :   0.9651 B(  8-N ,  9-C ) :   1.1996
B(  8-N , 28-H ) :   0.9536 B(  9-C , 10-S ) :   1.6058 B(  9-C , 11-N ) :   1.2851
B( 11-N , 12-C ) :   0.9860 B( 11-N , 29-H ) :   0.9472 B( 12-C , 13-C ) :   0.9504
B( 12-C , 30-H ) :   0.9964 B( 13-C , 14-C ) :   1.3843 B( 13-C , 19-C ) :   1.3374
B( 14-C , 15-C ) :   1.4027 B( 14-C , 31-H ) :   0.9627 B( 15-C , 16-C ) :   1.3574
B( 15-C , 32-H ) :   0.9704 B( 16-C , 17-C ) :   1.3317 B( 16-C , 33-H ) :   0.9851
B( 17-C , 18-O ) :   1.1078 B( 17-C , 19-C ) :   1.3687 B( 18-O , 34-H ) :   0.9797
B( 19-C , 35-H ) :   0.9577

MP2 TOTAL ENERGY:    -1274.317037989 Eh
FINAL SINGLE POINT ENERGY     -1274.317037989063

DIPOLE MOMENT
-------------
                                X             Y             Z
Electronic contribution:      9.48451       5.99161       6.42405
Nuclear contribution   :    -11.01519      -7.18743      -7.30212
                        -----------------------------------------
Total Dipole Moment    :     -1.53068      -1.19583      -0.87807
                        -----------------------------------------
Magnitude (a.u.)       :      2.13167
Magnitude (Debye)      :      5.41827

Rotational constants in cm-1:     0.012132     0.009514     0.006911
Rotational constants in MHz :   363.710950   285.212536   207.173391

                             ****ORCA TERMINATED NORMALLY****
TOTAL RUN TIME: 0 days 1 hours 43 minutes 43 seconds 453 msec
