                         Program Version 4.2.0 -  RELEASE  -
|  1> ! ri-mp2 cc-pvtz cc-pvtz/c TightSCF  NoKeepInts
|  2>
|  3> %scf
|  4>   MaxCore 4096
|  5> end
|  6> *xyz  0  1
|  7>     C       14.2646567   14.9455691   15.9157275
|  8>     C       15.7353683   14.6616502   15.5665698
|  9>     O       16.4829009   15.8509868   15.8786327
| 10>     C       17.6100788   15.7618692   16.6426921
| 11>     O       18.2377160   14.7214086   16.7547416
| 12>     C       17.8391522   16.9392560   17.5471599
| 13>     C       17.2907625   18.1714808   17.3787688
| 14>     C       16.3675311   18.6405947   16.2727741
| 15>     N       17.6256046   19.2061539   18.2587653
| 16>     C       18.5977687   19.1335728   19.2211219
| 17>     S       19.0207960   20.4463999   20.1339039
| 18>     N       19.2025058   17.9137632   19.3874036
| 19>     C       18.7744347   16.6646988   18.7303479
| 20>     C       18.1172848   15.7285590   19.7413949
| 21>     C       18.5969368   14.4171053   19.9148781
| 22>     C       17.9930973   13.5497698   20.8406495
| 23>     C       16.8988758   13.9964606   21.6007596
| 24>     C       16.4154347   15.3005442   21.4284051
| 25>     O       15.3547144   15.7327496   22.1560452
| 26>     C       17.0183955   16.1614337   20.5060616
| 27>     H       14.1591484   15.1770064   16.9831945
| 28>     H       13.6410890   14.0715557   15.6914804
| 29>     H       13.8856327   15.7962036   15.3359111
| 30>     H       16.0776915   13.7980857   16.1535483
| 31>     H       15.8379146   14.4189477   14.5010040
| 32>     H       16.7683124   18.3682881   15.2884034
| 33>     H       16.2261644   19.7281588   16.2715224
| 34>     H       15.3773548   18.1789830   16.3739254
| 35>     H       17.1931185   20.1098091   18.1524669
| 36>     H       19.8937768   17.8779366   20.1254905
| 37>     H       19.6749869   16.1704333   18.3380076
| 38>     H       19.4318671   14.0633848   19.3148829
| 39>     H       18.3701618   12.5357404   20.9605449
| 40>     H       16.4283212   13.3292372   22.3151042
| 41>     H       15.1069215   15.0165178   22.7596967
| 42>     H       16.6305228   17.1676854   20.3920138
| 43> *
| 44>
| 45>                          ****END OF INPUT****

CARTESIAN COORDINATES (ANGSTROEM)
---------------------------------
  C     14.264657   14.945569   15.915727
  C     15.735368   14.661650   15.566570
  O     16.482901   15.850987   15.878633
  C     17.610079   15.761869   16.642692
  O     18.237716   14.721409   16.754742
  C     17.839152   16.939256   17.547160
  C     17.290762   18.171481   17.378769
  C     16.367531   18.640595   16.272774
  N     17.625605   19.206154   18.258765
  C     18.597769   19.133573   19.221122
  S     19.020796   20.446400   20.133904
  N     19.202506   17.913763   19.387404
  C     18.774435   16.664699   18.730348
  C     18.117285   15.728559   19.741395
  C     18.596937   14.417105   19.914878
  C     17.993097   13.549770   20.840649
  C     16.898876   13.996461   21.600760
  C     16.415435   15.300544   21.428405
  O     15.354714   15.732750   22.156045
  C     17.018396   16.161434   20.506062
  H     14.159148   15.177006   16.983194
  H     13.641089   14.071556   15.691480
  H     13.885633   15.796204   15.335911
  H     16.077692   13.798086   16.153548
  H     15.837915   14.418948   14.501004
  H     16.768312   18.368288   15.288403
  H     16.226164   19.728159   16.271522
  H     15.377355   18.178983   16.373925
  H     17.193119   20.109809   18.152467
  H     19.893777   17.877937   20.125491
  H     19.674987   16.170433   18.338008
  H     19.431867   14.063385   19.314883
  H     18.370162   12.535740   20.960545
  H     16.428321   13.329237   22.315104
  H     15.106922   15.016518   22.759697
  H     16.630523   17.167685   20.392014

 Total Charge           Charge          ....    0
 Multiplicity           Mult            ....    1
 Number of Electrons    NEL             ....  154
 Basis Dimension        Dim             ....  828

ORBITAL ENERGIES
----------------

  NO   OCC          E(Eh)            E(eV)
   0   2.0000     -91.888189     -2500.4047
   1   2.0000     -20.600983      -560.5813
   2   2.0000     -20.592395      -560.3476
   3   2.0000     -20.546410      -559.0962
   4   2.0000     -15.628504      -425.2732
   5   2.0000     -15.606898      -424.6853
   6   2.0000     -11.395718      -310.0933
   7   2.0000     -11.383110      -309.7502
   8   2.0000     -11.336155      -308.4725
   9   2.0000     -11.308216      -307.7122
  10   2.0000     -11.305883      -307.6487
  11   2.0000     -11.299178      -307.4663
  12   2.0000     -11.260615      -306.4169
  13   2.0000     -11.259059      -306.3746
  14   2.0000     -11.253996      -306.2368
  15   2.0000     -11.248285      -306.0814
  16   2.0000     -11.237930      -305.7996
  17   2.0000     -11.234078      -305.6948
  18   2.0000     -11.233396      -305.6763
  19   2.0000     -11.231006      -305.6112
  20   2.0000      -8.893251      -241.9977
  21   2.0000      -6.574828      -178.9102
  22   2.0000      -6.572821      -178.8556
  23   2.0000      -6.572235      -178.8396
  24   2.0000      -1.453871       -39.5619
  25   2.0000      -1.412138       -38.4262
  26   2.0000      -1.357174       -36.9306
  27   2.0000      -1.339453       -36.4484
  28   2.0000      -1.237124       -33.6638
  29   2.0000      -1.152688       -31.3662
  30   2.0000      -1.119753       -30.4700
  31   2.0000      -1.044322       -28.4174
  32   2.0000      -1.036993       -28.2180
  33   2.0000      -1.010085       -27.4858
  34   2.0000      -0.998049       -27.1583
  35   2.0000      -0.983617       -26.7656
  36   2.0000      -0.921424       -25.0732
  37   2.0000      -0.890010       -24.2184
  38   2.0000      -0.847213       -23.0538
  39   2.0000      -0.835386       -22.7320
  40   2.0000      -0.828451       -22.5433
  41   2.0000      -0.817074       -22.2337
  42   2.0000      -0.761456       -20.7203
  43   2.0000      -0.736145       -20.0315
  44   2.0000      -0.725275       -19.7357
  45   2.0000      -0.691524       -18.8173
  46   2.0000      -0.684832       -18.6352
  47   2.0000      -0.679353       -18.4861
  48   2.0000      -0.675451       -18.3800
  49   2.0000      -0.660317       -17.9681
  50   2.0000      -0.649492       -17.6736
  51   2.0000      -0.644076       -17.5262
  52   2.0000      -0.635013       -17.2796
  53   2.0000      -0.601915       -16.3789
  54   2.0000      -0.600553       -16.3419
  55   2.0000      -0.596044       -16.2192
  56   2.0000      -0.591002       -16.0820
  57   2.0000      -0.583726       -15.8840
  58   2.0000      -0.573952       -15.6180
  59   2.0000      -0.564469       -15.3600
  60   2.0000      -0.560598       -15.2546
  61   2.0000      -0.558344       -15.1933
  62   2.0000      -0.539541       -14.6817
  63   2.0000      -0.523499       -14.2451
  64   2.0000      -0.517916       -14.0932
  65   2.0000      -0.510500       -13.8914
  66   2.0000      -0.500283       -13.6134
  67   2.0000      -0.495920       -13.4947
  68   2.0000      -0.481033       -13.0896
  69   2.0000      -0.463416       -12.6102
  70   2.0000      -0.457616       -12.4524
  71   2.0000      -0.456775       -12.4295
  72   2.0000      -0.354272        -9.6402
  73   2.0000      -0.344558        -9.3759
  74   2.0000      -0.327328        -8.9070
  75   2.0000      -0.315942        -8.5972
  76   2.0000      -0.314280        -8.5520
  77   0.0000       0.075436         2.0527
  78   0.0000       0.111379         3.0308
  79   0.0000       0.120244         3.2720
  80   0.0000       0.135638         3.6909
  81   0.0000       0.139707         3.8016

MULLIKEN ATOMIC CHARGES
-----------------------
   0 C :   -0.278325
   1 C :    0.030961
   2 O :   -0.345418
   3 C :    0.444160
   4 O :   -0.423583
   5 C :   -0.177948
   6 C :    0.143054
   7 C :   -0.286362
   8 N :   -0.122798
   9 C :    0.201970
  10 S :   -0.439347
  11 N :   -0.197547
  12 C :    0.039404
  13 C :    0.055677
  14 C :   -0.160654
  15 C :   -0.133897
  16 C :   -0.279518
  17 C :    0.311281
  18 O :   -0.359193
  19 C :   -0.274439
  20 H :    0.101718
  21 H :    0.102569
  22 H :    0.091085
  23 H :    0.109248
  24 H :    0.099349
  25 H :    0.127402
  26 H :    0.104142
  27 H :    0.126080
  28 H :    0.196892
  29 H :    0.193752
  30 H :    0.153722
  31 H :    0.153574
  32 H :    0.159417
  33 H :    0.128313
  34 H :    0.240230
  35 H :    0.165028
Sum of atomic charges:    0.0000000

LOEWDIN ATOMIC CHARGES
----------------------
   0 C :    0.103863
   1 C :   -0.012394
   2 O :    0.306097
   3 C :   -0.415641
   4 O :    0.106119
   5 C :   -0.092058
   6 C :   -0.066842
   7 C :    0.125012
   8 N :    0.404747
   9 C :   -0.458721
  10 S :   -0.036014
  11 N :    0.397777
  12 C :   -0.046362
  13 C :   -0.038897
  14 C :    0.022161
  15 C :    0.040926
  16 C :   -0.002439
  17 C :   -0.193039
  18 O :    0.392901
  19 C :    0.027921
  20 H :   -0.025556
  21 H :   -0.023918
  22 H :   -0.030561
  23 H :   -0.025504
  24 H :   -0.030078
  25 H :   -0.008091
  26 H :   -0.020849
  27 H :   -0.010301
  28 H :   -0.059117
  29 H :   -0.063717
  30 H :   -0.004869
  31 H :   -0.025167
  32 H :   -0.021128
  33 H :   -0.036358
  34 H :   -0.154819
  35 H :   -0.025085

  Mayer bond orders larger than 0.100000
B(  0-C ,  1-C ) :   0.9713 B(  0-C , 20-H ) :   0.9758 B(  0-C , 21-H ) :   0.9782
B(  0-C , 22-H ) :   0.9788 B(  1-C ,  2-O ) :   0.8934 B(  1-C , 23-H ) :   0.9725
B(  1-C , 24-H ) :   0.9831 B(  2-O ,  3-C ) :   1.1566 B(  3-C ,  4-O ) :   1.9929
B(  3-C ,  5-C ) :   1.0448 B(  5-C ,  6-C ) :   1.6516 B(  5-C , 12-C ) :   0.9653
B(  6-C ,  7-C ) :   0.9550 B(  6-C ,  8-N ) :   1.1467 B(  7-C , 25-H ) :   0.9663
B(  7-C , 26-H ) :   0.9907 B(  7-C , 27-H ) :   0.9644 B(  8-N ,  9-C ) :   1.1794
B(  8-N , 28-H ) :   0.9489 B(  9-C , 10-S ) :   1.6106 B(  9-C , 11-N ) :   1.3039
B( 11-N , 12-C ) :   0.9917 B( 11-N , 29-H ) :   0.9520 B( 12-C , 13-C ) :   0.9468
B( 12-C , 30-H ) :   0.9994 B( 13-C , 14-C ) :   1.3763 B( 13-C , 19-C ) :   1.3688
B( 14-C , 15-C ) :   1.3943 B( 14-C , 31-H ) :   0.9648 B( 15-C , 16-C ) :   1.3627
B( 15-C , 32-H ) :   0.9713 B( 16-C , 17-C ) :   1.3316 B( 16-C , 33-H ) :   0.9859
B( 17-C , 18-O ) :   1.1081 B( 17-C , 19-C ) :   1.3784 B( 18-O , 34-H ) :   0.9805
B( 19-C , 35-H ) :   0.9585

MP2 TOTAL ENERGY:    -1274.344183081 Eh
FINAL SINGLE POINT ENERGY     -1274.344183081286

DIPOLE MOMENT
-------------
                                X             Y             Z
Electronic contribution:     11.85300       8.63718       9.34445
Nuclear contribution   :    -13.30757      -9.96674     -10.29705
                        -----------------------------------------
Total Dipole Moment    :     -1.45456      -1.32957      -0.95260
                        -----------------------------------------
Magnitude (a.u.)       :      2.18882
Magnitude (Debye)      :      5.56354

Rotational constants in cm-1:     0.010463     0.009200     0.006191
Rotational constants in MHz :   313.661925   275.803239   185.605103

                             ****ORCA TERMINATED NORMALLY****
TOTAL RUN TIME: 0 days 1 hours 41 minutes 16 seconds 451 msec
