                         Program Version 4.2.0 -  RELEASE  -
|  1> ! ri-mp2 cc-pvtz cc-pvtz/c TightSCF  NoKeepInts
|  2>
|  3> %scf
|  4>   MaxCore 4096
|  5> end
|  6> *xyz  0  1
|  7>     C       15.1709674   15.0677976   17.0338545
|  8>     C       16.3112778   14.1442177   16.5471464
|  9>     O       17.6044822   14.7933710   16.4736669
| 10>     C       17.7135390   16.1013463   16.1032704
| 11>     O       17.3007668   16.4510166   15.0116551
| 12>     C       17.8261863   17.0291492   17.2838714
| 13>     C       17.4369771   18.3289186   17.2343121
| 14>     C       16.7152677   19.0320053   16.1047968
| 15>     N       17.7581035   19.1924924   18.2865948
| 16>     C       18.6609548   18.9028062   19.2760472
| 17>     S       19.1550433   20.0380254   20.3724145
| 18>     N       19.1368546   17.6157173   19.3075489
| 19>     C       18.5749479   16.5004771   18.5217876
| 20>     C       17.7267159   15.6138056   19.4315036
| 21>     C       17.9926959   14.2344278   19.5265855
| 22>     C       17.2254829   13.4120998   20.3685437
| 23>     C       16.1878449   13.9737879   21.1312829
| 24>     C       15.9279908   15.3484963   21.0518290
| 25>     O       14.9264562   15.8940919   21.7864057
| 26>     C       16.6927779   16.1642717   20.2122356
| 27>     H       15.3826682   15.4893802   18.0188169
| 28>     H       14.2378351   14.4973526   17.1136639
| 29>     H       14.9929705   15.8897333   16.3295925
| 30>     H       16.3832335   13.2717364   17.2091190
| 31>     H       16.0471069   13.7766706   15.5467230
| 32>     H       17.3634562   19.1070523   15.2222135
| 33>     H       16.3913367   20.0453207   16.3693193
| 34>     H       15.8216714   18.4693893   15.8067719
| 35>     H       17.4275889   20.1441245   18.2672607
| 36>     H       19.7808484   17.4219275   20.0637867
| 37>     H       19.4206784   15.8986229   18.1603628
| 38>     H       18.7927751   13.7953729   18.9360445
| 39>     H       17.4376864   12.3460079   20.4297350
| 40>     H       15.5925870   13.3430031   21.7834070
| 41>     H       14.5544082   15.1920453   22.3411213
| 42>     H       16.4748163   17.2259390   20.1707091
| 43> *
| 44>
| 45>                          ****END OF INPUT****

CARTESIAN COORDINATES (ANGSTROEM)
---------------------------------
  C     15.170967   15.067798   17.033855
  C     16.311278   14.144218   16.547146
  O     17.604482   14.793371   16.473667
  C     17.713539   16.101346   16.103270
  O     17.300767   16.451017   15.011655
  C     17.826186   17.029149   17.283871
  C     17.436977   18.328919   17.234312
  C     16.715268   19.032005   16.104797
  N     17.758104   19.192492   18.286595
  C     18.660955   18.902806   19.276047
  S     19.155043   20.038025   20.372415
  N     19.136855   17.615717   19.307549
  C     18.574948   16.500477   18.521788
  C     17.726716   15.613806   19.431504
  C     17.992696   14.234428   19.526585
  C     17.225483   13.412100   20.368544
  C     16.187845   13.973788   21.131283
  C     15.927991   15.348496   21.051829
  O     14.926456   15.894092   21.786406
  C     16.692778   16.164272   20.212236
  H     15.382668   15.489380   18.018817
  H     14.237835   14.497353   17.113664
  H     14.992970   15.889733   16.329593
  H     16.383233   13.271736   17.209119
  H     16.047107   13.776671   15.546723
  H     17.363456   19.107052   15.222213
  H     16.391337   20.045321   16.369319
  H     15.821671   18.469389   15.806772
  H     17.427589   20.144124   18.267261
  H     19.780848   17.421927   20.063787
  H     19.420678   15.898623   18.160363
  H     18.792775   13.795373   18.936045
  H     17.437686   12.346008   20.429735
  H     15.592587   13.343003   21.783407
  H     14.554408   15.192045   22.341121
  H     16.474816   17.225939   20.170709

 Total Charge           Charge          ....    0
 Multiplicity           Mult            ....    1
 Number of Electrons    NEL             ....  154
 Basis Dimension        Dim             ....  828

ORBITAL ENERGIES
----------------

  NO   OCC          E(Eh)            E(eV)
   0   2.0000     -91.891257     -2500.4882
   1   2.0000     -20.599061      -560.5290
   2   2.0000     -20.579821      -560.0054
   3   2.0000     -20.550762      -559.2147
   4   2.0000     -15.630948      -425.3397
   5   2.0000     -15.609706      -424.7617
   6   2.0000     -11.394323      -310.0553
   7   2.0000     -11.385651      -309.8193
   8   2.0000     -11.336561      -308.4835
   9   2.0000     -11.316486      -307.9372
  10   2.0000     -11.312806      -307.8371
  11   2.0000     -11.300470      -307.5014
  12   2.0000     -11.262600      -306.4709
  13   2.0000     -11.260294      -306.4082
  14   2.0000     -11.258005      -306.3459
  15   2.0000     -11.254129      -306.2404
  16   2.0000     -11.246193      -306.0245
  17   2.0000     -11.241054      -305.8846
  18   2.0000     -11.240368      -305.8660
  19   2.0000     -11.224827      -305.4431
  20   2.0000      -8.896270      -242.0798
  21   2.0000      -6.577835      -178.9920
  22   2.0000      -6.575842      -178.9378
  23   2.0000      -6.575244      -178.9215
  24   2.0000      -1.446930       -39.3730
  25   2.0000      -1.418846       -38.6088
  26   2.0000      -1.350790       -36.7569
  27   2.0000      -1.342061       -36.5193
  28   2.0000      -1.240241       -33.7487
  29   2.0000      -1.159569       -31.5535
  30   2.0000      -1.120856       -30.5000
  31   2.0000      -1.044620       -28.4256
  32   2.0000      -1.031585       -28.0709
  33   2.0000      -1.018181       -27.7061
  34   2.0000      -0.999291       -27.1921
  35   2.0000      -0.986795       -26.8521
  36   2.0000      -0.924850       -25.1665
  37   2.0000      -0.896746       -24.4017
  38   2.0000      -0.848440       -23.0872
  39   2.0000      -0.842332       -22.9210
  40   2.0000      -0.837009       -22.7762
  41   2.0000      -0.817726       -22.2515
  42   2.0000      -0.747010       -20.3272
  43   2.0000      -0.734278       -19.9807
  44   2.0000      -0.722823       -19.6690
  45   2.0000      -0.698178       -18.9984
  46   2.0000      -0.691287       -18.8109
  47   2.0000      -0.674444       -18.3526
  48   2.0000      -0.669547       -18.2193
  49   2.0000      -0.663739       -18.0613
  50   2.0000      -0.651589       -17.7306
  51   2.0000      -0.645057       -17.5529
  52   2.0000      -0.637732       -17.3536
  53   2.0000      -0.622683       -16.9441
  54   2.0000      -0.609102       -16.5745
  55   2.0000      -0.601998       -16.3812
  56   2.0000      -0.600596       -16.3431
  57   2.0000      -0.579764       -15.7762
  58   2.0000      -0.572491       -15.5783
  59   2.0000      -0.564930       -15.3725
  60   2.0000      -0.549877       -14.9629
  61   2.0000      -0.544000       -14.8030
  62   2.0000      -0.538660       -14.6577
  63   2.0000      -0.530756       -14.4426
  64   2.0000      -0.526654       -14.3310
  65   2.0000      -0.515620       -14.0307
  66   2.0000      -0.503661       -13.7053
  67   2.0000      -0.498724       -13.5710
  68   2.0000      -0.478938       -13.0326
  69   2.0000      -0.464253       -12.6330
  70   2.0000      -0.454548       -12.3689
  71   2.0000      -0.444160       -12.0862
  72   2.0000      -0.357571        -9.7300
  73   2.0000      -0.350257        -9.5310
  74   2.0000      -0.330341        -8.9890
  75   2.0000      -0.324777        -8.8376
  76   2.0000      -0.318145        -8.6572
  77   0.0000       0.067093         1.8257
  78   0.0000       0.103238         2.8092
  79   0.0000       0.120361         3.2752
  80   0.0000       0.129220         3.5163
  81   0.0000       0.133146         3.6231

MULLIKEN ATOMIC CHARGES
-----------------------
   0 C :   -0.339519
   1 C :    0.038338
   2 O :   -0.392963
   3 C :    0.479388
   4 O :   -0.404878
   5 C :   -0.222944
   6 C :    0.148275
   7 C :   -0.273496
   8 N :   -0.121587
   9 C :    0.190721
  10 S :   -0.431794
  11 N :   -0.193595
  12 C :    0.039166
  13 C :    0.051746
  14 C :   -0.193359
  15 C :   -0.136538
  16 C :   -0.273815
  17 C :    0.308795
  18 O :   -0.357722
  19 C :   -0.261842
  20 H :    0.118550
  21 H :    0.114006
  22 H :    0.110487
  23 H :    0.114524
  24 H :    0.121030
  25 H :    0.137267
  26 H :    0.095090
  27 H :    0.126544
  28 H :    0.198152
  29 H :    0.191031
  30 H :    0.150297
  31 H :    0.159579
  32 H :    0.165252
  33 H :    0.133018
  34 H :    0.240670
  35 H :    0.172128
Sum of atomic charges:   -0.0000000

LOEWDIN ATOMIC CHARGES
----------------------
   0 C :    0.107554
   1 C :   -0.010295
   2 O :    0.278474
   3 C :   -0.422547
   4 O :    0.123196
   5 C :   -0.096193
   6 C :   -0.060475
   7 C :    0.130454
   8 N :    0.406806
   9 C :   -0.459589
  10 S :   -0.031234
  11 N :    0.396300
  12 C :   -0.051643
  13 C :   -0.039658
  14 C :    0.018457
  15 C :    0.039117
  16 C :   -0.002089
  17 C :   -0.191863
  18 O :    0.396432
  19 C :    0.031320
  20 H :   -0.033093
  21 H :   -0.022469
  22 H :   -0.029374
  23 H :   -0.025151
  24 H :   -0.028103
  25 H :   -0.003127
  26 H :   -0.022904
  27 H :   -0.008140
  28 H :   -0.057872
  29 H :   -0.065003
  30 H :   -0.006270
  31 H :   -0.027865
  32 H :   -0.020633
  33 H :   -0.034924
  34 H :   -0.153415
  35 H :   -0.024180

  Mayer bond orders larger than 0.100000
B(  0-C ,  1-C ) :   0.9584 B(  0-C , 20-H ) :   0.9673 B(  0-C , 21-H ) :   0.9775
B(  0-C , 22-H ) :   0.9729 B(  1-C ,  2-O ) :   0.8789 B(  1-C , 23-H ) :   0.9775
B(  1-C , 24-H ) :   0.9863 B(  2-O ,  3-C ) :   1.1018 B(  3-C ,  4-O ) :   2.0194
B(  3-C ,  5-C ) :   1.0433 B(  5-C ,  6-C ) :   1.6600 B(  5-C , 12-C ) :   0.9646
B(  6-C ,  7-C ) :   0.9686 B(  6-C ,  8-N ) :   1.1394 B(  7-C , 25-H ) :   0.9567
B(  7-C , 26-H ) :   0.9880 B(  7-C , 27-H ) :   0.9667 B(  8-N ,  9-C ) :   1.1783
B(  8-N , 28-H ) :   0.9488 B(  9-C , 10-S ) :   1.6224 B(  9-C , 11-N ) :   1.2961
B( 11-N , 12-C ) :   0.9891 B( 11-N , 29-H ) :   0.9533 B( 12-C , 13-C ) :   0.9409
B( 12-C , 30-H ) :   1.0049 B( 13-C , 14-C ) :   1.3606 B( 13-C , 19-C ) :   1.3619
B( 14-C , 15-C ) :   1.3869 B( 14-C , 31-H ) :   0.9681 B( 15-C , 16-C ) :   1.3645
B( 15-C , 32-H ) :   0.9695 B( 16-C , 17-C ) :   1.3297 B( 16-C , 33-H ) :   0.9837
B( 17-C , 18-O ) :   1.1128 B( 17-C , 19-C ) :   1.3777 B( 18-O , 34-H ) :   0.9798
B( 19-C , 35-H ) :   0.9582

MP2 TOTAL ENERGY:    -1274.323360299 Eh
FINAL SINGLE POINT ENERGY     -1274.323360298827

DIPOLE MOMENT
-------------
                                X             Y             Z
Electronic contribution:     10.15774       7.90291       6.03433
Nuclear contribution   :    -11.30623      -9.50313      -6.02723
                        -----------------------------------------
Total Dipole Moment    :     -1.14850      -1.60022       0.00710
                        -----------------------------------------
Magnitude (a.u.)       :      1.96972
Magnitude (Debye)      :      5.00663

Rotational constants in cm-1:     0.011798     0.009936     0.006616
Rotational constants in MHz :   353.698908   297.866752   198.335198

                             ****ORCA TERMINATED NORMALLY****
TOTAL RUN TIME: 0 days 1 hours 49 minutes 28 seconds 381 msec
