                         Program Version 4.2.0 -  RELEASE  -
|  1> ! ri-mp2 cc-pvtz cc-pvtz/c TightSCF  NoKeepInts
|  2>
|  3> %scf
|  4>   MaxCore 4096
|  5> end
|  6> *xyz  0  1
|  7>     C       14.7323777   14.4782378   17.2901877
|  8>     C       15.5804062   15.6095492   16.6870694
|  9>     O       16.8721778   15.0444079   16.3894314
| 10>     C       18.0807092   15.6843981   16.5171308
| 11>     O       19.1015417   15.0326649   16.3988408
| 12>     C       18.0783167   16.9035113   17.3773161
| 13>     C       17.5815301   18.0874969   16.9536111
| 14>     C       16.9792706   18.3835250   15.5972163
| 15>     N       17.6472900   19.2064616   17.7862721
| 16>     C       18.2740727   19.2331040   19.0056425
| 17>     S       18.3520984   20.6152504   19.9097428
| 18>     N       18.8270519   18.0535873   19.4430375
| 19>     C       18.7199457   16.7515708   18.7537897
| 20>     C       17.9425834   15.7376198   19.5872675
| 21>     C       18.3968519   14.4099252   19.6861788
| 22>     C       17.6731029   13.4583657   20.4238041
| 23>     C       16.4811665   13.8353862   21.0653964
| 24>     C       16.0201701   15.1545382   20.9616051
| 25>     O       14.8600943   15.5177343   21.5638796
| 26>     C       16.7424754   16.1000912   20.2269181
| 27>     H       15.2107828   14.0785224   18.1933713
| 28>     H       14.6152597   13.6575114   16.5715647
| 29>     H       13.7351915   14.8441144   17.5629716
| 30>     H       15.1110698   16.0045309   15.7769853
| 31>     H       15.6340082   16.4068717   17.4371856
| 32>     H       17.1426014   17.5678670   14.8819878
| 33>     H       17.4309655   19.2818705   15.1570157
| 34>     H       15.8983017   18.5530901   15.6739080
| 35>     H       17.2597320   20.0850333   17.4793561
| 36>     H       19.2633009   18.0990243   20.3553773
| 37>     H       19.7393350   16.3652363   18.6057223
| 38>     H       19.3071950   14.1100017   19.1712687
| 39>     H       18.0333045   12.4329316   20.4874358
| 40>     H       15.9172156   13.1018192   21.6320076
| 41>     H       14.5418610   14.7519584   22.0657568
| 42>     H       16.3636420   17.1141912   20.1577476
| 43> *
| 44>
| 45>                          ****END OF INPUT****

CARTESIAN COORDINATES (ANGSTROEM)
---------------------------------
  C     14.732378   14.478238   17.290188
  C     15.580406   15.609549   16.687069
  O     16.872178   15.044408   16.389431
  C     18.080709   15.684398   16.517131
  O     19.101542   15.032665   16.398841
  C     18.078317   16.903511   17.377316
  C     17.581530   18.087497   16.953611
  C     16.979271   18.383525   15.597216
  N     17.647290   19.206462   17.786272
  C     18.274073   19.233104   19.005643
  S     18.352098   20.615250   19.909743
  N     18.827052   18.053587   19.443037
  C     18.719946   16.751571   18.753790
  C     17.942583   15.737620   19.587267
  C     18.396852   14.409925   19.686179
  C     17.673103   13.458366   20.423804
  C     16.481167   13.835386   21.065396
  C     16.020170   15.154538   20.961605
  O     14.860094   15.517734   21.563880
  C     16.742475   16.100091   20.226918
  H     15.210783   14.078522   18.193371
  H     14.615260   13.657511   16.571565
  H     13.735191   14.844114   17.562972
  H     15.111070   16.004531   15.776985
  H     15.634008   16.406872   17.437186
  H     17.142601   17.567867   14.881988
  H     17.430965   19.281870   15.157016
  H     15.898302   18.553090   15.673908
  H     17.259732   20.085033   17.479356
  H     19.263301   18.099024   20.355377
  H     19.739335   16.365236   18.605722
  H     19.307195   14.110002   19.171269
  H     18.033304   12.432932   20.487436
  H     15.917216   13.101819   21.632008
  H     14.541861   14.751958   22.065757
  H     16.363642   17.114191   20.157748

 Total Charge           Charge          ....    0
 Multiplicity           Mult            ....    1
 Number of Electrons    NEL             ....  154
 Basis Dimension        Dim             ....  828

ORBITAL ENERGIES
----------------

  NO   OCC          E(Eh)            E(eV)
   0   2.0000     -91.889896     -2500.4512
   1   2.0000     -20.602787      -560.6303
   2   2.0000     -20.600315      -560.5631
   3   2.0000     -20.549998      -559.1939
   4   2.0000     -15.626551      -425.2201
   5   2.0000     -15.611926      -424.8221
   6   2.0000     -11.397385      -310.1386
   7   2.0000     -11.386864      -309.8523
   8   2.0000     -11.327439      -308.2353
   9   2.0000     -11.317050      -307.9526
  10   2.0000     -11.315672      -307.9151
  11   2.0000     -11.303504      -307.5840
  12   2.0000     -11.270704      -306.6915
  13   2.0000     -11.264486      -306.5223
  14   2.0000     -11.263988      -306.5087
  15   2.0000     -11.257079      -306.3207
  16   2.0000     -11.246188      -306.0243
  17   2.0000     -11.242622      -305.9273
  18   2.0000     -11.239576      -305.8444
  19   2.0000     -11.228597      -305.5457
  20   2.0000      -8.895016      -242.0457
  21   2.0000      -6.576605      -178.9585
  22   2.0000      -6.574578      -178.9034
  23   2.0000      -6.574004      -178.8878
  24   2.0000      -1.449044       -39.4305
  25   2.0000      -1.420103       -38.6430
  26   2.0000      -1.359372       -36.9904
  27   2.0000      -1.339983       -36.4628
  28   2.0000      -1.239926       -33.7401
  29   2.0000      -1.161780       -31.6137
  30   2.0000      -1.126120       -30.6433
  31   2.0000      -1.049612       -28.5614
  32   2.0000      -1.039166       -28.2771
  33   2.0000      -1.019146       -27.7324
  34   2.0000      -1.005562       -27.3627
  35   2.0000      -0.989579       -26.9278
  36   2.0000      -0.928295       -25.2602
  37   2.0000      -0.881721       -23.9928
  38   2.0000      -0.855173       -23.2705
  39   2.0000      -0.841886       -22.9089
  40   2.0000      -0.837315       -22.7845
  41   2.0000      -0.836519       -22.7628
  42   2.0000      -0.756945       -20.5975
  43   2.0000      -0.740063       -20.1381
  44   2.0000      -0.731660       -19.9095
  45   2.0000      -0.698587       -19.0095
  46   2.0000      -0.689249       -18.7554
  47   2.0000      -0.682282       -18.5658
  48   2.0000      -0.677189       -18.4272
  49   2.0000      -0.660845       -17.9825
  50   2.0000      -0.656776       -17.8718
  51   2.0000      -0.647719       -17.6253
  52   2.0000      -0.640158       -17.4196
  53   2.0000      -0.612465       -16.6660
  54   2.0000      -0.608706       -16.5637
  55   2.0000      -0.605835       -16.4856
  56   2.0000      -0.600318       -16.3355
  57   2.0000      -0.585230       -15.9249
  58   2.0000      -0.578621       -15.7451
  59   2.0000      -0.569130       -15.4868
  60   2.0000      -0.560303       -15.2466
  61   2.0000      -0.557057       -15.1583
  62   2.0000      -0.548306       -14.9202
  63   2.0000      -0.529648       -14.4125
  64   2.0000      -0.519545       -14.1375
  65   2.0000      -0.514799       -14.0084
  66   2.0000      -0.502741       -13.6803
  67   2.0000      -0.502422       -13.6716
  68   2.0000      -0.488660       -13.2971
  69   2.0000      -0.471049       -12.8179
  70   2.0000      -0.452385       -12.3100
  71   2.0000      -0.450883       -12.2692
  72   2.0000      -0.356604        -9.7037
  73   2.0000      -0.352505        -9.5922
  74   2.0000      -0.329624        -8.9695
  75   2.0000      -0.324795        -8.8381
  76   2.0000      -0.318149        -8.6573
  77   0.0000       0.086855         2.3634
  78   0.0000       0.103899         2.8272
  79   0.0000       0.110302         3.0015
  80   0.0000       0.127088         3.4583
  81   0.0000       0.132984         3.6187

MULLIKEN ATOMIC CHARGES
-----------------------
   0 C :   -0.262861
   1 C :    0.005140
   2 O :   -0.306601
   3 C :    0.388562
   4 O :   -0.380648
   5 C :   -0.164783
   6 C :    0.120150
   7 C :   -0.323461
   8 N :   -0.136033
   9 C :    0.204276
  10 S :   -0.441330
  11 N :   -0.213506
  12 C :    0.065531
  13 C :    0.034146
  14 C :   -0.192494
  15 C :   -0.125867
  16 C :   -0.281431
  17 C :    0.307355
  18 O :   -0.360942
  19 C :   -0.274370
  20 H :    0.110963
  21 H :    0.105913
  22 H :    0.089170
  23 H :    0.107434
  24 H :    0.098191
  25 H :    0.124156
  26 H :    0.137502
  27 H :    0.123394
  28 H :    0.196044
  29 H :    0.198280
  30 H :    0.165011
  31 H :    0.165994
  32 H :    0.163723
  33 H :    0.132988
  34 H :    0.241997
  35 H :    0.178411
Sum of atomic charges:   -0.0000000

LOEWDIN ATOMIC CHARGES
----------------------
   0 C :    0.111512
   1 C :   -0.024721
   2 O :    0.315606
   3 C :   -0.419383
   4 O :    0.125067
   5 C :   -0.082109
   6 C :   -0.106957
   7 C :    0.125062
   8 N :    0.400591
   9 C :   -0.455574
  10 S :   -0.038183
  11 N :    0.397359
  12 C :   -0.043672
  13 C :   -0.041879
  14 C :    0.024190
  15 C :    0.046058
  16 C :   -0.000738
  17 C :   -0.193888
  18 O :    0.395088
  19 C :    0.027201
  20 H :   -0.022022
  21 H :   -0.026334
  22 H :   -0.025585
  23 H :   -0.036097
  24 H :   -0.039090
  25 H :   -0.008594
  26 H :   -0.009831
  27 H :   -0.016288
  28 H :   -0.058343
  29 H :   -0.063632
  30 H :   -0.002126
  31 H :   -0.021815
  32 H :   -0.018349
  33 H :   -0.034798
  34 H :   -0.152807
  35 H :   -0.024915

  Mayer bond orders larger than 0.100000
B(  0-C ,  1-C ) :   0.9808 B(  0-C , 20-H ) :   0.9719 B(  0-C , 21-H ) :   0.9812
B(  0-C , 22-H ) :   0.9759 B(  1-C ,  2-O ) :   0.9149 B(  1-C , 23-H ) :   0.9754
B(  1-C , 24-H ) :   0.9604 B(  2-O ,  3-C ) :   1.1728 B(  3-C ,  4-O ) :   2.0922
B(  3-C ,  5-C ) :   0.9228 B(  5-C ,  6-C ) :   1.6922 B(  5-C , 12-C ) :   0.9630
B(  6-C ,  7-C ) :   0.9436 B(  6-C ,  8-N ) :   1.1116 B(  7-C , 25-H ) :   0.9816
B(  7-C , 26-H ) :   0.9718 B(  7-C , 27-H ) :   0.9652 B(  8-N ,  9-C ) :   1.1962
B(  8-N , 28-H ) :   0.9526 B(  9-C , 10-S ) :   1.6110 B(  9-C , 11-N ) :   1.2865
B( 11-N , 12-C ) :   0.9983 B( 11-N , 29-H ) :   0.9490 B( 12-C , 13-C ) :   0.9447
B( 12-C , 30-H ) :   0.9967 B( 13-C , 14-C ) :   1.3872 B( 13-C , 19-C ) :   1.3431
B( 14-C , 15-C ) :   1.3967 B( 14-C , 31-H ) :   0.9620 B( 15-C , 16-C ) :   1.3604
B( 15-C , 32-H ) :   0.9703 B( 16-C , 17-C ) :   1.3299 B( 16-C , 33-H ) :   0.9851
B( 17-C , 18-O ) :   1.1056 B( 17-C , 19-C ) :   1.3717 B( 18-O , 34-H ) :   0.9790
B( 19-C , 35-H ) :   0.9559

MP2 TOTAL ENERGY:    -1274.331045675 Eh
FINAL SINGLE POINT ENERGY     -1274.331045674954

DIPOLE MOMENT
-------------
                                X             Y             Z
Electronic contribution:     10.40934       8.06691       6.05345
Nuclear contribution   :    -11.95539      -9.05160      -6.54769
                        -----------------------------------------
Total Dipole Moment    :     -1.54605      -0.98469      -0.49425
                        -----------------------------------------
Magnitude (a.u.)       :      1.89846
Magnitude (Debye)      :      4.82551

Rotational constants in cm-1:     0.012570     0.009056     0.006929
Rotational constants in MHz :   376.845307   271.479290   207.714823

                             ****ORCA TERMINATED NORMALLY****
TOTAL RUN TIME: 0 days 1 hours 54 minutes 41 seconds 98 msec
