                         Program Version 4.2.0 -  RELEASE  -
|  1> ! ri-mp2 cc-pvtz cc-pvtz/c TightSCF  NoKeepInts
|  2>
|  3> %scf
|  4>   MaxCore 4096
|  5> end
|  6> *xyz  0  1
|  7>     C       15.0739457   14.5771539   14.3476279
|  8>     C       15.2602421   14.5769015   15.8742613
|  9>     O       16.1437713   15.6676401   16.1965400
| 10>     C       17.2409421   15.4641754   16.9840911
| 11>     O       17.6676855   14.3498385   17.2390909
| 12>     C       17.7412904   16.6947453   17.6872140
| 13>     C       17.4321843   17.9735768   17.3443045
| 14>     C       16.5518524   18.4520401   16.2075323
| 15>     N       18.0143131   19.0385512   18.0402737
| 16>     C       19.0147269   18.9162118   18.9679101
| 17>     S       19.7416882   20.2380620   19.6460739
| 18>     N       19.3820730   17.6383603   19.3041783
| 19>     C       18.6767177   16.4179979   18.8703326
| 20>     C       17.9159389   15.7976250   20.0395327
| 21>     C       18.1316635   14.4537600   20.3968252
| 22>     C       17.4333620   13.8765981   21.4706973
| 23>     C       16.5101143   14.6492777   22.1953777
| 24>     C       16.2893224   15.9870108   21.8407191
| 25>     O       15.3940040   16.7340996   22.5347476
| 26>     C       16.9855114   16.5585338   20.7710519
| 27>     H       14.6563342   15.5328948   14.0076055
| 28>     H       14.3903004   13.7751396   14.0436787
| 29>     H       16.0348674   14.4179701   13.8423899
| 30>     H       14.2933079   14.7187267   16.3739528
| 31>     H       15.6662564   13.6048938   16.1852804
| 32>     H       16.8486575   17.9832318   15.2609861
| 33>     H       16.6042337   19.5372776   16.0582357
| 34>     H       15.5019049   18.1962699   16.3971623
| 35>     H       17.7583324   19.9846503   17.8073213
| 36>     H       20.0999325   17.5741714   20.0144313
| 37>     H       19.4371477   15.6980569   18.5346685
| 38>     H       18.8326082   13.8489521   19.8265978
| 39>     H       17.6052125   12.8341486   21.7325245
| 40>     H       15.9673332   14.2069829   23.0240190
| 41>     H       15.0473257   16.1798051   23.2498021
| 42>     H       16.8018960   17.5966686   20.5169621
| 43> *
| 44>
| 45>                          ****END OF INPUT****

CARTESIAN COORDINATES (ANGSTROEM)
---------------------------------
  C     15.073946   14.577154   14.347628
  C     15.260242   14.576901   15.874261
  O     16.143771   15.667640   16.196540
  C     17.240942   15.464175   16.984091
  O     17.667686   14.349839   17.239091
  C     17.741290   16.694745   17.687214
  C     17.432184   17.973577   17.344304
  C     16.551852   18.452040   16.207532
  N     18.014313   19.038551   18.040274
  C     19.014727   18.916212   18.967910
  S     19.741688   20.238062   19.646074
  N     19.382073   17.638360   19.304178
  C     18.676718   16.417998   18.870333
  C     17.915939   15.797625   20.039533
  C     18.131663   14.453760   20.396825
  C     17.433362   13.876598   21.470697
  C     16.510114   14.649278   22.195378
  C     16.289322   15.987011   21.840719
  O     15.394004   16.734100   22.534748
  C     16.985511   16.558534   20.771052
  H     14.656334   15.532895   14.007606
  H     14.390300   13.775140   14.043679
  H     16.034867   14.417970   13.842390
  H     14.293308   14.718727   16.373953
  H     15.666256   13.604894   16.185280
  H     16.848658   17.983232   15.260986
  H     16.604234   19.537278   16.058236
  H     15.501905   18.196270   16.397162
  H     17.758332   19.984650   17.807321
  H     20.099932   17.574171   20.014431
  H     19.437148   15.698057   18.534668
  H     18.832608   13.848952   19.826598
  H     17.605213   12.834149   21.732524
  H     15.967333   14.206983   23.024019
  H     15.047326   16.179805   23.249802
  H     16.801896   17.596669   20.516962

 Total Charge           Charge          ....    0
 Multiplicity           Mult            ....    1
 Number of Electrons    NEL             ....  154
 Basis Dimension        Dim             ....  828

ORBITAL ENERGIES
----------------

  NO   OCC          E(Eh)            E(eV)
   0   2.0000     -91.887943     -2500.3980
   1   2.0000     -20.602952      -560.6348
   2   2.0000     -20.591166      -560.3141
   3   2.0000     -20.545628      -559.0750
   4   2.0000     -15.628356      -425.2692
   5   2.0000     -15.606486      -424.6741
   6   2.0000     -11.396564      -310.1163
   7   2.0000     -11.382784      -309.7413
   8   2.0000     -11.336446      -308.4804
   9   2.0000     -11.306940      -307.6775
  10   2.0000     -11.305220      -307.6307
  11   2.0000     -11.298733      -307.4542
  12   2.0000     -11.260554      -306.4152
  13   2.0000     -11.258978      -306.3724
  14   2.0000     -11.252896      -306.2069
  15   2.0000     -11.247063      -306.0482
  16   2.0000     -11.236721      -305.7667
  17   2.0000     -11.232865      -305.6618
  18   2.0000     -11.232146      -305.6422
  19   2.0000     -11.229816      -305.5788
  20   2.0000      -8.893007      -241.9910
  21   2.0000      -6.574584      -178.9035
  22   2.0000      -6.572577      -178.8489
  23   2.0000      -6.571992      -178.8330
  24   2.0000      -1.453413       -39.5494
  25   2.0000      -1.410897       -38.3925
  26   2.0000      -1.357473       -36.9387
  27   2.0000      -1.339261       -36.4431
  28   2.0000      -1.236804       -33.6552
  29   2.0000      -1.151605       -31.3368
  30   2.0000      -1.119261       -30.4566
  31   2.0000      -1.044088       -28.4111
  32   2.0000      -1.036452       -28.2033
  33   2.0000      -1.008971       -27.4555
  34   2.0000      -0.997335       -27.1389
  35   2.0000      -0.982881       -26.7455
  36   2.0000      -0.920820       -25.0568
  37   2.0000      -0.889505       -24.2047
  38   2.0000      -0.847167       -23.0526
  39   2.0000      -0.834743       -22.7145
  40   2.0000      -0.827290       -22.5117
  41   2.0000      -0.818020       -22.2595
  42   2.0000      -0.761114       -20.7110
  43   2.0000      -0.735887       -20.0245
  44   2.0000      -0.724502       -19.7147
  45   2.0000      -0.689946       -18.7744
  46   2.0000      -0.684427       -18.6242
  47   2.0000      -0.679837       -18.4993
  48   2.0000      -0.673542       -18.3280
  49   2.0000      -0.653323       -17.7778
  50   2.0000      -0.650207       -17.6930
  51   2.0000      -0.642178       -17.4746
  52   2.0000      -0.631559       -17.1856
  53   2.0000      -0.611260       -16.6332
  54   2.0000      -0.600267       -16.3341
  55   2.0000      -0.599258       -16.3066
  56   2.0000      -0.594484       -16.1767
  57   2.0000      -0.581524       -15.8241
  58   2.0000      -0.572708       -15.5842
  59   2.0000      -0.563164       -15.3245
  60   2.0000      -0.561618       -15.2824
  61   2.0000      -0.544775       -14.8241
  62   2.0000      -0.539378       -14.6772
  63   2.0000      -0.530407       -14.4331
  64   2.0000      -0.516708       -14.0603
  65   2.0000      -0.509228       -13.8568
  66   2.0000      -0.499525       -13.5928
  67   2.0000      -0.494952       -13.4683
  68   2.0000      -0.480895       -13.0858
  69   2.0000      -0.462445       -12.5838
  70   2.0000      -0.460477       -12.5302
  71   2.0000      -0.453261       -12.3339
  72   2.0000      -0.354146        -9.6368
  73   2.0000      -0.343505        -9.3472
  74   2.0000      -0.327053        -8.8996
  75   2.0000      -0.315404        -8.5826
  76   2.0000      -0.313301        -8.5253
  77   0.0000       0.075854         2.0641
  78   0.0000       0.113541         3.0896
  79   0.0000       0.120896         3.2897
  80   0.0000       0.135990         3.7005
  81   0.0000       0.139302         3.7906

MULLIKEN ATOMIC CHARGES
-----------------------
   0 C :   -0.266568
   1 C :    0.019076
   2 O :   -0.347337
   3 C :    0.456762
   4 O :   -0.429649
   5 C :   -0.182883
   6 C :    0.142688
   7 C :   -0.286197
   8 N :   -0.121685
   9 C :    0.201112
  10 S :   -0.439356
  11 N :   -0.196860
  12 C :    0.034653
  13 C :    0.057068
  14 C :   -0.160618
  15 C :   -0.133930
  16 C :   -0.278854
  17 C :    0.311448
  18 O :   -0.359227
  19 C :   -0.271978
  20 H :    0.090056
  21 H :    0.094637
  22 H :    0.098971
  23 H :    0.100250
  24 H :    0.123340
  25 H :    0.126569
  26 H :    0.103089
  27 H :    0.127362
  28 H :    0.196740
  29 H :    0.193580
  30 H :    0.153654
  31 H :    0.153167
  32 H :    0.158813
  33 H :    0.127802
  34 H :    0.239988
  35 H :    0.164316
Sum of atomic charges:   -0.0000000

LOEWDIN ATOMIC CHARGES
----------------------
   0 C :    0.104047
   1 C :   -0.010876
   2 O :    0.306688
   3 C :   -0.414079
   4 O :    0.103369
   5 C :   -0.091122
   6 C :   -0.065633
   7 C :    0.124763
   8 N :    0.404839
   9 C :   -0.458999
  10 S :   -0.036043
  11 N :    0.397898
  12 C :   -0.046520
  13 C :   -0.038795
  14 C :    0.022196
  15 C :    0.040889
  16 C :   -0.002331
  17 C :   -0.192593
  18 O :    0.392925
  19 C :    0.028429
  20 H :   -0.030197
  21 H :   -0.025259
  22 H :   -0.025373
  23 H :   -0.030330
  24 H :   -0.027089
  25 H :   -0.008749
  26 H :   -0.021033
  27 H :   -0.009812
  28 H :   -0.059204
  29 H :   -0.063649
  30 H :   -0.005070
  31 H :   -0.025350
  32 H :   -0.021309
  33 H :   -0.036472
  34 H :   -0.154970
  35 H :   -0.025185

  Mayer bond orders larger than 0.100000
B(  0-C ,  1-C ) :   0.9723 B(  0-C , 20-H ) :   0.9795 B(  0-C , 21-H ) :   0.9764
B(  0-C , 22-H ) :   0.9783 B(  1-C ,  2-O ) :   0.8825 B(  1-C , 23-H ) :   0.9802
B(  1-C , 24-H ) :   0.9732 B(  2-O ,  3-C ) :   1.1599 B(  3-C ,  4-O ) :   1.9853
B(  3-C ,  5-C ) :   1.0510 B(  5-C ,  6-C ) :   1.6472 B(  5-C , 12-C ) :   0.9652
B(  6-C ,  7-C ) :   0.9543 B(  6-C ,  8-N ) :   1.1486 B(  7-C , 25-H ) :   0.9661
B(  7-C , 26-H ) :   0.9917 B(  7-C , 27-H ) :   0.9637 B(  8-N ,  9-C ) :   1.1782
B(  8-N , 28-H ) :   0.9489 B(  9-C , 10-S ) :   1.6107 B(  9-C , 11-N ) :   1.3045
B( 11-N , 12-C ) :   0.9923 B( 11-N , 29-H ) :   0.9520 B( 12-C , 13-C ) :   0.9481
B( 12-C , 30-H ) :   0.9999 B( 13-C , 14-C ) :   1.3760 B( 13-C , 19-C ) :   1.3691
B( 14-C , 15-C ) :   1.3947 B( 14-C , 31-H ) :   0.9650 B( 15-C , 16-C ) :   1.3626
B( 15-C , 32-H ) :   0.9715 B( 16-C , 17-C ) :   1.3315 B( 16-C , 33-H ) :   0.9861
B( 17-C , 18-O ) :   1.1078 B( 17-C , 19-C ) :   1.3793 B( 18-O , 34-H ) :   0.9807
B( 19-C , 35-H ) :   0.9585

MP2 TOTAL ENERGY:    -1274.345834286 Eh
FINAL SINGLE POINT ENERGY     -1274.345834285541

DIPOLE MOMENT
-------------
                                X             Y             Z
Electronic contribution:     11.02651       8.78096      12.22919
Nuclear contribution   :    -12.69402      -9.96549     -13.10627
                        -----------------------------------------
Total Dipole Moment    :     -1.66751      -1.18452      -0.87708
                        -----------------------------------------
Magnitude (a.u.)       :      2.22552
Magnitude (Debye)      :      5.65682

Rotational constants in cm-1:     0.010477     0.008709     0.005717
Rotational constants in MHz :   314.078027   261.075404   171.377695

                             ****ORCA TERMINATED NORMALLY****
TOTAL RUN TIME: 0 days 1 hours 37 minutes 54 seconds 52 msec
