                         Program Version 4.2.0 -  RELEASE  -
|  1> ! ri-mp2 cc-pvtz cc-pvtz/c TightSCF  NoKeepInts
|  2>
|  3> %scf
|  4>   MaxCore 4096
|  5> end
|  6> *xyz  0  1
|  7>     C       14.6114217   14.8241106   16.8336699
|  8>     C       15.7038624   14.7342301   15.7534744
|  9>     O       16.5099169   15.9218250   15.8579565
| 10>     C       17.7097711   15.8653388   16.5069110
| 11>     O       18.3494009   14.8304500   16.6006056
| 12>     C       17.9155265   17.0115479   17.4518507
| 13>     C       17.3971373   18.2539257   17.2759335
| 14>     C       16.5655160   18.7539382   16.1128795
| 15>     N       17.6801816   19.2622230   18.2027162
| 16>     C       18.5653637   19.1451442   19.2419519
| 17>     S       18.9259897   20.4236837   20.2273184
| 18>     N       19.1376683   17.9112778   19.4230157
| 19>     C       18.7641712   16.6895573   18.6855657
| 20>     C       18.0299493   15.7146124   19.6021207
| 21>     C       18.5036128   14.4007191   19.7724745
| 22>     C       17.8212728   13.4953099   20.6022836
| 23>     C       16.6533663   13.9057560   21.2672929
| 24>     C       16.1759055   15.2122575   21.0969155
| 25>     O       15.0431097   15.6088821   21.7298530
| 26>     C       16.8575317   16.1113257   20.2709897
| 27>     H       15.0599612   14.8294955   17.8357060
| 28>     H       13.9341569   13.9640291   16.7679955
| 29>     H       14.0188693   15.7394136   16.7136492
| 30>     H       16.2917868   13.8135780   15.8700616
| 31>     H       15.2253463   14.7071247   14.7661527
| 32>     H       16.9838346   18.4134329   15.1574811
| 33>     H       16.5176157   19.8487820   16.0692109
| 34>     H       15.5374656   18.3770792   16.1831580
| 35>     H       17.2699190   20.1751314   18.0872336
| 36>     H       19.7623234   17.8438289   20.2162130
| 37>     H       19.6914835   16.2100446   18.3401090
| 38>     H       19.3952817   14.0748489   19.2424855
| 39>     H       18.1948649   12.4797790   20.7205767
| 40>     H       16.1217992   13.2087015   21.9064328
| 41>     H       14.7496990   14.8723471   22.2869340
| 42>     H       16.4719174   17.1182687   20.1548214
| 43> *
| 44>
| 45>                          ****END OF INPUT****

CARTESIAN COORDINATES (ANGSTROEM)
---------------------------------
  C     14.611422   14.824111   16.833670
  C     15.703862   14.734230   15.753474
  O     16.509917   15.921825   15.857957
  C     17.709771   15.865339   16.506911
  O     18.349401   14.830450   16.600606
  C     17.915526   17.011548   17.451851
  C     17.397137   18.253926   17.275934
  C     16.565516   18.753938   16.112879
  N     17.680182   19.262223   18.202716
  C     18.565364   19.145144   19.241952
  S     18.925990   20.423684   20.227318
  N     19.137668   17.911278   19.423016
  C     18.764171   16.689557   18.685566
  C     18.029949   15.714612   19.602121
  C     18.503613   14.400719   19.772475
  C     17.821273   13.495310   20.602284
  C     16.653366   13.905756   21.267293
  C     16.175905   15.212257   21.096916
  O     15.043110   15.608882   21.729853
  C     16.857532   16.111326   20.270990
  H     15.059961   14.829496   17.835706
  H     13.934157   13.964029   16.767996
  H     14.018869   15.739414   16.713649
  H     16.291787   13.813578   15.870062
  H     15.225346   14.707125   14.766153
  H     16.983835   18.413433   15.157481
  H     16.517616   19.848782   16.069211
  H     15.537466   18.377079   16.183158
  H     17.269919   20.175131   18.087234
  H     19.762323   17.843829   20.216213
  H     19.691484   16.210045   18.340109
  H     19.395282   14.074849   19.242486
  H     18.194865   12.479779   20.720577
  H     16.121799   13.208701   21.906433
  H     14.749699   14.872347   22.286934
  H     16.471917   17.118269   20.154821

 Total Charge           Charge          ....    0
 Multiplicity           Mult            ....    1
 Number of Electrons    NEL             ....  154
 Basis Dimension        Dim             ....  828

ORBITAL ENERGIES
----------------

  NO   OCC          E(Eh)            E(eV)
   0   2.0000     -91.888084     -2500.4019
   1   2.0000     -20.597122      -560.4762
   2   2.0000     -20.594231      -560.3975
   3   2.0000     -20.549295      -559.1747
   4   2.0000     -15.627798      -425.2540
   5   2.0000     -15.607398      -424.6989
   6   2.0000     -11.395940      -310.0993
   7   2.0000     -11.383394      -309.7579
   8   2.0000     -11.333815      -308.4088
   9   2.0000     -11.310247      -307.7675
  10   2.0000     -11.307192      -307.6843
  11   2.0000     -11.297479      -307.4200
  12   2.0000     -11.259722      -306.3926
  13   2.0000     -11.259070      -306.3749
  14   2.0000     -11.255832      -306.2868
  15   2.0000     -11.250465      -306.1407
  16   2.0000     -11.240076      -305.8580
  17   2.0000     -11.235912      -305.7447
  18   2.0000     -11.233262      -305.6726
  19   2.0000     -11.227969      -305.5286
  20   2.0000      -8.893159      -241.9951
  21   2.0000      -6.574738      -178.9077
  22   2.0000      -6.572728      -178.8530
  23   2.0000      -6.572145      -178.8372
  24   2.0000      -1.453247       -39.5449
  25   2.0000      -1.414014       -38.4773
  26   2.0000      -1.357501       -36.9395
  27   2.0000      -1.338988       -36.4357
  28   2.0000      -1.237129       -33.6640
  29   2.0000      -1.154664       -31.4200
  30   2.0000      -1.120497       -30.4903
  31   2.0000      -1.043713       -28.4009
  32   2.0000      -1.034811       -28.1586
  33   2.0000      -1.011964       -27.5369
  34   2.0000      -0.998469       -27.1697
  35   2.0000      -0.983963       -26.7750
  36   2.0000      -0.922365       -25.0988
  37   2.0000      -0.890705       -24.2373
  38   2.0000      -0.847229       -23.0543
  39   2.0000      -0.836482       -22.7618
  40   2.0000      -0.830487       -22.5987
  41   2.0000      -0.815617       -22.1941
  42   2.0000      -0.757704       -20.6182
  43   2.0000      -0.736473       -20.0405
  44   2.0000      -0.726662       -19.7735
  45   2.0000      -0.692795       -18.8519
  46   2.0000      -0.685378       -18.6501
  47   2.0000      -0.678435       -18.4612
  48   2.0000      -0.674142       -18.3443
  49   2.0000      -0.660810       -17.9815
  50   2.0000      -0.650340       -17.6966
  51   2.0000      -0.644974       -17.5506
  52   2.0000      -0.634667       -17.2702
  53   2.0000      -0.604234       -16.4420
  54   2.0000      -0.601686       -16.3727
  55   2.0000      -0.597839       -16.2680
  56   2.0000      -0.594958       -16.1896
  57   2.0000      -0.582093       -15.8396
  58   2.0000      -0.575305       -15.6548
  59   2.0000      -0.562579       -15.3086
  60   2.0000      -0.559402       -15.2221
  61   2.0000      -0.555463       -15.1149
  62   2.0000      -0.538905       -14.6644
  63   2.0000      -0.525011       -14.2863
  64   2.0000      -0.519556       -14.1378
  65   2.0000      -0.510654       -13.8956
  66   2.0000      -0.498471       -13.5641
  67   2.0000      -0.496050       -13.4982
  68   2.0000      -0.482139       -13.1197
  69   2.0000      -0.463827       -12.6214
  70   2.0000      -0.459150       -12.4941
  71   2.0000      -0.451791       -12.2938
  72   2.0000      -0.353692        -9.6245
  73   2.0000      -0.346342        -9.4245
  74   2.0000      -0.327367        -8.9081
  75   2.0000      -0.317519        -8.6401
  76   2.0000      -0.314999        -8.5716
  77   0.0000       0.075262         2.0480
  78   0.0000       0.109195         2.9713
  79   0.0000       0.119408         3.2493
  80   0.0000       0.133282         3.6268
  81   0.0000       0.142793         3.8856

MULLIKEN ATOMIC CHARGES
-----------------------
   0 C :   -0.280794
   1 C :    0.022315
   2 O :   -0.356888
   3 C :    0.442959
   4 O :   -0.417155
   5 C :   -0.174662
   6 C :    0.139152
   7 C :   -0.284288
   8 N :   -0.124600
   9 C :    0.204684
  10 S :   -0.440423
  11 N :   -0.199843
  12 C :    0.050699
  13 C :    0.052201
  14 C :   -0.159613
  15 C :   -0.133741
  16 C :   -0.279012
  17 C :    0.317870
  18 O :   -0.361579
  19 C :   -0.288860
  20 H :    0.113908
  21 H :    0.097536
  22 H :    0.088908
  23 H :    0.117726
  24 H :    0.102015
  25 H :    0.124950
  26 H :    0.102779
  27 H :    0.126464
  28 H :    0.196936
  29 H :    0.194136
  30 H :    0.154191
  31 H :    0.154740
  32 H :    0.160113
  33 H :    0.129904
  34 H :    0.240493
  35 H :    0.166780
Sum of atomic charges:   -0.0000000

LOEWDIN ATOMIC CHARGES
----------------------
   0 C :    0.104296
   1 C :   -0.015238
   2 O :    0.303281
   3 C :   -0.414037
   4 O :    0.111550
   5 C :   -0.092050
   6 C :   -0.071339
   7 C :    0.125548
   8 N :    0.404253
   9 C :   -0.457645
  10 S :   -0.036766
  11 N :    0.397439
  12 C :   -0.045703
  13 C :   -0.040183
  14 C :    0.022010
  15 C :    0.041412
  16 C :   -0.002511
  17 C :   -0.193857
  18 O :    0.393560
  19 C :    0.028815
  20 H :   -0.023735
  21 H :   -0.025941
  22 H :   -0.030103
  23 H :   -0.026883
  24 H :   -0.028412
  25 H :   -0.008219
  26 H :   -0.020266
  27 H :   -0.010645
  28 H :   -0.058981
  29 H :   -0.063962
  30 H :   -0.004912
  31 H :   -0.024945
  32 H :   -0.020742
  33 H :   -0.035976
  34 H :   -0.154419
  35 H :   -0.024694

  Mayer bond orders larger than 0.100000
B(  0-C ,  1-C ) :   0.9678 B(  0-C , 20-H ) :   0.9719 B(  0-C , 21-H ) :   0.9772
B(  0-C , 22-H ) :   0.9795 B(  1-C ,  2-O ) :   0.8881 B(  1-C , 23-H ) :   0.9728
B(  1-C , 24-H ) :   0.9844 B(  2-O ,  3-C ) :   1.1352 B(  3-C ,  4-O ) :   2.0012
B(  3-C ,  5-C ) :   1.0295 B(  5-C ,  6-C ) :   1.6630 B(  5-C , 12-C ) :   0.9643
B(  6-C ,  7-C ) :   0.9536 B(  6-C ,  8-N ) :   1.1418 B(  7-C , 25-H ) :   0.9690
B(  7-C , 26-H ) :   0.9891 B(  7-C , 27-H ) :   0.9631 B(  8-N ,  9-C ) :   1.1830
B(  8-N , 28-H ) :   0.9495 B(  9-C , 10-S ) :   1.6095 B(  9-C , 11-N ) :   1.3017
B( 11-N , 12-C ) :   0.9932 B( 11-N , 29-H ) :   0.9518 B( 12-C , 13-C ) :   0.9448
B( 12-C , 30-H ) :   0.9989 B( 13-C , 14-C ) :   1.3764 B( 13-C , 19-C ) :   1.3653
B( 14-C , 15-C ) :   1.3937 B( 14-C , 31-H ) :   0.9642 B( 15-C , 16-C ) :   1.3632
B( 15-C , 32-H ) :   0.9713 B( 16-C , 17-C ) :   1.3308 B( 16-C , 33-H ) :   0.9852
B( 17-C , 18-O ) :   1.1064 B( 17-C , 19-C ) :   1.3741 B( 18-O , 34-H ) :   0.9802
B( 19-C , 35-H ) :   0.9593

MP2 TOTAL ENERGY:    -1274.340026545 Eh
FINAL SINGLE POINT ENERGY     -1274.340026545281

DIPOLE MOMENT
-------------
                                X             Y             Z
Electronic contribution:     11.00556       8.82454       7.33930
Nuclear contribution   :    -12.38598     -10.15721      -8.23256
                        -----------------------------------------
Total Dipole Moment    :     -1.38042      -1.33266      -0.89327
                        -----------------------------------------
Magnitude (a.u.)       :      2.11648
Magnitude (Debye)      :      5.37966

Rotational constants in cm-1:     0.011475     0.009228     0.006549
Rotational constants in MHz :   344.025913   276.659979   196.329358

                             ****ORCA TERMINATED NORMALLY****
TOTAL RUN TIME: 0 days 1 hours 41 minutes 8 seconds 853 msec
