                         Program Version 4.2.0 -  RELEASE  -
|  1> ! ri-mp2 cc-pvtz cc-pvtz/c TightSCF  NoKeepInts
|  2>
|  3> %scf
|  4>   MaxCore 4096
|  5> end
|  6> *xyz  0  1
|  7>     C       14.8431009   14.8656496   17.0287633
|  8>     C       15.7665752   14.7492714   15.8022621
|  9>     O       16.6046776   15.9183365   15.7646950
| 10>     C       17.7915481   15.9017391   16.4384905
| 11>     O       18.4509167   14.8808926   16.5467118
| 12>     C       17.9138396   17.0256997   17.4242762
| 13>     C       17.3565293   18.2522817   17.2574531
| 14>     C       16.5503114   18.7488212   16.0752075
| 15>     N       17.5738361   19.2495362   18.2135843
| 16>     C       18.4453636   19.1472609   19.2660494
| 17>     S       18.7407371   20.4202603   20.2797852
| 18>     N       19.0601128   17.9321440   19.4356822
| 19>     C       18.7317109   16.7082767   18.6800344
| 20>     C       17.9901535   15.7113549   19.5672726
| 21>     C       18.4454461   14.3851049   19.6837041
| 22>     C       17.7575250   13.4587218   20.4851650
| 23>     C       16.6024309   13.8604772   21.1771318
| 24>     C       16.1432589   15.1793865   21.0615298
| 25>     O       15.0222252   15.5678902   21.7197890
| 26>     C       16.8299289   16.0990419   20.2628078
| 27>     H       15.4271908   14.8325010   17.9570566
| 28>     H       14.1270875   14.0352814   17.0500940
| 29>     H       14.2791654   15.8062145   17.0059443
| 30>     H       16.3532834   13.8209870   15.8386107
| 31>     H       15.1473364   14.7221787   14.8965594
| 32>     H       15.5338853   18.3365665   16.1002843
| 33>     H       17.0136700   18.4429347   15.1288902
| 34>     H       16.4668752   19.8421675   16.0518105
| 35>     H       17.1318671   20.1485183   18.1059124
| 36>     H       19.6752776   17.8739955   20.2370219
| 37>     H       19.6781801   16.2492951   18.3594104
| 38>     H       19.3275231   14.0666050   19.1332306
| 39>     H       18.1174489   12.4342290   20.5613195
| 40>     H       16.0667183   13.1474712   21.7949012
| 41>     H       14.7248277   14.8164389   22.2544029
| 42>     H       16.4564354   17.1144683   20.1881563
| 43> *
| 44>
| 45>                          ****END OF INPUT****

CARTESIAN COORDINATES (ANGSTROEM)
---------------------------------
  C     14.843101   14.865650   17.028763
  C     15.766575   14.749271   15.802262
  O     16.604678   15.918337   15.764695
  C     17.791548   15.901739   16.438491
  O     18.450917   14.880893   16.546712
  C     17.913840   17.025700   17.424276
  C     17.356529   18.252282   17.257453
  C     16.550311   18.748821   16.075208
  N     17.573836   19.249536   18.213584
  C     18.445364   19.147261   19.266049
  S     18.740737   20.420260   20.279785
  N     19.060113   17.932144   19.435682
  C     18.731711   16.708277   18.680034
  C     17.990154   15.711355   19.567273
  C     18.445446   14.385105   19.683704
  C     17.757525   13.458722   20.485165
  C     16.602431   13.860477   21.177132
  C     16.143259   15.179386   21.061530
  O     15.022225   15.567890   21.719789
  C     16.829929   16.099042   20.262808
  H     15.427191   14.832501   17.957057
  H     14.127088   14.035281   17.050094
  H     14.279165   15.806214   17.005944
  H     16.353283   13.820987   15.838611
  H     15.147336   14.722179   14.896559
  H     15.533885   18.336566   16.100284
  H     17.013670   18.442935   15.128890
  H     16.466875   19.842167   16.051810
  H     17.131867   20.148518   18.105912
  H     19.675278   17.873995   20.237022
  H     19.678180   16.249295   18.359410
  H     19.327523   14.066605   19.133231
  H     18.117449   12.434229   20.561319
  H     16.066718   13.147471   21.794901
  H     14.724828   14.816439   22.254403
  H     16.456435   17.114468   20.188156

 Total Charge           Charge          ....    0
 Multiplicity           Mult            ....    1
 Number of Electrons    NEL             ....  154
 Basis Dimension        Dim             ....  828

ORBITAL ENERGIES
----------------

  NO   OCC          E(Eh)            E(eV)
   0   2.0000     -91.888704     -2500.4188
   1   2.0000     -20.594619      -560.4081
   2   2.0000     -20.593126      -560.3674
   3   2.0000     -20.551043      -559.2223
   4   2.0000     -15.628454      -425.2719
   5   2.0000     -15.607836      -424.7108
   6   2.0000     -11.395859      -310.0971
   7   2.0000     -11.383892      -309.7714
   8   2.0000     -11.334254      -308.4207
   9   2.0000     -11.310771      -307.7817
  10   2.0000     -11.307835      -307.7018
  11   2.0000     -11.297843      -307.4299
  12   2.0000     -11.260147      -306.4042
  13   2.0000     -11.259424      -306.3845
  14   2.0000     -11.256571      -306.3069
  15   2.0000     -11.251173      -306.1600
  16   2.0000     -11.240769      -305.8769
  17   2.0000     -11.236431      -305.7588
  18   2.0000     -11.233743      -305.6857
  19   2.0000     -11.226278      -305.4826
  20   2.0000      -8.893767      -242.0117
  21   2.0000      -6.575344      -178.9242
  22   2.0000      -6.573337      -178.8696
  23   2.0000      -6.572751      -178.8537
  24   2.0000      -1.453066       -39.5399
  25   2.0000      -1.414428       -38.4885
  26   2.0000      -1.357122       -36.9292
  27   2.0000      -1.339565       -36.4514
  28   2.0000      -1.237579       -33.6762
  29   2.0000      -1.155226       -31.4353
  30   2.0000      -1.120840       -30.4996
  31   2.0000      -1.043751       -28.4019
  32   2.0000      -1.033327       -28.1183
  33   2.0000      -1.012660       -27.5559
  34   2.0000      -0.998913       -27.1818
  35   2.0000      -0.984698       -26.7950
  36   2.0000      -0.922945       -25.1146
  37   2.0000      -0.891197       -24.2507
  38   2.0000      -0.847649       -23.0657
  39   2.0000      -0.837332       -22.7850
  40   2.0000      -0.831098       -22.6153
  41   2.0000      -0.815685       -22.1959
  42   2.0000      -0.755626       -20.5616
  43   2.0000      -0.736198       -20.0330
  44   2.0000      -0.727179       -19.7875
  45   2.0000      -0.693292       -18.8654
  46   2.0000      -0.685923       -18.6649
  47   2.0000      -0.678048       -18.4506
  48   2.0000      -0.674108       -18.3434
  49   2.0000      -0.660454       -17.9719
  50   2.0000      -0.651810       -17.7367
  51   2.0000      -0.645364       -17.5612
  52   2.0000      -0.635384       -17.2897
  53   2.0000      -0.605655       -16.4807
  54   2.0000      -0.601949       -16.3799
  55   2.0000      -0.598782       -16.2937
  56   2.0000      -0.596534       -16.2325
  57   2.0000      -0.581781       -15.8311
  58   2.0000      -0.575322       -15.6553
  59   2.0000      -0.562239       -15.2993
  60   2.0000      -0.559126       -15.2146
  61   2.0000      -0.553081       -15.0501
  62   2.0000      -0.540544       -14.7089
  63   2.0000      -0.525158       -14.2903
  64   2.0000      -0.520001       -14.1500
  65   2.0000      -0.511407       -13.9161
  66   2.0000      -0.498798       -13.5730
  67   2.0000      -0.494916       -13.4674
  68   2.0000      -0.481522       -13.1029
  69   2.0000      -0.463956       -12.6249
  70   2.0000      -0.460046       -12.5185
  71   2.0000      -0.450190       -12.2503
  72   2.0000      -0.354303        -9.6411
  73   2.0000      -0.346791        -9.4367
  74   2.0000      -0.327922        -8.9232
  75   2.0000      -0.318345        -8.6626
  76   2.0000      -0.315538        -8.5862
  77   0.0000       0.073343         1.9958
  78   0.0000       0.108571         2.9544
  79   0.0000       0.119515         3.2522
  80   0.0000       0.133179         3.6240
  81   0.0000       0.140904         3.8342

MULLIKEN ATOMIC CHARGES
-----------------------
   0 C :   -0.294179
   1 C :    0.028647
   2 O :   -0.364872
   3 C :    0.448322
   4 O :   -0.413709
   5 C :   -0.172886
   6 C :    0.135909
   7 C :   -0.283499
   8 N :   -0.123601
   9 C :    0.199526
  10 S :   -0.438833
  11 N :   -0.199663
  12 C :    0.049560
  13 C :    0.042031
  14 C :   -0.160915
  15 C :   -0.137712
  16 C :   -0.275270
  17 C :    0.315859
  18 O :   -0.361235
  19 C :   -0.282127
  20 H :    0.117811
  21 H :    0.101755
  22 H :    0.091096
  23 H :    0.115486
  24 H :    0.104192
  25 H :    0.125247
  26 H :    0.125382
  27 H :    0.103128
  28 H :    0.197161
  29 H :    0.193803
  30 H :    0.155694
  31 H :    0.158788
  32 H :    0.160651
  33 H :    0.130436
  34 H :    0.240463
  35 H :    0.167553
Sum of atomic charges:    0.0000000

LOEWDIN ATOMIC CHARGES
----------------------
   0 C :    0.105050
   1 C :   -0.017228
   2 O :    0.298580
   3 C :   -0.414027
   4 O :    0.115381
   5 C :   -0.092661
   6 C :   -0.070846
   7 C :    0.125823
   8 N :    0.404555
   9 C :   -0.458367
  10 S :   -0.035906
  11 N :    0.397429
  12 C :   -0.045438
  13 C :   -0.041358
  14 C :    0.021268
  15 C :    0.041073
  16 C :   -0.002537
  17 C :   -0.194267
  18 O :    0.394135
  19 C :    0.028969
  20 H :   -0.024084
  21 H :   -0.025765
  22 H :   -0.030050
  23 H :   -0.026852
  24 H :   -0.026867
  25 H :   -0.011052
  26 H :   -0.007857
  27 H :   -0.020140
  28 H :   -0.058886
  29 H :   -0.064027
  30 H :   -0.004321
  31 H :   -0.024400
  32 H :   -0.020510
  33 H :   -0.035816
  34 H :   -0.154321
  35 H :   -0.024679

  Mayer bond orders larger than 0.100000
B(  0-C ,  1-C ) :   0.9648 B(  0-C , 20-H ) :   0.9693 B(  0-C , 21-H ) :   0.9780
B(  0-C , 22-H ) :   0.9783 B(  1-C ,  2-O ) :   0.8891 B(  1-C , 23-H ) :   0.9747
B(  1-C , 24-H ) :   0.9849 B(  2-O ,  3-C ) :   1.1171 B(  3-C ,  4-O ) :   2.0027
B(  3-C ,  5-C ) :   1.0321 B(  5-C ,  6-C ) :   1.6649 B(  5-C , 12-C ) :   0.9624
B(  6-C ,  7-C ) :   0.9539 B(  6-C ,  8-N ) :   1.1392 B(  7-C , 25-H ) :   0.9632
B(  7-C , 26-H ) :   0.9688 B(  7-C , 27-H ) :   0.9892 B(  8-N ,  9-C ) :   1.1823
B(  8-N , 28-H ) :   0.9495 B(  9-C , 10-S ) :   1.6121 B(  9-C , 11-N ) :   1.3004
B( 11-N , 12-C ) :   0.9913 B( 11-N , 29-H ) :   0.9519 B( 12-C , 13-C ) :   0.9443
B( 12-C , 30-H ) :   0.9990 B( 13-C , 14-C ) :   1.3797 B( 13-C , 19-C ) :   1.3645
B( 14-C , 15-C ) :   1.3943 B( 14-C , 31-H ) :   0.9623 B( 15-C , 16-C ) :   1.3629
B( 15-C , 32-H ) :   0.9713 B( 16-C , 17-C ) :   1.3308 B( 16-C , 33-H ) :   0.9851
B( 17-C , 18-O ) :   1.1083 B( 17-C , 19-C ) :   1.3733 B( 18-O , 34-H ) :   0.9802
B( 19-C , 35-H ) :   0.9596

MP2 TOTAL ENERGY:    -1274.336890008 Eh
FINAL SINGLE POINT ENERGY     -1274.336890007992

DIPOLE MOMENT
-------------
                                X             Y             Z
Electronic contribution:     10.41383       8.80650       6.88955
Nuclear contribution   :    -11.75319     -10.13450      -7.74105
                        -----------------------------------------
Total Dipole Moment    :     -1.33936      -1.32799      -0.85150
                        -----------------------------------------
Magnitude (a.u.)       :      2.06942
Magnitude (Debye)      :      5.26005

Rotational constants in cm-1:     0.011633     0.009415     0.006661
Rotational constants in MHz :   348.757483   282.265542   199.689474

                             ****ORCA TERMINATED NORMALLY****
TOTAL RUN TIME: 0 days 1 hours 42 minutes 12 seconds 723 msec
