                         Program Version 4.2.0 -  RELEASE  -
|  1> ! ri-mp2 cc-pvtz cc-pvtz/c TightSCF  NoKeepInts
|  2>
|  3> %scf
|  4>   MaxCore 4096
|  5> end
|  6> *xyz  0  1
|  7>     C       15.3959842   14.1724458   16.9671201
|  8>     C       15.4603806   15.0660408   15.7056884
|  9>     O       16.5548791   16.0152947   15.7093722
| 10>     C       17.6580311   15.8872556   16.5042784
| 11>     O       18.2724763   14.8380795   16.5997901
| 12>     C       17.8774089   17.0367721   17.4437415
| 13>     C       17.4058142   18.2963271   17.2543956
| 14>     C       16.6109932   18.8252926   16.0783546
| 15>     N       17.7084756   19.2974222   18.1831757
| 16>     C       18.5740056   19.1552284   19.2356039
| 17>     S       18.9638478   20.4253096   20.2206687
| 18>     N       19.0990908   17.9029829   19.4311130
| 19>     C       18.6900686   16.6915611   18.6956929
| 20>     C       17.9029452   15.7503876   19.6041340
| 21>     C       18.2889977   14.4043437   19.7418624
| 22>     C       17.5560971   13.5285709   20.5600862
| 23>     C       16.4257848   14.0016492   21.2478435
| 24>     C       16.0357078   15.3406558   21.1111267
| 25>     O       14.9390496   15.7982545   21.7660567
| 26>     C       16.7666311   16.2097479   20.2951654
| 27>     H       16.2163200   13.4445417   16.9897008
| 28>     H       14.4578045   13.6050133   16.9791061
| 29>     H       15.4347544   14.7752727   17.8831451
| 30>     H       15.5598432   14.4133546   14.8285366
| 31>     H       14.5155720   15.6143950   15.6002785
| 32>     H       15.5800518   18.4517832   16.1081735
| 33>     H       17.0590899   18.5057707   15.1290570
| 34>     H       16.5667615   19.9209873   16.0574920
| 35>     H       17.3339502   20.2241524   18.0569231
| 36>     H       19.7112084   17.8176173   20.2323697
| 37>     H       19.6045051   16.1742711   18.3706763
| 38>     H       19.1509020   14.0308207   19.1940011
| 39>     H       17.8620380   12.4879709   20.6521670
| 40>     H       15.8555536   13.3279470   21.8786821
| 41>     H       14.6049464   15.0723325   22.3141398
| 42>     H       16.4470296   17.2421478   20.2042815
| 43> *
| 44>
| 45>                          ****END OF INPUT****

CARTESIAN COORDINATES (ANGSTROEM)
---------------------------------
  C     15.395984   14.172446   16.967120
  C     15.460381   15.066041   15.705688
  O     16.554879   16.015295   15.709372
  C     17.658031   15.887256   16.504278
  O     18.272476   14.838079   16.599790
  C     17.877409   17.036772   17.443742
  C     17.405814   18.296327   17.254396
  C     16.610993   18.825293   16.078355
  N     17.708476   19.297422   18.183176
  C     18.574006   19.155228   19.235604
  S     18.963848   20.425310   20.220669
  N     19.099091   17.902983   19.431113
  C     18.690069   16.691561   18.695693
  C     17.902945   15.750388   19.604134
  C     18.288998   14.404344   19.741862
  C     17.556097   13.528571   20.560086
  C     16.425785   14.001649   21.247843
  C     16.035708   15.340656   21.111127
  O     14.939050   15.798254   21.766057
  C     16.766631   16.209748   20.295165
  H     16.216320   13.444542   16.989701
  H     14.457804   13.605013   16.979106
  H     15.434754   14.775273   17.883145
  H     15.559843   14.413355   14.828537
  H     14.515572   15.614395   15.600278
  H     15.580052   18.451783   16.108173
  H     17.059090   18.505771   15.129057
  H     16.566761   19.920987   16.057492
  H     17.333950   20.224152   18.056923
  H     19.711208   17.817617   20.232370
  H     19.604505   16.174271   18.370676
  H     19.150902   14.030821   19.194001
  H     17.862038   12.487971   20.652167
  H     15.855554   13.327947   21.878682
  H     14.604946   15.072332   22.314140
  H     16.447030   17.242148   20.204282

 Total Charge           Charge          ....    0
 Multiplicity           Mult            ....    1
 Number of Electrons    NEL             ....  154
 Basis Dimension        Dim             ....  828

ORBITAL ENERGIES
----------------

  NO   OCC          E(Eh)            E(eV)
   0   2.0000     -91.888756     -2500.4202
   1   2.0000     -20.594783      -560.4125
   2   2.0000     -20.589099      -560.2579
   3   2.0000     -20.549067      -559.1686
   4   2.0000     -15.628761      -425.2802
   5   2.0000     -15.607727      -424.7078
   6   2.0000     -11.395823      -310.0961
   7   2.0000     -11.383850      -309.7703
   8   2.0000     -11.335648      -308.4587
   9   2.0000     -11.310903      -307.7853
  10   2.0000     -11.306900      -307.6764
  11   2.0000     -11.305004      -307.6248
  12   2.0000     -11.259815      -306.3952
  13   2.0000     -11.259214      -306.3788
  14   2.0000     -11.256286      -306.2991
  15   2.0000     -11.250957      -306.1541
  16   2.0000     -11.240679      -305.8744
  17   2.0000     -11.236534      -305.7616
  18   2.0000     -11.233325      -305.6743
  19   2.0000     -11.225060      -305.4494
  20   2.0000      -8.893820      -242.0131
  21   2.0000      -6.575397      -178.9256
  22   2.0000      -6.573389      -178.8710
  23   2.0000      -6.572804      -178.8551
  24   2.0000      -1.446603       -39.3641
  25   2.0000      -1.414596       -38.4931
  26   2.0000      -1.354783       -36.8655
  27   2.0000      -1.339761       -36.4567
  28   2.0000      -1.237682       -33.6790
  29   2.0000      -1.155100       -31.4319
  30   2.0000      -1.120352       -30.4863
  31   2.0000      -1.043132       -28.3851
  32   2.0000      -1.031956       -28.0810
  33   2.0000      -1.012593       -27.5540
  34   2.0000      -0.998929       -27.1822
  35   2.0000      -0.984463       -26.7886
  36   2.0000      -0.923130       -25.1196
  37   2.0000      -0.896393       -24.3921
  38   2.0000      -0.848655       -23.0931
  39   2.0000      -0.837673       -22.7942
  40   2.0000      -0.831029       -22.6135
  41   2.0000      -0.817943       -22.2574
  42   2.0000      -0.743780       -20.2393
  43   2.0000      -0.729798       -19.8588
  44   2.0000      -0.726722       -19.7751
  45   2.0000      -0.692598       -18.8465
  46   2.0000      -0.685703       -18.6589
  47   2.0000      -0.676188       -18.4000
  48   2.0000      -0.672868       -18.3097
  49   2.0000      -0.661365       -17.9967
  50   2.0000      -0.651953       -17.7405
  51   2.0000      -0.645372       -17.5615
  52   2.0000      -0.634092       -17.2545
  53   2.0000      -0.622253       -16.9324
  54   2.0000      -0.603171       -16.4131
  55   2.0000      -0.601588       -16.3700
  56   2.0000      -0.598566       -16.2878
  57   2.0000      -0.577438       -15.7129
  58   2.0000      -0.575097       -15.6492
  59   2.0000      -0.564100       -15.3499
  60   2.0000      -0.551836       -15.0162
  61   2.0000      -0.545891       -14.8545
  62   2.0000      -0.536435       -14.5971
  63   2.0000      -0.526091       -14.3157
  64   2.0000      -0.518596       -14.1117
  65   2.0000      -0.510438       -13.8897
  66   2.0000      -0.500773       -13.6267
  67   2.0000      -0.496261       -13.5039
  68   2.0000      -0.479496       -13.0478
  69   2.0000      -0.464292       -12.6340
  70   2.0000      -0.456104       -12.4112
  71   2.0000      -0.449193       -12.2232
  72   2.0000      -0.354257        -9.6398
  73   2.0000      -0.346867        -9.4387
  74   2.0000      -0.327977        -8.9247
  75   2.0000      -0.318151        -8.6573
  76   2.0000      -0.315594        -8.5878
  77   0.0000       0.073274         1.9939
  78   0.0000       0.108397         2.9496
  79   0.0000       0.120780         3.2866
  80   0.0000       0.133021         3.6197
  81   0.0000       0.139986         3.8092

MULLIKEN ATOMIC CHARGES
-----------------------
   0 C :   -0.327069
   1 C :    0.061810
   2 O :   -0.378072
   3 C :    0.463652
   4 O :   -0.413336
   5 C :   -0.190927
   6 C :    0.140295
   7 C :   -0.282449
   8 N :   -0.122488
   9 C :    0.200998
  10 S :   -0.438929
  11 N :   -0.201255
  12 C :    0.049468
  13 C :    0.039346
  14 C :   -0.160533
  15 C :   -0.137584
  16 C :   -0.274552
  17 C :    0.312587
  18 O :   -0.360533
  19 C :   -0.275078
  20 H :    0.126590
  21 H :    0.106290
  22 H :    0.106006
  23 H :    0.101150
  24 H :    0.094497
  25 H :    0.122656
  26 H :    0.129403
  27 H :    0.103531
  28 H :    0.197059
  29 H :    0.194274
  30 H :    0.154852
  31 H :    0.158717
  32 H :    0.161137
  33 H :    0.130342
  34 H :    0.240461
  35 H :    0.167684
Sum of atomic charges:   -0.0000000

LOEWDIN ATOMIC CHARGES
----------------------
   0 C :    0.106083
   1 C :   -0.009992
   2 O :    0.287725
   3 C :   -0.417607
   4 O :    0.117874
   5 C :   -0.093836
   6 C :   -0.068374
   7 C :    0.125625
   8 N :    0.404671
   9 C :   -0.458455
  10 S :   -0.035837
  11 N :    0.397631
  12 C :   -0.045979
  13 C :   -0.040780
  14 C :    0.022872
  15 C :    0.041629
  16 C :   -0.002300
  17 C :   -0.194171
  18 O :    0.393743
  19 C :    0.027280
  20 H :   -0.023906
  21 H :   -0.025432
  22 H :   -0.026412
  23 H :   -0.027968
  24 H :   -0.028449
  25 H :   -0.010408
  26 H :   -0.006924
  27 H :   -0.020591
  28 H :   -0.058929
  29 H :   -0.063869
  30 H :   -0.004750
  31 H :   -0.024615
  32 H :   -0.020613
  33 H :   -0.035862
  34 H :   -0.154321
  35 H :   -0.024754

  Mayer bond orders larger than 0.100000
B(  0-C ,  1-C ) :   0.9633 B(  0-C , 20-H ) :   0.9706 B(  0-C , 21-H ) :   0.9752
B(  0-C , 22-H ) :   0.9672 B(  1-C ,  2-O ) :   0.8991 B(  1-C , 23-H ) :   0.9841
B(  1-C , 24-H ) :   0.9801 B(  2-O ,  3-C ) :   1.1029 B(  3-C ,  4-O ) :   2.0119
B(  3-C ,  5-C ) :   1.0359 B(  5-C ,  6-C ) :   1.6605 B(  5-C , 12-C ) :   0.9607
B(  6-C ,  7-C ) :   0.9530 B(  6-C ,  8-N ) :   1.1464 B(  7-C , 25-H ) :   0.9652
B(  7-C , 26-H ) :   0.9664 B(  7-C , 27-H ) :   0.9901 B(  8-N ,  9-C ) :   1.1810
B(  8-N , 28-H ) :   0.9490 B(  9-C , 10-S ) :   1.6114 B(  9-C , 11-N ) :   1.3025
B( 11-N , 12-C ) :   0.9912 B( 11-N , 29-H ) :   0.9517 B( 12-C , 13-C ) :   0.9447
B( 12-C , 30-H ) :   0.9996 B( 13-C , 14-C ) :   1.3807 B( 13-C , 19-C ) :   1.3651
B( 14-C , 15-C ) :   1.3937 B( 14-C , 31-H ) :   0.9623 B( 15-C , 16-C ) :   1.3622
B( 15-C , 32-H ) :   0.9708 B( 16-C , 17-C ) :   1.3317 B( 16-C , 33-H ) :   0.9849
B( 17-C , 18-O ) :   1.1092 B( 17-C , 19-C ) :   1.3720 B( 18-O , 34-H ) :   0.9802
B( 19-C , 35-H ) :   0.9589

MP2 TOTAL ENERGY:    -1274.334538272 Eh
FINAL SINGLE POINT ENERGY     -1274.334538271613

DIPOLE MOMENT
-------------
                                X             Y             Z
Electronic contribution:      9.77895       9.81870       7.16826
Nuclear contribution   :    -11.29520     -11.07043      -7.96143
                        -----------------------------------------
Total Dipole Moment    :     -1.51625      -1.25173      -0.79317
                        -----------------------------------------
Magnitude (a.u.)       :      2.12013
Magnitude (Debye)      :      5.38895

Rotational constants in cm-1:     0.011738     0.009334     0.006483
Rotational constants in MHz :   351.889695   279.812065   194.362363

                             ****ORCA TERMINATED NORMALLY****
TOTAL RUN TIME: 0 days 1 hours 40 minutes 48 seconds 528 msec
