                         Program Version 4.2.0 -  RELEASE  -
|  1> ! ri-mp2 cc-pvtz cc-pvtz/c TightSCF  NoKeepInts
|  2>
|  3> %scf
|  4>   MaxCore 4096
|  5> end
|  6> *xyz  0  1
|  7>     C       15.0956624   15.1628479   16.8793382
|  8>     C       16.3187591   14.2163130   16.8246004
|  9>     O       17.5429450   14.8514387   16.3706075
| 10>     C       17.6167801   16.1831169   16.0763386
| 11>     O       17.2496651   16.5789533   14.9847619
| 12>     C       17.7809587   17.0727433   17.2800377
| 13>     C       17.3792726   18.3695910   17.2827640
| 14>     C       16.6013479   19.0927660   16.2045746
| 15>     N       17.7214011   19.2042167   18.3511639
| 16>     C       18.6412400   18.8884258   19.3160890
| 17>     S       19.1462216   19.9909050   20.4406772
| 18>     N       19.1342839   17.6080676   19.2912238
| 19>     C       18.5799661   16.5145558   18.4719793
| 20>     C       17.7865078   15.5806581   19.3788183
| 21>     C       18.2765586   14.2935610   19.6716934
| 22>     C       17.5593895   13.4309718   20.5178557
| 23>     C       16.3469597   13.8612287   21.0832898
| 24>     C       15.8658860   15.1486681   20.8092968
| 25>     O       14.6976768   15.5692019   21.3556637
| 26>     C       16.5826224   16.0053887   19.9685704
| 27>     H       15.2471052   15.9920582   17.5778656
| 28>     H       14.2096821   14.6094672   17.2133120
| 29>     H       14.8739090   15.5748853   15.8865328
| 30>     H       16.4728080   13.7731701   17.8146898
| 31>     H       16.0853856   13.3892104   16.1417792
| 32>     H       15.7199840   18.5114109   15.9056463
| 33>     H       17.2216336   19.2280628   15.3090835
| 34>     H       16.2495643   20.0815545   16.5212798
| 35>     H       17.3841492   20.1535812   18.3689123
| 36>     H       19.7943689   17.3971698   20.0287023
| 37>     H       19.4266686   15.9482834   18.0587904
| 38>     H       19.2135169   13.9568653   19.2354025
| 39>     H       17.9442622   12.4356297   20.7344109
| 40>     H       15.7894401   13.1984296   21.7372083
| 41>     H       14.3904287   14.8757530   21.9591606
| 42>     H       16.1999895   17.0028495   19.7818793
| 43> *
| 44>
| 45>                          ****END OF INPUT****

CARTESIAN COORDINATES (ANGSTROEM)
---------------------------------
  C     15.095662   15.162848   16.879338
  C     16.318759   14.216313   16.824600
  O     17.542945   14.851439   16.370607
  C     17.616780   16.183117   16.076339
  O     17.249665   16.578953   14.984762
  C     17.780959   17.072743   17.280038
  C     17.379273   18.369591   17.282764
  C     16.601348   19.092766   16.204575
  N     17.721401   19.204217   18.351164
  C     18.641240   18.888426   19.316089
  S     19.146222   19.990905   20.440677
  N     19.134284   17.608068   19.291224
  C     18.579966   16.514556   18.471979
  C     17.786508   15.580658   19.378818
  C     18.276559   14.293561   19.671693
  C     17.559390   13.430972   20.517856
  C     16.346960   13.861229   21.083290
  C     15.865886   15.148668   20.809297
  O     14.697677   15.569202   21.355664
  C     16.582622   16.005389   19.968570
  H     15.247105   15.992058   17.577866
  H     14.209682   14.609467   17.213312
  H     14.873909   15.574885   15.886533
  H     16.472808   13.773170   17.814690
  H     16.085386   13.389210   16.141779
  H     15.719984   18.511411   15.905646
  H     17.221634   19.228063   15.309083
  H     16.249564   20.081554   16.521280
  H     17.384149   20.153581   18.368912
  H     19.794369   17.397170   20.028702
  H     19.426669   15.948283   18.058790
  H     19.213517   13.956865   19.235402
  H     17.944262   12.435630   20.734411
  H     15.789440   13.198430   21.737208
  H     14.390429   14.875753   21.959161
  H     16.199990   17.002849   19.781879

 Total Charge           Charge          ....    0
 Multiplicity           Mult            ....    1
 Number of Electrons    NEL             ....  154
 Basis Dimension        Dim             ....  828

ORBITAL ENERGIES
----------------

  NO   OCC          E(Eh)            E(eV)
   0   2.0000     -91.891282     -2500.4889
   1   2.0000     -20.602908      -560.6336
   2   2.0000     -20.577282      -559.9363
   3   2.0000     -20.549817      -559.1889
   4   2.0000     -15.631140      -425.3450
   5   2.0000     -15.610349      -424.7792
   6   2.0000     -11.393438      -310.0312
   7   2.0000     -11.385905      -309.8262
   8   2.0000     -11.336569      -308.4837
   9   2.0000     -11.320548      -308.0478
  10   2.0000     -11.313796      -307.8640
  11   2.0000     -11.298588      -307.4502
  12   2.0000     -11.265185      -306.5413
  13   2.0000     -11.261378      -306.4377
  14   2.0000     -11.259597      -306.3892
  15   2.0000     -11.254207      -306.2425
  16   2.0000     -11.249732      -306.1208
  17   2.0000     -11.244533      -305.9793
  18   2.0000     -11.243907      -305.9623
  19   2.0000     -11.227425      -305.5138
  20   2.0000      -8.896305      -242.0808
  21   2.0000      -6.577870      -178.9929
  22   2.0000      -6.575877      -178.9387
  23   2.0000      -6.575280      -178.9225
  24   2.0000      -1.442235       -39.2452
  25   2.0000      -1.422590       -38.7106
  26   2.0000      -1.349499       -36.7217
  27   2.0000      -1.342599       -36.5340
  28   2.0000      -1.241265       -33.7765
  29   2.0000      -1.163176       -31.6516
  30   2.0000      -1.121841       -30.5269
  31   2.0000      -1.047256       -28.4973
  32   2.0000      -1.030389       -28.0383
  33   2.0000      -1.021607       -27.7993
  34   2.0000      -1.000672       -27.2297
  35   2.0000      -0.987365       -26.8676
  36   2.0000      -0.926456       -25.2102
  37   2.0000      -0.895998       -24.3813
  38   2.0000      -0.849662       -23.1205
  39   2.0000      -0.844860       -22.9898
  40   2.0000      -0.840010       -22.8578
  41   2.0000      -0.822079       -22.3699
  42   2.0000      -0.745626       -20.2895
  43   2.0000      -0.736324       -20.0364
  44   2.0000      -0.718832       -19.5604
  45   2.0000      -0.701684       -19.0938
  46   2.0000      -0.691938       -18.8286
  47   2.0000      -0.673805       -18.3352
  48   2.0000      -0.671527       -18.2732
  49   2.0000      -0.658744       -17.9253
  50   2.0000      -0.656644       -17.8682
  51   2.0000      -0.647427       -17.6174
  52   2.0000      -0.637266       -17.3409
  53   2.0000      -0.628545       -17.1036
  54   2.0000      -0.613110       -16.6836
  55   2.0000      -0.604877       -16.4595
  56   2.0000      -0.602137       -16.3850
  57   2.0000      -0.582504       -15.8508
  58   2.0000      -0.573652       -15.6099
  59   2.0000      -0.566513       -15.4156
  60   2.0000      -0.544887       -14.8271
  61   2.0000      -0.543767       -14.7966
  62   2.0000      -0.536925       -14.6105
  63   2.0000      -0.532607       -14.4930
  64   2.0000      -0.530541       -14.4368
  65   2.0000      -0.516634       -14.0583
  66   2.0000      -0.506022       -13.7695
  67   2.0000      -0.493202       -13.4207
  68   2.0000      -0.482371       -13.1260
  69   2.0000      -0.468179       -12.7398
  70   2.0000      -0.451352       -12.2819
  71   2.0000      -0.443143       -12.0585
  72   2.0000      -0.357846        -9.7375
  73   2.0000      -0.354726        -9.6526
  74   2.0000      -0.331417        -9.0183
  75   2.0000      -0.327678        -8.9166
  76   2.0000      -0.318397        -8.6640
  77   0.0000       0.068146         1.8543
  78   0.0000       0.102036         2.7766
  79   0.0000       0.120667         3.2835
  80   0.0000       0.126908         3.4533
  81   0.0000       0.132083         3.5941

MULLIKEN ATOMIC CHARGES
-----------------------
   0 C :   -0.345051
   1 C :    0.041506
   2 O :   -0.395029
   3 C :    0.513090
   4 O :   -0.398491
   5 C :   -0.296754
   6 C :    0.166304
   7 C :   -0.273424
   8 N :   -0.124876
   9 C :    0.208086
  10 S :   -0.434923
  11 N :   -0.196359
  12 C :    0.049817
  13 C :    0.058689
  14 C :   -0.168635
  15 C :   -0.134072
  16 C :   -0.274904
  17 C :    0.321843
  18 O :   -0.357606
  19 C :   -0.303320
  20 H :    0.103399
  21 H :    0.116345
  22 H :    0.124872
  23 H :    0.111864
  24 H :    0.121370
  25 H :    0.126250
  26 H :    0.139916
  27 H :    0.094579
  28 H :    0.198135
  29 H :    0.192144
  30 H :    0.148704
  31 H :    0.149033
  32 H :    0.164004
  33 H :    0.133891
  34 H :    0.242232
  35 H :    0.177371
Sum of atomic charges:   -0.0000000

LOEWDIN ATOMIC CHARGES
----------------------
   0 C :    0.105040
   1 C :   -0.005948
   2 O :    0.274296
   3 C :   -0.423613
   4 O :    0.126873
   5 C :   -0.098396
   6 C :   -0.063358
   7 C :    0.130472
   8 N :    0.406744
   9 C :   -0.457006
  10 S :   -0.031941
  11 N :    0.396531
  12 C :   -0.052986
  13 C :   -0.038828
  14 C :    0.014989
  15 C :    0.040866
  16 C :   -0.001408
  17 C :   -0.190292
  18 O :    0.396612
  19 C :    0.034301
  20 H :   -0.036479
  21 H :   -0.021447
  22 H :   -0.026499
  23 H :   -0.031087
  24 H :   -0.026054
  25 H :   -0.007176
  26 H :   -0.002694
  27 H :   -0.022945
  28 H :   -0.057590
  29 H :   -0.065179
  30 H :   -0.006156
  31 H :   -0.028592
  32 H :   -0.019667
  33 H :   -0.034126
  34 H :   -0.152339
  35 H :   -0.024920

  Mayer bond orders larger than 0.100000
B(  0-C ,  1-C ) :   0.9641 B(  0-C , 20-H ) :   0.9687 B(  0-C , 21-H ) :   0.9756
B(  0-C , 22-H ) :   0.9717 B(  1-C ,  2-O ) :   0.8832 B(  1-C , 23-H ) :   0.9695
B(  1-C , 24-H ) :   0.9851 B(  2-O ,  3-C ) :   1.1065 B(  3-C ,  4-O ) :   2.0391
B(  3-C ,  5-C ) :   1.0293 B(  5-C ,  6-C ) :   1.6576 B(  5-C , 12-C ) :   0.9736
B(  6-C ,  7-C ) :   0.9663 B(  6-C ,  8-N ) :   1.1512 B(  7-C , 25-H ) :   0.9664
B(  7-C , 26-H ) :   0.9567 B(  7-C , 27-H ) :   0.9875 B(  8-N ,  9-C ) :   1.1798
B(  8-N , 28-H ) :   0.9487 B(  9-C , 10-S ) :   1.6158 B(  9-C , 11-N ) :   1.2998
B( 11-N , 12-C ) :   0.9786 B( 11-N , 29-H ) :   0.9539 B( 12-C , 13-C ) :   0.9436
B( 12-C , 30-H ) :   1.0041 B( 13-C , 14-C ) :   1.3494 B( 13-C , 19-C ) :   1.3591
B( 14-C , 15-C ) :   1.3932 B( 14-C , 31-H ) :   0.9743 B( 15-C , 16-C ) :   1.3635
B( 15-C , 32-H ) :   0.9702 B( 16-C , 17-C ) :   1.3285 B( 16-C , 33-H ) :   0.9836
B( 17-C , 18-O ) :   1.1135 B( 17-C , 19-C ) :   1.3706 B( 18-O , 34-H ) :   0.9790
B( 19-C , 35-H ) :   0.9540

MP2 TOTAL ENERGY:    -1274.324196142 Eh
FINAL SINGLE POINT ENERGY     -1274.324196141805

DIPOLE MOMENT
-------------
                                X             Y             Z
Electronic contribution:      9.92053       7.53435       5.53683
Nuclear contribution   :    -11.04574      -9.10420      -5.23647
                        -----------------------------------------
Total Dipole Moment    :     -1.12521      -1.56985       0.30036
                        -----------------------------------------
Magnitude (a.u.)       :      1.95467
Magnitude (Debye)      :      4.96838

Rotational constants in cm-1:     0.011969     0.009748     0.006768
Rotational constants in MHz :   358.827114   292.242982   202.890485

                             ****ORCA TERMINATED NORMALLY****
TOTAL RUN TIME: 0 days 2 hours 4 minutes 30 seconds 733 msec
