                         Program Version 5.0.0 -  RELEASE  -
|  1> ! ri-mp2 cc-pvtz cc-pvtz/c TightSCF NoKeepInts
|  2>
|  3> %scf
|  4>   MaxCore 4096
|  5> end
|  6> *xyz  0  1
|  7>     C       14.2157029   14.9509883   15.2860136
|  8>     C       15.6927525   14.6036814   15.5367098
|  9>     O       16.3462334   15.8046267   15.9797621
| 10>     C       17.4665397   15.7015247   16.7511070
| 11>     O       18.0870593   14.6556569   16.8544170
| 12>     C       17.7519076   16.8993893   17.6126980
| 13>     C       17.1997813   18.1313769   17.4515305
| 14>     C       16.2060536   18.5829309   16.4004858
| 15>     N       17.5968516   19.1836219   18.2837587
| 16>     C       18.6314475   19.1278100   19.1797865
| 17>     S       19.1228704   20.4595670   20.0286495
| 18>     N       19.2387508   17.9080007   19.3353640
| 19>     C       18.7572547   16.6464500   18.7424306
| 20>     C       18.1584710   15.7454005   19.8195757
| 21>     C       18.6309947   14.4312538   19.9925305
| 22>     C       18.0823363   13.5964800   20.9804940
| 23>     C       17.0512120   14.0788500   21.8043157
| 24>     C       16.5749877   15.3857462   21.6331886
| 25>     O       15.5751977   15.8525194   22.4230958
| 26>     C       17.1227908   16.2141050   20.6487038
| 27>     H       13.7442103   15.3215146   16.2048026
| 28>     H       13.6642039   14.0640418   14.9510090
| 29>     H       14.1258551   15.7239330   14.5127082
| 30>     H       15.7445939   13.8258500   16.3115129
| 31>     H       16.1684758   14.2206142   14.6242959
| 32>     H       16.5596470   18.3258687   15.3941864
| 33>     H       16.0362658   19.6663093   16.4143619
| 34>     H       15.2344924   18.0961761   16.5521840
| 35>     H       17.1634048   20.0875891   18.1844393
| 36>     H       19.9779702   17.8849270   20.0259687
| 37>     H       19.6265469   16.1317635   18.3080870
| 38>     H       19.4165722   14.0498955   19.3447129
| 39>     H       18.4528122   12.5799247   21.0994526
| 40>     H       16.6233497   13.4369142   22.5670325
| 41>     H       15.3576618   15.1534991   23.0577497
| 42>     H       16.7417426   17.2232001   20.5368790
| 43> *
| 44>
| 45>                          ****END OF INPUT****

CARTESIAN COORDINATES (ANGSTROEM)
---------------------------------
  C     14.215703   14.950988   15.286014
  C     15.692752   14.603681   15.536710
  O     16.346233   15.804627   15.979762
  C     17.466540   15.701525   16.751107
  O     18.087059   14.655657   16.854417
  C     17.751908   16.899389   17.612698
  C     17.199781   18.131377   17.451530
  C     16.206054   18.582931   16.400486
  N     17.596852   19.183622   18.283759
  C     18.631448   19.127810   19.179786
  S     19.122870   20.459567   20.028650
  N     19.238751   17.908001   19.335364
  C     18.757255   16.646450   18.742431
  C     18.158471   15.745400   19.819576
  C     18.630995   14.431254   19.992531
  C     18.082336   13.596480   20.980494
  C     17.051212   14.078850   21.804316
  C     16.574988   15.385746   21.633189
  O     15.575198   15.852519   22.423096
  C     17.122791   16.214105   20.648704
  H     13.744210   15.321515   16.204803
  H     13.664204   14.064042   14.951009
  H     14.125855   15.723933   14.512708
  H     15.744594   13.825850   16.311513
  H     16.168476   14.220614   14.624296
  H     16.559647   18.325869   15.394186
  H     16.036266   19.666309   16.414362
  H     15.234492   18.096176   16.552184
  H     17.163405   20.087589   18.184439
  H     19.977970   17.884927   20.025969
  H     19.626547   16.131764   18.308087
  H     19.416572   14.049895   19.344713
  H     18.452812   12.579925   21.099453
  H     16.623350   13.436914   22.567032
  H     15.357662   15.153499   23.057750
  H     16.741743   17.223200   20.536879

 Total Charge           Charge          ....    0
 Multiplicity           Mult            ....    1
 Number of Electrons    NEL             ....  154
 Basis Dimension        Dim             ....  828

ORBITAL ENERGIES
----------------

  NO   OCC          E(Eh)            E(eV)
   0   2.0000     -91.888098     -2500.4023
   1   2.0000     -20.603578      -560.6519
   2   2.0000     -20.591486      -560.3228
   3   2.0000     -20.545538      -559.0725
   4   2.0000     -15.628569      -425.2750
   5   2.0000     -15.606646      -424.6784
   6   2.0000     -11.395124      -310.0771
   7   2.0000     -11.382931      -309.7453
   8   2.0000     -11.336727      -308.4880
   9   2.0000     -11.307233      -307.6854
  10   2.0000     -11.305368      -307.6347
  11   2.0000     -11.299547      -307.4763
  12   2.0000     -11.260715      -306.4196
  13   2.0000     -11.259048      -306.3743
  14   2.0000     -11.253142      -306.2136
  15   2.0000     -11.247314      -306.0550
  16   2.0000     -11.236994      -305.7742
  17   2.0000     -11.235275      -305.7274
  18   2.0000     -11.233160      -305.6698
  19   2.0000     -11.230045      -305.5851
  20   2.0000      -8.893160      -241.9952
  21   2.0000      -6.574737      -178.9077
  22   2.0000      -6.572731      -178.8531
  23   2.0000      -6.572145      -178.8371
  24   2.0000      -1.455323       -39.6014
  25   2.0000      -1.411221       -38.4013
  26   2.0000      -1.357147       -36.9298
  27   2.0000      -1.339443       -36.4481
  28   2.0000      -1.236980       -33.6599
  29   2.0000      -1.151872       -31.3440
  30   2.0000      -1.119476       -30.4625
  31   2.0000      -1.044896       -28.4331
  32   2.0000      -1.037049       -28.2195
  33   2.0000      -1.009244       -27.4629
  34   2.0000      -0.997712       -27.1491
  35   2.0000      -0.983346       -26.7582
  36   2.0000      -0.920967       -25.0608
  37   2.0000      -0.889187       -24.1960
  38   2.0000      -0.847020       -23.0486
  39   2.0000      -0.834755       -22.7148
  40   2.0000      -0.827530       -22.5182
  41   2.0000      -0.817487       -22.2449
  42   2.0000      -0.762284       -20.7428
  43   2.0000      -0.735908       -20.0251
  44   2.0000      -0.724618       -19.7179
  45   2.0000      -0.690885       -18.7999
  46   2.0000      -0.684492       -18.6260
  47   2.0000      -0.680994       -18.5308
  48   2.0000      -0.675819       -18.3900
  49   2.0000      -0.660055       -17.9610
  50   2.0000      -0.649177       -17.6650
  51   2.0000      -0.643612       -17.5136
  52   2.0000      -0.634951       -17.2779
  53   2.0000      -0.600927       -16.3520
  54   2.0000      -0.600000       -16.3268
  55   2.0000      -0.595207       -16.1964
  56   2.0000      -0.592674       -16.1275
  57   2.0000      -0.582381       -15.8474
  58   2.0000      -0.573013       -15.5925
  59   2.0000      -0.564682       -15.3658
  60   2.0000      -0.561906       -15.2902
  61   2.0000      -0.556243       -15.1361
  62   2.0000      -0.539751       -14.6874
  63   2.0000      -0.520965       -14.1762
  64   2.0000      -0.517240       -14.0748
  65   2.0000      -0.510874       -13.9016
  66   2.0000      -0.502903       -13.6847
  67   2.0000      -0.495519       -13.4838
  68   2.0000      -0.480697       -13.0804
  69   2.0000      -0.464370       -12.6362
  70   2.0000      -0.459628       -12.5071
  71   2.0000      -0.455938       -12.4067
  72   2.0000      -0.354298        -9.6409
  73   2.0000      -0.343774        -9.3546
  74   2.0000      -0.327202        -8.9036
  75   2.0000      -0.315577        -8.5873
  76   2.0000      -0.313498        -8.5307
  77   0.0000       0.075907         2.0655
  78   0.0000       0.113283         3.0826
  79   0.0000       0.120364         3.2753
  80   0.0000       0.135995         3.7006
  81   0.0000       0.138811         3.7772

MULLIKEN ATOMIC CHARGES
-----------------------
   0 C :   -0.276674
   1 C :    0.043844
   2 O :   -0.336474
   3 C :    0.432335
   4 O :   -0.426600
   5 C :   -0.170062
   6 C :    0.143608
   7 C :   -0.287519
   8 N :   -0.121611
   9 C :    0.201336
  10 S :   -0.439087
  11 N :   -0.197013
  12 C :    0.035830
  13 C :    0.058320
  14 C :   -0.160319
  15 C :   -0.134149
  16 C :   -0.279164
  17 C :    0.311406
  18 O :   -0.359298
  19 C :   -0.273397
  20 H :    0.097372
  21 H :    0.103023
  22 H :    0.094003
  23 H :    0.097401
  24 H :    0.095710
  25 H :    0.127513
  26 H :    0.104305
  27 H :    0.126986
  28 H :    0.196723
  29 H :    0.193571
  30 H :    0.153428
  31 H :    0.153220
  32 H :    0.159047
  33 H :    0.127940
  34 H :    0.240054
  35 H :    0.164394
Sum of atomic charges:    0.0000000

LOEWDIN ATOMIC CHARGES
----------------------
   0 C :    0.105980
   1 C :   -0.016012
   2 O :    0.306961
   3 C :   -0.415491
   4 O :    0.103898
   5 C :   -0.091609
   6 C :   -0.065569
   7 C :    0.124950
   8 N :    0.404864
   9 C :   -0.458958
  10 S :   -0.035845
  11 N :    0.397912
  12 C :   -0.046513
  13 C :   -0.038761
  14 C :    0.022376
  15 C :    0.040864
  16 C :   -0.002447
  17 C :   -0.192768
  18 O :    0.392863
  19 C :    0.028158
  20 H :   -0.026986
  21 H :   -0.022867
  22 H :   -0.029034
  23 H :   -0.025738
  24 H :   -0.029721
  25 H :   -0.008476
  26 H :   -0.021038
  27 H :   -0.010056
  28 H :   -0.059208
  29 H :   -0.063642
  30 H :   -0.004936
  31 H :   -0.025252
  32 H :   -0.021243
  33 H :   -0.036462
  34 H :   -0.154947
  35 H :   -0.025246

  Mayer bond orders larger than 0.100000
B(  0-C ,  1-C ) :   0.9709 B(  0-C , 20-H ) :   0.9768 B(  0-C , 21-H ) :   0.9789
B(  0-C , 22-H ) :   0.9778 B(  1-C ,  2-O ) :   0.9034 B(  1-C , 23-H ) :   0.9737
B(  1-C , 24-H ) :   0.9814 B(  2-O ,  3-C ) :   1.1681 B(  3-C ,  4-O ) :   1.9861
B(  3-C ,  5-C ) :   1.0553 B(  5-C ,  6-C ) :   1.6451 B(  5-C , 12-C ) :   0.9663
B(  6-C ,  7-C ) :   0.9544 B(  6-C ,  8-N ) :   1.1485 B(  7-C , 25-H ) :   0.9654
B(  7-C , 26-H ) :   0.9918 B(  7-C , 27-H ) :   0.9639 B(  8-N ,  9-C ) :   1.1780
B(  8-N , 28-H ) :   0.9488 B(  9-C , 10-S ) :   1.6109 B(  9-C , 11-N ) :   1.3046
B( 11-N , 12-C ) :   0.9921 B( 11-N , 29-H ) :   0.9520 B( 12-C , 13-C ) :   0.9476
B( 12-C , 30-H ) :   0.9998 B( 13-C , 14-C ) :   1.3757 B( 13-C , 19-C ) :   1.3691
B( 14-C , 15-C ) :   1.3946 B( 14-C , 31-H ) :   0.9649 B( 15-C , 16-C ) :   1.3624
B( 15-C , 32-H ) :   0.9714 B( 16-C , 17-C ) :   1.3315 B( 16-C , 33-H ) :   0.9860
B( 17-C , 18-O ) :   1.1079 B( 17-C , 19-C ) :   1.3793 B( 18-O , 34-H ) :   0.9806
B( 19-C , 35-H ) :   0.9586

MP2 TOTAL ENERGY:    -1274.347991583 Eh
FINAL SINGLE POINT ENERGY     -1274.347991582942

DIPOLE MOMENT
-------------
                                X             Y             Z
Electronic contribution:     12.00488       8.67709      10.60907
Nuclear contribution   :    -13.50183     -10.00341     -11.57718
                        -----------------------------------------
Total Dipole Moment    :     -1.49694      -1.32631      -0.96811
                        -----------------------------------------
Magnitude (a.u.)       :      2.22198
Magnitude (Debye)      :      5.64781

Rotational constants in cm-1:     0.010296     0.008958     0.005945
Rotational constants in MHz :   308.671047   268.558069   178.235609

                             ****ORCA TERMINATED NORMALLY****
TOTAL RUN TIME: 0 days 1 hours 43 minutes 51 seconds 890 msec
