                         Program Version 4.2.0 -  RELEASE  -
|  1> ! ri-mp2 cc-pvtz cc-pvtz/c TightSCF  NoKeepInts
|  2>
|  3> %scf
|  4>   MaxCore 4096
|  5> end
|  6> *xyz  0  1
|  7>     C       14.6776609   14.4368547   17.2358567
|  8>     C       15.6342145   15.3290621   16.4283444
|  9>     O       16.9682392   14.9663510   16.8061857
| 10>     C       18.0152329   15.7776742   16.4843069
| 11>     O       19.0722281   15.2510691   16.1927603
| 12>     C       18.0466105   16.9549842   17.3948691
| 13>     C       17.5684781   18.1577917   17.0091577
| 14>     C       16.9477839   18.4953003   15.6705629
| 15>     N       17.6662610   19.2533725   17.8694957
| 16>     C       18.3184939   19.2388188   19.0755847
| 17>     S       18.4430738   20.5979409   20.0094538
| 18>     N       18.8584526   18.0391265   19.4724557
| 19>     C       18.7042053   16.7542941   18.7600724
| 20>     C       17.9333717   15.7468840   19.6065838
| 21>     C       18.4142132   14.4329858   19.7542915
| 22>     C       17.7015873   13.4916047   20.5156158
| 23>     C       16.4959974   13.8656902   21.1331130
| 24>     C       16.0106699   15.1716783   20.9824754
| 25>     O       14.8388427   15.5312704   21.5642816
| 26>     C       16.7216001   16.1070919   20.2242391
| 27>     H       14.8595445   13.3775864   17.0149235
| 28>     H       13.6335208   14.6660661   16.9914050
| 29>     H       14.8211580   14.5921829   18.3123170
| 30>     H       15.4849936   15.1801265   15.3507712
| 31>     H       15.4251857   16.3761941   16.6775633
| 32>     H       17.1622592   17.7356979   14.9090182
| 33>     H       17.3424371   19.4439071   15.2841834
| 34>     H       15.8587360   18.5949157   15.7552839
| 35>     H       17.2861197   20.1451754   17.5937627
| 36>     H       19.3110934   18.0536694   20.3775493
| 37>     H       19.7109193   16.3491310   18.5807774
| 38>     H       19.3360360   14.1357285   19.2597505
| 39>     H       18.0807991   12.4762506   20.6164924
| 40>     H       15.9406323   13.1400151   21.7178184
| 41>     H       14.5300022   14.7740002   22.0842565
| 42>     H       16.3263462   17.1115078   20.1184213
| 43> *
| 44>
| 45>                          ****END OF INPUT****

CARTESIAN COORDINATES (ANGSTROEM)
---------------------------------
  C     14.677661   14.436855   17.235857
  C     15.634215   15.329062   16.428344
  O     16.968239   14.966351   16.806186
  C     18.015233   15.777674   16.484307
  O     19.072228   15.251069   16.192760
  C     18.046610   16.954984   17.394869
  C     17.568478   18.157792   17.009158
  C     16.947784   18.495300   15.670563
  N     17.666261   19.253372   17.869496
  C     18.318494   19.238819   19.075585
  S     18.443074   20.597941   20.009454
  N     18.858453   18.039126   19.472456
  C     18.704205   16.754294   18.760072
  C     17.933372   15.746884   19.606584
  C     18.414213   14.432986   19.754291
  C     17.701587   13.491605   20.515616
  C     16.495997   13.865690   21.133113
  C     16.010670   15.171678   20.982475
  O     14.838843   15.531270   21.564282
  C     16.721600   16.107092   20.224239
  H     14.859544   13.377586   17.014923
  H     13.633521   14.666066   16.991405
  H     14.821158   14.592183   18.312317
  H     15.484994   15.180126   15.350771
  H     15.425186   16.376194   16.677563
  H     17.162259   17.735698   14.909018
  H     17.342437   19.443907   15.284183
  H     15.858736   18.594916   15.755284
  H     17.286120   20.145175   17.593763
  H     19.311093   18.053669   20.377549
  H     19.710919   16.349131   18.580777
  H     19.336036   14.135728   19.259750
  H     18.080799   12.476251   20.616492
  H     15.940632   13.140015   21.717818
  H     14.530002   14.774000   22.084256
  H     16.326346   17.111508   20.118421

 Total Charge           Charge          ....    0
 Multiplicity           Mult            ....    1
 Number of Electrons    NEL             ....  154
 Basis Dimension        Dim             ....  828

ORBITAL ENERGIES
----------------

  NO   OCC          E(Eh)            E(eV)
   0   2.0000     -91.885823     -2500.3404
   1   2.0000     -20.598138      -560.5038
   2   2.0000     -20.597941      -560.4985
   3   2.0000     -20.564374      -559.5851
   4   2.0000     -15.620545      -425.0566
   5   2.0000     -15.608993      -424.7423
   6   2.0000     -11.394095      -310.0491
   7   2.0000     -11.382851      -309.7431
   8   2.0000     -11.318971      -308.0048
   9   2.0000     -11.315249      -307.9036
  10   2.0000     -11.313808      -307.8644
  11   2.0000     -11.305782      -307.6460
  12   2.0000     -11.268563      -306.6332
  13   2.0000     -11.263208      -306.4875
  14   2.0000     -11.260563      -306.4155
  15   2.0000     -11.254321      -306.2456
  16   2.0000     -11.243298      -305.9457
  17   2.0000     -11.238677      -305.8200
  18   2.0000     -11.237111      -305.7773
  19   2.0000     -11.231003      -305.6111
  20   2.0000      -8.890979      -241.9358
  21   2.0000      -6.572581      -178.8490
  22   2.0000      -6.570543      -178.7936
  23   2.0000      -6.569982      -178.7783
  24   2.0000      -1.459943       -39.7271
  25   2.0000      -1.417670       -38.5768
  26   2.0000      -1.366265       -37.1780
  27   2.0000      -1.335342       -36.3365
  28   2.0000      -1.236132       -33.6369
  29   2.0000      -1.158008       -31.5110
  30   2.0000      -1.122769       -30.5521
  31   2.0000      -1.046572       -28.4787
  32   2.0000      -1.041072       -28.3290
  33   2.0000      -1.015793       -27.6411
  34   2.0000      -1.002399       -27.2767
  35   2.0000      -0.985602       -26.8196
  36   2.0000      -0.925356       -25.1802
  37   2.0000      -0.882848       -24.0235
  38   2.0000      -0.851219       -23.1628
  39   2.0000      -0.838503       -22.8168
  40   2.0000      -0.834679       -22.7128
  41   2.0000      -0.833897       -22.6915
  42   2.0000      -0.760521       -20.6948
  43   2.0000      -0.735216       -20.0063
  44   2.0000      -0.729323       -19.8459
  45   2.0000      -0.696892       -18.9634
  46   2.0000      -0.691632       -18.8203
  47   2.0000      -0.683711       -18.6047
  48   2.0000      -0.676505       -18.4086
  49   2.0000      -0.662630       -18.0311
  50   2.0000      -0.652260       -17.7489
  51   2.0000      -0.641967       -17.4688
  52   2.0000      -0.636616       -17.3232
  53   2.0000      -0.620859       -16.8944
  54   2.0000      -0.609626       -16.5888
  55   2.0000      -0.605225       -16.4690
  56   2.0000      -0.601364       -16.3639
  57   2.0000      -0.587111       -15.9761
  58   2.0000      -0.576323       -15.6825
  59   2.0000      -0.564695       -15.3661
  60   2.0000      -0.560662       -15.2564
  61   2.0000      -0.550160       -14.9706
  62   2.0000      -0.538370       -14.6498
  63   2.0000      -0.530249       -14.4288
  64   2.0000      -0.521222       -14.1832
  65   2.0000      -0.512082       -13.9345
  66   2.0000      -0.500143       -13.6096
  67   2.0000      -0.499209       -13.5842
  68   2.0000      -0.490965       -13.3598
  69   2.0000      -0.466109       -12.6835
  70   2.0000      -0.460695       -12.5362
  71   2.0000      -0.454323       -12.3628
  72   2.0000      -0.353496        -9.6191
  73   2.0000      -0.348042        -9.4707
  74   2.0000      -0.325928        -8.8689
  75   2.0000      -0.321438        -8.7468
  76   2.0000      -0.313884        -8.5412
  77   0.0000       0.090316         2.4576
  78   0.0000       0.098246         2.6734
  79   0.0000       0.108647         2.9564
  80   0.0000       0.125363         3.4113
  81   0.0000       0.128594         3.4992

MULLIKEN ATOMIC CHARGES
-----------------------
   0 C :   -0.267401
   1 C :    0.009922
   2 O :   -0.305007
   3 C :    0.377007
   4 O :   -0.350761
   5 C :   -0.130627
   6 C :    0.115032
   7 C :   -0.324836
   8 N :   -0.133301
   9 C :    0.209033
  10 S :   -0.448169
  11 N :   -0.207360
  12 C :    0.030253
  13 C :    0.052069
  14 C :   -0.178406
  15 C :   -0.134457
  16 C :   -0.264161
  17 C :    0.293761
  18 O :   -0.365492
  19 C :   -0.263339
  20 H :    0.102614
  21 H :    0.087086
  22 H :    0.118535
  23 H :    0.108186
  24 H :    0.079282
  25 H :    0.117675
  26 H :    0.130293
  27 H :    0.123043
  28 H :    0.193589
  29 H :    0.196361
  30 H :    0.165452
  31 H :    0.156150
  32 H :    0.161166
  33 H :    0.131498
  34 H :    0.241055
  35 H :    0.174256
Sum of atomic charges:   -0.0000000

LOEWDIN ATOMIC CHARGES
----------------------
   0 C :    0.113230
   1 C :   -0.034751
   2 O :    0.329712
   3 C :   -0.426875
   4 O :    0.152330
   5 C :   -0.078153
   6 C :   -0.118905
   7 C :    0.121069
   8 N :    0.398575
   9 C :   -0.454805
  10 S :   -0.043516
  11 N :    0.397461
  12 C :   -0.040478
  13 C :   -0.039076
  14 C :    0.023027
  15 C :    0.045706
  16 C :   -0.001073
  17 C :   -0.194241
  18 O :    0.394255
  19 C :    0.028332
  20 H :   -0.024334
  21 H :   -0.026695
  22 H :   -0.022470
  23 H :   -0.033393
  24 H :   -0.038033
  25 H :   -0.011757
  26 H :   -0.011548
  27 H :   -0.018149
  28 H :   -0.060370
  29 H :   -0.063891
  30 H :   -0.003307
  31 H :   -0.024994
  32 H :   -0.019512
  33 H :   -0.035466
  34 H :   -0.153559
  35 H :   -0.024346

  Mayer bond orders larger than 0.100000
B(  0-C ,  1-C ) :   0.9841 B(  0-C , 20-H ) :   0.9806 B(  0-C , 21-H ) :   0.9764
B(  0-C , 22-H ) :   0.9718 B(  1-C ,  2-O ) :   0.9299 B(  1-C , 23-H ) :   0.9784
B(  1-C , 24-H ) :   0.9637 B(  2-O ,  3-C ) :   1.0853 B(  3-C ,  4-O ) :   2.1094
B(  3-C ,  5-C ) :   0.9335 B(  5-C ,  6-C ) :   1.7240 B(  5-C , 12-C ) :   0.9721
B(  6-C ,  7-C ) :   0.9414 B(  6-C ,  8-N ) :   1.1031 B(  7-C , 25-H ) :   0.9817
B(  7-C , 26-H ) :   0.9746 B(  7-C , 27-H ) :   0.9668 B(  8-N ,  9-C ) :   1.2037
B(  8-N , 28-H ) :   0.9545 B(  9-C , 10-S ) :   1.6035 B(  9-C , 11-N ) :   1.2856
B( 11-N , 12-C ) :   0.9995 B( 11-N , 29-H ) :   0.9487 B( 12-C , 13-C ) :   0.9475
B( 12-C , 30-H ) :   0.9994 B( 13-C , 14-C ) :   1.3785 B( 13-C , 19-C ) :   1.3537
B( 14-C , 15-C ) :   1.3943 B( 14-C , 31-H ) :   0.9667 B( 15-C , 16-C ) :   1.3663
B( 15-C , 32-H ) :   0.9710 B( 16-C , 17-C ) :   1.3307 B( 16-C , 33-H ) :   0.9848
B( 17-C , 18-O ) :   1.0975 B( 17-C , 19-C ) :   1.3706 B( 18-O , 34-H ) :   0.9798
B( 19-C , 35-H ) :   0.9566

MP2 TOTAL ENERGY:    -1274.311208484 Eh
FINAL SINGLE POINT ENERGY     -1274.311208483806

DIPOLE MOMENT
-------------
                                X             Y             Z
Electronic contribution:     10.59676       8.22098       6.73653
Nuclear contribution   :    -12.20675      -9.52057      -7.55491
                        -----------------------------------------
Total Dipole Moment    :     -1.61000      -1.29959      -0.81838
                        -----------------------------------------
Magnitude (a.u.)       :      2.22503
Magnitude (Debye)      :      5.65559

Rotational constants in cm-1:     0.012429     0.009009     0.006819
Rotational constants in MHz :   372.598586   270.074664   204.442179

                             ****ORCA TERMINATED NORMALLY****
TOTAL RUN TIME: 0 days 1 hours 45 minutes 53 seconds 955 msec
