                         Program Version 4.2.0 -  RELEASE  -
|  1> ! ri-mp2 cc-pvtz cc-pvtz/c TightSCF  NoKeepInts
|  2>
|  3> %scf
|  4>   MaxCore 4096
|  5> end
|  6> *xyz  0  1
|  7>     C       14.6118055   14.4214861   17.1130162
|  8>     C       15.5980252   15.5605985   16.8104391
|  9>     O       16.9008741   14.9659040   16.6896413
| 10>     C       18.0464933   15.6984439   16.5264249
| 11>     O       19.0848117   15.1019486   16.3115150
| 12>     C       18.0810124   16.9178988   17.3831822
| 13>     C       17.5984002   18.1059007   16.9578373
| 14>     C       16.9800495   18.3982378   15.6082222
| 15>     N       17.6849335   19.2272466   17.7853783
| 16>     C       18.3116072   19.2476109   19.0050017
| 17>     S       18.4081165   20.6305875   19.9061486
| 18>     N       18.8468004   18.0612172   19.4462023
| 19>     C       18.7272317   16.7597316   18.7578759
| 20>     C       17.9566560   15.7489083   19.6012910
| 21>     C       18.4129595   14.4220074   19.7023843
| 22>     C       17.6919635   13.4713812   20.4438891
| 23>     C       16.5008425   13.8485218   21.0868943
| 24>     C       16.0390043   15.1672937   20.9822934
| 25>     O       14.8804168   15.5308803   21.5873281
| 26>     C       16.7596232   16.1126041   20.2457694
| 27>     H       14.8863400   13.9163553   18.0481045
| 28>     H       14.6176546   13.6789413   16.3052834
| 29>     H       13.5917020   14.8097918   17.2190056
| 30>     H       15.3143951   16.0622347   15.8766304
| 31>     H       15.5640647   16.2848361   17.6345011
| 32>     H       17.1698044   17.5982552   14.8819298
| 33>     H       17.3978150   19.3172278   15.1771727
| 34>     H       15.8943246   18.5296957   15.6922736
| 35>     H       17.3087666   20.1102289   17.4770987
| 36>     H       19.2820590   18.1025169   20.3591766
| 37>     H       19.7438400   16.3697581   18.6011044
| 38>     H       19.3207060   14.1213100   19.1837086
| 39>     H       18.0525167   12.4461626   20.5077822
| 40>     H       15.9383402   13.1153729   21.6553749
| 41>     H       14.5625723   14.7644189   22.0883389
| 42>     H       16.3804720   17.1264848   20.1757801
| 43> *
| 44>
| 45>                          ****END OF INPUT****

CARTESIAN COORDINATES (ANGSTROEM)
---------------------------------
  C     14.611805   14.421486   17.113016
  C     15.598025   15.560598   16.810439
  O     16.900874   14.965904   16.689641
  C     18.046493   15.698444   16.526425
  O     19.084812   15.101949   16.311515
  C     18.081012   16.917899   17.383182
  C     17.598400   18.105901   16.957837
  C     16.980049   18.398238   15.608222
  N     17.684933   19.227247   17.785378
  C     18.311607   19.247611   19.005002
  S     18.408116   20.630587   19.906149
  N     18.846800   18.061217   19.446202
  C     18.727232   16.759732   18.757876
  C     17.956656   15.748908   19.601291
  C     18.412959   14.422007   19.702384
  C     17.691963   13.471381   20.443889
  C     16.500843   13.848522   21.086894
  C     16.039004   15.167294   20.982293
  O     14.880417   15.530880   21.587328
  C     16.759623   16.112604   20.245769
  H     14.886340   13.916355   18.048105
  H     14.617655   13.678941   16.305283
  H     13.591702   14.809792   17.219006
  H     15.314395   16.062235   15.876630
  H     15.564065   16.284836   17.634501
  H     17.169804   17.598255   14.881930
  H     17.397815   19.317228   15.177173
  H     15.894325   18.529696   15.692274
  H     17.308767   20.110229   17.477099
  H     19.282059   18.102517   20.359177
  H     19.743840   16.369758   18.601104
  H     19.320706   14.121310   19.183709
  H     18.052517   12.446163   20.507782
  H     15.938340   13.115373   21.655375
  H     14.562572   14.764419   22.088339
  H     16.380472   17.126485   20.175780

 Total Charge           Charge          ....    0
 Multiplicity           Mult            ....    1
 Number of Electrons    NEL             ....  154
 Basis Dimension        Dim             ....  828

ORBITAL ENERGIES
----------------

  NO   OCC          E(Eh)            E(eV)
   0   2.0000     -91.888269     -2500.4069
   1   2.0000     -20.602438      -560.6208
   2   2.0000     -20.599559      -560.5425
   3   2.0000     -20.555566      -559.3454
   4   2.0000     -15.623780      -425.1447
   5   2.0000     -15.611052      -424.7983
   6   2.0000     -11.395926      -310.0989
   7   2.0000     -11.385350      -309.8111
   8   2.0000     -11.323167      -308.1190
   9   2.0000     -11.316235      -307.9304
  10   2.0000     -11.316114      -307.9271
  11   2.0000     -11.303406      -307.5813
  12   2.0000     -11.270134      -306.6759
  13   2.0000     -11.263834      -306.5045
  14   2.0000     -11.262872      -306.4783
  15   2.0000     -11.255951      -306.2900
  16   2.0000     -11.245224      -305.9981
  17   2.0000     -11.241455      -305.8955
  18   2.0000     -11.238582      -305.8174
  19   2.0000     -11.231548      -305.6259
  20   2.0000      -8.893410      -242.0020
  21   2.0000      -6.575006      -178.9150
  22   2.0000      -6.572972      -178.8597
  23   2.0000      -6.572405      -178.8442
  24   2.0000      -1.453924       -39.5633
  25   2.0000      -1.419358       -38.6227
  26   2.0000      -1.362454       -37.0743
  27   2.0000      -1.337936       -36.4071
  28   2.0000      -1.238438       -33.6996
  29   2.0000      -1.160465       -31.5779
  30   2.0000      -1.124765       -30.6064
  31   2.0000      -1.048598       -28.5338
  32   2.0000      -1.040399       -28.3107
  33   2.0000      -1.018062       -27.7029
  34   2.0000      -1.004324       -27.3290
  35   2.0000      -0.988079       -26.8870
  36   2.0000      -0.927271       -25.2323
  37   2.0000      -0.880877       -23.9699
  38   2.0000      -0.854301       -23.2467
  39   2.0000      -0.840656       -22.8754
  40   2.0000      -0.836577       -22.7644
  41   2.0000      -0.836218       -22.7547
  42   2.0000      -0.758215       -20.6321
  43   2.0000      -0.738324       -20.0908
  44   2.0000      -0.731040       -19.8926
  45   2.0000      -0.698017       -18.9940
  46   2.0000      -0.689102       -18.7514
  47   2.0000      -0.682800       -18.5799
  48   2.0000      -0.677162       -18.4265
  49   2.0000      -0.660352       -17.9691
  50   2.0000      -0.658591       -17.9212
  51   2.0000      -0.649204       -17.6657
  52   2.0000      -0.639199       -17.3935
  53   2.0000      -0.611613       -16.6428
  54   2.0000      -0.608457       -16.5570
  55   2.0000      -0.603889       -16.4327
  56   2.0000      -0.600013       -16.3272
  57   2.0000      -0.586363       -15.9557
  58   2.0000      -0.577547       -15.7159
  59   2.0000      -0.567138       -15.4326
  60   2.0000      -0.561424       -15.2771
  61   2.0000      -0.554942       -15.1007
  62   2.0000      -0.549758       -14.9597
  63   2.0000      -0.527851       -14.3636
  64   2.0000      -0.519344       -14.1321
  65   2.0000      -0.514222       -13.9927
  66   2.0000      -0.506681       -13.7875
  67   2.0000      -0.501515       -13.6469
  68   2.0000      -0.488084       -13.2815
  69   2.0000      -0.468350       -12.7444
  70   2.0000      -0.455406       -12.3922
  71   2.0000      -0.452152       -12.3037
  72   2.0000      -0.355364        -9.6700
  73   2.0000      -0.350857        -9.5473
  74   2.0000      -0.328169        -8.9299
  75   2.0000      -0.323471        -8.8021
  76   2.0000      -0.316559        -8.6140
  77   0.0000       0.091204         2.4818
  78   0.0000       0.101833         2.7710
  79   0.0000       0.107626         2.9286
  80   0.0000       0.126606         3.4451
  81   0.0000       0.129735         3.5303

MULLIKEN ATOMIC CHARGES
-----------------------
   0 C :   -0.260884
   1 C :   -0.001001
   2 O :   -0.299870
   3 C :    0.384630
   4 O :   -0.368788
   5 C :   -0.161474
   6 C :    0.125220
   7 C :   -0.327134
   8 N :   -0.135157
   9 C :    0.207799
  10 S :   -0.444344
  11 N :   -0.214292
  12 C :    0.056792
  13 C :    0.039985
  14 C :   -0.183234
  15 C :   -0.128287
  16 C :   -0.280639
  17 C :    0.312483
  18 O :   -0.359678
  19 C :   -0.284543
  20 H :    0.109180
  21 H :    0.104109
  22 H :    0.087593
  23 H :    0.100896
  24 H :    0.103152
  25 H :    0.121484
  26 H :    0.134339
  27 H :    0.123840
  28 H :    0.194864
  29 H :    0.198530
  30 H :    0.165300
  31 H :    0.161061
  32 H :    0.162536
  33 H :    0.132992
  34 H :    0.241816
  35 H :    0.180725
Sum of atomic charges:   -0.0000000

LOEWDIN ATOMIC CHARGES
----------------------
   0 C :    0.113277
   1 C :   -0.030717
   2 O :    0.322414
   3 C :   -0.422084
   4 O :    0.135406
   5 C :   -0.079455
   6 C :   -0.112298
   7 C :    0.122979
   8 N :    0.399505
   9 C :   -0.455025
  10 S :   -0.040591
  11 N :    0.397350
  12 C :   -0.042286
  13 C :   -0.040633
  14 C :    0.025088
  15 C :    0.046314
  16 C :   -0.000591
  17 C :   -0.193827
  18 O :    0.394495
  19 C :    0.027779
  20 H :   -0.022548
  21 H :   -0.025241
  22 H :   -0.025370
  23 H :   -0.037909
  24 H :   -0.037552
  25 H :   -0.010586
  26 H :   -0.010537
  27 H :   -0.016880
  28 H :   -0.059369
  29 H :   -0.063690
  30 H :   -0.002551
  31 H :   -0.022928
  32 H :   -0.018769
  33 H :   -0.035008
  34 H :   -0.153096
  35 H :   -0.025068

  Mayer bond orders larger than 0.100000
B(  0-C ,  1-C ) :   0.9836 B(  0-C , 20-H ) :   0.9756 B(  0-C , 21-H ) :   0.9797
B(  0-C , 22-H ) :   0.9764 B(  1-C ,  2-O ) :   0.9189 B(  1-C , 23-H ) :   0.9762
B(  1-C , 24-H ) :   0.9597 B(  2-O ,  3-C ) :   1.1392 B(  3-C ,  4-O ) :   2.1011
B(  3-C ,  5-C ) :   0.9190 B(  5-C ,  6-C ) :   1.7074 B(  5-C , 12-C ) :   0.9660
B(  6-C ,  7-C ) :   0.9377 B(  6-C ,  8-N ) :   1.1067 B(  7-C , 25-H ) :   0.9825
B(  7-C , 26-H ) :   0.9729 B(  7-C , 27-H ) :   0.9658 B(  8-N ,  9-C ) :   1.2003
B(  8-N , 28-H ) :   0.9535 B(  9-C , 10-S ) :   1.6076 B(  9-C , 11-N ) :   1.2849
B( 11-N , 12-C ) :   0.9976 B( 11-N , 29-H ) :   0.9483 B( 12-C , 13-C ) :   0.9450
B( 12-C , 30-H ) :   0.9977 B( 13-C , 14-C ) :   1.3858 B( 13-C , 19-C ) :   1.3405
B( 14-C , 15-C ) :   1.3978 B( 14-C , 31-H ) :   0.9644 B( 15-C , 16-C ) :   1.3619
B( 15-C , 32-H ) :   0.9704 B( 16-C , 17-C ) :   1.3297 B( 16-C , 33-H ) :   0.9845
B( 17-C , 18-O ) :   1.1073 B( 17-C , 19-C ) :   1.3667 B( 18-O , 34-H ) :   0.9792
B( 19-C , 35-H ) :   0.9557

MP2 TOTAL ENERGY:    -1274.323742030 Eh
FINAL SINGLE POINT ENERGY     -1274.323742030426

DIPOLE MOMENT
-------------
                                X             Y             Z
Electronic contribution:     10.70382       8.11767       6.48492
Nuclear contribution   :    -12.29482      -9.22326      -7.08003
                        -----------------------------------------
Total Dipole Moment    :     -1.59101      -1.10559      -0.59511
                        -----------------------------------------
Magnitude (a.u.)       :      2.02677
Magnitude (Debye)      :      5.15164

Rotational constants in cm-1:     0.012629     0.008957     0.006892
Rotational constants in MHz :   378.616057   268.523062   206.603938

                             ****ORCA TERMINATED NORMALLY****
TOTAL RUN TIME: 0 days 1 hours 49 minutes 27 seconds 482 msec
