                         Program Version 5.0.0 -  RELEASE  -
|  1> ! ri-mp2 cc-pvtz cc-pvtz/c TightSCF NoKeepInts
|  2>
|  3> %scf
|  4>   MaxCore 4096
|  5> end
|  6> *xyz  0  1
|  7>     C       14.9027095   14.1185788   15.7121912
|  8>     C       16.3681047   13.8841137   16.1397920
|  9>     O       17.0385695   15.0254947   16.7352727
| 10>     C       16.6764312   16.3478789   16.6522673
| 11>     O       15.8574541   16.7817924   15.8620964
| 12>     C       17.5313858   17.2174253   17.5353332
| 13>     C       17.4651717   18.5736579   17.5117169
| 14>     C       16.5728878   19.4364262   16.6446966
| 15>     N       18.3038298   19.3320693   18.3341326
| 16>     C       19.2890300   18.8213005   19.1357853
| 17>     S       20.2942728   19.7961509   20.0162440
| 18>     N       19.4014498   17.4552817   19.1718024
| 19>     C       18.4833227   16.5080797   18.5136160
| 20>     C       17.7220281   15.7105753   19.5686566
| 21>     C       17.9520100   14.3305866   19.7238764
| 22>     C       17.2505823   13.5934537   20.6928477
| 23>     C       16.3134425   14.2416024   21.5154561
| 24>     C       16.0853084   15.6165454   21.3665962
| 25>     O       15.1821823   16.2454042   22.1602760
| 26>     C       16.7848824   16.3474488   20.4014766
| 27>     H       14.3277933   14.5921445   16.5179530
| 28>     H       14.4218067   13.1629485   15.4716441
| 29>     H       14.8444404   14.7484036   14.8158207
| 30>     H       16.3988750   13.0541161   16.8573846
| 31>     H       16.9332967   13.5654468   15.2544592
| 32>     H       16.7659383   19.2443293   15.5815697
| 33>     H       16.7130891   20.5097966   16.8176818
| 34>     H       15.5160654   19.2067482   16.8317154
| 35>     H       18.2363326   20.3371556   18.3200860
| 36>     H       20.1110034   17.1069199   19.8034154
| 37>     H       19.1022236   15.8118909   17.9304578
| 38>     H       18.6730663   13.8265674   19.0860806
| 39>     H       17.4339844   12.5262628   20.8043522
| 40>     H       15.7694017   13.6768645   22.2653556
| 41>     H       14.8253381   15.5865325   22.7745252
| 42>     H       16.5992894   17.4120069   20.3073661
| 43> *
| 44>
| 45>                          ****END OF INPUT****

CARTESIAN COORDINATES (ANGSTROEM)
---------------------------------
  C     14.902710   14.118579   15.712191
  C     16.368105   13.884114   16.139792
  O     17.038570   15.025495   16.735273
  C     16.676431   16.347879   16.652267
  O     15.857454   16.781792   15.862096
  C     17.531386   17.217425   17.535333
  C     17.465172   18.573658   17.511717
  C     16.572888   19.436426   16.644697
  N     18.303830   19.332069   18.334133
  C     19.289030   18.821300   19.135785
  S     20.294273   19.796151   20.016244
  N     19.401450   17.455282   19.171802
  C     18.483323   16.508080   18.513616
  C     17.722028   15.710575   19.568657
  C     17.952010   14.330587   19.723876
  C     17.250582   13.593454   20.692848
  C     16.313443   14.241602   21.515456
  C     16.085308   15.616545   21.366596
  O     15.182182   16.245404   22.160276
  C     16.784882   16.347449   20.401477
  H     14.327793   14.592144   16.517953
  H     14.421807   13.162949   15.471644
  H     14.844440   14.748404   14.815821
  H     16.398875   13.054116   16.857385
  H     16.933297   13.565447   15.254459
  H     16.765938   19.244329   15.581570
  H     16.713089   20.509797   16.817682
  H     15.516065   19.206748   16.831715
  H     18.236333   20.337156   18.320086
  H     20.111003   17.106920   19.803415
  H     19.102224   15.811891   17.930458
  H     18.673066   13.826567   19.086081
  H     17.433984   12.526263   20.804352
  H     15.769402   13.676865   22.265356
  H     14.825338   15.586533   22.774525
  H     16.599289   17.412007   20.307366

 Total Charge           Charge          ....    0
 Multiplicity           Mult            ....    1
 Number of Electrons    NEL             ....  154
 Basis Dimension        Dim             ....  828

ORBITAL ENERGIES
----------------

  NO   OCC          E(Eh)            E(eV)
   0   2.0000     -91.887633     -2500.3896
   1   2.0000     -20.598837      -560.5228
   2   2.0000     -20.595902      -560.4430
   3   2.0000     -20.539942      -558.9202
   4   2.0000     -15.627598      -425.2486
   5   2.0000     -15.606882      -424.6848
   6   2.0000     -11.397667      -310.1463
   7   2.0000     -11.382640      -309.7374
   8   2.0000     -11.334490      -308.4272
   9   2.0000     -11.312957      -307.8412
  10   2.0000     -11.307007      -307.6793
  11   2.0000     -11.303374      -307.5804
  12   2.0000     -11.258750      -306.3662
  13   2.0000     -11.257927      -306.3438
  14   2.0000     -11.254523      -306.2511
  15   2.0000     -11.250866      -306.1516
  16   2.0000     -11.242297      -305.9185
  17   2.0000     -11.237624      -305.7913
  18   2.0000     -11.237535      -305.7889
  19   2.0000     -11.223154      -305.3976
  20   2.0000      -8.892710      -241.9829
  21   2.0000      -6.574289      -178.8955
  22   2.0000      -6.572281      -178.8409
  23   2.0000      -6.571698      -178.8250
  24   2.0000      -1.443117       -39.2692
  25   2.0000      -1.415550       -38.5191
  26   2.0000      -1.353952       -36.8429
  27   2.0000      -1.338728       -36.4286
  28   2.0000      -1.237206       -33.6661
  29   2.0000      -1.156654       -31.4741
  30   2.0000      -1.118689       -30.4411
  31   2.0000      -1.041659       -28.3450
  32   2.0000      -1.036464       -28.2036
  33   2.0000      -1.014245       -27.5990
  34   2.0000      -0.994355       -27.0578
  35   2.0000      -0.982641       -26.7390
  36   2.0000      -0.921248       -25.0684
  37   2.0000      -0.898457       -24.4483
  38   2.0000      -0.846165       -23.0253
  39   2.0000      -0.837059       -22.7775
  40   2.0000      -0.833275       -22.6746
  41   2.0000      -0.817647       -22.2493
  42   2.0000      -0.744597       -20.2615
  43   2.0000      -0.730026       -19.8650
  44   2.0000      -0.718522       -19.5520
  45   2.0000      -0.694859       -18.9081
  46   2.0000      -0.686875       -18.6908
  47   2.0000      -0.675089       -18.3701
  48   2.0000      -0.670772       -18.2526
  49   2.0000      -0.659506       -17.9461
  50   2.0000      -0.650790       -17.7089
  51   2.0000      -0.642639       -17.4871
  52   2.0000      -0.634888       -17.2762
  53   2.0000      -0.606363       -16.5000
  54   2.0000      -0.604489       -16.4490
  55   2.0000      -0.599375       -16.3098
  56   2.0000      -0.597689       -16.2639
  57   2.0000      -0.577342       -15.7103
  58   2.0000      -0.574685       -15.6380
  59   2.0000      -0.569724       -15.5030
  60   2.0000      -0.560339       -15.2476
  61   2.0000      -0.539628       -14.6840
  62   2.0000      -0.535503       -14.5718
  63   2.0000      -0.525030       -14.2868
  64   2.0000      -0.521217       -14.1830
  65   2.0000      -0.512376       -13.9425
  66   2.0000      -0.501854       -13.6562
  67   2.0000      -0.498361       -13.5611
  68   2.0000      -0.484620       -13.1872
  69   2.0000      -0.462388       -12.5822
  70   2.0000      -0.452322       -12.3083
  71   2.0000      -0.440192       -11.9782
  72   2.0000      -0.352704        -9.5976
  73   2.0000      -0.348559        -9.4848
  74   2.0000      -0.327127        -8.9016
  75   2.0000      -0.320605        -8.7241
  76   2.0000      -0.314848        -8.5674
  77   0.0000       0.077985         2.1221
  78   0.0000       0.107114         2.9147
  79   0.0000       0.125597         3.4177
  80   0.0000       0.133438         3.6310
  81   0.0000       0.137463         3.7406

MULLIKEN ATOMIC CHARGES
-----------------------
   0 C :   -0.296121
   1 C :    0.053878
   2 O :   -0.360626
   3 C :    0.464840
   4 O :   -0.432112
   5 C :   -0.208458
   6 C :    0.147777
   7 C :   -0.273096
   8 N :   -0.119770
   9 C :    0.212029
  10 S :   -0.442206
  11 N :   -0.204665
  12 C :    0.052755
  13 C :    0.066780
  14 C :   -0.184631
  15 C :   -0.132024
  16 C :   -0.278529
  17 C :    0.316252
  18 O :   -0.356741
  19 C :   -0.270526
  20 H :    0.102631
  21 H :    0.095755
  22 H :    0.120808
  23 H :    0.094461
  24 H :    0.089612
  25 H :    0.131321
  26 H :    0.094656
  27 H :    0.130421
  28 H :    0.196896
  29 H :    0.194645
  30 H :    0.149472
  31 H :    0.149570
  32 H :    0.159967
  33 H :    0.129407
  34 H :    0.240586
  35 H :    0.164984
Sum of atomic charges:   -0.0000000

LOEWDIN ATOMIC CHARGES
----------------------
   0 C :    0.102942
   1 C :   -0.008167
   2 O :    0.296758
   3 C :   -0.412215
   4 O :    0.105658
   5 C :   -0.093051
   6 C :   -0.059566
   7 C :    0.130557
   8 N :    0.406265
   9 C :   -0.456818
  10 S :   -0.037231
  11 N :    0.396546
  12 C :   -0.053013
  13 C :   -0.038443
  14 C :    0.014485
  15 C :    0.038557
  16 C :   -0.001744
  17 C :   -0.189656
  18 O :    0.395073
  19 C :    0.031257
  20 H :   -0.025482
  21 H :   -0.028096
  22 H :   -0.025086
  23 H :   -0.027002
  24 H :   -0.029249
  25 H :   -0.004245
  26 H :   -0.023763
  27 H :   -0.005112
  28 H :   -0.057837
  29 H :   -0.064702
  30 H :   -0.012110
  31 H :   -0.030373
  32 H :   -0.021663
  33 H :   -0.035733
  34 H :   -0.154034
  35 H :   -0.023709

  Mayer bond orders larger than 0.100000
B(  0-C ,  1-C ) :   0.9750 B(  0-C , 20-H ) :   0.9759 B(  0-C , 21-H ) :   0.9743
B(  0-C , 22-H ) :   0.9723 B(  1-C ,  2-O ) :   0.9026 B(  1-C , 23-H ) :   0.9788
B(  1-C , 24-H ) :   0.9803 B(  2-O ,  3-C ) :   1.1567 B(  3-C ,  4-O ) :   1.9698
B(  3-C ,  5-C ) :   1.0597 B(  5-C ,  6-C ) :   1.6557 B(  5-C , 12-C ) :   0.9736
B(  6-C ,  7-C ) :   0.9677 B(  6-C ,  8-N ) :   1.1625 B(  7-C , 25-H ) :   0.9599
B(  7-C , 26-H ) :   0.9907 B(  7-C , 27-H ) :   0.9612 B(  8-N ,  9-C ) :   1.1842
B(  8-N , 28-H ) :   0.9480 B(  9-C , 10-S ) :   1.6051 B(  9-C , 11-N ) :   1.3061
B( 11-N , 12-C ) :   0.9864 B( 11-N , 29-H ) :   0.9515 B( 12-C , 13-C ) :   0.9362
B( 12-C , 30-H ) :   1.0033 B( 13-C , 14-C ) :   1.3550 B( 13-C , 19-C ) :   1.3819
B( 14-C , 15-C ) :   1.3914 B( 14-C , 31-H ) :   0.9713 B( 15-C , 16-C ) :   1.3643
B( 15-C , 32-H ) :   0.9707 B( 16-C , 17-C ) :   1.3318 B( 16-C , 33-H ) :   0.9852
B( 17-C , 18-O ) :   1.1096 B( 17-C , 19-C ) :   1.3717 B( 18-O , 34-H ) :   0.9800
B( 19-C , 35-H ) :   0.9585

MP2 TOTAL ENERGY:    -1274.339697563 Eh
FINAL SINGLE POINT ENERGY     -1274.339697562613

DIPOLE MOMENT
-------------
                                X             Y             Z
Electronic contribution:     10.32868       9.94415       9.02409
Nuclear contribution   :    -11.40123     -11.74336      -9.42664
                        -----------------------------------------
Total Dipole Moment    :     -1.07255      -1.79922      -0.40255
                        -----------------------------------------
Magnitude (a.u.)       :      2.13298
Magnitude (Debye)      :      5.42160

Rotational constants in cm-1:     0.011397     0.008694     0.006071
Rotational constants in MHz :   341.659068   260.624866   182.014437

                             ****ORCA TERMINATED NORMALLY****
TOTAL RUN TIME: 0 days 1 hours 56 minutes 56 seconds 628 msec
