                         Program Version 5.0.0 -  RELEASE  -
|  1> ! ri-mp2 cc-pvtz cc-pvtz/c TightSCF NoKeepInts
|  2>
|  3> %scf
|  4>   MaxCore 4096
|  5> end
|  6> *xyz  0  1
|  7>     C       15.0183471   14.0209402   15.0701468
|  8>     C       15.2613524   14.7745446   16.3886849
|  9>     O       16.2612237   15.7783324   16.1378060
| 10>     C       17.4746925   15.6677440   16.7517077
| 11>     O       17.9846252   14.5799447   16.9644956
| 12>     C       17.8425889   16.8822942   17.5519521
| 13>     C       17.4470458   18.1462347   17.2522713
| 14>     C       16.6078727   18.5998862   16.0755418
| 15>     N       17.8892307   19.2167059   18.0361468
| 16>     C       18.8296734   19.1245251   19.0282570
| 17>     S       19.3874926   20.4610621   19.8269922
| 18>     N       19.2852352   17.8646204   19.3244950
| 19>     C       18.7307052   16.6144299   18.7715432
| 20>     C       17.9628339   15.8489290   19.8461330
| 21>     C       18.2861490   14.5105599   20.1363232
| 22>     C       17.5778840   13.7990746   21.1191910
| 23>     C       16.5358133   14.4304195   21.8192671
| 24>     C       16.2077404   15.7619916   21.5306454
| 25>     O       15.1971503   16.3722579   22.1996258
| 26>     C       16.9139720   16.4672763   20.5512250
| 27>     H       15.9364490   13.5168157   14.7423609
| 28>     H       14.7005347   14.7121639   14.2798516
| 29>     H       14.2380309   13.2611604   15.1988871
| 30>     H       14.3291088   15.2570635   16.7090751
| 31>     H       15.5702315   14.0741526   17.1775356
| 32>     H       16.9376433   18.1136793   15.1488235
| 33>     H       16.6682007   19.6820347   15.9073929
| 34>     H       15.5523057   18.3449222   16.2317594
| 35>     H       17.5673796   20.1496672   17.8333676
| 36>     H       19.9556681   17.8211581   20.0812119
| 37>     H       19.5752455   15.9922857   18.4414644
| 38>     H       19.0799617   14.0143846   19.5831151
| 39>     H       17.8346223   12.7624193   21.3297889
| 40>     H       15.9852440   13.8840575   22.5777864
| 41>     H       14.8689892   15.7462656   22.8624617
| 42>     H       16.6457568   17.4979967   20.3466672
| 43> *
| 44>
| 45>                          ****END OF INPUT****

CARTESIAN COORDINATES (ANGSTROEM)
---------------------------------
  C     15.018347   14.020940   15.070147
  C     15.261352   14.774545   16.388685
  O     16.261224   15.778332   16.137806
  C     17.474692   15.667744   16.751708
  O     17.984625   14.579945   16.964496
  C     17.842589   16.882294   17.551952
  C     17.447046   18.146235   17.252271
  C     16.607873   18.599886   16.075542
  N     17.889231   19.216706   18.036147
  C     18.829673   19.124525   19.028257
  S     19.387493   20.461062   19.826992
  N     19.285235   17.864620   19.324495
  C     18.730705   16.614430   18.771543
  C     17.962834   15.848929   19.846133
  C     18.286149   14.510560   20.136323
  C     17.577884   13.799075   21.119191
  C     16.535813   14.430419   21.819267
  C     16.207740   15.761992   21.530645
  O     15.197150   16.372258   22.199626
  C     16.913972   16.467276   20.551225
  H     15.936449   13.516816   14.742361
  H     14.700535   14.712164   14.279852
  H     14.238031   13.261160   15.198887
  H     14.329109   15.257063   16.709075
  H     15.570231   14.074153   17.177536
  H     16.937643   18.113679   15.148823
  H     16.668201   19.682035   15.907393
  H     15.552306   18.344922   16.231759
  H     17.567380   20.149667   17.833368
  H     19.955668   17.821158   20.081212
  H     19.575245   15.992286   18.441464
  H     19.079962   14.014385   19.583115
  H     17.834622   12.762419   21.329789
  H     15.985244   13.884058   22.577786
  H     14.868989   15.746266   22.862462
  H     16.645757   17.497997   20.346667

 Total Charge           Charge          ....    0
 Multiplicity           Mult            ....    1
 Number of Electrons    NEL             ....  154
 Basis Dimension        Dim             ....  828

ORBITAL ENERGIES
----------------

  NO   OCC          E(Eh)            E(eV)
   0   2.0000     -91.888361     -2500.4094
   1   2.0000     -20.593547      -560.3789
   2   2.0000     -20.593321      -560.3727
   3   2.0000     -20.551253      -559.2280
   4   2.0000     -15.628321      -425.2682
   5   2.0000     -15.607425      -424.6996
   6   2.0000     -11.396041      -310.1020
   7   2.0000     -11.383545      -309.7620
   8   2.0000     -11.334585      -308.4297
   9   2.0000     -11.309573      -307.7491
  10   2.0000     -11.307110      -307.6821
  11   2.0000     -11.299473      -307.4743
  12   2.0000     -11.260152      -306.4043
  13   2.0000     -11.259506      -306.3867
  14   2.0000     -11.255412      -306.2753
  15   2.0000     -11.249785      -306.1222
  16   2.0000     -11.239375      -305.8389
  17   2.0000     -11.235394      -305.7306
  18   2.0000     -11.232550      -305.6532
  19   2.0000     -11.226181      -305.4799
  20   2.0000      -8.893429      -242.0025
  21   2.0000      -6.575007      -178.9150
  22   2.0000      -6.572999      -178.8604
  23   2.0000      -6.572414      -178.8445
  24   2.0000      -1.453591       -39.5542
  25   2.0000      -1.413291       -38.4576
  26   2.0000      -1.357394       -36.9366
  27   2.0000      -1.339355       -36.4457
  28   2.0000      -1.237307       -33.6688
  29   2.0000      -1.153962       -31.4009
  30   2.0000      -1.120399       -30.4876
  31   2.0000      -1.043440       -28.3934
  32   2.0000      -1.034697       -28.1555
  33   2.0000      -1.011367       -27.5207
  34   2.0000      -0.998068       -27.1588
  35   2.0000      -0.983416       -26.7601
  36   2.0000      -0.922114       -25.0920
  37   2.0000      -0.885925       -24.1073
  38   2.0000      -0.847974       -23.0746
  39   2.0000      -0.836964       -22.7749
  40   2.0000      -0.829891       -22.5825
  41   2.0000      -0.822400       -22.3786
  42   2.0000      -0.756959       -20.5979
  43   2.0000      -0.735330       -20.0094
  44   2.0000      -0.726529       -19.7699
  45   2.0000      -0.692078       -18.8324
  46   2.0000      -0.685805       -18.6617
  47   2.0000      -0.680583       -18.5196
  48   2.0000      -0.672572       -18.3016
  49   2.0000      -0.658406       -17.9161
  50   2.0000      -0.646663       -17.5966
  51   2.0000      -0.641220       -17.4485
  52   2.0000      -0.629275       -17.1234
  53   2.0000      -0.614771       -16.7288
  54   2.0000      -0.601765       -16.3749
  55   2.0000      -0.601390       -16.3647
  56   2.0000      -0.596817       -16.2402
  57   2.0000      -0.582555       -15.8521
  58   2.0000      -0.574749       -15.6397
  59   2.0000      -0.564881       -15.3712
  60   2.0000      -0.561799       -15.2873
  61   2.0000      -0.547495       -14.8981
  62   2.0000      -0.533923       -14.5288
  63   2.0000      -0.520862       -14.1734
  64   2.0000      -0.518813       -14.1176
  65   2.0000      -0.510811       -13.8999
  66   2.0000      -0.501961       -13.6591
  67   2.0000      -0.496598       -13.5131
  68   2.0000      -0.481411       -13.0999
  69   2.0000      -0.463102       -12.6016
  70   2.0000      -0.458302       -12.4710
  71   2.0000      -0.453406       -12.3378
  72   2.0000      -0.353955        -9.6316
  73   2.0000      -0.345751        -9.4084
  74   2.0000      -0.327571        -8.9137
  75   2.0000      -0.316827        -8.6213
  76   2.0000      -0.315102        -8.5744
  77   0.0000       0.073599         2.0027
  78   0.0000       0.109366         2.9760
  79   0.0000       0.120477         3.2783
  80   0.0000       0.134465         3.6590
  81   0.0000       0.138642         3.7726

MULLIKEN ATOMIC CHARGES
-----------------------
   0 C :   -0.266679
   1 C :    0.043426
   2 O :   -0.363366
   3 C :    0.437780
   4 O :   -0.413050
   5 C :   -0.173474
   6 C :    0.141829
   7 C :   -0.282482
   8 N :   -0.124077
   9 C :    0.202276
  10 S :   -0.439645
  11 N :   -0.199264
  12 C :    0.045135
  13 C :    0.052478
  14 C :   -0.165184
  15 C :   -0.134020
  16 C :   -0.279949
  17 C :    0.311561
  18 O :   -0.358689
  19 C :   -0.273647
  20 H :    0.105934
  21 H :    0.090491
  22 H :    0.088747
  23 H :    0.095875
  24 H :    0.107796
  25 H :    0.125244
  26 H :    0.102974
  27 H :    0.126101
  28 H :    0.197077
  29 H :    0.193984
  30 H :    0.154242
  31 H :    0.155159
  32 H :    0.160167
  33 H :    0.129066
  34 H :    0.240340
  35 H :    0.165845
Sum of atomic charges:   -0.0000000

LOEWDIN ATOMIC CHARGES
----------------------
   0 C :    0.104781
   1 C :   -0.013386
   2 O :    0.299600
   3 C :   -0.415592
   4 O :    0.114776
   5 C :   -0.092363
   6 C :   -0.070090
   7 C :    0.125546
   8 N :    0.404428
   9 C :   -0.458192
  10 S :   -0.036285
  11 N :    0.397386
  12 C :   -0.045819
  13 C :   -0.039576
  14 C :    0.021213
  15 C :    0.040549
  16 C :   -0.002346
  17 C :   -0.192947
  18 O :    0.393174
  19 C :    0.028324
  20 H :   -0.023267
  21 H :   -0.029434
  22 H :   -0.027858
  23 H :   -0.030160
  24 H :   -0.025375
  25 H :   -0.008231
  26 H :   -0.020198
  27 H :   -0.009754
  28 H :   -0.058885
  29 H :   -0.063893
  30 H :   -0.004812
  31 H :   -0.025053
  32 H :   -0.020908
  33 H :   -0.036124
  34 H :   -0.154590
  35 H :   -0.024636

  Mayer bond orders larger than 0.100000
B(  0-C ,  1-C ) :   0.9750 B(  0-C , 20-H ) :   0.9771 B(  0-C , 21-H ) :   0.9787
B(  0-C , 22-H ) :   0.9760 B(  1-C ,  2-O ) :   0.8873 B(  1-C , 23-H ) :   0.9810
B(  1-C , 24-H ) :   0.9711 B(  2-O ,  3-C ) :   1.1057 B(  3-C ,  4-O ) :   1.9996
B(  3-C ,  5-C ) :   1.0452 B(  5-C ,  6-C ) :   1.6594 B(  5-C , 12-C ) :   0.9652
B(  6-C ,  7-C ) :   0.9528 B(  6-C ,  8-N ) :   1.1406 B(  7-C , 25-H ) :   0.9687
B(  7-C , 26-H ) :   0.9896 B(  7-C , 27-H ) :   0.9635 B(  8-N ,  9-C ) :   1.1821
B(  8-N , 28-H ) :   0.9494 B(  9-C , 10-S ) :   1.6105 B(  9-C , 11-N ) :   1.3018
B( 11-N , 12-C ) :   0.9914 B( 11-N , 29-H ) :   0.9517 B( 12-C , 13-C ) :   0.9460
B( 12-C , 30-H ) :   0.9987 B( 13-C , 14-C ) :   1.3762 B( 13-C , 19-C ) :   1.3694
B( 14-C , 15-C ) :   1.3943 B( 14-C , 31-H ) :   0.9643 B( 15-C , 16-C ) :   1.3630
B( 15-C , 32-H ) :   0.9711 B( 16-C , 17-C ) :   1.3311 B( 16-C , 33-H ) :   0.9856
B( 17-C , 18-O ) :   1.1086 B( 17-C , 19-C ) :   1.3774 B( 18-O , 34-H ) :   0.9803
B( 19-C , 35-H ) :   0.9582

MP2 TOTAL ENERGY:    -1274.334264294 Eh
FINAL SINGLE POINT ENERGY     -1274.334264293689

DIPOLE MOMENT
-------------
                                X             Y             Z
Electronic contribution:     10.95095      10.30243      10.13927
Nuclear contribution   :    -12.49299     -11.53015     -10.80203
                        -----------------------------------------
Total Dipole Moment    :     -1.54204      -1.22772      -0.66276
                        -----------------------------------------
Magnitude (a.u.)       :      2.07953
Magnitude (Debye)      :      5.28574

Rotational constants in cm-1:     0.010830     0.008996     0.006009
Rotational constants in MHz :   324.673940   269.701020   180.140893

                             ****ORCA TERMINATED NORMALLY****
TOTAL RUN TIME: 0 days 1 hours 30 minutes 24 seconds 430 msec
