                         Program Version 4.2.0 -  RELEASE  -
|  1> ! ri-mp2 cc-pvtz cc-pvtz/c TightSCF  NoKeepInts
|  2>
|  3> %scf
|  4>   MaxCore 4096
|  5> end
|  6> *xyz  0  1
|  7>     C       15.1353765   14.4352593   17.0945829
|  8>     C       15.5949081   14.8850220   15.6899694
|  9>     O       16.4633606   16.0298309   15.8007055
| 10>     C       17.6379983   15.9253367   16.4888593
| 11>     O       18.2449423   14.8698070   16.5716662
| 12>     C       17.8759965   17.0613496   17.4384218
| 13>     C       17.3977646   18.3204497   17.2680606
| 14>     C       16.5879402   18.8543044   16.1047473
| 15>     N       17.7048344   19.3125518   18.2045991
| 16>     C       18.5709474   19.1583074   19.2549131
| 17>     S       18.9574702   20.4161006   20.2570172
| 18>     N       19.1013542   17.9055001   19.4328838
| 19>     C       18.7062420   16.7035194   18.6748052
| 20>     C       17.9422415   15.7327236   19.5709572
| 21>     C       18.3919919   14.4099181   19.7372501
| 22>     C       17.6786993   13.5070444   20.5434027
| 23>     C       16.5038463   13.9291584   21.1885450
| 24>     C       16.0508351   15.2449383   21.0227858
| 25>     O       14.9114387   15.6529128   21.6363068
| 26>     C       16.7634619   16.1415965   20.2208054
| 27>     H       15.9707058   14.0296917   17.6795788
| 28>     H       14.3748790   13.6495503   17.0131334
| 29>     H       14.7005272   15.2752809   17.6504237
| 30>     H       16.1149495   14.0588484   15.1860907
| 31>     H       14.7171712   15.1526039   15.0880003
| 32>     H       15.5505276   18.5017703   16.1621138
| 33>     H       17.0062352   18.5154698   15.1487078
| 34>     H       16.5665389   19.9504291   16.0740178
| 35>     H       17.3255748   20.2391195   18.0919201
| 36>     H       19.7118579   17.8114544   20.2343571
| 37>     H       19.6251152   16.2076964   18.3298301
| 38>     H       19.2884023   14.0750147   19.2211143
| 39>     H       18.0336386   12.4844481   20.6583356
| 40>     H       15.9481476   13.2340378   21.8089995
| 41>     H       14.5948283   14.9152903   22.1790851
| 42>     H       16.3962508   17.1556633   20.1070072
| 43> *
| 44>
| 45>                          ****END OF INPUT****

CARTESIAN COORDINATES (ANGSTROEM)
---------------------------------
  C     15.135376   14.435259   17.094583
  C     15.594908   14.885022   15.689969
  O     16.463361   16.029831   15.800705
  C     17.637998   15.925337   16.488859
  O     18.244942   14.869807   16.571666
  C     17.875996   17.061350   17.438422
  C     17.397765   18.320450   17.268061
  C     16.587940   18.854304   16.104747
  N     17.704834   19.312552   18.204599
  C     18.570947   19.158307   19.254913
  S     18.957470   20.416101   20.257017
  N     19.101354   17.905500   19.432884
  C     18.706242   16.703519   18.674805
  C     17.942242   15.732724   19.570957
  C     18.391992   14.409918   19.737250
  C     17.678699   13.507044   20.543403
  C     16.503846   13.929158   21.188545
  C     16.050835   15.244938   21.022786
  O     14.911439   15.652913   21.636307
  C     16.763462   16.141596   20.220805
  H     15.970706   14.029692   17.679579
  H     14.374879   13.649550   17.013133
  H     14.700527   15.275281   17.650424
  H     16.114950   14.058848   15.186091
  H     14.717171   15.152604   15.088000
  H     15.550528   18.501770   16.162114
  H     17.006235   18.515470   15.148708
  H     16.566539   19.950429   16.074018
  H     17.325575   20.239119   18.091920
  H     19.711858   17.811454   20.234357
  H     19.625115   16.207696   18.329830
  H     19.288402   14.075015   19.221114
  H     18.033639   12.484448   20.658336
  H     15.948148   13.234038   21.808999
  H     14.594828   14.915290   22.179085
  H     16.396251   17.155663   20.107007

 Total Charge           Charge          ....    0
 Multiplicity           Mult            ....    1
 Number of Electrons    NEL             ....  154
 Basis Dimension        Dim             ....  828

ORBITAL ENERGIES
----------------

  NO   OCC          E(Eh)            E(eV)
   0   2.0000     -91.888338     -2500.4088
   1   2.0000     -20.594763      -560.4120
   2   2.0000     -20.594657      -560.4091
   3   2.0000     -20.548809      -559.1615
   4   2.0000     -15.628146      -425.2635
   5   2.0000     -15.607656      -424.7059
   6   2.0000     -11.395456      -310.0861
   7   2.0000     -11.383649      -309.7648
   8   2.0000     -11.334491      -308.4272
   9   2.0000     -11.310556      -307.7759
  10   2.0000     -11.307342      -307.6884
  11   2.0000     -11.299560      -307.4767
  12   2.0000     -11.259856      -306.3963
  13   2.0000     -11.258926      -306.3710
  14   2.0000     -11.256002      -306.2914
  15   2.0000     -11.250927      -306.1533
  16   2.0000     -11.240539      -305.8706
  17   2.0000     -11.236129      -305.7506
  18   2.0000     -11.233677      -305.6839
  19   2.0000     -11.223293      -305.4013
  20   2.0000      -8.893408      -242.0019
  21   2.0000      -6.574986      -178.9145
  22   2.0000      -6.572977      -178.8598
  23   2.0000      -6.572393      -178.8439
  24   2.0000      -1.451714       -39.5031
  25   2.0000      -1.414404       -38.4879
  26   2.0000      -1.355921       -36.8965
  27   2.0000      -1.339283       -36.4437
  28   2.0000      -1.237433       -33.6723
  29   2.0000      -1.155096       -31.4318
  30   2.0000      -1.120683       -30.4953
  31   2.0000      -1.043215       -28.3873
  32   2.0000      -1.031152       -28.0591
  33   2.0000      -1.012314       -27.5465
  34   2.0000      -0.998539       -27.1716
  35   2.0000      -0.984071       -26.7779
  36   2.0000      -0.922838       -25.1117
  37   2.0000      -0.893723       -24.3194
  38   2.0000      -0.847799       -23.0698
  39   2.0000      -0.836901       -22.7732
  40   2.0000      -0.830909       -22.6102
  41   2.0000      -0.815128       -22.1808
  42   2.0000      -0.749519       -20.3955
  43   2.0000      -0.735440       -20.0123
  44   2.0000      -0.726971       -19.7819
  45   2.0000      -0.692869       -18.8539
  46   2.0000      -0.685826       -18.6623
  47   2.0000      -0.677844       -18.4451
  48   2.0000      -0.672191       -18.2913
  49   2.0000      -0.657565       -17.8933
  50   2.0000      -0.653412       -17.7803
  51   2.0000      -0.645216       -17.5572
  52   2.0000      -0.633456       -17.2372
  53   2.0000      -0.612870       -16.6770
  54   2.0000      -0.602436       -16.3931
  55   2.0000      -0.601697       -16.3730
  56   2.0000      -0.598244       -16.2791
  57   2.0000      -0.578912       -15.7530
  58   2.0000      -0.575633       -15.6638
  59   2.0000      -0.563515       -15.3340
  60   2.0000      -0.553955       -15.0739
  61   2.0000      -0.547423       -14.8961
  62   2.0000      -0.533435       -14.5155
  63   2.0000      -0.531189       -14.4544
  64   2.0000      -0.519697       -14.1417
  65   2.0000      -0.510075       -13.8798
  66   2.0000      -0.498508       -13.5651
  67   2.0000      -0.492861       -13.4114
  68   2.0000      -0.482118       -13.1191
  69   2.0000      -0.464382       -12.6365
  70   2.0000      -0.459162       -12.4944
  71   2.0000      -0.449495       -12.2314
  72   2.0000      -0.353871        -9.6293
  73   2.0000      -0.346767        -9.4360
  74   2.0000      -0.327607        -8.9146
  75   2.0000      -0.317924        -8.6512
  76   2.0000      -0.315337        -8.5808
  77   0.0000       0.074599         2.0299
  78   0.0000       0.108159         2.9432
  79   0.0000       0.119839         3.2610
  80   0.0000       0.133038         3.6201
  81   0.0000       0.143220         3.8972

MULLIKEN ATOMIC CHARGES
-----------------------
   0 C :   -0.320312
   1 C :    0.042350
   2 O :   -0.367430
   3 C :    0.434168
   4 O :   -0.418636
   5 C :   -0.169739
   6 C :    0.142958
   7 C :   -0.282154
   8 N :   -0.124282
   9 C :    0.205701
  10 S :   -0.440192
  11 N :   -0.201252
  12 C :    0.054630
  13 C :    0.040981
  14 C :   -0.160878
  15 C :   -0.133872
  16 C :   -0.279050
  17 C :    0.313945
  18 O :   -0.360464
  19 C :   -0.273090
  20 H :    0.128837
  21 H :    0.103449
  22 H :    0.099680
  23 H :    0.106531
  24 H :    0.106739
  25 H :    0.125771
  26 H :    0.125780
  27 H :    0.102055
  28 H :    0.197016
  29 H :    0.194363
  30 H :    0.153165
  31 H :    0.154287
  32 H :    0.160635
  33 H :    0.130021
  34 H :    0.240676
  35 H :    0.167611
Sum of atomic charges:   -0.0000000

LOEWDIN ATOMIC CHARGES
----------------------
   0 C :    0.105597
   1 C :   -0.016899
   2 O :    0.296358
   3 C :   -0.414728
   4 O :    0.111857
   5 C :   -0.091887
   6 C :   -0.070334
   7 C :    0.125803
   8 N :    0.404397
   9 C :   -0.457460
  10 S :   -0.036515
  11 N :    0.397551
  12 C :   -0.045579
  13 C :   -0.040600
  14 C :    0.021294
  15 C :    0.040700
  16 C :   -0.002089
  17 C :   -0.192698
  18 O :    0.393683
  19 C :    0.030526
  20 H :   -0.022689
  21 H :   -0.026493
  22 H :   -0.029082
  23 H :   -0.028299
  24 H :   -0.025435
  25 H :   -0.010036
  26 H :   -0.007922
  27 H :   -0.020435
  28 H :   -0.058891
  29 H :   -0.063870
  30 H :   -0.005078
  31 H :   -0.025118
  32 H :   -0.020714
  33 H :   -0.035849
  34 H :   -0.154299
  35 H :   -0.024766

  Mayer bond orders larger than 0.100000
B(  0-C ,  1-C ) :   0.9602 B(  0-C , 20-H ) :   0.9680 B(  0-C , 21-H ) :   0.9768
B(  0-C , 22-H ) :   0.9745 B(  1-C ,  2-O ) :   0.8953 B(  1-C , 23-H ) :   0.9815
B(  1-C , 24-H ) :   0.9841 B(  2-O ,  3-C ) :   1.1159 B(  3-C ,  4-O ) :   2.0029
B(  3-C ,  5-C ) :   1.0389 B(  5-C ,  6-C ) :   1.6563 B(  5-C , 12-C ) :   0.9661
B(  6-C ,  7-C ) :   0.9537 B(  6-C ,  8-N ) :   1.1439 B(  7-C , 25-H ) :   0.9630
B(  7-C , 26-H ) :   0.9682 B(  7-C , 27-H ) :   0.9896 B(  8-N ,  9-C ) :   1.1827
B(  8-N , 28-H ) :   0.9493 B(  9-C , 10-S ) :   1.6095 B(  9-C , 11-N ) :   1.3024
B( 11-N , 12-C ) :   0.9927 B( 11-N , 29-H ) :   0.9516 B( 12-C , 13-C ) :   0.9424
B( 12-C , 30-H ) :   0.9990 B( 13-C , 14-C ) :   1.3768 B( 13-C , 19-C ) :   1.3692
B( 14-C , 15-C ) :   1.3926 B( 14-C , 31-H ) :   0.9652 B( 15-C , 16-C ) :   1.3620
B( 15-C , 32-H ) :   0.9713 B( 16-C , 17-C ) :   1.3321 B( 16-C , 33-H ) :   0.9852
B( 17-C , 18-O ) :   1.1072 B( 17-C , 19-C ) :   1.3742 B( 18-O , 34-H ) :   0.9803
B( 19-C , 35-H ) :   0.9579

MP2 TOTAL ENERGY:    -1274.341452061 Eh
FINAL SINGLE POINT ENERGY     -1274.341452061453

DIPOLE MOMENT
-------------
                                X             Y             Z
Electronic contribution:      9.90523       9.54185       6.88545
Nuclear contribution   :    -11.31300     -10.82093      -7.75795
                        -----------------------------------------
Total Dipole Moment    :     -1.40777      -1.27908      -0.87249
                        -----------------------------------------
Magnitude (a.u.)       :      2.09263
Magnitude (Debye)      :      5.31905

Rotational constants in cm-1:     0.011922     0.009252     0.006549
Rotational constants in MHz :   357.415130   277.358146   196.341768

                             ****ORCA TERMINATED NORMALLY****
TOTAL RUN TIME: 0 days 1 hours 48 minutes 11 seconds 853 msec
