                         Program Version 5.0.0 -  RELEASE  -
|  1> ! ri-mp2 cc-pvtz cc-pvtz/c TightSCF NoKeepInts
|  2>
|  3> %scf
|  4>   MaxCore 4096
|  5> end
|  6> *xyz  0  1
|  7>     C       15.0411967   15.7039379   17.4638369
|  8>     C       15.5973035   15.2216937   16.1069720
|  9>     O       17.0040414   14.8818908   16.1353003
| 10>     C       18.1134538   15.6245249   16.4736961
| 11>     O       19.1961955   15.0704016   16.4264939
| 12>     C       17.9418630   16.7885361   17.3911612
| 13>     C       17.4161911   17.9601947   16.9640707
| 14>     C       16.8911778   18.2721764   15.5792155
| 15>     N       17.3967420   19.0672919   17.8151429
| 16>     C       18.0261603   19.1242561   19.0311485
| 17>     S       18.0309898   20.5041205   19.9422355
| 18>     N       18.6558511   17.9791800   19.4532437
| 19>     C       18.5910554   16.6694485   18.7728965
| 20>     C       17.8909757   15.6191647   19.6324257
| 21>     C       18.3150334   14.2783919   19.5798025
| 22>     C       17.6789246   13.2927747   20.3523473
| 23>     C       16.6073154   13.6486443   21.1882210
| 24>     C       16.1790885   14.9815445   21.2437041
| 25>     O       15.1368175   15.3263895   22.0407847
| 26>     C       16.8132519   15.9611382   20.4727226
| 27>     H       15.3965453   15.0536721   18.2717504
| 28>     H       13.9462487   15.6415200   17.4557699
| 29>     H       15.2939346   16.7395993   17.6996118
| 30>     H       15.0439381   14.3195162   15.8151010
| 31>     H       15.4013002   15.9759003   15.3360167
| 32>     H       17.1949450   17.5204838   14.8405707
| 33>     H       17.2799952   19.2340247   15.2207079
| 34>     H       15.7961144   18.3319367   15.5768728
| 35>     H       16.9579915   19.9236173   17.5149954
| 36>     H       19.1028611   18.0464396   20.3589104
| 37>     H       19.6264858   16.3299966   18.6207406
| 38>     H       19.1374915   13.9967328   18.9251885
| 39>     H       18.0158996   12.2590144   20.2969600
| 40>     H       16.1120196   12.8897887   21.7848509
| 41>     H       14.8633706   14.5307181   22.5217154
| 42>     H       16.4542302   16.9833383   20.5288163
| 43> *
| 44>
| 45>                          ****END OF INPUT****

CARTESIAN COORDINATES (ANGSTROEM)
---------------------------------
  C     15.041197   15.703938   17.463837
  C     15.597303   15.221694   16.106972
  O     17.004041   14.881891   16.135300
  C     18.113454   15.624525   16.473696
  O     19.196196   15.070402   16.426494
  C     17.941863   16.788536   17.391161
  C     17.416191   17.960195   16.964071
  C     16.891178   18.272176   15.579216
  N     17.396742   19.067292   17.815143
  C     18.026160   19.124256   19.031149
  S     18.030990   20.504120   19.942235
  N     18.655851   17.979180   19.453244
  C     18.591055   16.669449   18.772897
  C     17.890976   15.619165   19.632426
  C     18.315033   14.278392   19.579802
  C     17.678925   13.292775   20.352347
  C     16.607315   13.648644   21.188221
  C     16.179088   14.981544   21.243704
  O     15.136817   15.326389   22.040785
  C     16.813252   15.961138   20.472723
  H     15.396545   15.053672   18.271750
  H     13.946249   15.641520   17.455770
  H     15.293935   16.739599   17.699612
  H     15.043938   14.319516   15.815101
  H     15.401300   15.975900   15.336017
  H     17.194945   17.520484   14.840571
  H     17.279995   19.234025   15.220708
  H     15.796114   18.331937   15.576873
  H     16.957991   19.923617   17.514995
  H     19.102861   18.046440   20.358910
  H     19.626486   16.329997   18.620741
  H     19.137491   13.996733   18.925189
  H     18.015900   12.259014   20.296960
  H     16.112020   12.889789   21.784851
  H     14.863371   14.530718   22.521715
  H     16.454230   16.983338   20.528816

 Total Charge           Charge          ....    0
 Multiplicity           Mult            ....    1
 Number of Electrons    NEL             ....  154
 Basis Dimension        Dim             ....  828

ORBITAL ENERGIES
----------------

  NO   OCC          E(Eh)            E(eV)
   0   2.0000     -91.890019     -2500.4545
   1   2.0000     -20.599010      -560.5276
   2   2.0000     -20.597371      -560.4830
   3   2.0000     -20.549240      -559.1732
   4   2.0000     -15.627365      -425.2422
   5   2.0000     -15.611125      -424.8003
   6   2.0000     -11.399993      -310.2096
   7   2.0000     -11.386587      -309.8448
   8   2.0000     -11.328531      -308.2650
   9   2.0000     -11.314431      -307.8813
  10   2.0000     -11.313989      -307.8693
  11   2.0000     -11.311142      -307.7918
  12   2.0000     -11.272008      -306.7269
  13   2.0000     -11.265579      -306.5520
  14   2.0000     -11.261731      -306.4473
  15   2.0000     -11.254580      -306.2527
  16   2.0000     -11.243614      -305.9543
  17   2.0000     -11.239119      -305.8320
  18   2.0000     -11.236165      -305.7516
  19   2.0000     -11.230928      -305.6091
  20   2.0000      -8.895123      -242.0486
  21   2.0000      -6.576713      -178.9615
  22   2.0000      -6.574686      -178.9063
  23   2.0000      -6.574111      -178.8907
  24   2.0000      -1.445329       -39.3294
  25   2.0000      -1.417197       -38.5639
  26   2.0000      -1.356043       -36.8998
  27   2.0000      -1.340522       -36.4775
  28   2.0000      -1.239848       -33.7380
  29   2.0000      -1.158883       -31.5348
  30   2.0000      -1.125305       -30.6211
  31   2.0000      -1.047975       -28.5168
  32   2.0000      -1.039676       -28.2910
  33   2.0000      -1.017089       -27.6764
  34   2.0000      -1.005399       -27.3583
  35   2.0000      -0.990153       -26.9434
  36   2.0000      -0.927865       -25.2485
  37   2.0000      -0.898578       -24.4516
  38   2.0000      -0.854410       -23.2497
  39   2.0000      -0.840477       -22.8705
  40   2.0000      -0.834177       -22.6991
  41   2.0000      -0.829201       -22.5637
  42   2.0000      -0.747461       -20.3394
  43   2.0000      -0.738354       -20.0916
  44   2.0000      -0.730442       -19.8763
  45   2.0000      -0.694813       -18.9068
  46   2.0000      -0.687158       -18.6985
  47   2.0000      -0.678626       -18.4663
  48   2.0000      -0.674559       -18.3557
  49   2.0000      -0.663629       -18.0583
  50   2.0000      -0.652018       -17.7423
  51   2.0000      -0.650990       -17.7143
  52   2.0000      -0.640992       -17.4423
  53   2.0000      -0.614374       -16.7180
  54   2.0000      -0.608892       -16.5688
  55   2.0000      -0.604980       -16.4623
  56   2.0000      -0.601960       -16.3802
  57   2.0000      -0.591744       -16.1022
  58   2.0000      -0.580754       -15.8031
  59   2.0000      -0.574020       -15.6199
  60   2.0000      -0.565458       -15.3869
  61   2.0000      -0.557697       -15.1757
  62   2.0000      -0.542176       -14.7534
  63   2.0000      -0.528717       -14.3871
  64   2.0000      -0.517739       -14.0884
  65   2.0000      -0.513239       -13.9659
  66   2.0000      -0.502845       -13.6831
  67   2.0000      -0.501059       -13.6345
  68   2.0000      -0.484051       -13.1717
  69   2.0000      -0.463802       -12.6207
  70   2.0000      -0.454043       -12.3551
  71   2.0000      -0.451250       -12.2791
  72   2.0000      -0.356088        -9.6896
  73   2.0000      -0.348411        -9.4807
  74   2.0000      -0.329647        -8.9702
  75   2.0000      -0.322698        -8.7811
  76   2.0000      -0.318122        -8.6565
  77   0.0000       0.085950         2.3388
  78   0.0000       0.106306         2.8927
  79   0.0000       0.112661         3.0657
  80   0.0000       0.129556         3.5254
  81   0.0000       0.131166         3.5692

MULLIKEN ATOMIC CHARGES
-----------------------
   0 C :   -0.331486
   1 C :    0.025221
   2 O :   -0.323704
   3 C :    0.404832
   4 O :   -0.379817
   5 C :   -0.174225
   6 C :    0.130085
   7 C :   -0.333831
   8 N :   -0.137488
   9 C :    0.204697
  10 S :   -0.441076
  11 N :   -0.226981
  12 C :    0.080226
  13 C :    0.023089
  14 C :   -0.209255
  15 C :   -0.136124
  16 C :   -0.276010
  17 C :    0.315732
  18 O :   -0.358512
  19 C :   -0.270208
  20 H :    0.129819
  21 H :    0.115654
  22 H :    0.107121
  23 H :    0.133500
  24 H :    0.086319
  25 H :    0.125474
  26 H :    0.138287
  27 H :    0.123830
  28 H :    0.196452
  29 H :    0.202365
  30 H :    0.169246
  31 H :    0.173497
  32 H :    0.163619
  33 H :    0.131995
  34 H :    0.241026
  35 H :    0.176633
Sum of atomic charges:    0.0000000

LOEWDIN ATOMIC CHARGES
----------------------
   0 C :    0.104611
   1 C :   -0.018611
   2 O :    0.300801
   3 C :   -0.417206
   4 O :    0.125525
   5 C :   -0.077822
   6 C :   -0.103475
   7 C :    0.124272
   8 N :    0.401844
   9 C :   -0.456963
  10 S :   -0.037953
  11 N :    0.398547
  12 C :   -0.041870
  13 C :   -0.042081
  14 C :    0.021269
  15 C :    0.044205
  16 C :   -0.002103
  17 C :   -0.194306
  18 O :    0.395370
  19 C :    0.028109
  20 H :   -0.020131
  21 H :   -0.024160
  22 H :   -0.038039
  23 H :   -0.016464
  24 H :   -0.039721
  25 H :   -0.009260
  26 H :   -0.009338
  27 H :   -0.017309
  28 H :   -0.058344
  29 H :   -0.063579
  30 H :   -0.001422
  31 H :   -0.021636
  32 H :   -0.018579
  33 H :   -0.035094
  34 H :   -0.153630
  35 H :   -0.025458

  Mayer bond orders larger than 0.100000
B(  0-C ,  1-C ) :   0.9530 B(  0-C , 20-H ) :   0.9678 B(  0-C , 21-H ) :   0.9777
B(  0-C , 22-H ) :   0.9743 B(  1-C ,  2-O ) :   0.9137 B(  1-C , 23-H ) :   0.9811
B(  1-C , 24-H ) :   0.9759 B(  2-O ,  3-C ) :   1.1548 B(  3-C ,  4-O ) :   2.0787
B(  3-C ,  5-C ) :   0.9199 B(  5-C ,  6-C ) :   1.7045 B(  5-C , 12-C ) :   0.9569
B(  6-C ,  7-C ) :   0.9428 B(  6-C ,  8-N ) :   1.0969 B(  7-C , 25-H ) :   0.9806
B(  7-C , 26-H ) :   0.9734 B(  7-C , 27-H ) :   0.9644 B(  8-N ,  9-C ) :   1.1965
B(  8-N , 28-H ) :   0.9526 B(  9-C , 10-S ) :   1.6084 B(  9-C , 11-N ) :   1.2875
B( 11-N , 12-C ) :   0.9849 B( 11-N , 29-H ) :   0.9476 B( 12-C , 13-C ) :   0.9492
B( 12-C , 30-H ) :   0.9945 B( 13-C , 14-C ) :   1.3890 B( 13-C , 19-C ) :   1.3427
B( 14-C , 15-C ) :   1.4018 B( 14-C , 31-H ) :   0.9593 B( 15-C , 16-C ) :   1.3585
B( 15-C , 32-H ) :   0.9701 B( 16-C , 17-C ) :   1.3305 B( 16-C , 33-H ) :   0.9849
B( 17-C , 18-O ) :   1.1101 B( 17-C , 19-C ) :   1.3691 B( 18-O , 34-H ) :   0.9796
B( 19-C , 35-H ) :   0.9576

MP2 TOTAL ENERGY:    -1274.322357690 Eh
FINAL SINGLE POINT ENERGY     -1274.322357689661

DIPOLE MOMENT
-------------
                                X             Y             Z
Electronic contribution:      9.43992       5.79657       6.54840
Nuclear contribution   :    -11.03863      -6.86484      -7.29705
                        -----------------------------------------
Total Dipole Moment    :     -1.59871      -1.06827      -0.74865
                        -----------------------------------------
Magnitude (a.u.)       :      2.06338
Magnitude (Debye)      :      5.24469

Rotational constants in cm-1:     0.011797     0.009603     0.006838
Rotational constants in MHz :   353.679553   287.881469   204.996641

                             ****ORCA TERMINATED NORMALLY****
TOTAL RUN TIME: 0 days 2 hours 16 minutes 40 seconds 974 msec
