                         Program Version 5.0.0 -  RELEASE  -
|  1> ! ri-mp2 cc-pvtz cc-pvtz/c TightSCF NoKeepInts
|  2>
|  3> %scf
|  4>   MaxCore 4096
|  5> end
|  6> *xyz  0  1
|  7>     C       14.5356280   15.7652902   16.3667540
|  8>     C       15.5497351   15.1070761   17.3192022
|  9>     O       16.7873421   14.8757927   16.6151777
| 10>     C       17.7748205   15.8083702   16.4221158
| 11>     O       18.7748900   15.5125814   15.7968692
| 12>     C       17.8224575   16.9227934   17.4105413
| 13>     C       17.3976520   18.1645016   17.0881526
| 14>     C       16.7957135   18.6060462   15.7722951
| 15>     N       17.5645758   19.2156473   17.9916121
| 16>     C       18.2346710   19.1201837   19.1832742
| 17>     S       18.4111632   20.4212386   20.1883231
| 18>     N       18.7516724   17.8890388   19.5046423
| 19>     C       18.5854249   16.6535224   18.7124310
| 20>     C       17.9756231   15.5288677   19.5453602
| 21>     C       18.4031452   14.2027932   19.3475335
| 22>     C       17.8446156   13.1504481   20.0914967
| 23>     C       16.8504084   13.4244806   21.0456114
| 24>     C       16.4217421   14.7429443   21.2478470
| 25>     O       15.4540771   15.0099249   22.1601312
| 26>     C       16.9775958   15.7891810   20.5044262
| 27>     H       14.8094297   16.7978251   16.1389715
| 28>     H       13.5391164   15.7776743   16.8250888
| 29>     H       14.4692814   15.2047069   15.4255958
| 30>     H       15.6821325   15.7243706   18.2137031
| 31>     H       15.1470981   14.1381997   17.6422363
| 32>     H       16.7342317   17.7892723   15.0426938
| 33>     H       17.4102044   19.3907907   15.3126910
| 34>     H       15.7850892   19.0085131   15.9127971
| 35>     H       17.2140042   20.1327218   17.7631568
| 36>     H       19.2305169   17.8476143   20.3956769
| 37>     H       19.5933772   16.3240205   18.4191774
| 38>     H       19.1628490   13.9848748   18.5995441
| 39>     H       18.1808571   12.1285037   19.9233559
| 40>     H       16.4155653   12.6137940   21.6211774
| 41>     H       15.2383358   14.1782155   22.6089275
| 42>     H       16.6219577   16.8001802   20.6754098
| 43> *
| 44>
| 45>                          ****END OF INPUT****

CARTESIAN COORDINATES (ANGSTROEM)
---------------------------------
  C     14.535628   15.765290   16.366754
  C     15.549735   15.107076   17.319202
  O     16.787342   14.875793   16.615178
  C     17.774821   15.808370   16.422116
  O     18.774890   15.512581   15.796869
  C     17.822457   16.922793   17.410541
  C     17.397652   18.164502   17.088153
  C     16.795714   18.606046   15.772295
  N     17.564576   19.215647   17.991612
  C     18.234671   19.120184   19.183274
  S     18.411163   20.421239   20.188323
  N     18.751672   17.889039   19.504642
  C     18.585425   16.653522   18.712431
  C     17.975623   15.528868   19.545360
  C     18.403145   14.202793   19.347534
  C     17.844616   13.150448   20.091497
  C     16.850408   13.424481   21.045611
  C     16.421742   14.742944   21.247847
  O     15.454077   15.009925   22.160131
  C     16.977596   15.789181   20.504426
  H     14.809430   16.797825   16.138972
  H     13.539116   15.777674   16.825089
  H     14.469281   15.204707   15.425596
  H     15.682132   15.724371   18.213703
  H     15.147098   14.138200   17.642236
  H     16.734232   17.789272   15.042694
  H     17.410204   19.390791   15.312691
  H     15.785089   19.008513   15.912797
  H     17.214004   20.132722   17.763157
  H     19.230517   17.847614   20.395677
  H     19.593377   16.324020   18.419177
  H     19.162849   13.984875   18.599544
  H     18.180857   12.128504   19.923356
  H     16.415565   12.613794   21.621177
  H     15.238336   14.178216   22.608928
  H     16.621958   16.800180   20.675410

 Total Charge           Charge          ....    0
 Multiplicity           Mult            ....    1
 Number of Electrons    NEL             ....  154
 Basis Dimension        Dim             ....  828

ORBITAL ENERGIES
----------------

  NO   OCC          E(Eh)            E(eV)
   0   2.0000     -91.888789     -2500.4211
   1   2.0000     -20.602066      -560.6107
   2   2.0000     -20.601857      -560.6050
   3   2.0000     -20.553663      -559.2936
   4   2.0000     -15.623356      -425.1331
   5   2.0000     -15.612228      -424.8303
   6   2.0000     -11.398506      -310.1691
   7   2.0000     -11.385882      -309.8256
   8   2.0000     -11.323977      -308.1411
   9   2.0000     -11.319859      -308.0290
  10   2.0000     -11.319489      -308.0190
  11   2.0000     -11.302324      -307.5519
  12   2.0000     -11.267490      -306.6040
  13   2.0000     -11.266231      -306.5697
  14   2.0000     -11.265100      -306.5390
  15   2.0000     -11.260075      -306.4022
  16   2.0000     -11.248851      -306.0968
  17   2.0000     -11.244623      -305.9817
  18   2.0000     -11.242893      -305.9347
  19   2.0000     -11.235281      -305.7275
  20   2.0000      -8.893927      -242.0161
  21   2.0000      -6.575524      -178.9291
  22   2.0000      -6.573488      -178.8737
  23   2.0000      -6.572922      -178.8583
  24   2.0000      -1.449521       -39.4435
  25   2.0000      -1.421890       -38.6916
  26   2.0000      -1.361683       -37.0533
  27   2.0000      -1.338517       -36.4229
  28   2.0000      -1.239662       -33.7329
  29   2.0000      -1.163517       -31.6609
  30   2.0000      -1.125434       -30.6246
  31   2.0000      -1.050188       -28.5771
  32   2.0000      -1.039984       -28.2994
  33   2.0000      -1.021736       -27.8029
  34   2.0000      -1.005462       -27.3600
  35   2.0000      -0.989329       -26.9210
  36   2.0000      -0.928603       -25.2686
  37   2.0000      -0.894983       -24.3537
  38   2.0000      -0.852722       -23.2037
  39   2.0000      -0.842238       -22.9185
  40   2.0000      -0.839183       -22.8353
  41   2.0000      -0.836135       -22.7524
  42   2.0000      -0.754969       -20.5437
  43   2.0000      -0.735351       -20.0099
  44   2.0000      -0.728876       -19.8337
  45   2.0000      -0.699726       -19.0405
  46   2.0000      -0.691892       -18.8273
  47   2.0000      -0.680321       -18.5125
  48   2.0000      -0.678266       -18.4566
  49   2.0000      -0.667861       -18.1734
  50   2.0000      -0.654447       -17.8084
  51   2.0000      -0.641736       -17.4625
  52   2.0000      -0.637033       -17.3346
  53   2.0000      -0.622829       -16.9480
  54   2.0000      -0.611593       -16.6423
  55   2.0000      -0.608866       -16.5681
  56   2.0000      -0.605220       -16.4689
  57   2.0000      -0.587898       -15.9975
  58   2.0000      -0.579100       -15.7581
  59   2.0000      -0.568207       -15.4617
  60   2.0000      -0.567575       -15.4445
  61   2.0000      -0.556498       -15.1431
  62   2.0000      -0.545338       -14.8394
  63   2.0000      -0.536314       -14.5938
  64   2.0000      -0.524287       -14.2666
  65   2.0000      -0.516060       -14.0427
  66   2.0000      -0.504198       -13.7199
  67   2.0000      -0.503767       -13.7082
  68   2.0000      -0.488028       -13.2799
  69   2.0000      -0.471258       -12.8236
  70   2.0000      -0.453037       -12.3278
  71   2.0000      -0.450986       -12.2720
  72   2.0000      -0.357033        -9.7154
  73   2.0000      -0.352134        -9.5821
  74   2.0000      -0.328831        -8.9479
  75   2.0000      -0.326819        -8.8932
  76   2.0000      -0.318208        -8.6589
  77   0.0000       0.094692         2.5767
  78   0.0000       0.103704         2.8219
  79   0.0000       0.116410         3.1677
  80   0.0000       0.127642         3.4733
  81   0.0000       0.130170         3.5421

MULLIKEN ATOMIC CHARGES
-----------------------
   0 C :   -0.293138
   1 C :    0.032555
   2 O :   -0.315687
   3 C :    0.386287
   4 O :   -0.373599
   5 C :   -0.172032
   6 C :    0.137917
   7 C :   -0.342355
   8 N :   -0.139693
   9 C :    0.214247
  10 S :   -0.445279
  11 N :   -0.230776
  12 C :    0.085650
  13 C :   -0.005334
  14 C :   -0.185051
  15 C :   -0.137227
  16 C :   -0.273977
  17 C :    0.315778
  18 O :   -0.355109
  19 C :   -0.264615
  20 H :    0.086880
  21 H :    0.102238
  22 H :    0.112583
  23 H :    0.099087
  24 H :    0.122937
  25 H :    0.120593
  26 H :    0.147444
  27 H :    0.119827
  28 H :    0.195126
  29 H :    0.204293
  30 H :    0.164754
  31 H :    0.161524
  32 H :    0.164636
  33 H :    0.133937
  34 H :    0.241790
  35 H :    0.183789
Sum of atomic charges:   -0.0000000

LOEWDIN ATOMIC CHARGES
----------------------
   0 C :    0.104749
   1 C :   -0.019358
   2 O :    0.312896
   3 C :   -0.421491
   4 O :    0.128558
   5 C :   -0.077176
   6 C :   -0.110163
   7 C :    0.122320
   8 N :    0.400679
   9 C :   -0.454957
  10 S :   -0.040629
  11 N :    0.397376
  12 C :   -0.042889
  13 C :   -0.043584
  14 C :    0.023589
  15 C :    0.046010
  16 C :   -0.000052
  17 C :   -0.193715
  18 O :    0.395901
  19 C :    0.026250
  20 H :   -0.035264
  21 H :   -0.023471
  22 H :   -0.023279
  23 H :   -0.039038
  24 H :   -0.019313
  25 H :   -0.010232
  26 H :   -0.009020
  27 H :   -0.018158
  28 H :   -0.058134
  29 H :   -0.064011
  30 H :   -0.003242
  31 H :   -0.022188
  32 H :   -0.017904
  33 H :   -0.034155
  34 H :   -0.152520
  35 H :   -0.024385

  Mayer bond orders larger than 0.100000
B(  0-C ,  1-C ) :   0.9748 B(  0-C , 20-H ) :   0.9787 B(  0-C , 21-H ) :   0.9778
B(  0-C , 22-H ) :   0.9763 B(  1-C ,  2-O ) :   0.8931 B(  1-C , 23-H ) :   0.9573
B(  1-C , 24-H ) :   0.9792 B(  2-O ,  3-C ) :   1.1639 B(  3-C ,  4-O ) :   2.1086
B(  3-C ,  5-C ) :   0.8985 B(  5-C ,  6-C ) :   1.7177 B(  5-C , 12-C ) :   0.9536
B(  6-C ,  7-C ) :   0.9474 B(  6-C ,  8-N ) :   1.1071 B(  7-C , 25-H ) :   0.9819
B(  7-C , 26-H ) :   0.9661 B(  7-C , 27-H ) :   0.9690 B(  8-N ,  9-C ) :   1.2077
B(  8-N , 28-H ) :   0.9535 B(  9-C , 10-S ) :   1.6038 B(  9-C , 11-N ) :   1.2828
B( 11-N , 12-C ) :   0.9892 B( 11-N , 29-H ) :   0.9448 B( 12-C , 13-C ) :   0.9540
B( 12-C , 30-H ) :   0.9975 B( 13-C , 14-C ) :   1.3867 B( 13-C , 19-C ) :   1.3354
B( 14-C , 15-C ) :   1.4006 B( 14-C , 31-H ) :   0.9668 B( 15-C , 16-C ) :   1.3591
B( 15-C , 32-H ) :   0.9696 B( 16-C , 17-C ) :   1.3312 B( 16-C , 33-H ) :   0.9840
B( 17-C , 18-O ) :   1.1103 B( 17-C , 19-C ) :   1.3659 B( 18-O , 34-H ) :   0.9788
B( 19-C , 35-H ) :   0.9566

MP2 TOTAL ENERGY:    -1274.328500638 Eh
FINAL SINGLE POINT ENERGY     -1274.328500637698

DIPOLE MOMENT
-------------
                                X             Y             Z
Electronic contribution:     10.41430       5.38263       7.75071
Nuclear contribution   :    -11.99184      -6.70765      -7.94788
                        -----------------------------------------
Total Dipole Moment    :     -1.57753      -1.32503      -0.19717
                        -----------------------------------------
Magnitude (a.u.)       :      2.06959
Magnitude (Debye)      :      5.26047

Rotational constants in cm-1:     0.011883     0.009218     0.006610
Rotational constants in MHz :   356.252951   276.352478   198.175605

                             ****ORCA TERMINATED NORMALLY****
TOTAL RUN TIME: 0 days 1 hours 35 minutes 27 seconds 539 msec
