                         Program Version 4.2.0 -  RELEASE  -
|  1> ! ri-mp2 cc-pvtz cc-pvtz/c TightSCF  NoKeepInts
|  2>
|  3> %scf
|  4>   MaxCore 4096
|  5> end
|  6> *xyz  0  1
|  7>     C       14.8322787   14.7695201   17.4637225
|  8>     C       15.6570608   15.3643256   16.3110667
|  9>     O       17.0171302   14.9261708   16.4745649
| 10>     C       18.1021632   15.7605077   16.4311863
| 11>     O       19.1951674   15.2534107   16.2622866
| 12>     C       17.9954415   16.9161406   17.3683459
| 13>     C       17.5182706   18.1167654   16.9688842
| 14>     C       17.0110332   18.4815143   15.5895329
| 15>     N       17.5459912   19.2038240   17.8449135
| 16>     C       18.1685516   19.2018630   19.0661480
| 17>     S       18.2343235   20.5588129   20.0088644
| 18>     N       18.7382559   18.0177390   19.4661947
| 19>     C       18.6164778   16.7286287   18.7545737
| 20>     C       17.8598825   15.6925646   19.5829644
| 21>     C       18.2199047   14.3348402   19.4978334
| 22>     C       17.5372433   13.3621006   20.2465556
| 23>     C       16.4849551   13.7485577   21.0933047
| 24>     C       16.1212078   15.0987628   21.1818577
| 25>     O       15.0972039   15.4733464   21.9891142
| 26>     C       16.7996987   16.0653941   20.4321925
| 27>     H       15.1471944   15.1907770   18.4237381
| 28>     H       14.9578778   13.6803216   17.5084056
| 29>     H       13.7660977   14.9881751   17.3298245
| 30>     H       15.2679822   15.0056659   15.3492162
| 31>     H       15.5581754   16.4525650   16.3375868
| 32>     H       17.1583353   17.6756842   14.8604659
| 33>     H       17.5458660   19.3575937   15.2001611
| 34>     H       15.9415344   18.7247663   15.6131255
| 35>     H       17.1523056   20.0874246   17.5617195
| 36>     H       19.1810357   18.0425158   20.3760608
| 37>     H       19.6358649   16.3434173   18.6030713
| 38>     H       19.0262079   14.0307552   18.8332509
| 39>     H       17.8234493   12.3149917   20.1643335
| 40>     H       15.9541716   13.0000150   21.6721004
| 41>     H       14.7881356   14.6805028   22.4528109
| 42>     H       16.4905246   17.1020398   20.5140223
| 43> *
| 44>
| 45>                          ****END OF INPUT****

CARTESIAN COORDINATES (ANGSTROEM)
---------------------------------
  C     14.832279   14.769520   17.463722
  C     15.657061   15.364326   16.311067
  O     17.017130   14.926171   16.474565
  C     18.102163   15.760508   16.431186
  O     19.195167   15.253411   16.262287
  C     17.995441   16.916141   17.368346
  C     17.518271   18.116765   16.968884
  C     17.011033   18.481514   15.589533
  N     17.545991   19.203824   17.844913
  C     18.168552   19.201863   19.066148
  S     18.234323   20.558813   20.008864
  N     18.738256   18.017739   19.466195
  C     18.616478   16.728629   18.754574
  C     17.859882   15.692565   19.582964
  C     18.219905   14.334840   19.497833
  C     17.537243   13.362101   20.246556
  C     16.484955   13.748558   21.093305
  C     16.121208   15.098763   21.181858
  O     15.097204   15.473346   21.989114
  C     16.799699   16.065394   20.432192
  H     15.147194   15.190777   18.423738
  H     14.957878   13.680322   17.508406
  H     13.766098   14.988175   17.329825
  H     15.267982   15.005666   15.349216
  H     15.558175   16.452565   16.337587
  H     17.158335   17.675684   14.860466
  H     17.545866   19.357594   15.200161
  H     15.941534   18.724766   15.613125
  H     17.152306   20.087425   17.561719
  H     19.181036   18.042516   20.376061
  H     19.635865   16.343417   18.603071
  H     19.026208   14.030755   18.833251
  H     17.823449   12.314992   20.164334
  H     15.954172   13.000015   21.672100
  H     14.788136   14.680503   22.452811
  H     16.490525   17.102040   20.514022

 Total Charge           Charge          ....    0
 Multiplicity           Mult            ....    1
 Number of Electrons    NEL             ....  154
 Basis Dimension        Dim             ....  828

ORBITAL ENERGIES
----------------

  NO   OCC          E(Eh)            E(eV)
   0   2.0000     -91.888227     -2500.4058
   1   2.0000     -20.601855      -560.6050
   2   2.0000     -20.597368      -560.4829
   3   2.0000     -20.557799      -559.4061
   4   2.0000     -15.623636      -425.1408
   5   2.0000     -15.610616      -424.7864
   6   2.0000     -11.397919      -310.1531
   7   2.0000     -11.385047      -309.8029
   8   2.0000     -11.324421      -308.1532
   9   2.0000     -11.316232      -307.9303
  10   2.0000     -11.314019      -307.8701
  11   2.0000     -11.304789      -307.6189
  12   2.0000     -11.271374      -306.7097
  13   2.0000     -11.266763      -306.5842
  14   2.0000     -11.262259      -306.4617
  15   2.0000     -11.254536      -306.2515
  16   2.0000     -11.243321      -305.9463
  17   2.0000     -11.239432      -305.8405
  18   2.0000     -11.236585      -305.7630
  19   2.0000     -11.227093      -305.5047
  20   2.0000      -8.893356      -242.0005
  21   2.0000      -6.574954      -178.9136
  22   2.0000      -6.572919      -178.8582
  23   2.0000      -6.572352      -178.8428
  24   2.0000      -1.455187       -39.5976
  25   2.0000      -1.417201       -38.5640
  26   2.0000      -1.363175       -37.0939
  27   2.0000      -1.338178       -36.4137
  28   2.0000      -1.238401       -33.6986
  29   2.0000      -1.158625       -31.5278
  30   2.0000      -1.124409       -30.5967
  31   2.0000      -1.047617       -28.5071
  32   2.0000      -1.039479       -28.2857
  33   2.0000      -1.016958       -27.6728
  34   2.0000      -1.004168       -27.3248
  35   2.0000      -0.988100       -26.8876
  36   2.0000      -0.926845       -25.2207
  37   2.0000      -0.885599       -24.0984
  38   2.0000      -0.853342       -23.2206
  39   2.0000      -0.840126       -22.8610
  40   2.0000      -0.834385       -22.7048
  41   2.0000      -0.833785       -22.6884
  42   2.0000      -0.758964       -20.6525
  43   2.0000      -0.737590       -20.0708
  44   2.0000      -0.730007       -19.8645
  45   2.0000      -0.695723       -18.9316
  46   2.0000      -0.690024       -18.7765
  47   2.0000      -0.683779       -18.6066
  48   2.0000      -0.676183       -18.3999
  49   2.0000      -0.663242       -18.0477
  50   2.0000      -0.652744       -17.7621
  51   2.0000      -0.639773       -17.4091
  52   2.0000      -0.633506       -17.2386
  53   2.0000      -0.622860       -16.9489
  54   2.0000      -0.611629       -16.6433
  55   2.0000      -0.605329       -16.4718
  56   2.0000      -0.601444       -16.3661
  57   2.0000      -0.589222       -16.0335
  58   2.0000      -0.575992       -15.6735
  59   2.0000      -0.567719       -15.4484
  60   2.0000      -0.562786       -15.3142
  61   2.0000      -0.557769       -15.1777
  62   2.0000      -0.537093       -14.6150
  63   2.0000      -0.531933       -14.4746
  64   2.0000      -0.517817       -14.0905
  65   2.0000      -0.512462       -13.9448
  66   2.0000      -0.502177       -13.6649
  67   2.0000      -0.501056       -13.6344
  68   2.0000      -0.487795       -13.2736
  69   2.0000      -0.467220       -12.7137
  70   2.0000      -0.457043       -12.4368
  71   2.0000      -0.451609       -12.2889
  72   2.0000      -0.356467        -9.7000
  73   2.0000      -0.348938        -9.4951
  74   2.0000      -0.328067        -8.9271
  75   2.0000      -0.321758        -8.7555
  76   2.0000      -0.316808        -8.6208
  77   0.0000       0.092846         2.5265
  78   0.0000       0.099931         2.7192
  79   0.0000       0.109469         2.9788
  80   0.0000       0.127569         3.4713
  81   0.0000       0.130295         3.5455

MULLIKEN ATOMIC CHARGES
-----------------------
   0 C :   -0.276815
   1 C :    0.015427
   2 O :   -0.309095
   3 C :    0.383192
   4 O :   -0.366608
   5 C :   -0.137092
   6 C :    0.113763
   7 C :   -0.323091
   8 N :   -0.136939
   9 C :    0.207909
  10 S :   -0.444445
  11 N :   -0.228414
  12 C :    0.058255
  13 C :    0.029384
  14 C :   -0.193624
  15 C :   -0.142288
  16 C :   -0.265613
  17 C :    0.307865
  18 O :   -0.360466
  19 C :   -0.263907
  20 H :    0.111378
  21 H :    0.105382
  22 H :    0.096195
  23 H :    0.114942
  24 H :    0.080386
  25 H :    0.117210
  26 H :    0.139110
  27 H :    0.121320
  28 H :    0.194135
  29 H :    0.202528
  30 H :    0.169883
  31 H :    0.165428
  32 H :    0.163542
  33 H :    0.132067
  34 H :    0.240568
  35 H :    0.178525
Sum of atomic charges:   -0.0000000

LOEWDIN ATOMIC CHARGES
----------------------
   0 C :    0.110770
   1 C :   -0.026524
   2 O :    0.322418
   3 C :   -0.423266
   4 O :    0.137502
   5 C :   -0.076687
   6 C :   -0.114939
   7 C :    0.120282
   8 N :    0.399997
   9 C :   -0.456000
  10 S :   -0.040833
  11 N :    0.398147
  12 C :   -0.040758
  13 C :   -0.041081
  14 C :    0.024149
  15 C :    0.045549
  16 C :   -0.001373
  17 C :   -0.193908
  18 O :    0.395516
  19 C :    0.024916
  20 H :   -0.026433
  21 H :   -0.023900
  22 H :   -0.027300
  23 H :   -0.029790
  24 H :   -0.038451
  25 H :   -0.011703
  26 H :   -0.009339
  27 H :   -0.017472
  28 H :   -0.059123
  29 H :   -0.063799
  30 H :   -0.001681
  31 H :   -0.022225
  32 H :   -0.018901
  33 H :   -0.035300
  34 H :   -0.153471
  35 H :   -0.024989

  Mayer bond orders larger than 0.100000
B(  0-C ,  1-C ) :   0.9779 B(  0-C , 20-H ) :   0.9715 B(  0-C , 21-H ) :   0.9782
B(  0-C , 22-H ) :   0.9774 B(  1-C ,  2-O ) :   0.9269 B(  1-C , 23-H ) :   0.9817
B(  1-C , 24-H ) :   0.9644 B(  2-O ,  3-C ) :   1.1113 B(  3-C ,  4-O ) :   2.0938
B(  3-C ,  5-C ) :   0.9226 B(  5-C ,  6-C ) :   1.7149 B(  5-C , 12-C ) :   0.9640
B(  6-C ,  7-C ) :   0.9424 B(  6-C ,  8-N ) :   1.1033 B(  7-C , 25-H ) :   0.9831
B(  7-C , 26-H ) :   0.9699 B(  7-C , 27-H ) :   0.9676 B(  8-N ,  9-C ) :   1.2031
B(  8-N , 28-H ) :   0.9541 B(  9-C , 10-S ) :   1.6045 B(  9-C , 11-N ) :   1.2851
B( 11-N , 12-C ) :   0.9826 B( 11-N , 29-H ) :   0.9467 B( 12-C , 13-C ) :   0.9472
B( 12-C , 30-H ) :   0.9970 B( 13-C , 14-C ) :   1.3846 B( 13-C , 19-C ) :   1.3482
B( 14-C , 15-C ) :   1.4005 B( 14-C , 31-H ) :   0.9632 B( 15-C , 16-C ) :   1.3560
B( 15-C , 32-H ) :   0.9700 B( 16-C , 17-C ) :   1.3357 B( 16-C , 33-H ) :   0.9847
B( 17-C , 18-O ) :   1.1060 B( 17-C , 19-C ) :   1.3616 B( 18-O , 34-H ) :   0.9799
B( 19-C , 35-H ) :   0.9580

MP2 TOTAL ENERGY:    -1274.319456453 Eh
FINAL SINGLE POINT ENERGY     -1274.319456452743

DIPOLE MOMENT
-------------
                                X             Y             Z
Electronic contribution:     10.02941       7.51461       6.50274
Nuclear contribution   :    -11.61532      -8.66422      -7.34822
                        -----------------------------------------
Total Dipole Moment    :     -1.58592      -1.14961      -0.84548
                        -----------------------------------------
Magnitude (a.u.)       :      2.13344
Magnitude (Debye)      :      5.42278

Rotational constants in cm-1:     0.012153     0.009341     0.006728
Rotational constants in MHz :   364.329871   280.032063   201.685871

                             ****ORCA TERMINATED NORMALLY****
TOTAL RUN TIME: 0 days 1 hours 52 minutes 52 seconds 0 msec
