                         Program Version 4.2.0 -  RELEASE  -
|  1> ! ri-mp2 cc-pvtz cc-pvtz/c TightSCF  NoKeepInts
|  2>
|  3> %scf
|  4>   MaxCore 4096
|  5> end
|  6> *xyz  0  1
|  7>     C       14.9669329   14.3292884   17.2051422
|  8>     C       15.4703532   15.6681240   16.6405634
|  9>     O       16.7102059   15.4016434   15.9517118
| 10>     C       17.9308492   15.6661750   16.5156115
| 11>     O       18.8020329   14.8159567   16.5208647
| 12>     C       18.0259343   16.8925493   17.3684583
| 13>     C       17.5487223   18.1030713   16.9917714
| 14>     C       16.8999291   18.4596792   15.6710972
| 15>     N       17.7024766   19.2042117   17.8375235
| 16>     C       18.4044804   19.1923516   19.0148361
| 17>     S       18.5911427   20.5583310   19.9275959
| 18>     N       18.9391622   17.9880486   19.4019818
| 19>     C       18.7306978   16.7006472   18.7103226
| 20>     C       17.9376294   15.7293366   19.5793042
| 21>     C       18.3731680   14.4012333   19.7385674
| 22>     C       17.6284099   13.4905068   20.5063005
| 23>     C       16.4341469   13.9090778   21.1171273
| 24>     C       15.9931243   15.2291765   20.9551693
| 25>     O       14.8320666   15.6328542   21.5290486
| 26>     C       16.7371436   16.1341332   20.1917100
| 27>     H       15.6832535   13.9235981   17.9313250
| 28>     H       14.8375234   13.5934357   16.4016159
| 29>     H       14.0035293   14.4609315   17.7122888
| 30>     H       14.7308112   16.0493508   15.9247533
| 31>     H       15.5694803   16.3972131   17.4532721
| 32>     H       17.1738504   17.7525375   14.8780140
| 33>     H       17.2169566   19.4516403   15.3249928
| 34>     H       15.8068281   18.4670721   15.7557587
| 35>     H       17.3268966   20.0998753   17.5675885
| 36>     H       19.4312357   18.0043634   20.2864589
| 37>     H       19.7193185   16.2609721   18.5114893
| 38>     H       19.2843323   14.0680205   19.2463057
| 39>     H       17.9740233   12.4639626   20.6165532
| 40>     H       15.8537338   13.2069114   21.7065217
| 41>     H       14.5004131   14.8948284   22.0629181
| 42>     H       16.3762055   17.1508912   20.0794364
| 43> *
| 44>
| 45>                          ****END OF INPUT****

CARTESIAN COORDINATES (ANGSTROEM)
---------------------------------
  C     14.966933   14.329288   17.205142
  C     15.470353   15.668124   16.640563
  O     16.710206   15.401643   15.951712
  C     17.930849   15.666175   16.515611
  O     18.802033   14.815957   16.520865
  C     18.025934   16.892549   17.368458
  C     17.548722   18.103071   16.991771
  C     16.899929   18.459679   15.671097
  N     17.702477   19.204212   17.837523
  C     18.404480   19.192352   19.014836
  S     18.591143   20.558331   19.927596
  N     18.939162   17.988049   19.401982
  C     18.730698   16.700647   18.710323
  C     17.937629   15.729337   19.579304
  C     18.373168   14.401233   19.738567
  C     17.628410   13.490507   20.506300
  C     16.434147   13.909078   21.117127
  C     15.993124   15.229176   20.955169
  O     14.832067   15.632854   21.529049
  C     16.737144   16.134133   20.191710
  H     15.683253   13.923598   17.931325
  H     14.837523   13.593436   16.401616
  H     14.003529   14.460931   17.712289
  H     14.730811   16.049351   15.924753
  H     15.569480   16.397213   17.453272
  H     17.173850   17.752537   14.878014
  H     17.216957   19.451640   15.324993
  H     15.806828   18.467072   15.755759
  H     17.326897   20.099875   17.567588
  H     19.431236   18.004363   20.286459
  H     19.719318   16.260972   18.511489
  H     19.284332   14.068020   19.246306
  H     17.974023   12.463963   20.616553
  H     15.853734   13.206911   21.706522
  H     14.500413   14.894828   22.062918
  H     16.376206   17.150891   20.079436

 Total Charge           Charge          ....    0
 Multiplicity           Mult            ....    1
 Number of Electrons    NEL             ....  154
 Basis Dimension        Dim             ....  828

ORBITAL ENERGIES
----------------

  NO   OCC          E(Eh)            E(eV)
   0   2.0000     -91.891218     -2500.4872
   1   2.0000     -20.600283      -560.5622
   2   2.0000     -20.596545      -560.4605
   3   2.0000     -20.550136      -559.1976
   4   2.0000     -15.629888      -425.3109
   5   2.0000     -15.611749      -424.8173
   6   2.0000     -11.396463      -310.1135
   7   2.0000     -11.387565      -309.8714
   8   2.0000     -11.334125      -308.4172
   9   2.0000     -11.316881      -307.9480
  10   2.0000     -11.312823      -307.8376
  11   2.0000     -11.303919      -307.5953
  12   2.0000     -11.266914      -306.5883
  13   2.0000     -11.263632      -306.4990
  14   2.0000     -11.262956      -306.4806
  15   2.0000     -11.256659      -306.3093
  16   2.0000     -11.246176      -306.0240
  17   2.0000     -11.242730      -305.9302
  18   2.0000     -11.239296      -305.8368
  19   2.0000     -11.225626      -305.4648
  20   2.0000      -8.896310      -242.0809
  21   2.0000      -6.577890      -178.9935
  22   2.0000      -6.575873      -178.9386
  23   2.0000      -6.575291      -178.9228
  24   2.0000      -1.447779       -39.3961
  25   2.0000      -1.420054       -38.6416
  26   2.0000      -1.359041       -36.9814
  27   2.0000      -1.342007       -36.5179
  28   2.0000      -1.240893       -33.7664
  29   2.0000      -1.161555       -31.6075
  30   2.0000      -1.125614       -30.6295
  31   2.0000      -1.048738       -28.5376
  32   2.0000      -1.035576       -28.1795
  33   2.0000      -1.018796       -27.7228
  34   2.0000      -1.005054       -27.3489
  35   2.0000      -0.989712       -26.9314
  36   2.0000      -0.927890       -25.2492
  37   2.0000      -0.883790       -24.0492
  38   2.0000      -0.855342       -23.2750
  39   2.0000      -0.842660       -22.9300
  40   2.0000      -0.837119       -22.7792
  41   2.0000      -0.835260       -22.7286
  42   2.0000      -0.751809       -20.4578
  43   2.0000      -0.739956       -20.1352
  44   2.0000      -0.731445       -19.9036
  45   2.0000      -0.698356       -19.0032
  46   2.0000      -0.688397       -18.7322
  47   2.0000      -0.679553       -18.4916
  48   2.0000      -0.677658       -18.4400
  49   2.0000      -0.661042       -17.9879
  50   2.0000      -0.656823       -17.8731
  51   2.0000      -0.649260       -17.6672
  52   2.0000      -0.640853       -17.4385
  53   2.0000      -0.611432       -16.6379
  54   2.0000      -0.609290       -16.5796
  55   2.0000      -0.605206       -16.4685
  56   2.0000      -0.599251       -16.3065
  57   2.0000      -0.582573       -15.8526
  58   2.0000      -0.578517       -15.7422
  59   2.0000      -0.570686       -15.5292
  60   2.0000      -0.561095       -15.2682
  61   2.0000      -0.558504       -15.1977
  62   2.0000      -0.545195       -14.8355
  63   2.0000      -0.527845       -14.3634
  64   2.0000      -0.518898       -14.1199
  65   2.0000      -0.514220       -13.9926
  66   2.0000      -0.502924       -13.6852
  67   2.0000      -0.499030       -13.5793
  68   2.0000      -0.488949       -13.3050
  69   2.0000      -0.471235       -12.8229
  70   2.0000      -0.456414       -12.4196
  71   2.0000      -0.448136       -12.1944
  72   2.0000      -0.357598        -9.7307
  73   2.0000      -0.352677        -9.5968
  74   2.0000      -0.330701        -8.9988
  75   2.0000      -0.324462        -8.8291
  76   2.0000      -0.319294        -8.6884
  77   0.0000       0.076650         2.0858
  78   0.0000       0.102767         2.7964
  79   0.0000       0.116299         3.1647
  80   0.0000       0.127490         3.4692
  81   0.0000       0.135841         3.6964

MULLIKEN ATOMIC CHARGES
-----------------------
   0 C :   -0.266997
   1 C :   -0.003493
   2 O :   -0.333992
   3 C :    0.425639
   4 O :   -0.385522
   5 C :   -0.218736
   6 C :    0.148291
   7 C :   -0.310631
   8 N :   -0.132112
   9 C :    0.201057
  10 S :   -0.438147
  11 N :   -0.207243
  12 C :    0.067233
  13 C :    0.032982
  14 C :   -0.182661
  15 C :   -0.131314
  16 C :   -0.278570
  17 C :    0.319028
  18 O :   -0.360763
  19 C :   -0.290933
  20 H :    0.107892
  21 H :    0.108761
  22 H :    0.091163
  23 H :    0.114699
  24 H :    0.105764
  25 H :    0.138021
  26 H :    0.125086
  27 H :    0.120277
  28 H :    0.197543
  29 H :    0.196557
  30 H :    0.160979
  31 H :    0.165024
  32 H :    0.163843
  33 H :    0.132086
  34 H :    0.242113
  35 H :    0.177075
Sum of atomic charges:    0.0000000

LOEWDIN ATOMIC CHARGES
----------------------
   0 C :    0.108554
   1 C :   -0.023052
   2 O :    0.301910
   3 C :   -0.417893
   4 O :    0.124506
   5 C :   -0.089938
   6 C :   -0.089802
   7 C :    0.128067
   8 N :    0.402797
   9 C :   -0.456963
  10 S :   -0.035237
  11 N :    0.397144
  12 C :   -0.045682
  13 C :   -0.044201
  14 C :    0.022670
  15 C :    0.044240
  16 C :   -0.000154
  17 C :   -0.193587
  18 O :    0.394472
  19 C :    0.027227
  20 H :   -0.022631
  21 H :   -0.024523
  22 H :   -0.026855
  23 H :   -0.029857
  24 H :   -0.038964
  25 H :   -0.006056
  26 H :   -0.013081
  27 H :   -0.015568
  28 H :   -0.057570
  29 H :   -0.063503
  30 H :   -0.003094
  31 H :   -0.022092
  32 H :   -0.018750
  33 H :   -0.034694
  34 H :   -0.152764
  35 H :   -0.025077

  Mayer bond orders larger than 0.100000
B(  0-C ,  1-C ) :   0.9850 B(  0-C , 20-H ) :   0.9709 B(  0-C , 21-H ) :   0.9793
B(  0-C , 22-H ) :   0.9761 B(  1-C ,  2-O ) :   0.8918 B(  1-C , 23-H ) :   0.9791
B(  1-C , 24-H ) :   0.9591 B(  2-O ,  3-C ) :   1.1697 B(  3-C ,  4-O ) :   2.0845
B(  3-C ,  5-C ) :   0.9423 B(  5-C ,  6-C ) :   1.6742 B(  5-C , 12-C ) :   0.9608
B(  6-C ,  7-C ) :   0.9454 B(  6-C ,  8-N ) :   1.1302 B(  7-C , 25-H ) :   0.9743
B(  7-C , 26-H ) :   0.9794 B(  7-C , 27-H ) :   0.9630 B(  8-N ,  9-C ) :   1.1884
B(  8-N , 28-H ) :   0.9507 B(  9-C , 10-S ) :   1.6138 B(  9-C , 11-N ) :   1.2929
B( 11-N , 12-C ) :   0.9987 B( 11-N , 29-H ) :   0.9505 B( 12-C , 13-C ) :   0.9407
B( 12-C , 30-H ) :   0.9977 B( 13-C , 14-C ) :   1.3876 B( 13-C , 19-C ) :   1.3469
B( 14-C , 15-C ) :   1.3937 B( 14-C , 31-H ) :   0.9612 B( 15-C , 16-C ) :   1.3621
B( 15-C , 32-H ) :   0.9706 B( 16-C , 17-C ) :   1.3304 B( 16-C , 33-H ) :   0.9849
B( 17-C , 18-O ) :   1.1074 B( 17-C , 19-C ) :   1.3697 B( 18-O , 34-H ) :   0.9789
B( 19-C , 35-H ) :   0.9563

MP2 TOTAL ENERGY:    -1274.337142225 Eh
FINAL SINGLE POINT ENERGY     -1274.337142225178

DIPOLE MOMENT
-------------
                                X             Y             Z
Electronic contribution:     10.20831       8.44650       5.79324
Nuclear contribution   :    -11.70379      -9.34765      -6.12542
                        -----------------------------------------
Total Dipole Moment    :     -1.49548      -0.90115      -0.33218
                        -----------------------------------------
Magnitude (a.u.)       :      1.77732
Magnitude (Debye)      :      4.51759

Rotational constants in cm-1:     0.012454     0.009173     0.006874
Rotational constants in MHz :   373.359896   275.000958   206.077212

                             ****ORCA TERMINATED NORMALLY****
TOTAL RUN TIME: 0 days 1 hours 42 minutes 53 seconds 502 msec
