                         Program Version 4.2.0 -  RELEASE  -
|  1> ! ri-mp2 cc-pvtz cc-pvtz/c TightSCF  NoKeepInts
|  2>
|  3> %scf
|  4>   MaxCore 4096
|  5> end
|  6> *xyz  0  1
|  7>     C       15.2336069   14.1657091   15.0846606
|  8>     C       16.2099960   13.8695130   16.2431561
|  9>     O       16.8689910   15.0195063   16.8374244
| 10>     C       16.5277637   16.3472757   16.7367566
| 11>     O       15.6186675   16.7774994   16.0503553
| 12>     C       17.4093646   17.2160522   17.5947265
| 13>     C       17.3227873   18.5714799   17.5940747
| 14>     C       16.3783956   19.4331709   16.7828960
| 15>     N       18.1935393   19.3310366   18.3814598
| 16>     C       19.2378645   18.8252763   19.1080119
| 17>     S       20.2831841   19.8036415   19.9363671
| 18>     N       19.3758986   17.4611141   19.1116925
| 19>     C       18.4240653   16.5094190   18.5103305
| 20>     C       17.7357754   15.7068706   19.6109461
| 21>     C       17.9895292   14.3297817   19.7549012
| 22>     C       17.3572057   13.5881757   20.7670776
| 23>     C       16.4659664   14.2288906   21.6446674
| 24>     C       16.2145477   15.6009487   21.5071053
| 25>     O       15.3559821   16.2227236   22.3540711
| 26>     C       16.8453309   16.3362919   20.4989232
| 27>     H       14.3396238   14.6910917   15.4433400
| 28>     H       14.9004269   13.2291467   14.6218272
| 29>     H       15.7154561   14.7723092   14.3076079
| 30>     H       15.6497067   13.3479511   17.0300588
| 31>     H       16.9807654   13.1742831   15.8868151
| 32>     H       15.3353380   19.2026309   17.0350734
| 33>     H       16.5054303   19.2408904   15.7099670
| 34>     H       16.5284596   20.5067510   16.9460463
| 35>     H       18.1076645   20.3347842   18.3897990
| 36>     H       20.1316428   17.1153659   19.6887855
| 37>     H       19.0087292   15.8169875   17.8887060
| 38>     H       18.6752272   13.8314278   19.0751106
| 39>     H       17.5584741   12.5233031   20.8694509
| 40>     H       15.9754268   13.6607524   22.4281379
| 41>     H       15.0432060   15.5614148   22.9893162
| 42>     H       16.6429608   17.3985334   20.4143543
| 43> *
| 44>
| 45>                          ****END OF INPUT****

CARTESIAN COORDINATES (ANGSTROEM)
---------------------------------
  C     15.233607   14.165709   15.084661
  C     16.209996   13.869513   16.243156
  O     16.868991   15.019506   16.837424
  C     16.527764   16.347276   16.736757
  O     15.618667   16.777499   16.050355
  C     17.409365   17.216052   17.594726
  C     17.322787   18.571480   17.594075
  C     16.378396   19.433171   16.782896
  N     18.193539   19.331037   18.381460
  C     19.237865   18.825276   19.108012
  S     20.283184   19.803642   19.936367
  N     19.375899   17.461114   19.111693
  C     18.424065   16.509419   18.510330
  C     17.735775   15.706871   19.610946
  C     17.989529   14.329782   19.754901
  C     17.357206   13.588176   20.767078
  C     16.465966   14.228891   21.644667
  C     16.214548   15.600949   21.507105
  O     15.355982   16.222724   22.354071
  C     16.845331   16.336292   20.498923
  H     14.339624   14.691092   15.443340
  H     14.900427   13.229147   14.621827
  H     15.715456   14.772309   14.307608
  H     15.649707   13.347951   17.030059
  H     16.980765   13.174283   15.886815
  H     15.335338   19.202631   17.035073
  H     16.505430   19.240890   15.709967
  H     16.528460   20.506751   16.946046
  H     18.107664   20.334784   18.389799
  H     20.131643   17.115366   19.688786
  H     19.008729   15.816987   17.888706
  H     18.675227   13.831428   19.075111
  H     17.558474   12.523303   20.869451
  H     15.975427   13.660752   22.428138
  H     15.043206   15.561415   22.989316
  H     16.642961   17.398533   20.414354

 Total Charge           Charge          ....    0
 Multiplicity           Mult            ....    1
 Number of Electrons    NEL             ....  154
 Basis Dimension        Dim             ....  828

ORBITAL ENERGIES
----------------

  NO   OCC          E(Eh)            E(eV)
   0   2.0000     -91.887534     -2500.3869
   1   2.0000     -20.599284      -560.5350
   2   2.0000     -20.595047      -560.4197
   3   2.0000     -20.539660      -558.9126
   4   2.0000     -15.627551      -425.2473
   5   2.0000     -15.606673      -424.6792
   6   2.0000     -11.398346      -310.1648
   7   2.0000     -11.382477      -309.7329
   8   2.0000     -11.334375      -308.4240
   9   2.0000     -11.312003      -307.8153
  10   2.0000     -11.306918      -307.6769
  11   2.0000     -11.303990      -307.5972
  12   2.0000     -11.257880      -306.3425
  13   2.0000     -11.257799      -306.3403
  14   2.0000     -11.253579      -306.2254
  15   2.0000     -11.250800      -306.1498
  16   2.0000     -11.241327      -305.8920
  17   2.0000     -11.236650      -305.7648
  18   2.0000     -11.236591      -305.7632
  19   2.0000     -11.223044      -305.3946
  20   2.0000      -8.892610      -241.9802
  21   2.0000      -6.574188      -178.8928
  22   2.0000      -6.572181      -178.8381
  23   2.0000      -6.571597      -178.8223
  24   2.0000      -1.442360       -39.2486
  25   2.0000      -1.414686       -38.4956
  26   2.0000      -1.354453       -36.8566
  27   2.0000      -1.338657       -36.4267
  28   2.0000      -1.237048       -33.6618
  29   2.0000      -1.155759       -31.4498
  30   2.0000      -1.118321       -30.4311
  31   2.0000      -1.041186       -28.3321
  32   2.0000      -1.036776       -28.2121
  33   2.0000      -1.013321       -27.5739
  34   2.0000      -0.994114       -27.0512
  35   2.0000      -0.982371       -26.7317
  36   2.0000      -0.920889       -25.0587
  37   2.0000      -0.898400       -24.4467
  38   2.0000      -0.846009       -23.0211
  39   2.0000      -0.836513       -22.7627
  40   2.0000      -0.832372       -22.6500
  41   2.0000      -0.817868       -22.2553
  42   2.0000      -0.744604       -20.2617
  43   2.0000      -0.728927       -19.8351
  44   2.0000      -0.717556       -19.5257
  45   2.0000      -0.694207       -18.8903
  46   2.0000      -0.686793       -18.6886
  47   2.0000      -0.675849       -18.3908
  48   2.0000      -0.667706       -18.1692
  49   2.0000      -0.661594       -18.0029
  50   2.0000      -0.650157       -17.6917
  51   2.0000      -0.643326       -17.5058
  52   2.0000      -0.634337       -17.2612
  53   2.0000      -0.605306       -16.4712
  54   2.0000      -0.600615       -16.3436
  55   2.0000      -0.597362       -16.2550
  56   2.0000      -0.596733       -16.2379
  57   2.0000      -0.582528       -15.8514
  58   2.0000      -0.574540       -15.6340
  59   2.0000      -0.569653       -15.5011
  60   2.0000      -0.560784       -15.2597
  61   2.0000      -0.538325       -14.6486
  62   2.0000      -0.535454       -14.5704
  63   2.0000      -0.524215       -14.2646
  64   2.0000      -0.522949       -14.2302
  65   2.0000      -0.511699       -13.9240
  66   2.0000      -0.502313       -13.6686
  67   2.0000      -0.498120       -13.5545
  68   2.0000      -0.482975       -13.1424
  69   2.0000      -0.462397       -12.5825
  70   2.0000      -0.451084       -12.2746
  71   2.0000      -0.439664       -11.9639
  72   2.0000      -0.352706        -9.5976
  73   2.0000      -0.347743        -9.4626
  74   2.0000      -0.326949        -8.8967
  75   2.0000      -0.319678        -8.6989
  76   2.0000      -0.314603        -8.5608
  77   0.0000       0.078167         2.1270
  78   0.0000       0.108800         2.9606
  79   0.0000       0.124787         3.3956
  80   0.0000       0.133797         3.6408
  81   0.0000       0.137132         3.7316

MULLIKEN ATOMIC CHARGES
-----------------------
   0 C :   -0.285907
   1 C :    0.050038
   2 O :   -0.362147
   3 C :    0.460608
   4 O :   -0.432926
   5 C :   -0.198495
   6 C :    0.145059
   7 C :   -0.273584
   8 N :   -0.119834
   9 C :    0.212078
  10 S :   -0.442146
  11 N :   -0.203518
  12 C :    0.047626
  13 C :    0.072977
  14 C :   -0.183296
  15 C :   -0.133059
  16 C :   -0.279061
  17 C :    0.315948
  18 O :   -0.356937
  19 C :   -0.269192
  20 H :    0.115713
  21 H :    0.096283
  22 H :    0.103807
  23 H :    0.090501
  24 H :    0.092225
  25 H :    0.131797
  26 H :    0.129878
  27 H :    0.094762
  28 H :    0.197071
  29 H :    0.194067
  30 H :    0.148601
  31 H :    0.147699
  32 H :    0.159366
  33 H :    0.129069
  34 H :    0.240438
  35 H :    0.164491
Sum of atomic charges:   -0.0000000

LOEWDIN ATOMIC CHARGES
----------------------
   0 C :    0.102251
   1 C :   -0.008277
   2 O :    0.295791
   3 C :   -0.411616
   4 O :    0.106583
   5 C :   -0.092924
   6 C :   -0.059497
   7 C :    0.130398
   8 N :    0.406266
   9 C :   -0.456920
  10 S :   -0.037171
  11 N :    0.396477
  12 C :   -0.053127
  13 C :   -0.037906
  14 C :    0.013952
  15 C :    0.038798
  16 C :   -0.002062
  17 C :   -0.189477
  18 O :    0.394986
  19 C :    0.031494
  20 H :   -0.024753
  21 H :   -0.028148
  22 H :   -0.025647
  23 H :   -0.027981
  24 H :   -0.027156
  25 H :   -0.004912
  26 H :   -0.004602
  27 H :   -0.023770
  28 H :   -0.057850
  29 H :   -0.064790
  30 H :   -0.011966
  31 H :   -0.030732
  32 H :   -0.021727
  33 H :   -0.035900
  34 H :   -0.154181
  35 H :   -0.023907

  Mayer bond orders larger than 0.100000
B(  0-C ,  1-C ) :   0.9837 B(  0-C , 20-H ) :   0.9724 B(  0-C , 21-H ) :   0.9739
B(  0-C , 22-H ) :   0.9749 B(  1-C ,  2-O ) :   0.8999 B(  1-C , 23-H ) :   0.9741
B(  1-C , 24-H ) :   0.9803 B(  2-O ,  3-C ) :   1.1505 B(  3-C ,  4-O ) :   1.9715
B(  3-C ,  5-C ) :   1.0640 B(  5-C ,  6-C ) :   1.6560 B(  5-C , 12-C ) :   0.9766
B(  6-C ,  7-C ) :   0.9677 B(  6-C ,  8-N ) :   1.1617 B(  7-C , 25-H ) :   0.9606
B(  7-C , 26-H ) :   0.9603 B(  7-C , 27-H ) :   0.9910 B(  8-N ,  9-C ) :   1.1834
B(  8-N , 28-H ) :   0.9481 B(  9-C , 10-S ) :   1.6052 B(  9-C , 11-N ) :   1.3060
B( 11-N , 12-C ) :   0.9857 B( 11-N , 29-H ) :   0.9517 B( 12-C , 13-C ) :   0.9373
B( 12-C , 30-H ) :   1.0031 B( 13-C , 14-C ) :   1.3533 B( 13-C , 19-C ) :   1.3833
B( 14-C , 15-C ) :   1.3937 B( 14-C , 31-H ) :   0.9726 B( 15-C , 16-C ) :   1.3636
B( 15-C , 32-H ) :   0.9709 B( 16-C , 17-C ) :   1.3317 B( 16-C , 33-H ) :   0.9854
B( 17-C , 18-O ) :   1.1096 B( 17-C , 19-C ) :   1.3729 B( 18-O , 34-H ) :   0.9801
B( 19-C , 35-H ) :   0.9584

MP2 TOTAL ENERGY:    -1274.338869014 Eh
FINAL SINGLE POINT ENERGY     -1274.338869013596

DIPOLE MOMENT
-------------
                                X             Y             Z
Electronic contribution:      9.67449       9.88032      10.06601
Nuclear contribution   :    -10.68998     -11.68610     -10.50903
                        -----------------------------------------
Total Dipole Moment    :     -1.01549      -1.80578      -0.44302
                        -----------------------------------------
Magnitude (a.u.)       :      2.11857
Magnitude (Debye)      :      5.38497

Rotational constants in cm-1:     0.010982     0.008783     0.005998
Rotational constants in MHz :   329.234093   263.318875   179.801792

                             ****ORCA TERMINATED NORMALLY****
TOTAL RUN TIME: 0 days 1 hours 38 minutes 16 seconds 41 msec
