                         Program Version 4.2.0 -  RELEASE  -
|  1> ! ri-mp2 cc-pvtz cc-pvtz/c TightSCF  NoKeepInts
|  2>
|  3> %scf
|  4>   MaxCore 4096
|  5> end
|  6> *xyz  0  1
|  7>     C       14.9649695   15.5423729   17.5536387
|  8>     C       15.6774635   15.1912685   16.2334450
|  9>     O       17.0413924   14.8072193   16.4858236
| 10>     C       18.1138429   15.6615680   16.4696019
| 11>     O       19.2206581   15.1701548   16.3496472
| 12>     C       17.9587497   16.8438287   17.3659765
| 13>     C       17.4155611   18.0064974   16.9394505
| 14>     C       16.8864174   18.3106495   15.5551055
| 15>     N       17.3774181   19.1114819   17.7926429
| 16>     C       17.9828230   19.1678596   19.0209755
| 17>     S       17.9552635   20.5426742   19.9393434
| 18>     N       18.6141205   18.0263639   19.4505627
| 19>     C       18.5845304   16.7218101   18.7580519
| 20>     C       17.8955024   15.6492727   19.5996491
| 21>     C       18.3573251   14.3208464   19.5517784
| 22>     C       17.7338981   13.3155364   20.3091398
| 23>     C       16.6374848   13.6392199   21.1256833
| 24>     C       16.1722904   14.9598346   21.1767676
| 25>     O       15.1061091   15.2735343   21.9549255
| 26>     C       16.7941798   15.9590036   20.4211964
| 27>     H       15.1191951   14.7474313   18.2943869
| 28>     H       13.8855640   15.6438543   17.3887530
| 29>     H       15.3261239   16.4849707   17.9772004
| 30>     H       15.1598819   14.3271698   15.7967082
| 31>     H       15.6081285   16.0074642   15.5075758
| 32>     H       17.2201702   17.5749153   14.8132593
| 33>     H       17.2450102   19.2872986   15.2050192
| 34>     H       15.7898612   18.3357955   15.5487555
| 35>     H       16.9340489   19.9645187   17.4900097
| 36>     H       19.0404587   18.0924477   20.3662021
| 37>     H       19.6286560   16.4052410   18.6168719
| 38>     H       19.1968739   14.0637911   18.9089735
| 39>     H       18.0988278   12.2913111   20.2555104
| 40>     H       16.1514309   12.8649943   21.7099287
| 41>     H       14.8449129   14.4685354   22.4270124
| 42>     H       16.4078560   16.9712642   20.4744275
| 43> *
| 44>
| 45>                          ****END OF INPUT****

CARTESIAN COORDINATES (ANGSTROEM)
---------------------------------
  C     14.964970   15.542373   17.553639
  C     15.677463   15.191268   16.233445
  O     17.041392   14.807219   16.485824
  C     18.113843   15.661568   16.469602
  O     19.220658   15.170155   16.349647
  C     17.958750   16.843829   17.365976
  C     17.415561   18.006497   16.939450
  C     16.886417   18.310650   15.555105
  N     17.377418   19.111482   17.792643
  C     17.982823   19.167860   19.020975
  S     17.955263   20.542674   19.939343
  N     18.614120   18.026364   19.450563
  C     18.584530   16.721810   18.758052
  C     17.895502   15.649273   19.599649
  C     18.357325   14.320846   19.551778
  C     17.733898   13.315536   20.309140
  C     16.637485   13.639220   21.125683
  C     16.172290   14.959835   21.176768
  O     15.106109   15.273534   21.954926
  C     16.794180   15.959004   20.421196
  H     15.119195   14.747431   18.294387
  H     13.885564   15.643854   17.388753
  H     15.326124   16.484971   17.977200
  H     15.159882   14.327170   15.796708
  H     15.608128   16.007464   15.507576
  H     17.220170   17.574915   14.813259
  H     17.245010   19.287299   15.205019
  H     15.789861   18.335795   15.548756
  H     16.934049   19.964519   17.490010
  H     19.040459   18.092448   20.366202
  H     19.628656   16.405241   18.616872
  H     19.196874   14.063791   18.908973
  H     18.098828   12.291311   20.255510
  H     16.151431   12.864994   21.709929
  H     14.844913   14.468535   22.427012
  H     16.407856   16.971264   20.474428

 Total Charge           Charge          ....    0
 Multiplicity           Mult            ....    1
 Number of Electrons    NEL             ....  154
 Basis Dimension        Dim             ....  828

ORBITAL ENERGIES
----------------

  NO   OCC          E(Eh)            E(eV)
   0   2.0000     -91.888354     -2500.4092
   1   2.0000     -20.599508      -560.5411
   2   2.0000     -20.596391      -560.4563
   3   2.0000     -20.558236      -559.4181
   4   2.0000     -15.624269      -425.1580
   5   2.0000     -15.610507      -424.7835
   6   2.0000     -11.398394      -310.1661
   7   2.0000     -11.385103      -309.8044
   8   2.0000     -11.324176      -308.1465
   9   2.0000     -11.315582      -307.9126
  10   2.0000     -11.312541      -307.8299
  11   2.0000     -11.307450      -307.6914
  12   2.0000     -11.271669      -306.7177
  13   2.0000     -11.266057      -306.5650
  14   2.0000     -11.260638      -306.4175
  15   2.0000     -11.253151      -306.2138
  16   2.0000     -11.242524      -305.9246
  17   2.0000     -11.238156      -305.8058
  18   2.0000     -11.235462      -305.7325
  19   2.0000     -11.228678      -305.5479
  20   2.0000      -8.893484      -242.0040
  21   2.0000      -6.575082      -178.9171
  22   2.0000      -6.573046      -178.8617
  23   2.0000      -6.572479      -178.8462
  24   2.0000      -1.453572       -39.5537
  25   2.0000      -1.416225       -38.5375
  26   2.0000      -1.362290       -37.0698
  27   2.0000      -1.338474       -36.4217
  28   2.0000      -1.238494       -33.7011
  29   2.0000      -1.157669       -31.5018
  30   2.0000      -1.124076       -30.5877
  31   2.0000      -1.047176       -28.4951
  32   2.0000      -1.038913       -28.2703
  33   2.0000      -1.015756       -27.6401
  34   2.0000      -1.004340       -27.3295
  35   2.0000      -0.988543       -26.8996
  36   2.0000      -0.926681       -25.2163
  37   2.0000      -0.893100       -24.3025
  38   2.0000      -0.853084       -23.2136
  39   2.0000      -0.839141       -22.8342
  40   2.0000      -0.833227       -22.6733
  41   2.0000      -0.830754       -22.6060
  42   2.0000      -0.755086       -20.5469
  43   2.0000      -0.738162       -20.0864
  44   2.0000      -0.729680       -19.8556
  45   2.0000      -0.694419       -18.8961
  46   2.0000      -0.687876       -18.7181
  47   2.0000      -0.681895       -18.5553
  48   2.0000      -0.675793       -18.3893
  49   2.0000      -0.664755       -18.0889
  50   2.0000      -0.651397       -17.7254
  51   2.0000      -0.641287       -17.4503
  52   2.0000      -0.639392       -17.3987
  53   2.0000      -0.614645       -16.7253
  54   2.0000      -0.610007       -16.5991
  55   2.0000      -0.605142       -16.4667
  56   2.0000      -0.601042       -16.3552
  57   2.0000      -0.590088       -16.0571
  58   2.0000      -0.582615       -15.8538
  59   2.0000      -0.573573       -15.6077
  60   2.0000      -0.564518       -15.3613
  61   2.0000      -0.557512       -15.1707
  62   2.0000      -0.541331       -14.7304
  63   2.0000      -0.526922       -14.3383
  64   2.0000      -0.516838       -14.0639
  65   2.0000      -0.511819       -13.9273
  66   2.0000      -0.503041       -13.6884
  67   2.0000      -0.500177       -13.6105
  68   2.0000      -0.486388       -13.2353
  69   2.0000      -0.463697       -12.6178
  70   2.0000      -0.456773       -12.4294
  71   2.0000      -0.452881       -12.3235
  72   2.0000      -0.355418        -9.6714
  73   2.0000      -0.346941        -9.4407
  74   2.0000      -0.328151        -8.9295
  75   2.0000      -0.320872        -8.7314
  76   2.0000      -0.316647        -8.6164
  77   0.0000       0.089482         2.4349
  78   0.0000       0.100603         2.7375
  79   0.0000       0.111951         3.0463
  80   0.0000       0.127908         3.4806
  81   0.0000       0.131117         3.5679

MULLIKEN ATOMIC CHARGES
-----------------------
   0 C :   -0.304186
   1 C :   -0.001648
   2 O :   -0.313894
   3 C :    0.388886
   4 O :   -0.365318
   5 C :   -0.158716
   6 C :    0.124311
   7 C :   -0.333326
   8 N :   -0.134793
   9 C :    0.208410
  10 S :   -0.444103
  11 N :   -0.227932
  12 C :    0.077550
  13 C :    0.049796
  14 C :   -0.202998
  15 C :   -0.133879
  16 C :   -0.278131
  17 C :    0.315838
  18 O :   -0.359840
  19 C :   -0.285570
  20 H :    0.122046
  21 H :    0.110560
  22 H :    0.102371
  23 H :    0.130337
  24 H :    0.089730
  25 H :    0.119678
  26 H :    0.135105
  27 H :    0.123783
  28 H :    0.195081
  29 H :    0.202384
  30 H :    0.169221
  31 H :    0.166081
  32 H :    0.162430
  33 H :    0.131587
  34 H :    0.240942
  35 H :    0.178207
Sum of atomic charges:    0.0000000

LOEWDIN ATOMIC CHARGES
----------------------
   0 C :    0.104347
   1 C :   -0.025344
   2 O :    0.314980
   3 C :   -0.420544
   4 O :    0.139292
   5 C :   -0.075848
   6 C :   -0.111327
   7 C :    0.120901
   8 N :    0.400212
   9 C :   -0.456603
  10 S :   -0.040579
  11 N :    0.398630
  12 C :   -0.041107
  13 C :   -0.040554
  14 C :    0.024267
  15 C :    0.043917
  16 C :   -0.002450
  17 C :   -0.194403
  18 O :    0.394982
  19 C :    0.029432
  20 H :   -0.018945
  21 H :   -0.026848
  22 H :   -0.035976
  23 H :   -0.020329
  24 H :   -0.039807
  25 H :   -0.011856
  26 H :   -0.009931
  27 H :   -0.017436
  28 H :   -0.059369
  29 H :   -0.063567
  30 H :   -0.001705
  31 H :   -0.022411
  32 H :   -0.019079
  33 H :   -0.035358
  34 H :   -0.153843
  35 H :   -0.025742

  Mayer bond orders larger than 0.100000
B(  0-C ,  1-C ) :   0.9609 B(  0-C , 20-H ) :   0.9712 B(  0-C , 21-H ) :   0.9768
B(  0-C , 22-H ) :   0.9722 B(  1-C ,  2-O ) :   0.9135 B(  1-C , 23-H ) :   0.9849
B(  1-C , 24-H ) :   0.9776 B(  2-O ,  3-C ) :   1.1149 B(  3-C ,  4-O ) :   2.0922
B(  3-C ,  5-C ) :   0.9198 B(  5-C ,  6-C ) :   1.7167 B(  5-C , 12-C ) :   0.9548
B(  6-C ,  7-C ) :   0.9379 B(  6-C ,  8-N ) :   1.0986 B(  7-C , 25-H ) :   0.9828
B(  7-C , 26-H ) :   0.9740 B(  7-C , 27-H ) :   0.9660 B(  8-N ,  9-C ) :   1.2004
B(  8-N , 28-H ) :   0.9538 B(  9-C , 10-S ) :   1.6052 B(  9-C , 11-N ) :   1.2850
B( 11-N , 12-C ) :   0.9860 B( 11-N , 29-H ) :   0.9470 B( 12-C , 13-C ) :   0.9506
B( 12-C , 30-H ) :   0.9966 B( 13-C , 14-C ) :   1.3842 B( 13-C , 19-C ) :   1.3355
B( 14-C , 15-C ) :   1.4033 B( 14-C , 31-H ) :   0.9627 B( 15-C , 16-C ) :   1.3567
B( 15-C , 32-H ) :   0.9705 B( 16-C , 17-C ) :   1.3324 B( 16-C , 33-H ) :   0.9851
B( 17-C , 18-O ) :   1.1073 B( 17-C , 19-C ) :   1.3681 B( 18-O , 34-H ) :   0.9798
B( 19-C , 35-H ) :   0.9571

MP2 TOTAL ENERGY:    -1274.316655739 Eh
FINAL SINGLE POINT ENERGY     -1274.316655739358

DIPOLE MOMENT
-------------
                                X             Y             Z
Electronic contribution:      9.40830       6.08878       6.39609
Nuclear contribution   :    -10.90775      -7.27826      -7.30921
                        -----------------------------------------
Total Dipole Moment    :     -1.49946      -1.18947      -0.91312
                        -----------------------------------------
Magnitude (a.u.)       :      2.12062
Magnitude (Debye)      :      5.39018

Rotational constants in cm-1:     0.012198     0.009489     0.006909
Rotational constants in MHz :   365.693792   284.487227   207.136625

                             ****ORCA TERMINATED NORMALLY****
TOTAL RUN TIME: 0 days 1 hours 51 minutes 48 seconds 588 msec
