                         Program Version 5.0.0 -  RELEASE  -
|  1> ! ri-mp2 cc-pvtz cc-pvtz/c TightSCF NoKeepInts
|  2>
|  3> %scf
|  4>   MaxCore 4096
|  5> end
|  6> *xyz  0  1
|  7>     C       14.9784609   14.1372123   15.8783417
|  8>     C       16.1261450   14.1777647   16.9083030
|  9>     O       17.1697569   15.1016640   16.5238671
| 10>     C       16.9230808   16.4402185   16.3827976
| 11>     O       16.0803278   16.8687450   15.6150556
| 12>     C       17.6150539   17.2754556   17.4276138
| 13>     C       17.4522076   18.6215456   17.5067219
| 14>     C       16.5767184   19.4952380   16.6336240
| 15>     N       18.1683467   19.3605326   18.4533104
| 16>     C       19.1580694   18.8567910   19.2540496
| 17>     S       20.0436927   19.8214118   20.2644438
| 18>     N       19.3844603   17.5070597   19.1691022
| 19>     C       18.5503721   16.5544708   18.4146185
| 20>     C       17.7930206   15.6633261   19.3941522
| 21>     C       18.1873561   14.3258250   19.5871160
| 22>     C       17.4890837   13.4965176   20.4808050
| 23>     C       16.3911885   14.0099567   21.1920430
| 24>     C       16.0023949   15.3442443   21.0105310
| 25>     O       14.9442895   15.8436351   21.6970681
| 26>     C       16.6975969   16.1665059   20.1185629
| 27>     H       14.3507527   15.0341669   15.9451341
| 28>     H       14.3342959   13.2685827   16.0596083
| 29>     H       15.3741040   14.0632880   14.8575983
| 30>     H       15.7212875   14.4484291   17.8923008
| 31>     H       16.5615971   13.1739939   16.9930516
| 32>     H       15.5248023   19.1938533   16.7187327
| 33>     H       16.8608791   19.3943037   15.5783353
| 34>     H       16.6378450   20.5590343   16.8912902
| 35>     H       18.0196178   20.3545443   18.5237519
| 36>     H       20.0993812   17.1601839   19.7955151
| 37>     H       19.2279554   15.9214757   17.8242246
| 38>     H       19.0350790   13.9258294   19.0368167
| 39>     H       17.8009857   12.4629726   20.6226069
| 40>     H       15.8499923   13.3740095   21.8851449
| 41>     H       14.6318366   15.1509181   22.2985184
| 42>     H       16.3849657   17.1982941   19.9992428
| 43> *
| 44>
| 45>                          ****END OF INPUT****

CARTESIAN COORDINATES (ANGSTROEM)
---------------------------------
  C     14.978461   14.137212   15.878342
  C     16.126145   14.177765   16.908303
  O     17.169757   15.101664   16.523867
  C     16.923081   16.440219   16.382798
  O     16.080328   16.868745   15.615056
  C     17.615054   17.275456   17.427614
  C     17.452208   18.621546   17.506722
  C     16.576718   19.495238   16.633624
  N     18.168347   19.360533   18.453310
  C     19.158069   18.856791   19.254050
  S     20.043693   19.821412   20.264444
  N     19.384460   17.507060   19.169102
  C     18.550372   16.554471   18.414618
  C     17.793021   15.663326   19.394152
  C     18.187356   14.325825   19.587116
  C     17.489084   13.496518   20.480805
  C     16.391188   14.009957   21.192043
  C     16.002395   15.344244   21.010531
  O     14.944290   15.843635   21.697068
  C     16.697597   16.166506   20.118563
  H     14.350753   15.034167   15.945134
  H     14.334296   13.268583   16.059608
  H     15.374104   14.063288   14.857598
  H     15.721288   14.448429   17.892301
  H     16.561597   13.173994   16.993052
  H     15.524802   19.193853   16.718733
  H     16.860879   19.394304   15.578335
  H     16.637845   20.559034   16.891290
  H     18.019618   20.354544   18.523752
  H     20.099381   17.160184   19.795515
  H     19.227955   15.921476   17.824225
  H     19.035079   13.925829   19.036817
  H     17.800986   12.462973   20.622607
  H     15.849992   13.374009   21.885145
  H     14.631837   15.150918   22.298518
  H     16.384966   17.198294   19.999243

 Total Charge           Charge          ....    0
 Multiplicity           Mult            ....    1
 Number of Electrons    NEL             ....  154
 Basis Dimension        Dim             ....  828

ORBITAL ENERGIES
----------------

  NO   OCC          E(Eh)            E(eV)
   0   2.0000     -91.889885     -2500.4509
   1   2.0000     -20.600964      -560.5807
   2   2.0000     -20.585785      -560.1677
   3   2.0000     -20.545705      -559.0771
   4   2.0000     -15.630257      -425.3209
   5   2.0000     -15.609171      -424.7471
   6   2.0000     -11.394772      -310.0675
   7   2.0000     -11.384795      -309.7960
   8   2.0000     -11.336904      -308.4929
   9   2.0000     -11.318766      -307.9993
  10   2.0000     -11.310450      -307.7730
  11   2.0000     -11.297549      -307.4219
  12   2.0000     -11.263411      -306.4930
  13   2.0000     -11.259985      -306.3998
  14   2.0000     -11.258684      -306.3644
  15   2.0000     -11.253001      -306.2097
  16   2.0000     -11.247651      -306.0641
  17   2.0000     -11.242457      -305.9228
  18   2.0000     -11.242063      -305.9121
  19   2.0000     -11.216823      -305.2253
  20   2.0000      -8.894939      -242.0436
  21   2.0000      -6.576511      -178.9560
  22   2.0000      -6.574509      -178.9015
  23   2.0000      -6.573920      -178.8855
  24   2.0000      -1.444320       -39.3019
  25   2.0000      -1.420648       -38.6578
  26   2.0000      -1.353364       -36.8269
  27   2.0000      -1.341353       -36.5001
  28   2.0000      -1.239901       -33.7394
  29   2.0000      -1.161488       -31.6057
  30   2.0000      -1.120959       -30.5028
  31   2.0000      -1.045381       -28.4463
  32   2.0000      -1.030957       -28.0538
  33   2.0000      -1.019648       -27.7460
  34   2.0000      -0.996536       -27.1171
  35   2.0000      -0.984867       -26.7996
  36   2.0000      -0.924577       -25.1590
  37   2.0000      -0.887971       -24.1629
  38   2.0000      -0.848934       -23.1007
  39   2.0000      -0.841743       -22.9050
  40   2.0000      -0.837967       -22.8022
  41   2.0000      -0.823883       -22.4190
  42   2.0000      -0.750246       -20.4152
  43   2.0000      -0.734293       -19.9811
  44   2.0000      -0.718703       -19.5569
  45   2.0000      -0.699606       -19.0372
  46   2.0000      -0.690158       -18.7802
  47   2.0000      -0.678972       -18.4758
  48   2.0000      -0.668713       -18.1966
  49   2.0000      -0.660299       -17.9677
  50   2.0000      -0.650312       -17.6959
  51   2.0000      -0.647072       -17.6077
  52   2.0000      -0.637374       -17.3438
  53   2.0000      -0.611351       -16.6357
  54   2.0000      -0.605422       -16.4744
  55   2.0000      -0.600982       -16.3535
  56   2.0000      -0.596455       -16.2304
  57   2.0000      -0.581163       -15.8143
  58   2.0000      -0.573912       -15.6169
  59   2.0000      -0.571036       -15.5387
  60   2.0000      -0.563092       -15.3225
  61   2.0000      -0.539841       -14.6898
  62   2.0000      -0.534641       -14.5483
  63   2.0000      -0.527967       -14.3667
  64   2.0000      -0.519881       -14.1467
  65   2.0000      -0.514806       -14.0086
  66   2.0000      -0.503477       -13.7003
  67   2.0000      -0.496471       -13.5096
  68   2.0000      -0.483100       -13.1458
  69   2.0000      -0.463460       -12.6114
  70   2.0000      -0.454820       -12.3763
  71   2.0000      -0.440369       -11.9830
  72   2.0000      -0.355830        -9.6826
  73   2.0000      -0.353519        -9.6198
  74   2.0000      -0.329909        -8.9773
  75   2.0000      -0.325916        -8.8686
  76   2.0000      -0.317285        -8.6338
  77   0.0000       0.071473         1.9449
  78   0.0000       0.101589         2.7644
  79   0.0000       0.123252         3.3539
  80   0.0000       0.129777         3.5314
  81   0.0000       0.134316         3.6549

MULLIKEN ATOMIC CHARGES
-----------------------
   0 C :   -0.272252
   1 C :    0.032032
   2 O :   -0.388149
   3 C :    0.493211
   4 O :   -0.415575
   5 C :   -0.262240
   6 C :    0.162009
   7 C :   -0.269579
   8 N :   -0.123735
   9 C :    0.213984
  10 S :   -0.439296
  11 N :   -0.205950
  12 C :    0.067587
  13 C :    0.015726
  14 C :   -0.156524
  15 C :   -0.133996
  16 C :   -0.277097
  17 C :    0.309715
  18 O :   -0.356172
  19 C :   -0.251640
  20 H :    0.106288
  21 H :    0.090974
  22 H :    0.102404
  23 H :    0.099584
  24 H :    0.103287
  25 H :    0.130147
  26 H :    0.132870
  27 H :    0.095298
  28 H :    0.197787
  29 H :    0.194478
  30 H :    0.150325
  31 H :    0.148651
  32 H :    0.162982
  33 H :    0.133182
  34 H :    0.241617
  35 H :    0.168064
Sum of atomic charges:    0.0000000

LOEWDIN ATOMIC CHARGES
----------------------
   0 C :    0.104128
   1 C :   -0.018363
   2 O :    0.285726
   3 C :   -0.413703
   4 O :    0.118083
   5 C :   -0.097902
   6 C :   -0.058039
   7 C :    0.131182
   8 N :    0.406916
   9 C :   -0.456256
  10 S :   -0.034649
  11 N :    0.396298
  12 C :   -0.052740
  13 C :   -0.038190
  14 C :    0.015472
  15 C :    0.041141
  16 C :   -0.002144
  17 C :   -0.190808
  18 O :    0.396483
  19 C :    0.029493
  20 H :   -0.028676
  21 H :   -0.030304
  22 H :   -0.023998
  23 H :   -0.030588
  24 H :   -0.023934
  25 H :   -0.005256
  26 H :   -0.003434
  27 H :   -0.023321
  28 H :   -0.057423
  29 H :   -0.064964
  30 H :   -0.009097
  31 H :   -0.029370
  32 H :   -0.020203
  33 H :   -0.034680
  34 H :   -0.152863
  35 H :   -0.024020

  Mayer bond orders larger than 0.100000
B(  0-C ,  1-C ) :   0.9841 B(  0-C , 20-H ) :   0.9724 B(  0-C , 21-H ) :   0.9763
B(  0-C , 22-H ) :   0.9769 B(  1-C ,  2-O ) :   0.8863 B(  1-C , 23-H ) :   0.9672
B(  1-C , 24-H ) :   0.9813 B(  2-O ,  3-C ) :   1.0889 B(  3-C ,  4-O ) :   2.0003
B(  3-C ,  5-C ) :   1.0783 B(  5-C ,  6-C ) :   1.6488 B(  5-C , 12-C ) :   0.9709
B(  6-C ,  7-C ) :   0.9668 B(  6-C ,  8-N ) :   1.1603 B(  7-C , 25-H ) :   0.9606
B(  7-C , 26-H ) :   0.9593 B(  7-C , 27-H ) :   0.9906 B(  8-N ,  9-C ) :   1.1821
B(  8-N , 28-H ) :   0.9476 B(  9-C , 10-S ) :   1.6070 B(  9-C , 11-N ) :   1.3068
B( 11-N , 12-C ) :   0.9744 B( 11-N , 29-H ) :   0.9523 B( 12-C , 13-C ) :   0.9413
B( 12-C , 30-H ) :   1.0009 B( 13-C , 14-C ) :   1.3536 B( 13-C , 19-C ) :   1.3800
B( 14-C , 15-C ) :   1.3906 B( 14-C , 31-H ) :   0.9752 B( 15-C , 16-C ) :   1.3638
B( 15-C , 32-H ) :   0.9702 B( 16-C , 17-C ) :   1.3294 B( 16-C , 33-H ) :   0.9841
B( 17-C , 18-O ) :   1.1138 B( 17-C , 19-C ) :   1.3714 B( 18-O , 34-H ) :   0.9790
B( 19-C , 35-H ) :   0.9577

MP2 TOTAL ENERGY:    -1274.334823809 Eh
FINAL SINGLE POINT ENERGY     -1274.334823808603

DIPOLE MOMENT
-------------
                                X             Y             Z
Electronic contribution:     10.53234       9.65096       7.36858
Nuclear contribution   :    -11.52877     -11.25760      -7.29656
                        -----------------------------------------
Total Dipole Moment    :     -0.99643      -1.60664       0.07203
                        -----------------------------------------
Magnitude (a.u.)       :      1.89191
Magnitude (Debye)      :      4.80886

Rotational constants in cm-1:     0.012154     0.008850     0.006308
Rotational constants in MHz :   364.372323   265.304129   189.105817

                             ****ORCA TERMINATED NORMALLY****
TOTAL RUN TIME: 0 days 1 hours 49 minutes 45 seconds 729 msec
