                         Program Version 4.2.0 -  RELEASE  -
|  1> ! ri-mp2 cc-pvtz cc-pvtz/c TightSCF  NoKeepInts
|  2>
|  3> %scf
|  4>   MaxCore 4096
|  5> end
|  6> *xyz  0  1
|  7>     C       14.9006884   14.1338312   16.2100135
|  8>     C       16.1200729   14.6485002   16.9921283
|  9>     O       17.0363373   15.1913492   16.0272292
| 10>     C       17.3904423   16.5129556   16.0024698
| 11>     O       17.4034196   17.1046615   14.9393254
| 12>     C       17.6422782   17.2060718   17.3149584
| 13>     C       17.3199379   18.5133978   17.4784687
| 14>     C       16.4965397   19.3699700   16.5417932
| 15>     N       17.8171972   19.2241696   18.5748394
| 16>     C       18.8576912   18.7922074   19.3559545
| 17>     S       19.5756075   19.7684928   20.4812751
| 18>     N       19.2870969   17.5060563   19.1377161
| 19>     C       18.5366970   16.5050069   18.3565332
| 20>     C       17.8043076   15.5991573   19.3407621
| 21>     C       18.2522669   14.2815054   19.5540477
| 22>     C       17.5911131   13.4399399   20.4642984
| 23>     C       16.4800947   13.9222666   21.1766775
| 24>     C       16.0434145   15.2395309   20.9827237
| 25>     O       14.9734441   15.7104203   21.6706176
| 26>     C       16.7014839   16.0742717   20.0743394
| 27>     H       14.4211925   14.9518645   15.6576761
| 28>     H       14.1605098   13.6985640   16.8923286
| 29>     H       15.2012189   13.3619932   15.4903120
| 30>     H       15.7743385   15.4077139   17.7026780
| 31>     H       16.5822058   13.8159258   17.5362918
| 32>     H       15.6562317   18.8011556   16.1243902
| 33>     H       17.1099722   19.7097975   15.6969373
| 34>     H       16.0791372   20.2548278   17.0365321
| 35>     H       17.5344503   20.1807180   18.7190186
| 36>     H       20.0487483   17.2105299   19.7350080
| 37>     H       19.2655927   15.8944380   17.8044693
| 38>     H       19.1141167   13.9050743   19.0085790
| 39>     H       17.9427247   12.4209231   20.6192642
| 40>     H       15.9674716   13.2760722   21.8821131
| 41>     H       14.7054100   15.0247549   22.3013640
| 42>     H       16.3535484   17.0938849   19.9508665
| 43> *
| 44>
| 45>                          ****END OF INPUT****

CARTESIAN COORDINATES (ANGSTROEM)
---------------------------------
  C     14.900688   14.133831   16.210013
  C     16.120073   14.648500   16.992128
  O     17.036337   15.191349   16.027229
  C     17.390442   16.512956   16.002470
  O     17.403420   17.104661   14.939325
  C     17.642278   17.206072   17.314958
  C     17.319938   18.513398   17.478469
  C     16.496540   19.369970   16.541793
  N     17.817197   19.224170   18.574839
  C     18.857691   18.792207   19.355954
  S     19.575608   19.768493   20.481275
  N     19.287097   17.506056   19.137716
  C     18.536697   16.505007   18.356533
  C     17.804308   15.599157   19.340762
  C     18.252267   14.281505   19.554048
  C     17.591113   13.439940   20.464298
  C     16.480095   13.922267   21.176678
  C     16.043415   15.239531   20.982724
  O     14.973444   15.710420   21.670618
  C     16.701484   16.074272   20.074339
  H     14.421193   14.951864   15.657676
  H     14.160510   13.698564   16.892329
  H     15.201219   13.361993   15.490312
  H     15.774338   15.407714   17.702678
  H     16.582206   13.815926   17.536292
  H     15.656232   18.801156   16.124390
  H     17.109972   19.709798   15.696937
  H     16.079137   20.254828   17.036532
  H     17.534450   20.180718   18.719019
  H     20.048748   17.210530   19.735008
  H     19.265593   15.894438   17.804469
  H     19.114117   13.905074   19.008579
  H     17.942725   12.420923   20.619264
  H     15.967472   13.276072   21.882113
  H     14.705410   15.024755   22.301364
  H     16.353548   17.093885   19.950867

 Total Charge           Charge          ....    0
 Multiplicity           Mult            ....    1
 Number of Electrons    NEL             ....  154
 Basis Dimension        Dim             ....  828

ORBITAL ENERGIES
----------------

  NO   OCC          E(Eh)            E(eV)
   0   2.0000     -91.891954     -2500.5072
   1   2.0000     -20.605158      -560.6948
   2   2.0000     -20.592670      -560.3550
   3   2.0000     -20.545222      -559.0639
   4   2.0000     -15.630924      -425.3391
   5   2.0000     -15.611840      -424.8198
   6   2.0000     -11.393614      -310.0360
   7   2.0000     -11.386716      -309.8483
   8   2.0000     -11.334808      -308.4358
   9   2.0000     -11.323464      -308.1271
  10   2.0000     -11.319049      -308.0070
  11   2.0000     -11.295285      -307.3603
  12   2.0000     -11.268604      -306.6343
  13   2.0000     -11.264876      -306.5329
  14   2.0000     -11.260845      -306.4232
  15   2.0000     -11.255225      -306.2702
  16   2.0000     -11.252503      -306.1962
  17   2.0000     -11.247407      -306.0575
  18   2.0000     -11.246243      -306.0258
  19   2.0000     -11.225199      -305.4532
  20   2.0000      -8.896954      -242.0984
  21   2.0000      -6.578514      -179.0105
  22   2.0000      -6.576526      -178.9564
  23   2.0000      -6.575925      -178.9400
  24   2.0000      -1.445509       -39.3343
  25   2.0000      -1.424825       -38.7715
  26   2.0000      -1.355471       -36.8842
  27   2.0000      -1.343194       -36.5502
  28   2.0000      -1.242408       -33.8076
  29   2.0000      -1.165926       -31.7265
  30   2.0000      -1.123281       -30.5660
  31   2.0000      -1.050084       -28.5742
  32   2.0000      -1.033842       -28.1323
  33   2.0000      -1.024796       -27.8861
  34   2.0000      -1.001889       -27.2628
  35   2.0000      -0.988127       -26.8883
  36   2.0000      -0.928603       -25.2686
  37   2.0000      -0.880346       -23.9554
  38   2.0000      -0.852921       -23.2092
  39   2.0000      -0.848342       -23.0846
  40   2.0000      -0.842693       -22.9309
  41   2.0000      -0.835020       -22.7220
  42   2.0000      -0.760055       -20.6822
  43   2.0000      -0.738801       -20.1038
  44   2.0000      -0.719932       -19.5903
  45   2.0000      -0.704965       -19.1831
  46   2.0000      -0.695114       -18.9150
  47   2.0000      -0.678370       -18.4594
  48   2.0000      -0.673847       -18.3363
  49   2.0000      -0.669492       -18.2178
  50   2.0000      -0.653910       -17.7938
  51   2.0000      -0.647334       -17.6149
  52   2.0000      -0.640671       -17.4335
  53   2.0000      -0.615803       -16.7569
  54   2.0000      -0.608872       -16.5682
  55   2.0000      -0.603750       -16.4289
  56   2.0000      -0.588888       -16.0245
  57   2.0000      -0.585089       -15.9211
  58   2.0000      -0.576711       -15.6931
  59   2.0000      -0.572768       -15.5858
  60   2.0000      -0.562094       -15.2953
  61   2.0000      -0.549915       -14.9640
  62   2.0000      -0.542664       -14.7666
  63   2.0000      -0.533416       -14.5150
  64   2.0000      -0.522404       -14.2153
  65   2.0000      -0.517148       -14.0723
  66   2.0000      -0.508864       -13.8469
  67   2.0000      -0.503399       -13.6982
  68   2.0000      -0.484554       -13.1854
  69   2.0000      -0.466740       -12.7006
  70   2.0000      -0.449978       -12.2445
  71   2.0000      -0.446549       -12.1512
  72   2.0000      -0.360778        -9.8173
  73   2.0000      -0.356089        -9.6897
  74   2.0000      -0.333629        -9.0785
  75   2.0000      -0.329126        -8.9560
  76   2.0000      -0.319006        -8.6806
  77   0.0000       0.073037         1.9874
  78   0.0000       0.098032         2.6676
  79   0.0000       0.117817         3.2060
  80   0.0000       0.126701         3.4477
  81   0.0000       0.127933         3.4812

MULLIKEN ATOMIC CHARGES
-----------------------
   0 C :   -0.254854
   1 C :    0.023749
   2 O :   -0.324936
   3 C :    0.418786
   4 O :   -0.377844
   5 C :   -0.263122
   6 C :    0.153696
   7 C :   -0.273627
   8 N :   -0.130077
   9 C :    0.209863
  10 S :   -0.433373
  11 N :   -0.193130
  12 C :    0.047191
  13 C :    0.042582
  14 C :   -0.211879
  15 C :   -0.125117
  16 C :   -0.272899
  17 C :    0.309655
  18 O :   -0.354830
  19 C :   -0.250251
  20 H :    0.095141
  21 H :    0.087131
  22 H :    0.101708
  23 H :    0.097520
  24 H :    0.107762
  25 H :    0.120009
  26 H :    0.143375
  27 H :    0.094609
  28 H :    0.198944
  29 H :    0.190546
  30 H :    0.150444
  31 H :    0.155878
  32 H :    0.166018
  33 H :    0.134727
  34 H :    0.242512
  35 H :    0.174092
Sum of atomic charges:   -0.0000000

LOEWDIN ATOMIC CHARGES
----------------------
   0 C :    0.106984
   1 C :   -0.026613
   2 O :    0.304841
   3 C :   -0.424940
   4 O :    0.122849
   5 C :   -0.097723
   6 C :   -0.070925
   7 C :    0.129591
   8 N :    0.405981
   9 C :   -0.455432
  10 S :   -0.030337
  11 N :    0.396312
  12 C :   -0.050811
  13 C :   -0.039921
  14 C :    0.010874
  15 C :    0.042821
  16 C :    0.000930
  17 C :   -0.190078
  18 O :    0.397194
  19 C :    0.032773
  20 H :   -0.026622
  21 H :   -0.027838
  22 H :   -0.025511
  23 H :   -0.036178
  24 H :   -0.029065
  25 H :   -0.007778
  26 H :   -0.002133
  27 H :   -0.022114
  28 H :   -0.057190
  29 H :   -0.065738
  30 H :   -0.004820
  31 H :   -0.030022
  32 H :   -0.019009
  33 H :   -0.033426
  34 H :   -0.151744
  35 H :   -0.025184

  Mayer bond orders larger than 0.100000
B(  0-C ,  1-C ) :   0.9764 B(  0-C , 20-H ) :   0.9773 B(  0-C , 21-H ) :   0.9773
B(  0-C , 22-H ) :   0.9812 B(  1-C ,  2-O ) :   0.8881 B(  1-C , 23-H ) :   0.9618
B(  1-C , 24-H ) :   0.9753 B(  2-O ,  3-C ) :   1.1866 B(  3-C ,  4-O ) :   2.0893
B(  3-C ,  5-C ) :   0.9645 B(  5-C ,  6-C ) :   1.6820 B(  5-C , 12-C ) :   0.9690
B(  6-C ,  7-C ) :   0.9657 B(  6-C ,  8-N ) :   1.1394 B(  7-C , 25-H ) :   0.9723
B(  7-C , 26-H ) :   0.9546 B(  7-C , 27-H ) :   0.9839 B(  8-N ,  9-C ) :   1.1819
B(  8-N , 28-H ) :   0.9498 B(  9-C , 10-S ) :   1.6194 B(  9-C , 11-N ) :   1.2924
B( 11-N , 12-C ) :   0.9736 B( 11-N , 29-H ) :   0.9544 B( 12-C , 13-C ) :   0.9558
B( 12-C , 30-H ) :   1.0036 B( 13-C , 14-C ) :   1.3549 B( 13-C , 19-C ) :   1.3548
B( 14-C , 15-C ) :   1.3817 B( 14-C , 31-H ) :   0.9743 B( 15-C , 16-C ) :   1.3732
B( 15-C , 32-H ) :   0.9688 B( 16-C , 17-C ) :   1.3230 B( 16-C , 33-H ) :   0.9830
B( 17-C , 18-O ) :   1.1164 B( 17-C , 19-C ) :   1.3808 B( 18-O , 34-H ) :   0.9785
B( 19-C , 35-H ) :   0.9551

MP2 TOTAL ENERGY:    -1274.331245720 Eh
FINAL SINGLE POINT ENERGY     -1274.331245719889

DIPOLE MOMENT
-------------
                                X             Y             Z
Electronic contribution:     10.64958       9.10094       6.12793
Nuclear contribution   :    -11.97074     -10.73689      -5.44800
                        -----------------------------------------
Total Dipole Moment    :     -1.32116      -1.63595       0.67993
                        -----------------------------------------
Magnitude (a.u.)       :      2.21001
Magnitude (Debye)      :      5.61739

Rotational constants in cm-1:     0.011301     0.009642     0.006400
Rotational constants in MHz :   338.802753   289.059107   191.862533

                             ****ORCA TERMINATED NORMALLY****
TOTAL RUN TIME: 0 days 1 hours 46 minutes 58 seconds 974 msec
