                         Program Version 5.0.0 -  RELEASE  -
|  1> ! ri-mp2 cc-pvtz cc-pvtz/c TightSCF NoKeepInts
|  2>
|  3> %scf
|  4>   MaxCore 4096
|  5> end
|  6> *xyz  0  1
|  7>     C       14.4231981   15.9659952   16.5299054
|  8>     C       15.6082421   15.0896068   16.9727014
|  9>     O       16.7102470   15.2292061   16.0493286
| 10>     C       17.9266529   15.7386034   16.4271348
| 11>     O       18.9281823   15.0608245   16.2887810
| 12>     C       17.8903408   16.8688199   17.4037551
| 13>     C       17.2855485   18.0471947   17.1248245
| 14>     C       16.6293765   18.4552522   15.8223178
| 15>     N       17.3639497   19.1013704   18.0375945
| 16>     C       18.1286642   19.0933685   19.1750138
| 17>     S       18.2289115   20.4147623   20.1638345
| 18>     N       18.8113656   17.9342130   19.4509205
| 19>     C       18.6908256   16.6724325   18.6934352
| 20>     C       18.0877379   15.5629858   19.5508744
| 21>     C       18.5896003   14.2517439   19.4595630
| 22>     C       18.0284349   13.2140932   20.2220657
| 23>     C       16.9534268   13.4876811   21.0843725
| 24>     C       16.4468821   14.7908044   21.1761995
| 25>     O       15.4002776   15.0561477   21.9973994
| 26>     C       17.0061317   15.8218555   20.4144948
| 27>     H       14.5600808   17.0056898   16.8413901
| 28>     H       13.4965255   15.6063952   16.9939149
| 29>     H       14.2933500   15.9304154   15.4408851
| 30>     H       15.8902717   15.3249601   18.0047729
| 31>     H       15.2869278   14.0399052   16.9590105
| 32>     H       16.4526808   17.6082986   15.1499154
| 33>     H       17.2692845   19.1625095   15.2794707
| 34>     H       15.6634197   18.9449544   15.9953251
| 35>     H       16.8929437   19.9702899   17.8396812
| 36>     H       19.3562053   17.9527933   20.3038886
| 37>     H       19.7066812   16.3611801   18.4076716
| 38>     H       19.4120647   14.0331815   18.7812007
| 39>     H       18.4252806   12.2035797   20.1384283
| 40>     H       16.5162142   12.6882731   21.6736722
| 41>     H       15.1954056   14.2414873   22.4810619
| 42>     H       16.5916675   16.8211257   20.4991946
| 43> *
| 44>
| 45>                          ****END OF INPUT****

CARTESIAN COORDINATES (ANGSTROEM)
---------------------------------
  C     14.423198   15.965995   16.529905
  C     15.608242   15.089607   16.972701
  O     16.710247   15.229206   16.049329
  C     17.926653   15.738603   16.427135
  O     18.928182   15.060825   16.288781
  C     17.890341   16.868820   17.403755
  C     17.285549   18.047195   17.124824
  C     16.629376   18.455252   15.822318
  N     17.363950   19.101370   18.037594
  C     18.128664   19.093369   19.175014
  S     18.228911   20.414762   20.163835
  N     18.811366   17.934213   19.450920
  C     18.690826   16.672432   18.693435
  C     18.087738   15.562986   19.550874
  C     18.589600   14.251744   19.459563
  C     18.028435   13.214093   20.222066
  C     16.953427   13.487681   21.084373
  C     16.446882   14.790804   21.176199
  O     15.400278   15.056148   21.997399
  C     17.006132   15.821855   20.414495
  H     14.560081   17.005690   16.841390
  H     13.496525   15.606395   16.993915
  H     14.293350   15.930415   15.440885
  H     15.890272   15.324960   18.004773
  H     15.286928   14.039905   16.959011
  H     16.452681   17.608299   15.149915
  H     17.269285   19.162509   15.279471
  H     15.663420   18.944954   15.995325
  H     16.892944   19.970290   17.839681
  H     19.356205   17.952793   20.303889
  H     19.706681   16.361180   18.407672
  H     19.412065   14.033181   18.781201
  H     18.425281   12.203580   20.138428
  H     16.516214   12.688273   21.673672
  H     15.195406   14.241487   22.481062
  H     16.591667   16.821126   20.499195

 Total Charge           Charge          ....    0
 Multiplicity           Mult            ....    1
 Number of Electrons    NEL             ....  154
 Basis Dimension        Dim             ....  828

ORBITAL ENERGIES
----------------

  NO   OCC          E(Eh)            E(eV)
   0   2.0000     -91.890950     -2500.4799
   1   2.0000     -20.600508      -560.5683
   2   2.0000     -20.590626      -560.2994
   3   2.0000     -20.553722      -559.2952
   4   2.0000     -15.628254      -425.2664
   5   2.0000     -15.611963      -424.8231
   6   2.0000     -11.397047      -310.1294
   7   2.0000     -11.387394      -309.8667
   8   2.0000     -11.332357      -308.3691
   9   2.0000     -11.317840      -307.9741
  10   2.0000     -11.314913      -307.8944
  11   2.0000     -11.301508      -307.5297
  12   2.0000     -11.265222      -306.5423
  13   2.0000     -11.265032      -306.5371
  14   2.0000     -11.264448      -306.5212
  15   2.0000     -11.257893      -306.3429
  16   2.0000     -11.246963      -306.0454
  17   2.0000     -11.242856      -305.9337
  18   2.0000     -11.239633      -305.8460
  19   2.0000     -11.234620      -305.7095
  20   2.0000      -8.896047      -242.0738
  21   2.0000      -6.577631      -178.9864
  22   2.0000      -6.575611      -178.9315
  23   2.0000      -6.575030      -178.9157
  24   2.0000      -1.446816       -39.3699
  25   2.0000      -1.420336       -38.6493
  26   2.0000      -1.357710       -36.9452
  27   2.0000      -1.341475       -36.5034
  28   2.0000      -1.240881       -33.7661
  29   2.0000      -1.161924       -31.6176
  30   2.0000      -1.125623       -30.6298
  31   2.0000      -1.048944       -28.5432
  32   2.0000      -1.038523       -28.2597
  33   2.0000      -1.019645       -27.7459
  34   2.0000      -1.004717       -27.3397
  35   2.0000      -0.990167       -26.9438
  36   2.0000      -0.928098       -25.2548
  37   2.0000      -0.887389       -24.1471
  38   2.0000      -0.853165       -23.2158
  39   2.0000      -0.842734       -22.9320
  40   2.0000      -0.837560       -22.7912
  41   2.0000      -0.835260       -22.7286
  42   2.0000      -0.756692       -20.5906
  43   2.0000      -0.736243       -20.0342
  44   2.0000      -0.732345       -19.9281
  45   2.0000      -0.698395       -19.0043
  46   2.0000      -0.689120       -18.7519
  47   2.0000      -0.680911       -18.5285
  48   2.0000      -0.676285       -18.4027
  49   2.0000      -0.663596       -18.0574
  50   2.0000      -0.654043       -17.7974
  51   2.0000      -0.640098       -17.4179
  52   2.0000      -0.631241       -17.1769
  53   2.0000      -0.622840       -16.9483
  54   2.0000      -0.609998       -16.5989
  55   2.0000      -0.607622       -16.5342
  56   2.0000      -0.604117       -16.4389
  57   2.0000      -0.585082       -15.9209
  58   2.0000      -0.578161       -15.7326
  59   2.0000      -0.575063       -15.6483
  60   2.0000      -0.565985       -15.4012
  61   2.0000      -0.558099       -15.1866
  62   2.0000      -0.541240       -14.7279
  63   2.0000      -0.530984       -14.4488
  64   2.0000      -0.523611       -14.2482
  65   2.0000      -0.515825       -14.0363
  66   2.0000      -0.503114       -13.6904
  67   2.0000      -0.495191       -13.4748
  68   2.0000      -0.487218       -13.2579
  69   2.0000      -0.469270       -12.7695
  70   2.0000      -0.457457       -12.4480
  71   2.0000      -0.449240       -12.2244
  72   2.0000      -0.358427        -9.7533
  73   2.0000      -0.352379        -9.5887
  74   2.0000      -0.330503        -8.9934
  75   2.0000      -0.325588        -8.8597
  76   2.0000      -0.320013        -8.7080
  77   0.0000       0.081435         2.2160
  78   0.0000       0.102470         2.7883
  79   0.0000       0.116934         3.1819
  80   0.0000       0.127878         3.4797
  81   0.0000       0.129370         3.5203

MULLIKEN ATOMIC CHARGES
-----------------------
   0 C :   -0.302760
   1 C :    0.024606
   2 O :   -0.342786
   3 C :    0.423094
   4 O :   -0.374938
   5 C :   -0.206834
   6 C :    0.143604
   7 C :   -0.336853
   8 N :   -0.133414
   9 C :    0.199225
  10 S :   -0.438696
  11 N :   -0.218029
  12 C :    0.078364
  13 C :    0.008516
  14 C :   -0.195842
  15 C :   -0.135778
  16 C :   -0.273074
  17 C :    0.314679
  18 O :   -0.356644
  19 C :   -0.266228
  20 H :    0.087847
  21 H :    0.115689
  22 H :    0.110211
  23 H :    0.104507
  24 H :    0.123168
  25 H :    0.132247
  26 H :    0.150668
  27 H :    0.113740
  28 H :    0.196956
  29 H :    0.199617
  30 H :    0.164657
  31 H :    0.173399
  32 H :    0.164694
  33 H :    0.133256
  34 H :    0.241428
  35 H :    0.177702
Sum of atomic charges:    0.0000000

LOEWDIN ATOMIC CHARGES
----------------------
   0 C :    0.105073
   1 C :   -0.013484
   2 O :    0.289713
   3 C :   -0.415884
   4 O :    0.130424
   5 C :   -0.085321
   6 C :   -0.093682
   7 C :    0.123979
   8 N :    0.403245
   9 C :   -0.456998
  10 S :   -0.036071
  11 N :    0.397196
  12 C :   -0.043955
  13 C :   -0.044993
  14 C :    0.020716
  15 C :    0.045364
  16 C :   -0.000207
  17 C :   -0.194103
  18 O :    0.395454
  19 C :    0.025094
  20 H :   -0.034529
  21 H :   -0.022199
  22 H :   -0.024648
  23 H :   -0.034027
  24 H :   -0.023093
  25 H :   -0.010783
  26 H :   -0.008938
  27 H :   -0.018699
  28 H :   -0.057193
  29 H :   -0.063664
  30 H :   -0.002498
  31 H :   -0.021642
  32 H :   -0.018147
  33 H :   -0.034446
  34 H :   -0.152840
  35 H :   -0.024215

  Mayer bond orders larger than 0.100000
B(  0-C ,  1-C ) :   0.9672 B(  0-C , 20-H ) :   0.9764 B(  0-C , 21-H ) :   0.9795
B(  0-C , 22-H ) :   0.9747 B(  1-C ,  2-O ) :   0.8967 B(  1-C , 23-H ) :   0.9598
B(  1-C , 24-H ) :   0.9869 B(  2-O ,  3-C ) :   1.1559 B(  3-C ,  4-O ) :   2.0927
B(  3-C ,  5-C ) :   0.9308 B(  5-C ,  6-C ) :   1.6751 B(  5-C , 12-C ) :   0.9520
B(  6-C ,  7-C ) :   0.9542 B(  6-C ,  8-N ) :   1.1150 B(  7-C , 25-H ) :   0.9751
B(  7-C , 26-H ) :   0.9637 B(  7-C , 27-H ) :   0.9704 B(  8-N ,  9-C ) :   1.1941
B(  8-N , 28-H ) :   0.9511 B(  9-C , 10-S ) :   1.6130 B(  9-C , 11-N ) :   1.2890
B( 11-N , 12-C ) :   0.9928 B( 11-N , 29-H ) :   0.9488 B( 12-C , 13-C ) :   0.9500
B( 12-C , 30-H ) :   0.9977 B( 13-C , 14-C ) :   1.3906 B( 13-C , 19-C ) :   1.3395
B( 14-C , 15-C ) :   1.3986 B( 14-C , 31-H ) :   0.9584 B( 15-C , 16-C ) :   1.3631
B( 15-C , 32-H ) :   0.9697 B( 16-C , 17-C ) :   1.3298 B( 16-C , 33-H ) :   0.9840
B( 17-C , 18-O ) :   1.1116 B( 17-C , 19-C ) :   1.3681 B( 18-O , 34-H ) :   0.9792
B( 19-C , 35-H ) :   0.9595

MP2 TOTAL ENERGY:    -1274.328028620 Eh
FINAL SINGLE POINT ENERGY     -1274.328028619750

DIPOLE MOMENT
-------------
                                X             Y             Z
Electronic contribution:     10.75239       5.45629       7.18219
Nuclear contribution   :    -12.12768      -6.60329      -7.47109
                        -----------------------------------------
Total Dipole Moment    :     -1.37529      -1.14700      -0.28890
                        -----------------------------------------
Magnitude (a.u.)       :      1.81397
Magnitude (Debye)      :      4.61074

Rotational constants in cm-1:     0.011511     0.009382     0.006879
Rotational constants in MHz :   345.097839   281.269410   206.237573

                             ****ORCA TERMINATED NORMALLY****
TOTAL RUN TIME: 0 days 1 hours 45 minutes 14 seconds 814 msec
