                         Program Version 4.2.0 -  RELEASE  -
|  1> ! ri-mp2 cc-pvtz cc-pvtz/c TightSCF  NoKeepInts
|  2>
|  3> %scf
|  4>   MaxCore 4096
|  5> end
|  6> *xyz  0  1
|  7>     C       14.1875849   15.0925401   16.3082714
|  8>     C       15.6494734   14.7655547   16.6547980
|  9>     O       16.4780929   15.7481739   16.0138955
| 10>     C       17.7640787   15.8410224   16.4524792
| 11>     O       18.4571394   14.8414937   16.5404921
| 12>     C       17.9348446   16.9859483   17.4031320
| 13>     C       17.3465699   18.1954808   17.2304033
| 14>     C       16.4723951   18.6318393   16.0734593
| 15>     N       17.5882170   19.2232070   18.1468146
| 16>     C       18.4977390   19.1592211   19.1700775
| 17>     S       18.8040879   20.4594741   20.1450919
| 18>     N       19.1411726   17.9592556   19.3453112
| 19>     C       18.8228999   16.7141732   18.6201282
| 20>     C       18.1566614   15.7049948   19.5515257
| 21>     C       18.6816168   14.4070046   19.6897705
| 22>     C       18.0596360   13.4683541   20.5299238
| 23>     C       16.9008104   13.8291431   21.2381432
| 24>     C       16.3721070   15.1195385   21.1001053
| 25>     O       15.2470139   15.4679902   21.7735542
| 26>     C       16.9929474   16.0513343   20.2625320
| 27>     H       13.5118957   14.3605948   16.7672797
| 28>     H       14.0333758   15.0686859   15.2222755
| 29>     H       13.9152939   16.0889356   16.6772064
| 30>     H       15.7821101   14.8020977   17.7451851
| 31>     H       15.9134529   13.7579928   16.3060203
| 32>     H       16.8545143   18.2415355   15.1218507
| 33>     H       16.4231623   19.7231108   15.9746703
| 34>     H       15.4485912   18.2588032   16.2001025
| 35>     H       17.1265698   20.1117873   18.0342786
| 36>     H       19.7849393   17.9314370   20.1256258
| 37>     H       19.7682388   16.2837478   18.2590198
| 38>     H       19.5662607   14.1191608   19.1266610
| 39>     H       18.4731819   12.4656802   20.6234930
| 40>     H       16.4161819   13.1063119   21.8860887
| 41>     H       15.0063514   14.7213595   22.3426390
| 42>     H       16.5677919   17.0450151   20.1716948
| 43> *
| 44>
| 45>                          ****END OF INPUT****

CARTESIAN COORDINATES (ANGSTROEM)
---------------------------------
  C     14.187585   15.092540   16.308271
  C     15.649473   14.765555   16.654798
  O     16.478093   15.748174   16.013896
  C     17.764079   15.841022   16.452479
  O     18.457139   14.841494   16.540492
  C     17.934845   16.985948   17.403132
  C     17.346570   18.195481   17.230403
  C     16.472395   18.631839   16.073459
  N     17.588217   19.223207   18.146815
  C     18.497739   19.159221   19.170078
  S     18.804088   20.459474   20.145092
  N     19.141173   17.959256   19.345311
  C     18.822900   16.714173   18.620128
  C     18.156661   15.704995   19.551526
  C     18.681617   14.407005   19.689771
  C     18.059636   13.468354   20.529924
  C     16.900810   13.829143   21.238143
  C     16.372107   15.119539   21.100105
  O     15.247014   15.467990   21.773554
  C     16.992947   16.051334   20.262532
  H     13.511896   14.360595   16.767280
  H     14.033376   15.068686   15.222275
  H     13.915294   16.088936   16.677206
  H     15.782110   14.802098   17.745185
  H     15.913453   13.757993   16.306020
  H     16.854514   18.241535   15.121851
  H     16.423162   19.723111   15.974670
  H     15.448591   18.258803   16.200102
  H     17.126570   20.111787   18.034279
  H     19.784939   17.931437   20.125626
  H     19.768239   16.283748   18.259020
  H     19.566261   14.119161   19.126661
  H     18.473182   12.465680   20.623493
  H     16.416182   13.106312   21.886089
  H     15.006351   14.721360   22.342639
  H     16.567792   17.045015   20.171695

 Total Charge           Charge          ....    0
 Multiplicity           Mult            ....    1
 Number of Electrons    NEL             ....  154
 Basis Dimension        Dim             ....  828

ORBITAL ENERGIES
----------------

  NO   OCC          E(Eh)            E(eV)
   0   2.0000     -91.889100     -2500.4295
   1   2.0000     -20.596633      -560.4629
   2   2.0000     -20.584158      -560.1234
   3   2.0000     -20.555782      -559.3513
   4   2.0000     -15.628610      -425.2761
   5   2.0000     -15.608673      -424.7336
   6   2.0000     -11.393612      -310.0359
   7   2.0000     -11.384625      -309.7914
   8   2.0000     -11.333037      -308.3876
   9   2.0000     -11.312917      -307.8401
  10   2.0000     -11.309182      -307.7385
  11   2.0000     -11.297369      -307.4170
  12   2.0000     -11.260549      -306.4151
  13   2.0000     -11.259729      -306.3928
  14   2.0000     -11.258258      -306.3528
  15   2.0000     -11.252940      -306.2081
  16   2.0000     -11.242634      -305.9276
  17   2.0000     -11.238413      -305.8128
  18   2.0000     -11.235602      -305.7363
  19   2.0000     -11.232652      -305.6560
  20   2.0000      -8.894172      -242.0227
  21   2.0000      -6.575750      -178.9353
  22   2.0000      -6.573741      -178.8806
  23   2.0000      -6.573156      -178.8647
  24   2.0000      -1.453968       -39.5645
  25   2.0000      -1.416448       -38.5435
  26   2.0000      -1.356638       -36.9160
  27   2.0000      -1.339763       -36.4568
  28   2.0000      -1.238104       -33.6905
  29   2.0000      -1.156946       -31.4821
  30   2.0000      -1.121700       -30.5230
  31   2.0000      -1.045348       -28.4454
  32   2.0000      -1.035518       -28.1779
  33   2.0000      -1.014430       -27.6040
  34   2.0000      -0.999679       -27.2027
  35   2.0000      -0.985420       -26.8146
  36   2.0000      -0.923742       -25.1363
  37   2.0000      -0.881840       -23.9961
  38   2.0000      -0.848316       -23.0839
  39   2.0000      -0.839036       -22.8313
  40   2.0000      -0.832928       -22.6651
  41   2.0000      -0.825996       -22.4765
  42   2.0000      -0.757454       -20.6114
  43   2.0000      -0.735929       -20.0257
  44   2.0000      -0.728711       -19.8292
  45   2.0000      -0.694657       -18.9026
  46   2.0000      -0.685740       -18.6599
  47   2.0000      -0.681658       -18.5488
  48   2.0000      -0.675894       -18.3920
  49   2.0000      -0.655557       -17.8386
  50   2.0000      -0.652850       -17.7649
  51   2.0000      -0.643127       -17.5004
  52   2.0000      -0.635327       -17.2881
  53   2.0000      -0.613329       -16.6895
  54   2.0000      -0.605240       -16.4694
  55   2.0000      -0.603208       -16.4141
  56   2.0000      -0.600183       -16.3318
  57   2.0000      -0.577958       -15.7270
  58   2.0000      -0.575605       -15.6630
  59   2.0000      -0.565180       -15.3793
  60   2.0000      -0.557961       -15.1829
  61   2.0000      -0.546630       -14.8746
  62   2.0000      -0.544986       -14.8298
  63   2.0000      -0.522287       -14.2121
  64   2.0000      -0.516992       -14.0681
  65   2.0000      -0.511923       -13.9301
  66   2.0000      -0.505485       -13.7549
  67   2.0000      -0.498425       -13.5628
  68   2.0000      -0.482390       -13.1265
  69   2.0000      -0.465780       -12.6745
  70   2.0000      -0.457862       -12.4591
  71   2.0000      -0.452066       -12.3013
  72   2.0000      -0.354657        -9.6507
  73   2.0000      -0.348546        -9.4844
  74   2.0000      -0.328428        -8.9370
  75   2.0000      -0.320085        -8.7100
  76   2.0000      -0.315968        -8.5979
  77   0.0000       0.070512         1.9187
  78   0.0000       0.104069         2.8319
  79   0.0000       0.118774         3.2320
  80   0.0000       0.131556         3.5798
  81   0.0000       0.135469         3.6863

MULLIKEN ATOMIC CHARGES
-----------------------
   0 C :   -0.277507
   1 C :    0.047954
   2 O :   -0.368296
   3 C :    0.449198
   4 O :   -0.396450
   5 C :   -0.194342
   6 C :    0.131318
   7 C :   -0.281391
   8 N :   -0.124389
   9 C :    0.202223
  10 S :   -0.439380
  11 N :   -0.201250
  12 C :    0.058422
  13 C :    0.036845
  14 C :   -0.155452
  15 C :   -0.134724
  16 C :   -0.278753
  17 C :    0.317311
  18 O :   -0.360059
  19 C :   -0.286447
  20 H :    0.100301
  21 H :    0.101131
  22 H :    0.089671
  23 H :    0.093702
  24 H :    0.108978
  25 H :    0.123618
  26 H :    0.106028
  27 H :    0.124397
  28 H :    0.197346
  29 H :    0.194248
  30 H :    0.155691
  31 H :    0.157359
  32 H :    0.161230
  33 H :    0.131312
  34 H :    0.240968
  35 H :    0.169186
Sum of atomic charges:    0.0000000

LOEWDIN ATOMIC CHARGES
----------------------
   0 C :    0.108939
   1 C :   -0.017562
   2 O :    0.290108
   3 C :   -0.418035
   4 O :    0.130385
   5 C :   -0.094203
   6 C :   -0.075420
   7 C :    0.126641
   8 N :    0.404035
   9 C :   -0.457417
  10 S :   -0.036131
  11 N :    0.397007
  12 C :   -0.045147
  13 C :   -0.041550
  14 C :    0.021912
  15 C :    0.042455
  16 C :   -0.002112
  17 C :   -0.195044
  18 O :    0.393724
  19 C :    0.027188
  20 H :   -0.023037
  21 H :   -0.025822
  22 H :   -0.030443
  23 H :   -0.029005
  24 H :   -0.027808
  25 H :   -0.007743
  26 H :   -0.019255
  27 H :   -0.011120
  28 H :   -0.058674
  29 H :   -0.064112
  30 H :   -0.004460
  31 H :   -0.024289
  32 H :   -0.020049
  33 H :   -0.035460
  34 H :   -0.153898
  35 H :   -0.024597

  Mayer bond orders larger than 0.100000
B(  0-C ,  1-C ) :   0.9744 B(  0-C , 20-H ) :   0.9774 B(  0-C , 21-H ) :   0.9774
B(  0-C , 22-H ) :   0.9784 B(  1-C ,  2-O ) :   0.8965 B(  1-C , 23-H ) :   0.9646
B(  1-C , 24-H ) :   0.9823 B(  2-O ,  3-C ) :   1.0925 B(  3-C ,  4-O ) :   2.0269
B(  3-C ,  5-C ) :   1.0254 B(  5-C ,  6-C ) :   1.6708 B(  5-C , 12-C ) :   0.9612
B(  6-C ,  7-C ) :   0.9518 B(  6-C ,  8-N ) :   1.1371 B(  7-C , 25-H ) :   0.9709
B(  7-C , 26-H ) :   0.9880 B(  7-C , 27-H ) :   0.9627 B(  8-N ,  9-C ) :   1.1847
B(  8-N , 28-H ) :   0.9500 B(  9-C , 10-S ) :   1.6115 B(  9-C , 11-N ) :   1.2991
B( 11-N , 12-C ) :   0.9933 B( 11-N , 29-H ) :   0.9517 B( 12-C , 13-C ) :   0.9446
B( 12-C , 30-H ) :   0.9983 B( 13-C , 14-C ) :   1.3792 B( 13-C , 19-C ) :   1.3643
B( 14-C , 15-C ) :   1.3947 B( 14-C , 31-H ) :   0.9632 B( 15-C , 16-C ) :   1.3640
B( 15-C , 32-H ) :   0.9709 B( 16-C , 17-C ) :   1.3300 B( 16-C , 33-H ) :   0.9847
B( 17-C , 18-O ) :   1.1098 B( 17-C , 19-C ) :   1.3710 B( 18-O , 34-H ) :   0.9797
B( 19-C , 35-H ) :   0.9591

MP2 TOTAL ENERGY:    -1274.324772848 Eh
FINAL SINGLE POINT ENERGY     -1274.324772848052

DIPOLE MOMENT
-------------
                                X             Y             Z
Electronic contribution:     11.94121       8.24117       7.22002
Nuclear contribution   :    -13.25564      -9.52101      -7.75907
                        -----------------------------------------
Total Dipole Moment    :     -1.31444      -1.27983      -0.53905
                        -----------------------------------------
Magnitude (a.u.)       :      1.91214
Magnitude (Debye)      :      4.86029

Rotational constants in cm-1:     0.011408     0.009213     0.006689
Rotational constants in MHz :   341.998680   276.187332   200.543830

                             ****ORCA TERMINATED NORMALLY****
TOTAL RUN TIME: 0 days 1 hours 47 minutes 3 seconds 13 msec
