                         Program Version 4.2.0 -  RELEASE  -
|  1> ! ri-mp2 cc-pvtz cc-pvtz/c TightSCF  NoKeepInts
|  2>
|  3> %scf
|  4>   MaxCore 4096
|  5> end
|  6> *xyz  0  1
|  7>     C       14.8125027   16.1712013   17.1038799
|  8>     C       15.6460113   14.8763196   17.0496899
|  9>     O       16.8374045   14.9598444   16.2303604
| 10>     C       17.9424307   15.7633302   16.3900938
| 11>     O       19.0227497   15.3847435   15.9787571
| 12>     C       17.8737066   16.8812510   17.3700232
| 13>     C       17.3971813   18.0950634   17.0132353
| 14>     C       16.8316341   18.4859313   15.6650539
| 15>     N       17.4675396   19.1628594   17.9098547
| 16>     C       18.0917197   19.1152484   19.1292810
| 17>     S       18.1587567   20.4346960   20.1235876
| 18>     N       18.6579773   17.9159924   19.4875149
| 19>     C       18.5830316   16.6644621   18.7065311
| 20>     C       17.9388958   15.5394515   19.5083157
| 21>     C       18.4416620   14.2293775   19.4047906
| 22>     C       17.8460863   13.1756968   20.1177171
| 23>     C       16.7367654   13.4326537   20.9411345
| 24>     C       16.2302333   14.7351154   21.0445018
| 25>     O       15.1506155   14.9840768   21.8269783
| 26>     C       16.8231536   15.7822866   20.3318580
| 27>     H       15.2141289   16.8858651   17.8290960
| 28>     H       13.7919835   15.9358120   17.4301699
| 29>     H       14.7419699   16.6377535   16.1149290
| 30>     H       15.9024429   14.5556453   18.0656595
| 31>     H       15.0113866   14.0875661   16.6254031
| 32>     H       16.7158678   17.6268108   14.9931332
| 33>     H       17.4969235   19.1986070   15.1611388
| 34>     H       15.8463214   18.9566278   15.7689243
| 35>     H       17.0811599   20.0580682   17.6541663
| 36>     H       19.0991127   17.9084406   20.3986182
| 37>     H       19.6147973   16.3587409   18.4771205
| 38>     H       19.2917662   14.0252193   18.7566643
| 39>     H       18.2433916   12.1658407   20.0271708
| 40>     H       16.2733959   12.6208370   21.4924328
| 41>     H       14.9245774   14.1597683   22.2842858
| 42>     H       16.4077166   16.7807959   20.4219286
| 43> *
| 44>
| 45>                          ****END OF INPUT****

CARTESIAN COORDINATES (ANGSTROEM)
---------------------------------
  C     14.812503   16.171201   17.103880
  C     15.646011   14.876320   17.049690
  O     16.837405   14.959844   16.230360
  C     17.942431   15.763330   16.390094
  O     19.022750   15.384743   15.978757
  C     17.873707   16.881251   17.370023
  C     17.397181   18.095063   17.013235
  C     16.831634   18.485931   15.665054
  N     17.467540   19.162859   17.909855
  C     18.091720   19.115248   19.129281
  S     18.158757   20.434696   20.123588
  N     18.657977   17.915992   19.487515
  C     18.583032   16.664462   18.706531
  C     17.938896   15.539451   19.508316
  C     18.441662   14.229377   19.404791
  C     17.846086   13.175697   20.117717
  C     16.736765   13.432654   20.941135
  C     16.230233   14.735115   21.044502
  O     15.150615   14.984077   21.826978
  C     16.823154   15.782287   20.331858
  H     15.214129   16.885865   17.829096
  H     13.791984   15.935812   17.430170
  H     14.741970   16.637753   16.114929
  H     15.902443   14.555645   18.065659
  H     15.011387   14.087566   16.625403
  H     16.715868   17.626811   14.993133
  H     17.496924   19.198607   15.161139
  H     15.846321   18.956628   15.768924
  H     17.081160   20.058068   17.654166
  H     19.099113   17.908441   20.398618
  H     19.614797   16.358741   18.477120
  H     19.291766   14.025219   18.756664
  H     18.243392   12.165841   20.027171
  H     16.273396   12.620837   21.492433
  H     14.924577   14.159768   22.284286
  H     16.407717   16.780796   20.421929

 Total Charge           Charge          ....    0
 Multiplicity           Mult            ....    1
 Number of Electrons    NEL             ....  154
 Basis Dimension        Dim             ....  828

ORBITAL ENERGIES
----------------

  NO   OCC          E(Eh)            E(eV)
   0   2.0000     -91.889620     -2500.4437
   1   2.0000     -20.604074      -560.6653
   2   2.0000     -20.595410      -560.4296
   3   2.0000     -20.550977      -559.2205
   4   2.0000     -15.625115      -425.1810
   5   2.0000     -15.612410      -424.8353
   6   2.0000     -11.398298      -310.1635
   7   2.0000     -11.386605      -309.8453
   8   2.0000     -11.324644      -308.1592
   9   2.0000     -11.322066      -308.0891
  10   2.0000     -11.317829      -307.9738
  11   2.0000     -11.303418      -307.5816
  12   2.0000     -11.268681      -306.6364
  13   2.0000     -11.265344      -306.5456
  14   2.0000     -11.262728      -306.4744
  15   2.0000     -11.261876      -306.4512
  16   2.0000     -11.251363      -306.1651
  17   2.0000     -11.246485      -306.0324
  18   2.0000     -11.244808      -305.9868
  19   2.0000     -11.234132      -305.6963
  20   2.0000      -8.894739      -242.0382
  21   2.0000      -6.576331      -178.9511
  22   2.0000      -6.574301      -178.8958
  23   2.0000      -6.573729      -178.8803
  24   2.0000      -1.443211       -39.2718
  25   2.0000      -1.423888       -38.7460
  26   2.0000      -1.356179       -36.9035
  27   2.0000      -1.339301       -36.4442
  28   2.0000      -1.240068       -33.7440
  29   2.0000      -1.165909       -31.7260
  30   2.0000      -1.126206       -30.6456
  31   2.0000      -1.051577       -28.6149
  32   2.0000      -1.038205       -28.2510
  33   2.0000      -1.023684       -27.8559
  34   2.0000      -1.005749       -27.3678
  35   2.0000      -0.990431       -26.9510
  36   2.0000      -0.929358       -25.2891
  37   2.0000      -0.896930       -24.4067
  38   2.0000      -0.852714       -23.2035
  39   2.0000      -0.843549       -22.9541
  40   2.0000      -0.841377       -22.8950
  41   2.0000      -0.832449       -22.6521
  42   2.0000      -0.751456       -20.4482
  43   2.0000      -0.736999       -20.0548
  44   2.0000      -0.728468       -19.8226
  45   2.0000      -0.701832       -19.0978
  46   2.0000      -0.691019       -18.8036
  47   2.0000      -0.678998       -18.4765
  48   2.0000      -0.676230       -18.4012
  49   2.0000      -0.663479       -18.0542
  50   2.0000      -0.655965       -17.8497
  51   2.0000      -0.644657       -17.5420
  52   2.0000      -0.640645       -17.4328
  53   2.0000      -0.616002       -16.7623
  54   2.0000      -0.610163       -16.6034
  55   2.0000      -0.609561       -16.5870
  56   2.0000      -0.606671       -16.5084
  57   2.0000      -0.586576       -15.9615
  58   2.0000      -0.583884       -15.8883
  59   2.0000      -0.579194       -15.7607
  60   2.0000      -0.567885       -15.4529
  61   2.0000      -0.556060       -15.1312
  62   2.0000      -0.538662       -14.6577
  63   2.0000      -0.534674       -14.5492
  64   2.0000      -0.525034       -14.2869
  65   2.0000      -0.515679       -14.0323
  66   2.0000      -0.504807       -13.7365
  67   2.0000      -0.500030       -13.6065
  68   2.0000      -0.490684       -13.3522
  69   2.0000      -0.464459       -12.6386
  70   2.0000      -0.453377       -12.3370
  71   2.0000      -0.448584       -12.2066
  72   2.0000      -0.356514        -9.7012
  73   2.0000      -0.354653        -9.6506
  74   2.0000      -0.330983        -9.0065
  75   2.0000      -0.328940        -8.9509
  76   2.0000      -0.318116        -8.6564
  77   0.0000       0.090820         2.4713
  78   0.0000       0.101388         2.7589
  79   0.0000       0.118622         3.2279
  80   0.0000       0.124974         3.4007
  81   0.0000       0.127506         3.4696

MULLIKEN ATOMIC CHARGES
-----------------------
   0 C :   -0.336631
   1 C :    0.038812
   2 O :   -0.329663
   3 C :    0.388404
   4 O :   -0.375718
   5 C :   -0.165004
   6 C :    0.121748
   7 C :   -0.330844
   8 N :   -0.136788
   9 C :    0.209643
  10 S :   -0.442970
  11 N :   -0.223930
  12 C :    0.086719
  13 C :   -0.007131
  14 C :   -0.196809
  15 C :   -0.134264
  16 C :   -0.272813
  17 C :    0.311471
  18 O :   -0.356139
  19 C :   -0.261274
  20 H :    0.110032
  21 H :    0.123085
  22 H :    0.106702
  23 H :    0.101914
  24 H :    0.126223
  25 H :    0.120707
  26 H :    0.149768
  27 H :    0.118195
  28 H :    0.196833
  29 H :    0.201266
  30 H :    0.165597
  31 H :    0.168179
  32 H :    0.165677
  33 H :    0.134648
  34 H :    0.242203
  35 H :    0.182151
Sum of atomic charges:   -0.0000000

LOEWDIN ATOMIC CHARGES
----------------------
   0 C :    0.102765
   1 C :   -0.013585
   2 O :    0.293752
   3 C :   -0.417576
   4 O :    0.126938
   5 C :   -0.080275
   6 C :   -0.103300
   7 C :    0.125060
   8 N :    0.402103
   9 C :   -0.455270
  10 S :   -0.039081
  11 N :    0.397611
  12 C :   -0.045505
  13 C :   -0.045406
  14 C :    0.019740
  15 C :    0.045981
  16 C :   -0.000166
  17 C :   -0.193929
  18 O :    0.396967
  19 C :    0.027795
  20 H :   -0.034645
  21 H :   -0.021371
  22 H :   -0.029551
  23 H :   -0.031283
  24 H :   -0.019431
  25 H :   -0.009888
  26 H :   -0.008333
  27 H :   -0.016991
  28 H :   -0.057550
  29 H :   -0.064259
  30 H :   -0.002661
  31 H :   -0.021670
  32 H :   -0.017357
  33 H :   -0.033618
  34 H :   -0.152159
  35 H :   -0.023852

  Mayer bond orders larger than 0.100000
B(  0-C ,  1-C ) :   0.9545 B(  0-C , 20-H ) :   0.9731 B(  0-C , 21-H ) :   0.9785
B(  0-C , 22-H ) :   0.9743 B(  1-C ,  2-O ) :   0.9040 B(  1-C , 23-H ) :   0.9675
B(  1-C , 24-H ) :   0.9849 B(  2-O ,  3-C ) :   1.1834 B(  3-C ,  4-O ) :   2.1106
B(  3-C ,  5-C ) :   0.9025 B(  5-C ,  6-C ) :   1.7194 B(  5-C , 12-C ) :   0.9473
B(  6-C ,  7-C ) :   0.9541 B(  6-C ,  8-N ) :   1.1016 B(  7-C , 25-H ) :   0.9801
B(  7-C , 26-H ) :   0.9663 B(  7-C , 27-H ) :   0.9677 B(  8-N ,  9-C ) :   1.2024
B(  8-N , 28-H ) :   0.9521 B(  9-C , 10-S ) :   1.6088 B(  9-C , 11-N ) :   1.2822
B( 11-N , 12-C ) :   0.9961 B( 11-N , 29-H ) :   0.9471 B( 12-C , 13-C ) :   0.9405
B( 12-C , 30-H ) :   0.9974 B( 13-C , 14-C ) :   1.3907 B( 13-C , 19-C ) :   1.3433
B( 14-C , 15-C ) :   1.3972 B( 14-C , 31-H ) :   0.9629 B( 15-C , 16-C ) :   1.3609
B( 15-C , 32-H ) :   0.9695 B( 16-C , 17-C ) :   1.3283 B( 16-C , 33-H ) :   0.9840
B( 17-C , 18-O ) :   1.1136 B( 17-C , 19-C ) :   1.3667 B( 18-O , 34-H ) :   0.9784
B( 19-C , 35-H ) :   0.9544

MP2 TOTAL ENERGY:    -1274.326984252 Eh
FINAL SINGLE POINT ENERGY     -1274.326984251813

DIPOLE MOMENT
-------------
                                X             Y             Z
Electronic contribution:      9.56951       5.16018       6.16986
Nuclear contribution   :    -11.06857      -6.52398      -6.29261
                        -----------------------------------------
Total Dipole Moment    :     -1.49906      -1.36380      -0.12275
                        -----------------------------------------
Magnitude (a.u.)       :      2.03032
Magnitude (Debye)      :      5.16065

Rotational constants in cm-1:     0.012403     0.009269     0.006899
Rotational constants in MHz :   371.841265   277.888891   206.841678

                             ****ORCA TERMINATED NORMALLY****
TOTAL RUN TIME: 0 days 1 hours 56 minutes 27 seconds 313 msec
