                         Program Version 4.2.0 -  RELEASE  -
|  1> ! ri-mp2 cc-pvtz cc-pvtz/c TightSCF  NoKeepInts
|  2>
|  3> %scf
|  4>   MaxCore 4096
|  5> end
|  6> *xyz  0  1
|  7>     C       14.9377433   14.1142086   16.4644477
|  8>     C       16.4305502   13.9660891   16.0923702
|  9>     O       17.2343198   15.0528344   16.6029334
| 10>     C       16.8583960   16.3679211   16.5309298
| 11>     O       16.0571800   16.7800665   15.7100250
| 12>     C       17.6445049   17.2398881   17.4706655
| 13>     C       17.5648467   18.5946616   17.4494665
| 14>     C       16.7285201   19.4497564   16.5216450
| 15>     N       18.3305634   19.3563832   18.3371471
| 16>     C       19.2472174   18.8490400   19.2186346
| 17>     S       20.1633972   19.8275632   20.1877000
| 18>     N       19.3676361   17.4835578   19.2591585
| 19>     C       18.5272816   16.5310200   18.5107791
| 20>     C       17.6949281   15.6988399   19.4822370
| 21>     C       17.9331001   14.3190547   19.6261114
| 22>     C       17.1600834   13.5485491   20.5109239
| 23>     C       16.1422555   14.1628200   21.2603408
| 24>     C       15.9055645   15.5374838   21.1230176
| 25>     O       14.9237684   16.1334800   21.8453401
| 26>     C       16.6762649   16.3015837   20.2414299
| 27>     H       14.8249587   14.3641442   17.5271358
| 28>     H       14.4083311   13.1717393   16.2804940
| 29>     H       14.4423415   14.8880014   15.8660759
| 30>     H       16.8148152   13.0203488   16.4952860
| 31>     H       16.5194858   13.9258474   14.9986995
| 32>     H       16.9861599   19.2480724   15.4740888
| 33>     H       16.8596058   20.5245266   16.6931631
| 34>     H       15.6620188   19.2219719   16.6454232
| 35>     H       18.2555137   20.3609508   18.3223146
| 36>     H       20.0226623   17.1378850   19.9485609
| 37>     H       19.2056083   15.8578512   17.9679393
| 38>     H       18.7153593   13.8407867   19.0428494
| 39>     H       17.3504092   12.4816678   20.6136565
| 40>     H       15.5426488   13.5721508   21.9450866
| 41>     H       14.5279930   15.4562444   22.4141328
| 42>     H       16.4809669   17.3650099   20.1537905
| 43> *
| 44>
| 45>                          ****END OF INPUT****

CARTESIAN COORDINATES (ANGSTROEM)
---------------------------------
  C     14.937743   14.114209   16.464448
  C     16.430550   13.966089   16.092370
  O     17.234320   15.052834   16.602933
  C     16.858396   16.367921   16.530930
  O     16.057180   16.780067   15.710025
  C     17.644505   17.239888   17.470665
  C     17.564847   18.594662   17.449466
  C     16.728520   19.449756   16.521645
  N     18.330563   19.356383   18.337147
  C     19.247217   18.849040   19.218635
  S     20.163397   19.827563   20.187700
  N     19.367636   17.483558   19.259158
  C     18.527282   16.531020   18.510779
  C     17.694928   15.698840   19.482237
  C     17.933100   14.319055   19.626111
  C     17.160083   13.548549   20.510924
  C     16.142256   14.162820   21.260341
  C     15.905565   15.537484   21.123018
  O     14.923768   16.133480   21.845340
  C     16.676265   16.301584   20.241430
  H     14.824959   14.364144   17.527136
  H     14.408331   13.171739   16.280494
  H     14.442341   14.888001   15.866076
  H     16.814815   13.020349   16.495286
  H     16.519486   13.925847   14.998700
  H     16.986160   19.248072   15.474089
  H     16.859606   20.524527   16.693163
  H     15.662019   19.221972   16.645423
  H     18.255514   20.360951   18.322315
  H     20.022662   17.137885   19.948561
  H     19.205608   15.857851   17.967939
  H     18.715359   13.840787   19.042849
  H     17.350409   12.481668   20.613657
  H     15.542649   13.572151   21.945087
  H     14.527993   15.456244   22.414133
  H     16.480967   17.365010   20.153790

 Total Charge           Charge          ....    0
 Multiplicity           Mult            ....    1
 Number of Electrons    NEL             ....  154
 Basis Dimension        Dim             ....  828

ORBITAL ENERGIES
----------------

  NO   OCC          E(Eh)            E(eV)
   0   2.0000     -91.888405     -2500.4106
   1   2.0000     -20.597951      -560.4987
   2   2.0000     -20.597104      -560.4757
   3   2.0000     -20.541221      -558.9550
   4   2.0000     -15.628429      -425.2712
   5   2.0000     -15.607840      -424.7109
   6   2.0000     -11.395575      -310.0894
   7   2.0000     -11.383583      -309.7630
   8   2.0000     -11.335319      -308.4497
   9   2.0000     -11.314372      -307.8797
  10   2.0000     -11.308136      -307.7100
  11   2.0000     -11.300605      -307.5051
  12   2.0000     -11.260036      -306.4012
  13   2.0000     -11.258318      -306.3544
  14   2.0000     -11.255777      -306.2853
  15   2.0000     -11.251600      -306.1716
  16   2.0000     -11.243730      -305.9574
  17   2.0000     -11.239035      -305.8297
  18   2.0000     -11.238715      -305.8210
  19   2.0000     -11.222498      -305.3797
  20   2.0000      -8.893475      -242.0038
  21   2.0000      -6.575052      -178.9163
  22   2.0000      -6.573045      -178.8617
  23   2.0000      -6.572460      -178.8457
  24   2.0000      -1.446913       -39.3725
  25   2.0000      -1.416787       -38.5527
  26   2.0000      -1.353548       -36.8319
  27   2.0000      -1.339445       -36.4482
  28   2.0000      -1.238017       -33.6881
  29   2.0000      -1.158096       -31.5134
  30   2.0000      -1.120008       -30.4770
  31   2.0000      -1.042772       -28.3753
  32   2.0000      -1.034965       -28.1628
  33   2.0000      -1.015580       -27.6353
  34   2.0000      -0.995140       -27.0791
  35   2.0000      -0.983762       -26.7695
  36   2.0000      -0.922282       -25.0966
  37   2.0000      -0.897449       -24.4208
  38   2.0000      -0.846820       -23.0431
  39   2.0000      -0.837995       -22.8030
  40   2.0000      -0.834560       -22.7095
  41   2.0000      -0.816859       -22.2279
  42   2.0000      -0.748109       -20.3571
  43   2.0000      -0.732151       -19.9228
  44   2.0000      -0.721925       -19.6446
  45   2.0000      -0.696029       -18.9399
  46   2.0000      -0.688175       -18.7262
  47   2.0000      -0.677190       -18.4273
  48   2.0000      -0.670895       -18.2560
  49   2.0000      -0.658297       -17.9132
  50   2.0000      -0.650270       -17.6948
  51   2.0000      -0.641219       -17.4485
  52   2.0000      -0.634193       -17.2573
  53   2.0000      -0.614842       -16.7307
  54   2.0000      -0.607031       -16.5182
  55   2.0000      -0.600325       -16.3357
  56   2.0000      -0.598754       -16.2929
  57   2.0000      -0.577681       -15.7195
  58   2.0000      -0.570537       -15.5251
  59   2.0000      -0.568803       -15.4779
  60   2.0000      -0.559281       -15.2188
  61   2.0000      -0.542127       -14.7520
  62   2.0000      -0.535028       -14.5588
  63   2.0000      -0.525350       -14.2955
  64   2.0000      -0.521332       -14.1862
  65   2.0000      -0.513240       -13.9660
  66   2.0000      -0.501983       -13.6597
  67   2.0000      -0.499688       -13.5972
  68   2.0000      -0.484756       -13.1909
  69   2.0000      -0.463774       -12.6199
  70   2.0000      -0.454544       -12.3688
  71   2.0000      -0.443351       -12.0642
  72   2.0000      -0.353533        -9.6201
  73   2.0000      -0.349834        -9.5195
  74   2.0000      -0.327918        -8.9231
  75   2.0000      -0.321878        -8.7587
  76   2.0000      -0.315764        -8.5924
  77   0.0000       0.076605         2.0845
  78   0.0000       0.105760         2.8779
  79   0.0000       0.124951         3.4001
  80   0.0000       0.132529         3.6063
  81   0.0000       0.137490         3.7413

MULLIKEN ATOMIC CHARGES
-----------------------
   0 C :   -0.315888
   1 C :    0.035989
   2 O :   -0.361708
   3 C :    0.468700
   4 O :   -0.434364
   5 C :   -0.224300
   6 C :    0.152323
   7 C :   -0.273304
   8 N :   -0.119940
   9 C :    0.211828
  10 S :   -0.441073
  11 N :   -0.206215
  12 C :    0.066221
  13 C :    0.055608
  14 C :   -0.187533
  15 C :   -0.130926
  16 C :   -0.279059
  17 C :    0.315998
  18 O :   -0.356479
  19 C :   -0.269004
  20 H :    0.105503
  21 H :    0.096130
  22 H :    0.127380
  23 H :    0.107103
  24 H :    0.107911
  25 H :    0.131580
  26 H :    0.095051
  27 H :    0.130998
  28 H :    0.196871
  29 H :    0.195143
  30 H :    0.150402
  31 H :    0.151846
  32 H :    0.160386
  33 H :    0.130453
  34 H :    0.240735
  35 H :    0.165635
Sum of atomic charges:    0.0000000

LOEWDIN ATOMIC CHARGES
----------------------
   0 C :    0.104822
   1 C :   -0.013092
   2 O :    0.300594
   3 C :   -0.413275
   4 O :    0.100654
   5 C :   -0.093971
   6 C :   -0.059416
   7 C :    0.131340
   8 N :    0.406443
   9 C :   -0.456321
  10 S :   -0.036353
  11 N :    0.396469
  12 C :   -0.052176
  13 C :   -0.039425
  14 C :    0.014685
  15 C :    0.038715
  16 C :   -0.001902
  17 C :   -0.190268
  18 O :    0.395464
  19 C :    0.031043
  20 H :   -0.026454
  21 H :   -0.027524
  22 H :   -0.025956
  23 H :   -0.025592
  24 H :   -0.028311
  25 H :   -0.003898
  26 H :   -0.023529
  27 H :   -0.004868
  28 H :   -0.057680
  29 H :   -0.064586
  30 H :   -0.011602
  31 H :   -0.029941
  32 H :   -0.021386
  33 H :   -0.035453
  34 H :   -0.153821
  35 H :   -0.023431

  Mayer bond orders larger than 0.100000
B(  0-C ,  1-C ) :   0.9591 B(  0-C , 20-H ) :   0.9733 B(  0-C , 21-H ) :   0.9775
B(  0-C , 22-H ) :   0.9724 B(  1-C ,  2-O ) :   0.8984 B(  1-C , 23-H ) :   0.9836
B(  1-C , 24-H ) :   0.9842 B(  2-O ,  3-C ) :   1.1604 B(  3-C ,  4-O ) :   1.9700
B(  3-C ,  5-C ) :   1.0527 B(  5-C ,  6-C ) :   1.6540 B(  5-C , 12-C ) :   0.9702
B(  6-C ,  7-C ) :   0.9667 B(  6-C ,  8-N ) :   1.1646 B(  7-C , 25-H ) :   0.9604
B(  7-C , 26-H ) :   0.9903 B(  7-C , 27-H ) :   0.9607 B(  8-N ,  9-C ) :   1.1842
B(  8-N , 28-H ) :   0.9479 B(  9-C , 10-S ) :   1.6060 B(  9-C , 11-N ) :   1.3057
B( 11-N , 12-C ) :   0.9891 B( 11-N , 29-H ) :   0.9512 B( 12-C , 13-C ) :   0.9343
B( 12-C , 30-H ) :   1.0023 B( 13-C , 14-C ) :   1.3555 B( 13-C , 19-C ) :   1.3825
B( 14-C , 15-C ) :   1.3909 B( 14-C , 31-H ) :   0.9710 B( 15-C , 16-C ) :   1.3631
B( 15-C , 32-H ) :   0.9707 B( 16-C , 17-C ) :   1.3315 B( 16-C , 33-H ) :   0.9849
B( 17-C , 18-O ) :   1.1105 B( 17-C , 19-C ) :   1.3703 B( 18-O , 34-H ) :   0.9798
B( 19-C , 35-H ) :   0.9584

MP2 TOTAL ENERGY:    -1274.345965840 Eh
FINAL SINGLE POINT ENERGY     -1274.345965839696

DIPOLE MOMENT
-------------
                                X             Y             Z
Electronic contribution:     10.31896       9.89812       7.70226
Nuclear contribution   :    -11.36769     -11.66147      -8.07597
                        -----------------------------------------
Total Dipole Moment    :     -1.04874      -1.76335      -0.37371
                        -----------------------------------------
Magnitude (a.u.)       :      2.08540
Magnitude (Debye)      :      5.30067

Rotational constants in cm-1:     0.012119     0.008671     0.006243
Rotational constants in MHz :   363.332542   259.960221   187.171328

                             ****ORCA TERMINATED NORMALLY****
TOTAL RUN TIME: 0 days 2 hours 28 minutes 53 seconds 904 msec
