                         Program Version 4.2.0 -  RELEASE  -
|  1> ! ri-mp2 cc-pvtz cc-pvtz/c TightSCF  NoKeepInts
|  2>
|  3> %scf
|  4>   MaxCore 4096
|  5> end
|  6> *xyz  0  1
|  7>     C       15.7346194   13.0486248   16.5929217
|  8>     C       15.7713287   14.3855788   15.8334306
|  9>     O       16.5682531   15.2918579   16.6156213
| 10>     C       16.2333346   16.6156803   16.6924359
| 11>     O       15.2860569   17.0867365   16.0858530
| 12>     C       17.2325329   17.4172701   17.4804950
| 13>     C       17.1760750   18.7705562   17.5686019
| 14>     C       16.1566544   19.6894459   16.9299276
| 15>     N       18.1499932   19.4677363   18.2898038
| 16>     C       19.2530126   18.9004201   18.8697648
| 17>     S       20.4043675   19.8092790   19.6341500
| 18>     N       19.3561562   17.5355603   18.7840553
| 19>     C       18.3283632   16.6377210   18.2259829
| 20>     C       17.7476806   15.7633041   19.3337072
| 21>     C       17.9574905   14.3714805   19.3284428
| 22>     C       17.4189846   13.5631345   20.3436345
| 23>     C       16.6675433   14.1514023   21.3752204
| 24>     C       16.4607757   15.5377026   21.3862925
| 25>     O       15.7363554   16.1086806   22.3814101
| 26>     C       16.9973360   16.3394476   20.3741197
| 27>     H       16.7454179   12.6365288   16.7002304
| 28>     H       15.1192683   12.3169581   16.0555066
| 29>     H       15.3091690   13.1864854   17.5952118
| 30>     H       16.2028851   14.2585936   14.8321898
| 31>     H       14.7400569   14.7491105   15.7264258
| 32>     H       16.1647689   19.5756644   15.8384453
| 33>     H       16.3331416   20.7480146   17.1536810
| 34>     H       15.1451178   19.4424160   17.2769743
| 35>     H       18.0912086   20.4708438   18.3629172
| 36>     H       20.1599215   17.1425029   19.2566155
| 37>     H       18.8294206   15.9864870   17.4961091
| 38>     H       18.5320826   13.9135391   18.5279194
| 39>     H       17.5835481   12.4872362   20.3283897
| 40>     H       16.2495211   13.5315407   22.1614930
| 41>     H       15.4734303   15.4035613   22.9916643
| 42>     H       16.8311278   17.4108981   20.4043554
| 43> *
| 44>
| 45>                          ****END OF INPUT****

CARTESIAN COORDINATES (ANGSTROEM)
---------------------------------
  C     15.734619   13.048625   16.592922
  C     15.771329   14.385579   15.833431
  O     16.568253   15.291858   16.615621
  C     16.233335   16.615680   16.692436
  O     15.286057   17.086737   16.085853
  C     17.232533   17.417270   17.480495
  C     17.176075   18.770556   17.568602
  C     16.156654   19.689446   16.929928
  N     18.149993   19.467736   18.289804
  C     19.253013   18.900420   18.869765
  S     20.404367   19.809279   19.634150
  N     19.356156   17.535560   18.784055
  C     18.328363   16.637721   18.225983
  C     17.747681   15.763304   19.333707
  C     17.957490   14.371481   19.328443
  C     17.418985   13.563135   20.343635
  C     16.667543   14.151402   21.375220
  C     16.460776   15.537703   21.386292
  O     15.736355   16.108681   22.381410
  C     16.997336   16.339448   20.374120
  H     16.745418   12.636529   16.700230
  H     15.119268   12.316958   16.055507
  H     15.309169   13.186485   17.595212
  H     16.202885   14.258594   14.832190
  H     14.740057   14.749111   15.726426
  H     16.164769   19.575664   15.838445
  H     16.333142   20.748015   17.153681
  H     15.145118   19.442416   17.276974
  H     18.091209   20.470844   18.362917
  H     20.159921   17.142503   19.256615
  H     18.829421   15.986487   17.496109
  H     18.532083   13.913539   18.527919
  H     17.583548   12.487236   20.328390
  H     16.249521   13.531541   22.161493
  H     15.473430   15.403561   22.991664
  H     16.831128   17.410898   20.404355

 Total Charge           Charge          ....    0
 Multiplicity           Mult            ....    1
 Number of Electrons    NEL             ....  154
 Basis Dimension        Dim             ....  828

ORBITAL ENERGIES
----------------

  NO   OCC          E(Eh)            E(eV)
   0   2.0000     -91.888474     -2500.4125
   1   2.0000     -20.602890      -560.6332
   2   2.0000     -20.595624      -560.4354
   3   2.0000     -20.541328      -558.9580
   4   2.0000     -15.628577      -425.2752
   5   2.0000     -15.607870      -424.7117
   6   2.0000     -11.395065      -310.0755
   7   2.0000     -11.383598      -309.7634
   8   2.0000     -11.335580      -308.4568
   9   2.0000     -11.312678      -307.8336
  10   2.0000     -11.308291      -307.7142
  11   2.0000     -11.295973      -307.3790
  12   2.0000     -11.258780      -306.3670
  13   2.0000     -11.258559      -306.3610
  14   2.0000     -11.253980      -306.2364
  15   2.0000     -11.251584      -306.1712
  16   2.0000     -11.242398      -305.9212
  17   2.0000     -11.237766      -305.7952
  18   2.0000     -11.237234      -305.7807
  19   2.0000     -11.229254      -305.5635
  20   2.0000      -8.893541      -242.0055
  21   2.0000      -6.575117      -178.9180
  22   2.0000      -6.573111      -178.8634
  23   2.0000      -6.572525      -178.8475
  24   2.0000      -1.451874       -39.5075
  25   2.0000      -1.415303       -38.5123
  26   2.0000      -1.354988       -36.8711
  27   2.0000      -1.339575       -36.4517
  28   2.0000      -1.238046       -33.6889
  29   2.0000      -1.156862       -31.4798
  30   2.0000      -1.120008       -30.4770
  31   2.0000      -1.043205       -28.3871
  32   2.0000      -1.039580       -28.2884
  33   2.0000      -1.014228       -27.5985
  34   2.0000      -0.995202       -27.0808
  35   2.0000      -0.984036       -26.7770
  36   2.0000      -0.921924       -25.0868
  37   2.0000      -0.889448       -24.2031
  38   2.0000      -0.846273       -23.0283
  39   2.0000      -0.836624       -22.7657
  40   2.0000      -0.833144       -22.6710
  41   2.0000      -0.816788       -22.2259
  42   2.0000      -0.765239       -20.8232
  43   2.0000      -0.731355       -19.9012
  44   2.0000      -0.721182       -19.6244
  45   2.0000      -0.695230       -18.9182
  46   2.0000      -0.688302       -18.7297
  47   2.0000      -0.679498       -18.4901
  48   2.0000      -0.672350       -18.2956
  49   2.0000      -0.665630       -18.1127
  50   2.0000      -0.646020       -17.5791
  51   2.0000      -0.643831       -17.5195
  52   2.0000      -0.634702       -17.2711
  53   2.0000      -0.605818       -16.4851
  54   2.0000      -0.600247       -16.3335
  55   2.0000      -0.598117       -16.2756
  56   2.0000      -0.592772       -16.1301
  57   2.0000      -0.578039       -15.7293
  58   2.0000      -0.570233       -15.5168
  59   2.0000      -0.568038       -15.4571
  60   2.0000      -0.563017       -15.3205
  61   2.0000      -0.549908       -14.9637
  62   2.0000      -0.538082       -14.6419
  63   2.0000      -0.526242       -14.3198
  64   2.0000      -0.524211       -14.2645
  65   2.0000      -0.512881       -13.9562
  66   2.0000      -0.501105       -13.6358
  67   2.0000      -0.496941       -13.5224
  68   2.0000      -0.485002       -13.1976
  69   2.0000      -0.463379       -12.6092
  70   2.0000      -0.458635       -12.4801
  71   2.0000      -0.448194       -12.1960
  72   2.0000      -0.353875        -9.6294
  73   2.0000      -0.348796        -9.4912
  74   2.0000      -0.327816        -8.9203
  75   2.0000      -0.320175        -8.7124
  76   2.0000      -0.315587        -8.5876
  77   0.0000       0.076917         2.0930
  78   0.0000       0.107284         2.9193
  79   0.0000       0.124608         3.3908
  80   0.0000       0.133013         3.6195
  81   0.0000       0.137312         3.7365

MULLIKEN ATOMIC CHARGES
-----------------------
   0 C :   -0.283660
   1 C :    0.032810
   2 O :   -0.343878
   3 C :    0.470351
   4 O :   -0.434441
   5 C :   -0.225004
   6 C :    0.150338
   7 C :   -0.274319
   8 N :   -0.120153
   9 C :    0.210730
  10 S :   -0.440516
  11 N :   -0.203650
  12 C :    0.050064
  13 C :    0.066025
  14 C :   -0.185104
  15 C :   -0.131189
  16 C :   -0.279227
  17 C :    0.316455
  18 O :   -0.356789
  19 C :   -0.268757
  20 H :    0.088610
  21 H :    0.105144
  22 H :    0.108027
  23 H :    0.090911
  24 H :    0.111223
  25 H :    0.131413
  26 H :    0.094690
  27 H :    0.131576
  28 H :    0.197190
  29 H :    0.194609
  30 H :    0.149192
  31 H :    0.151341
  32 H :    0.160599
  33 H :    0.130122
  34 H :    0.240451
  35 H :    0.164815
Sum of atomic charges:   -0.0000000

LOEWDIN ATOMIC CHARGES
----------------------
   0 C :    0.104400
   1 C :   -0.012605
   2 O :    0.310189
   3 C :   -0.412650
   4 O :    0.094988
   5 C :   -0.094424
   6 C :   -0.059254
   7 C :    0.131420
   8 N :    0.406449
   9 C :   -0.456676
  10 S :   -0.035991
  11 N :    0.396601
  12 C :   -0.052951
  13 C :   -0.039822
  14 C :    0.016791
  15 C :    0.040061
  16 C :   -0.001617
  17 C :   -0.189761
  18 O :    0.394988
  19 C :    0.031677
  20 H :   -0.031479
  21 H :   -0.025381
  22 H :   -0.023694
  23 H :   -0.031192
  24 H :   -0.027397
  25 H :   -0.003987
  26 H :   -0.023520
  27 H :   -0.004558
  28 H :   -0.057631
  29 H :   -0.064489
  30 H :   -0.012110
  31 H :   -0.031333
  32 H :   -0.021713
  33 H :   -0.035582
  34 H :   -0.154111
  35 H :   -0.023637

  Mayer bond orders larger than 0.100000
B(  0-C ,  1-C ) :   0.9729 B(  0-C , 20-H ) :   0.9789 B(  0-C , 21-H ) :   0.9782
B(  0-C , 22-H ) :   0.9735 B(  1-C ,  2-O ) :   0.8984 B(  1-C , 23-H ) :   0.9820
B(  1-C , 24-H ) :   0.9761 B(  2-O ,  3-C ) :   1.1814 B(  3-C ,  4-O ) :   1.9697
B(  3-C ,  5-C ) :   1.0575 B(  5-C ,  6-C ) :   1.6563 B(  5-C , 12-C ) :   0.9722
B(  6-C ,  7-C ) :   0.9675 B(  6-C ,  8-N ) :   1.1645 B(  7-C , 25-H ) :   0.9597
B(  7-C , 26-H ) :   0.9902 B(  7-C , 27-H ) :   0.9613 B(  8-N ,  9-C ) :   1.1833
B(  8-N , 28-H ) :   0.9479 B(  9-C , 10-S ) :   1.6071 B(  9-C , 11-N ) :   1.3049
B( 11-N , 12-C ) :   0.9897 B( 11-N , 29-H ) :   0.9514 B( 12-C , 13-C ) :   0.9364
B( 12-C , 30-H ) :   1.0031 B( 13-C , 14-C ) :   1.3575 B( 13-C , 19-C ) :   1.3806
B( 14-C , 15-C ) :   1.3896 B( 14-C , 31-H ) :   0.9705 B( 15-C , 16-C ) :   1.3631
B( 15-C , 32-H ) :   0.9703 B( 16-C , 17-C ) :   1.3309 B( 16-C , 33-H ) :   0.9851
B( 17-C , 18-O ) :   1.1095 B( 17-C , 19-C ) :   1.3737 B( 18-O , 34-H ) :   0.9800
B( 19-C , 35-H ) :   0.9583

MP2 TOTAL ENERGY:    -1274.350804230 Eh
FINAL SINGLE POINT ENERGY     -1274.350804229897

DIPOLE MOMENT
-------------
                                X             Y             Z
Electronic contribution:      9.08672      11.81181       6.75972
Nuclear contribution   :    -10.14514     -13.52717      -7.13386
                        -----------------------------------------
Total Dipole Moment    :     -1.05842      -1.71536      -0.37414
                        -----------------------------------------
Magnitude (a.u.)       :      2.05005
Magnitude (Debye)      :      5.21082

Rotational constants in cm-1:     0.011746     0.008527     0.006132
Rotational constants in MHz :   352.130586   255.630497   183.839896

                             ****ORCA TERMINATED NORMALLY****
TOTAL RUN TIME: 0 days 1 hours 38 minutes 16 seconds 910 msec
