                         Program Version 5.0.0 -  RELEASE  -
|  1> ! ri-mp2 cc-pvtz cc-pvtz/c TightSCF NoKeepInts
|  2>
|  3> %scf
|  4>   MaxCore 4096
|  5> end
|  6> *xyz  0  1
|  7>     C       14.9579997   14.2269472   16.2367585
|  8>     C       16.4599304   13.9299597   16.4411289
|  9>     O       17.3107579   15.0959775   16.5906391
| 10>     C       16.9148594   16.4050828   16.4922790
| 11>     O       16.0958881   16.7976265   15.6800605
| 12>     C       17.6306587   17.2932275   17.4736461
| 13>     C       17.4784498   18.6422950   17.4818402
| 14>     C       16.6178316   19.4749444   16.5556109
| 15>     N       18.1815053   19.4226985   18.4043573
| 16>     C       19.1056015   18.9453144   19.2944369
| 17>     S       19.9444909   19.9483855   20.3074333
| 18>     N       19.3025176   17.5884086   19.3040808
| 19>     C       18.5343887   16.6094667   18.5139467
| 20>     C       17.7448944   15.6999491   19.4512592
| 21>     C       18.1431776   14.3643641   19.6485250
| 22>     C       17.4136827   13.5193913   20.5017404
| 23>     C       16.2785169   14.0145990   21.1658725
| 24>     C       15.8834125   15.3461507   20.9773370
| 25>     O       14.7891497   15.8277593   21.6187531
| 26>     C       16.6113722   16.1846655   20.1276715
| 27>     H       14.5754814   14.8919240   17.0213990
| 28>     H       14.3805373   13.2956185   16.2754946
| 29>     H       14.7735365   14.6874564   15.2581473
| 30>     H       16.5702731   13.3066925   17.3379652
| 31>     H       16.8175503   13.3363933   15.5899819
| 32>     H       15.5617460   19.1928394   16.6542040
| 33>     H       16.9039613   19.3082534   15.5092642
| 34>     H       16.6928147   20.5510639   16.7507529
| 35>     H       18.0505662   20.4216028   18.4117728
| 36>     H       19.9610890   17.2630634   19.9999215
| 37>     H       19.2606924   15.9939940   17.9646020
| 38>     H       19.0185718   13.9784141   19.1329619
| 39>     H       17.7290893   12.4876538   20.6476497
| 40>     H       15.7122079   13.3664452   21.8266467
| 41>     H       14.4467629   15.1194791   22.1844567
| 42>     H       16.2930343   17.2138927   20.0014028
| 43> *
| 44>
| 45>                          ****END OF INPUT****

CARTESIAN COORDINATES (ANGSTROEM)
---------------------------------
  C     14.958000   14.226947   16.236759
  C     16.459930   13.929960   16.441129
  O     17.310758   15.095977   16.590639
  C     16.914859   16.405083   16.492279
  O     16.095888   16.797626   15.680060
  C     17.630659   17.293228   17.473646
  C     17.478450   18.642295   17.481840
  C     16.617832   19.474944   16.555611
  N     18.181505   19.422698   18.404357
  C     19.105601   18.945314   19.294437
  S     19.944491   19.948386   20.307433
  N     19.302518   17.588409   19.304081
  C     18.534389   16.609467   18.513947
  C     17.744894   15.699949   19.451259
  C     18.143178   14.364364   19.648525
  C     17.413683   13.519391   20.501740
  C     16.278517   14.014599   21.165872
  C     15.883412   15.346151   20.977337
  O     14.789150   15.827759   21.618753
  C     16.611372   16.184666   20.127672
  H     14.575481   14.891924   17.021399
  H     14.380537   13.295618   16.275495
  H     14.773537   14.687456   15.258147
  H     16.570273   13.306693   17.337965
  H     16.817550   13.336393   15.589982
  H     15.561746   19.192839   16.654204
  H     16.903961   19.308253   15.509264
  H     16.692815   20.551064   16.750753
  H     18.050566   20.421603   18.411773
  H     19.961089   17.263063   19.999921
  H     19.260692   15.993994   17.964602
  H     19.018572   13.978414   19.132962
  H     17.729089   12.487654   20.647650
  H     15.712208   13.366445   21.826647
  H     14.446763   15.119479   22.184457
  H     16.293034   17.213893   20.001403

 Total Charge           Charge          ....    0
 Multiplicity           Mult            ....    1
 Number of Electrons    NEL             ....  154
 Basis Dimension        Dim             ....  828

ORBITAL ENERGIES
----------------

  NO   OCC          E(Eh)            E(eV)
   0   2.0000     -91.888466     -2500.4123
   1   2.0000     -20.598812      -560.5222
   2   2.0000     -20.593014      -560.3644
   3   2.0000     -20.540855      -558.9451
   4   2.0000     -15.628461      -425.2721
   5   2.0000     -15.607955      -424.7140
   6   2.0000     -11.395667      -310.0919
   7   2.0000     -11.383619      -309.7640
   8   2.0000     -11.335278      -308.4486
   9   2.0000     -11.316260      -307.9311
  10   2.0000     -11.308500      -307.7199
  11   2.0000     -11.300512      -307.5026
  12   2.0000     -11.261823      -306.4498
  13   2.0000     -11.257792      -306.3401
  14   2.0000     -11.257735      -306.3385
  15   2.0000     -11.251595      -306.1715
  16   2.0000     -11.245276      -305.9995
  17   2.0000     -11.240313      -305.8645
  18   2.0000     -11.240250      -305.8627
  19   2.0000     -11.223182      -305.3983
  20   2.0000      -8.893539      -242.0055
  21   2.0000      -6.575117      -178.9180
  22   2.0000      -6.573109      -178.8634
  23   2.0000      -6.572525      -178.8475
  24   2.0000      -1.441846       -39.2346
  25   2.0000      -1.418462       -38.5983
  26   2.0000      -1.352130       -36.7933
  27   2.0000      -1.339589       -36.4521
  28   2.0000      -1.238298       -33.6958
  29   2.0000      -1.159439       -31.5499
  30   2.0000      -1.119873       -30.4733
  31   2.0000      -1.043600       -28.3978
  32   2.0000      -1.034369       -28.1466
  33   2.0000      -1.017380       -27.6843
  34   2.0000      -0.995653       -27.0931
  35   2.0000      -0.983850       -26.7719
  36   2.0000      -0.922832       -25.1115
  37   2.0000      -0.897165       -24.4131
  38   2.0000      -0.847361       -23.0579
  39   2.0000      -0.839313       -22.8389
  40   2.0000      -0.835991       -22.7485
  41   2.0000      -0.818204       -22.2645
  42   2.0000      -0.743901       -20.2426
  43   2.0000      -0.732035       -19.9197
  44   2.0000      -0.718700       -19.5568
  45   2.0000      -0.697435       -18.9782
  46   2.0000      -0.687905       -18.7189
  47   2.0000      -0.673708       -18.3325
  48   2.0000      -0.671024       -18.2595
  49   2.0000      -0.660269       -17.9668
  50   2.0000      -0.652106       -17.7447
  51   2.0000      -0.643780       -17.5182
  52   2.0000      -0.636349       -17.3159
  53   2.0000      -0.612398       -16.6642
  54   2.0000      -0.608930       -16.5698
  55   2.0000      -0.601761       -16.3748
  56   2.0000      -0.599307       -16.3080
  57   2.0000      -0.578893       -15.7525
  58   2.0000      -0.570803       -15.5323
  59   2.0000      -0.567913       -15.4537
  60   2.0000      -0.557697       -15.1757
  61   2.0000      -0.539923       -14.6921
  62   2.0000      -0.534997       -14.5580
  63   2.0000      -0.526785       -14.3346
  64   2.0000      -0.521561       -14.1924
  65   2.0000      -0.513695       -13.9783
  66   2.0000      -0.501647       -13.6505
  67   2.0000      -0.496718       -13.5164
  68   2.0000      -0.487631       -13.2691
  69   2.0000      -0.463209       -12.6046
  70   2.0000      -0.452665       -12.3177
  71   2.0000      -0.440621       -11.9899
  72   2.0000      -0.353460        -9.6181
  73   2.0000      -0.351179        -9.5561
  74   2.0000      -0.328304        -8.9336
  75   2.0000      -0.323644        -8.8068
  76   2.0000      -0.316112        -8.6019
  77   0.0000       0.076403         2.0790
  78   0.0000       0.103136         2.8065
  79   0.0000       0.124214         3.3800
  80   0.0000       0.132086         3.5942
  81   0.0000       0.137376         3.7382

MULLIKEN ATOMIC CHARGES
-----------------------
   0 C :   -0.301603
   1 C :    0.046405
   2 O :   -0.372606
   3 C :    0.458398
   4 O :   -0.421597
   5 C :   -0.236814
   6 C :    0.160375
   7 C :   -0.270403
   8 N :   -0.122180
   9 C :    0.214196
  10 S :   -0.441949
  11 N :   -0.208987
  12 C :    0.076399
  13 C :    0.066903
  14 C :   -0.211843
  15 C :   -0.122942
  16 C :   -0.281881
  17 C :    0.318724
  18 O :   -0.356251
  19 C :   -0.271929
  20 H :    0.101737
  21 H :    0.097876
  22 H :    0.122595
  23 H :    0.099075
  24 H :    0.102977
  25 H :    0.130363
  26 H :    0.131930
  27 H :    0.095031
  28 H :    0.196962
  29 H :    0.195738
  30 H :    0.149053
  31 H :    0.152957
  32 H :    0.163814
  33 H :    0.131464
  34 H :    0.241158
  35 H :    0.166855
Sum of atomic charges:   -0.0000000

LOEWDIN ATOMIC CHARGES
----------------------
   0 C :    0.104025
   1 C :   -0.009404
   2 O :    0.293713
   3 C :   -0.415420
   4 O :    0.107828
   5 C :   -0.095690
   6 C :   -0.059356
   7 C :    0.131152
   8 N :    0.406573
   9 C :   -0.455740
  10 S :   -0.036714
  11 N :    0.396150
  12 C :   -0.052317
  13 C :   -0.037459
  14 C :    0.014762
  15 C :    0.038925
  16 C :   -0.002445
  17 C :   -0.189529
  18 O :    0.395732
  19 C :    0.030771
  20 H :   -0.027192
  21 H :   -0.026711
  22 H :   -0.024599
  23 H :   -0.029224
  24 H :   -0.028335
  25 H :   -0.005113
  26 H :   -0.003768
  27 H :   -0.023591
  28 H :   -0.057678
  29 H :   -0.064854
  30 H :   -0.011253
  31 H :   -0.029717
  32 H :   -0.020998
  33 H :   -0.035303
  34 H :   -0.153483
  35 H :   -0.023739

  Mayer bond orders larger than 0.100000
B(  0-C ,  1-C ) :   0.9726 B(  0-C , 20-H ) :   0.9750 B(  0-C , 21-H ) :   0.9740
B(  0-C , 22-H ) :   0.9721 B(  1-C ,  2-O ) :   0.8950 B(  1-C , 23-H ) :   0.9730
B(  1-C , 24-H ) :   0.9822 B(  2-O ,  3-C ) :   1.1430 B(  3-C ,  4-O ) :   1.9935
B(  3-C ,  5-C ) :   1.0476 B(  5-C ,  6-C ) :   1.6509 B(  5-C , 12-C ) :   0.9716
B(  6-C ,  7-C ) :   0.9659 B(  6-C ,  8-N ) :   1.1623 B(  7-C , 25-H ) :   0.9605
B(  7-C , 26-H ) :   0.9602 B(  7-C , 27-H ) :   0.9906 B(  8-N ,  9-C ) :   1.1852
B(  8-N , 28-H ) :   0.9478 B(  9-C , 10-S ) :   1.6036 B(  9-C , 11-N ) :   1.3078
B( 11-N , 12-C ) :   0.9814 B( 11-N , 29-H ) :   0.9512 B( 12-C , 13-C ) :   0.9371
B( 12-C , 30-H ) :   1.0018 B( 13-C , 14-C ) :   1.3469 B( 13-C , 19-C ) :   1.3800
B( 14-C , 15-C ) :   1.3859 B( 14-C , 31-H ) :   0.9729 B( 15-C , 16-C ) :   1.3629
B( 15-C , 32-H ) :   0.9697 B( 16-C , 17-C ) :   1.3308 B( 16-C , 33-H ) :   0.9846
B( 17-C , 18-O ) :   1.1105 B( 17-C , 19-C ) :   1.3674 B( 18-O , 34-H ) :   0.9794
B( 19-C , 35-H ) :   0.9586

MP2 TOTAL ENERGY:    -1274.339049859 Eh
FINAL SINGLE POINT ENERGY     -1274.339049858648

DIPOLE MOMENT
-------------
                                X             Y             Z
Electronic contribution:      9.93951       9.99399       7.65217
Nuclear contribution   :    -10.91701     -11.79326      -7.89501
                        -----------------------------------------
Total Dipole Moment    :     -0.97750      -1.79928      -0.24284
                        -----------------------------------------
Magnitude (a.u.)       :      2.06201
Magnitude (Debye)      :      5.24121

Rotational constants in cm-1:     0.012322     0.008640     0.006290
Rotational constants in MHz :   369.411475   259.020610   188.562106

                             ****ORCA TERMINATED NORMALLY****
TOTAL RUN TIME: 0 days 2 hours 3 minutes 45 seconds 711 msec
