                         Program Version 4.2.0 -  RELEASE  -
|  1> ! ri-mp2 cc-pvtz cc-pvtz/c TightSCF  NoKeepInts
|  2>
|  3> %scf
|  4>   MaxCore 4096
|  5> end
|  6> *xyz  0  1
|  7>     C       15.1338738   14.4672724   17.0146373
|  8>     C       16.4557510   13.9636175   16.3910176
|  9>     O       17.5138582   14.9469757   16.4553222
| 10>     C       17.2729678   16.2705587   16.2168827
| 11>     O       16.5655672   16.6293152   15.2912756
| 12>     C       17.7456371   17.1667722   17.3295237
| 13>     C       17.5139624   18.5045215   17.3333061
| 14>     C       16.7394190   19.3054093   16.3085665
| 15>     N       18.0588022   19.3064826   18.3411221
| 16>     C       18.9709548   18.8802254   19.2697065
| 17>     S       19.6838259   19.9209360   20.3394383
| 18>     N       19.2688788   17.5412276   19.2623127
| 19>     C       18.5557535   16.5238539   18.4680939
| 20>     C       17.6872437   15.6745771   19.3913374
| 21>     C       17.9571467   14.3036233   19.5623490
| 22>     C       17.1608531   13.5184167   20.4129187
| 23>     C       16.0894120   14.1096237   21.1038131
| 24>     C       15.8232430   15.4763475   20.9435081
| 25>     O       14.7892694   16.0500009   21.6085736
| 26>     C       16.6159627   16.2546955   20.0944305
| 27>     H       15.2913397   14.8253995   18.0375147
| 28>     H       14.4032790   13.6506653   17.0556671
| 29>     H       14.6878698   15.2764915   16.4238309
| 30>     H       16.7805971   13.0509582   16.9067258
| 31>     H       16.2682960   13.7050952   15.3403805
| 32>     H       17.1968688   19.2069396   15.3158156
| 33>     H       16.6911208   20.3744833   16.5462652
| 34>     H       15.7084502   18.9370602   16.2312489
| 35>     H       17.8562167   20.2933393   18.3551987
| 36>     H       19.9215847   17.2504952   19.9787700
| 37>     H       19.3153672   15.8736791   18.0116726
| 38>     H       18.7837061   13.8435415   19.0272749
| 39>     H       17.3763259   12.4584679   20.5365124
| 40>     H       15.4722246   13.5077037   21.7627582
| 41>     H       14.3948252   15.3715567   22.1769838
| 42>     H       16.3965461   17.3116712   19.9892451
| 43> *
| 44>
| 45>                          ****END OF INPUT****

CARTESIAN COORDINATES (ANGSTROEM)
---------------------------------
  C     15.133874   14.467272   17.014637
  C     16.455751   13.963617   16.391018
  O     17.513858   14.946976   16.455322
  C     17.272968   16.270559   16.216883
  O     16.565567   16.629315   15.291276
  C     17.745637   17.166772   17.329524
  C     17.513962   18.504521   17.333306
  C     16.739419   19.305409   16.308567
  N     18.058802   19.306483   18.341122
  C     18.970955   18.880225   19.269707
  S     19.683826   19.920936   20.339438
  N     19.268879   17.541228   19.262313
  C     18.555754   16.523854   18.468094
  C     17.687244   15.674577   19.391337
  C     17.957147   14.303623   19.562349
  C     17.160853   13.518417   20.412919
  C     16.089412   14.109624   21.103813
  C     15.823243   15.476347   20.943508
  O     14.789269   16.050001   21.608574
  C     16.615963   16.254696   20.094431
  H     15.291340   14.825399   18.037515
  H     14.403279   13.650665   17.055667
  H     14.687870   15.276492   16.423831
  H     16.780597   13.050958   16.906726
  H     16.268296   13.705095   15.340381
  H     17.196869   19.206940   15.315816
  H     16.691121   20.374483   16.546265
  H     15.708450   18.937060   16.231249
  H     17.856217   20.293339   18.355199
  H     19.921585   17.250495   19.978770
  H     19.315367   15.873679   18.011673
  H     18.783706   13.843542   19.027275
  H     17.376326   12.458468   20.536512
  H     15.472225   13.507704   21.762758
  H     14.394825   15.371557   22.176984
  H     16.396546   17.311671   19.989245

 Total Charge           Charge          ....    0
 Multiplicity           Mult            ....    1
 Number of Electrons    NEL             ....  154
 Basis Dimension        Dim             ....  828

ORBITAL ENERGIES
----------------

  NO   OCC          E(Eh)            E(eV)
   0   2.0000     -91.890181     -2500.4590
   1   2.0000     -20.599147      -560.5313
   2   2.0000     -20.589024      -560.2558
   3   2.0000     -20.543393      -559.0141
   4   2.0000     -15.630531      -425.3284
   5   2.0000     -15.609098      -424.7451
   6   2.0000     -11.394274      -310.0540
   7   2.0000     -11.384956      -309.8004
   8   2.0000     -11.337041      -308.4966
   9   2.0000     -11.316711      -307.9434
  10   2.0000     -11.310384      -307.7712
  11   2.0000     -11.299087      -307.4638
  12   2.0000     -11.262041      -306.4557
  13   2.0000     -11.259440      -306.3849
  14   2.0000     -11.258427      -306.3574
  15   2.0000     -11.252820      -306.2048
  16   2.0000     -11.246194      -306.0245
  17   2.0000     -11.241002      -305.8832
  18   2.0000     -11.240855      -305.8792
  19   2.0000     -11.221562      -305.3542
  20   2.0000      -8.895218      -242.0512
  21   2.0000      -6.576787      -178.9635
  22   2.0000      -6.574789      -178.9091
  23   2.0000      -6.574196      -178.8930
  24   2.0000      -1.446150       -39.3517
  25   2.0000      -1.418885       -38.6098
  26   2.0000      -1.351395       -36.7733
  27   2.0000      -1.341421       -36.5019
  28   2.0000      -1.239694       -33.7338
  29   2.0000      -1.160089       -31.5676
  30   2.0000      -1.121105       -30.5068
  31   2.0000      -1.044437       -28.4206
  32   2.0000      -1.032069       -28.0840
  33   2.0000      -1.018132       -27.7048
  34   2.0000      -0.997057       -27.1313
  35   2.0000      -0.985706       -26.8224
  36   2.0000      -0.924105       -25.1462
  37   2.0000      -0.896551       -24.3964
  38   2.0000      -0.848089       -23.0777
  39   2.0000      -0.841016       -22.8852
  40   2.0000      -0.836867       -22.7723
  41   2.0000      -0.816620       -22.2214
  42   2.0000      -0.747301       -20.3351
  43   2.0000      -0.734008       -19.9734
  44   2.0000      -0.722568       -19.6621
  45   2.0000      -0.698341       -19.0028
  46   2.0000      -0.690784       -18.7972
  47   2.0000      -0.674789       -18.3619
  48   2.0000      -0.669953       -18.2304
  49   2.0000      -0.662675       -18.0323
  50   2.0000      -0.650560       -17.7026
  51   2.0000      -0.642553       -17.4847
  52   2.0000      -0.635242       -17.2858
  53   2.0000      -0.620839       -16.8939
  54   2.0000      -0.609432       -16.5835
  55   2.0000      -0.602361       -16.3911
  56   2.0000      -0.600123       -16.3302
  57   2.0000      -0.579843       -15.7783
  58   2.0000      -0.571322       -15.5465
  59   2.0000      -0.565992       -15.4014
  60   2.0000      -0.550494       -14.9797
  61   2.0000      -0.544511       -14.8169
  62   2.0000      -0.533694       -14.5225
  63   2.0000      -0.528233       -14.3740
  64   2.0000      -0.526891       -14.3374
  65   2.0000      -0.514834       -14.0093
  66   2.0000      -0.502875       -13.6839
  67   2.0000      -0.500614       -13.6224
  68   2.0000      -0.480344       -13.0708
  69   2.0000      -0.464679       -12.6445
  70   2.0000      -0.453811       -12.3488
  71   2.0000      -0.443622       -12.0716
  72   2.0000      -0.355962        -9.6862
  73   2.0000      -0.351806        -9.5731
  74   2.0000      -0.329587        -8.9685
  75   2.0000      -0.324895        -8.8408
  76   2.0000      -0.317170        -8.6306
  77   0.0000       0.071400         1.9429
  78   0.0000       0.104111         2.8330
  79   0.0000       0.123505         3.3607
  80   0.0000       0.130229         3.5437
  81   0.0000       0.136066         3.7026

MULLIKEN ATOMIC CHARGES
-----------------------
   0 C :   -0.331219
   1 C :    0.032645
   2 O :   -0.388027
   3 C :    0.493123
   4 O :   -0.427727
   5 C :   -0.233681
   6 C :    0.150321
   7 C :   -0.271575
   8 N :   -0.122918
   9 C :    0.206063
  10 S :   -0.436396
  11 N :   -0.199507
  12 C :    0.045580
  13 C :    0.034417
  14 C :   -0.172820
  15 C :   -0.137412
  16 C :   -0.269309
  17 C :    0.303831
  18 O :   -0.359216
  19 C :   -0.252468
  20 H :    0.112060
  21 H :    0.104422
  22 H :    0.122351
  23 H :    0.111791
  24 H :    0.121303
  25 H :    0.133324
  26 H :    0.095177
  27 H :    0.130866
  28 H :    0.198370
  29 H :    0.192899
  30 H :    0.152779
  31 H :    0.158205
  32 H :    0.162484
  33 H :    0.132396
  34 H :    0.240905
  35 H :    0.166962
Sum of atomic charges:   -0.0000000

LOEWDIN ATOMIC CHARGES
----------------------
   0 C :    0.106488
   1 C :   -0.013809
   2 O :    0.289693
   3 C :   -0.417618
   4 O :    0.105893
   5 C :   -0.096367
   6 C :   -0.057522
   7 C :    0.131606
   8 N :    0.406765
   9 C :   -0.457691
  10 S :   -0.033173
  11 N :    0.396738
  12 C :   -0.052220
  13 C :   -0.040133
  14 C :    0.016400
  15 C :    0.039509
  16 C :   -0.001559
  17 C :   -0.191312
  18 O :    0.396523
  19 C :    0.031167
  20 H :   -0.028736
  21 H :   -0.024934
  22 H :   -0.027095
  23 H :   -0.026070
  24 H :   -0.028392
  25 H :   -0.003240
  26 H :   -0.023332
  27 H :   -0.005181
  28 H :   -0.057486
  29 H :   -0.064755
  30 H :   -0.008320
  31 H :   -0.028896
  32 H :   -0.020819
  33 H :   -0.034983
  34 H :   -0.153329
  35 H :   -0.023811

  Mayer bond orders larger than 0.100000
B(  0-C ,  1-C ) :   0.9553 B(  0-C , 20-H ) :   0.9685 B(  0-C , 21-H ) :   0.9780
B(  0-C , 22-H ) :   0.9734 B(  1-C ,  2-O ) :   0.8835 B(  1-C , 23-H ) :   0.9810
B(  1-C , 24-H ) :   0.9864 B(  2-O ,  3-C ) :   1.1230 B(  3-C ,  4-O ) :   1.9870
B(  3-C ,  5-C ) :   1.0652 B(  5-C ,  6-C ) :   1.6531 B(  5-C , 12-C ) :   0.9697
B(  6-C ,  7-C ) :   0.9677 B(  6-C ,  8-N ) :   1.1576 B(  7-C , 25-H ) :   0.9588
B(  7-C , 26-H ) :   0.9899 B(  7-C , 27-H ) :   0.9619 B(  8-N ,  9-C ) :   1.1799
B(  8-N , 28-H ) :   0.9480 B(  9-C , 10-S ) :   1.6138 B(  9-C , 11-N ) :   1.3024
B( 11-N , 12-C ) :   0.9858 B( 11-N , 29-H ) :   0.9531 B( 12-C , 13-C ) :   0.9359
B( 12-C , 30-H ) :   1.0024 B( 13-C , 14-C ) :   1.3618 B( 13-C , 19-C ) :   1.3805
B( 14-C , 15-C ) :   1.3829 B( 14-C , 31-H ) :   0.9693 B( 15-C , 16-C ) :   1.3648
B( 15-C , 32-H ) :   0.9706 B( 16-C , 17-C ) :   1.3314 B( 16-C , 33-H ) :   0.9842
B( 17-C , 18-O ) :   1.1124 B( 17-C , 19-C ) :   1.3740 B( 18-O , 34-H ) :   0.9796
B( 19-C , 35-H ) :   0.9581

MP2 TOTAL ENERGY:    -1274.340948577 Eh
FINAL SINGLE POINT ENERGY     -1274.340948576818

DIPOLE MOMENT
-------------
                                X             Y             Z
Electronic contribution:     10.02015       9.27153       6.03912
Nuclear contribution   :    -11.05933     -10.94390      -6.11853
                        -----------------------------------------
Total Dipole Moment    :     -1.03918      -1.67237      -0.07941
                        -----------------------------------------
Magnitude (a.u.)       :      1.97054
Magnitude (Debye)      :      5.00872

Rotational constants in cm-1:     0.012295     0.009228     0.006532
Rotational constants in MHz :   368.587724   276.648940   195.831922

                             ****ORCA TERMINATED NORMALLY****
TOTAL RUN TIME: 0 days 1 hours 46 minutes 3 seconds 618 msec
