                         Program Version 4.2.0 -  RELEASE  -
|  1> ! ri-mp2 cc-pvtz cc-pvtz/c TightSCF  NoKeepInts
|  2>
|  3> %scf
|  4>   MaxCore 4096
|  5> end
|  6> *xyz  0  1
|  7>     C       15.1163756   15.5123911   17.5157567
|  8>     C       15.5406991   15.3633277   16.0399796
|  9>     O       16.9467990   15.0571943   15.8705232
| 10>     C       18.0643769   15.5858341   16.4789184
| 11>     O       19.0870996   14.9257217   16.4941959
| 12>     C       17.9267163   16.7760517   17.3758285
| 13>     C       17.4034265   17.9554856   16.9614364
| 14>     C       16.9024762   18.3073502   15.5774312
| 15>     N       17.4077553   19.0595547   17.8170574
| 16>     C       18.0603875   19.1115542   19.0203674
| 17>     S       18.0964062   20.4916365   19.9303204
| 18>     N       18.6876012   17.9612842   19.4290879
| 19>     C       18.5918854   16.6525749   18.7519351
| 20>     C       17.8872915   15.6205440   19.6301904
| 21>     C       18.3237408   14.2826452   19.6282139
| 22>     C       17.6805595   13.3158964   20.4186182
| 23>     C       16.5895911   13.6879288   21.2217749
| 24>     C       16.1502415   15.0183093   21.2283051
| 25>     O       15.0903268   15.3790494   21.9944430
| 26>     C       16.7921319   15.9789822   20.4402617
| 27>     H       15.5755813   14.7279544   18.1302796
| 28>     H       14.0285946   15.4029138   17.6028935
| 29>     H       15.3704649   16.4915640   17.9321591
| 30>     H       14.9665654   14.5378379   15.5992403
| 31>     H       15.2633994   16.2643561   15.4841034
| 32>     H       17.1424707   17.5343103   14.8374855
| 33>     H       17.3727801   19.2319120   15.2183378
| 34>     H       15.8172231   18.4646315   15.5760711
| 35>     H       16.9736200   19.9209140   17.5246144
| 36>     H       19.1516364   18.0234690   20.3265661
| 37>     H       19.6199560   16.2965619   18.5882218
| 38>     H       19.1614122   13.9876350   18.9994097
| 39>     H       18.0271279   12.2839163   20.4022496
| 40>     H       16.0886766   12.9435381   21.8318340
| 41>     H       14.8148951   14.5968932   22.4960323
| 42>     H       16.4267084   17.0002765   20.4598565
| 43> *
| 44>
| 45>                          ****END OF INPUT****

CARTESIAN COORDINATES (ANGSTROEM)
---------------------------------
  C     15.116376   15.512391   17.515757
  C     15.540699   15.363328   16.039980
  O     16.946799   15.057194   15.870523
  C     18.064377   15.585834   16.478918
  O     19.087100   14.925722   16.494196
  C     17.926716   16.776052   17.375829
  C     17.403426   17.955486   16.961436
  C     16.902476   18.307350   15.577431
  N     17.407755   19.059555   17.817057
  C     18.060388   19.111554   19.020367
  S     18.096406   20.491636   19.930320
  N     18.687601   17.961284   19.429088
  C     18.591885   16.652575   18.751935
  C     17.887291   15.620544   19.630190
  C     18.323741   14.282645   19.628214
  C     17.680560   13.315896   20.418618
  C     16.589591   13.687929   21.221775
  C     16.150241   15.018309   21.228305
  O     15.090327   15.379049   21.994443
  C     16.792132   15.978982   20.440262
  H     15.575581   14.727954   18.130280
  H     14.028595   15.402914   17.602894
  H     15.370465   16.491564   17.932159
  H     14.966565   14.537838   15.599240
  H     15.263399   16.264356   15.484103
  H     17.142471   17.534310   14.837485
  H     17.372780   19.231912   15.218338
  H     15.817223   18.464631   15.576071
  H     16.973620   19.920914   17.524614
  H     19.151636   18.023469   20.326566
  H     19.619956   16.296562   18.588222
  H     19.161412   13.987635   18.999410
  H     18.027128   12.283916   20.402250
  H     16.088677   12.943538   21.831834
  H     14.814895   14.596893   22.496032
  H     16.426708   17.000276   20.459856

 Total Charge           Charge          ....    0
 Multiplicity           Mult            ....    1
 Number of Electrons    NEL             ....  154
 Basis Dimension        Dim             ....  828

ORBITAL ENERGIES
----------------

  NO   OCC          E(Eh)            E(eV)
   0   2.0000     -91.890913     -2500.4789
   1   2.0000     -20.598408      -560.5112
   2   2.0000     -20.597551      -560.4879
   3   2.0000     -20.547359      -559.1221
   4   2.0000     -15.629083      -425.2890
   5   2.0000     -15.611296      -424.8050
   6   2.0000     -11.400752      -310.2302
   7   2.0000     -11.387165      -309.8605
   8   2.0000     -11.333058      -308.3882
   9   2.0000     -11.314088      -307.8720
  10   2.0000     -11.313503      -307.8561
  11   2.0000     -11.310584      -307.7766
  12   2.0000     -11.270652      -306.6900
  13   2.0000     -11.267370      -306.6007
  14   2.0000     -11.261387      -306.4379
  15   2.0000     -11.254595      -306.2531
  16   2.0000     -11.243942      -305.9632
  17   2.0000     -11.239308      -305.8371
  18   2.0000     -11.236167      -305.7517
  19   2.0000     -11.231137      -305.6148
  20   2.0000      -8.896010      -242.0727
  21   2.0000      -6.577597      -178.9855
  22   2.0000      -6.575572      -178.9304
  23   2.0000      -6.574994      -178.9147
  24   2.0000      -1.443286       -39.2738
  25   2.0000      -1.417369       -38.5686
  26   2.0000      -1.355782       -36.8927
  27   2.0000      -1.342161       -36.5221
  28   2.0000      -1.240919       -33.7671
  29   2.0000      -1.158995       -31.5379
  30   2.0000      -1.125324       -30.6216
  31   2.0000      -1.047707       -28.5096
  32   2.0000      -1.039199       -28.2780
  33   2.0000      -1.017185       -27.6790
  34   2.0000      -1.006131       -27.3782
  35   2.0000      -0.990378       -26.9496
  36   2.0000      -0.928243       -25.2588
  37   2.0000      -0.898678       -24.4543
  38   2.0000      -0.855353       -23.2753
  39   2.0000      -0.841027       -22.8855
  40   2.0000      -0.834483       -22.7074
  41   2.0000      -0.828778       -22.5522
  42   2.0000      -0.745719       -20.2920
  43   2.0000      -0.738557       -20.0972
  44   2.0000      -0.730552       -19.8793
  45   2.0000      -0.695308       -18.9203
  46   2.0000      -0.687097       -18.6969
  47   2.0000      -0.679258       -18.4835
  48   2.0000      -0.674892       -18.3647
  49   2.0000      -0.661548       -18.0016
  50   2.0000      -0.654563       -17.8116
  51   2.0000      -0.651903       -17.7392
  52   2.0000      -0.640524       -17.4296
  53   2.0000      -0.618208       -16.8223
  54   2.0000      -0.610040       -16.6000
  55   2.0000      -0.605783       -16.4842
  56   2.0000      -0.602066       -16.3831
  57   2.0000      -0.590157       -16.0590
  58   2.0000      -0.577612       -15.7176
  59   2.0000      -0.570514       -15.5245
  60   2.0000      -0.565771       -15.3954
  61   2.0000      -0.555539       -15.1170
  62   2.0000      -0.541560       -14.7366
  63   2.0000      -0.531281       -14.4569
  64   2.0000      -0.521211       -14.1829
  65   2.0000      -0.513332       -13.9685
  66   2.0000      -0.501280       -13.6405
  67   2.0000      -0.499611       -13.5951
  68   2.0000      -0.482952       -13.1418
  69   2.0000      -0.467093       -12.7102
  70   2.0000      -0.454989       -12.3809
  71   2.0000      -0.449708       -12.2372
  72   2.0000      -0.357485        -9.7277
  73   2.0000      -0.348547        -9.4844
  74   2.0000      -0.330439        -8.9917
  75   2.0000      -0.323026        -8.7900
  76   2.0000      -0.319267        -8.6877
  77   0.0000       0.081164         2.2086
  78   0.0000       0.107765         2.9324
  79   0.0000       0.113616         3.0917
  80   0.0000       0.130921         3.5625
  81   0.0000       0.131091         3.5672

MULLIKEN ATOMIC CHARGES
-----------------------
   0 C :   -0.334841
   1 C :    0.028450
   2 O :   -0.327332
   3 C :    0.425798
   4 O :   -0.387039
   5 C :   -0.215185
   6 C :    0.152010
   7 C :   -0.338364
   8 N :   -0.136377
   9 C :    0.199760
  10 S :   -0.439222
  11 N :   -0.221042
  12 C :    0.080225
  13 C :    0.020933
  14 C :   -0.209823
  15 C :   -0.135085
  16 C :   -0.278152
  17 C :    0.318032
  18 O :   -0.358478
  19 C :   -0.271202
  20 H :    0.129578
  21 H :    0.117459
  22 H :    0.109743
  23 H :    0.133460
  24 H :    0.086202
  25 H :    0.132479
  26 H :    0.139975
  27 H :    0.121329
  28 H :    0.197212
  29 H :    0.201199
  30 H :    0.167276
  31 H :    0.176406
  32 H :    0.163845
  33 H :    0.131955
  34 H :    0.241061
  35 H :    0.177757
Sum of atomic charges:   -0.0000000

LOEWDIN ATOMIC CHARGES
----------------------
   0 C :    0.103449
   1 C :   -0.017282
   2 O :    0.294761
   3 C :   -0.414326
   4 O :    0.120961
   5 C :   -0.080088
   6 C :   -0.094888
   7 C :    0.123339
   8 N :    0.402853
   9 C :   -0.458702
  10 S :   -0.036514
  11 N :    0.398383
  12 C :   -0.042777
  13 C :   -0.043072
  14 C :    0.019912
  15 C :    0.043031
  16 C :   -0.001719
  17 C :   -0.193839
  18 O :    0.395216
  19 C :    0.028951
  20 H :   -0.018603
  21 H :   -0.023774
  22 H :   -0.036258
  23 H :   -0.017455
  24 H :   -0.039880
  25 H :   -0.007555
  26 H :   -0.008915
  27 H :   -0.018337
  28 H :   -0.057241
  29 H :   -0.063151
  30 H :   -0.001667
  31 H :   -0.021860
  32 H :   -0.018687
  33 H :   -0.034989
  34 H :   -0.153586
  35 H :   -0.025691

  Mayer bond orders larger than 0.100000
B(  0-C ,  1-C ) :   0.9550 B(  0-C , 20-H ) :   0.9676 B(  0-C , 21-H ) :   0.9767
B(  0-C , 22-H ) :   0.9725 B(  1-C ,  2-O ) :   0.9058 B(  1-C , 23-H ) :   0.9811
B(  1-C , 24-H ) :   0.9733 B(  2-O ,  3-C ) :   1.1852 B(  3-C ,  4-O ) :   2.0752
B(  3-C ,  5-C ) :   0.9282 B(  5-C ,  6-C ) :   1.6899 B(  5-C , 12-C ) :   0.9550
B(  6-C ,  7-C ) :   0.9452 B(  6-C ,  8-N ) :   1.1077 B(  7-C , 25-H ) :   0.9794
B(  7-C , 26-H ) :   0.9710 B(  7-C , 27-H ) :   0.9653 B(  8-N ,  9-C ) :   1.1927
B(  8-N , 28-H ) :   0.9520 B(  9-C , 10-S ) :   1.6113 B(  9-C , 11-N ) :   1.2897
B( 11-N , 12-C ) :   0.9893 B( 11-N , 29-H ) :   0.9487 B( 12-C , 13-C ) :   0.9482
B( 12-C , 30-H ) :   0.9955 B( 13-C , 14-C ) :   1.3914 B( 13-C , 19-C ) :   1.3402
B( 14-C , 15-C ) :   1.3995 B( 14-C , 31-H ) :   0.9574 B( 15-C , 16-C ) :   1.3591
B( 15-C , 32-H ) :   0.9703 B( 16-C , 17-C ) :   1.3302 B( 16-C , 33-H ) :   0.9849
B( 17-C , 18-O ) :   1.1101 B( 17-C , 19-C ) :   1.3709 B( 18-O , 34-H ) :   0.9797
B( 19-C , 35-H ) :   0.9567

MP2 TOTAL ENERGY:    -1274.328864669 Eh
FINAL SINGLE POINT ENERGY     -1274.328864668857

DIPOLE MOMENT
-------------
                                X             Y             Z
Electronic contribution:      9.22641       5.99778       6.24619
Nuclear contribution   :    -10.80429      -6.96666      -6.87377
                        -----------------------------------------
Total Dipole Moment    :     -1.57788      -0.96888      -0.62757
                        -----------------------------------------
Magnitude (a.u.)       :      1.95507
Magnitude (Debye)      :      4.96938

Rotational constants in cm-1:     0.011704     0.009645     0.006818
Rotational constants in MHz :   350.891288   289.148386   204.405389

                             ****ORCA TERMINATED NORMALLY****
TOTAL RUN TIME: 0 days 1 hours 50 minutes 26 seconds 183 msec
