                         Program Version 4.2.0 -  RELEASE  -
|  1> ! ri-mp2 cc-pvtz cc-pvtz/c TightSCF  NoKeepInts
|  2>
|  3> %scf
|  4>   MaxCore 4096
|  5> end
|  6> *xyz  0  1
|  7>     C       14.9313324   14.2437619   16.4424557
|  8>     C       15.6950830   14.9231593   15.2867679
|  9>     O       16.4115172   16.0630472   15.7982487
| 10>     C       17.4965562   15.8787798   16.6071176
| 11>     O       18.0770246   14.8078742   16.6854048
| 12>     C       17.7951420   17.0267599   17.5286147
| 13>     C       17.3293185   18.2946606   17.3780315
| 14>     C       16.4478780   18.8421860   16.2741222
| 15>     N       17.7202624   19.2891799   18.2809407
| 16>     C       18.6675861   19.1339929   19.2581475
| 17>     S       19.1593827   20.3983796   20.2042686
| 18>     N       19.1868092   17.8737553   19.4109912
| 19>     C       18.6944592   16.6690992   18.7171767
| 20>     C       17.9648532   15.7496691   19.6933609
| 21>     C       18.3542798   14.4046357   19.8323015
| 22>     C       17.6797779   13.5514208   20.7216337
| 23>     C       16.6051726   14.0462976   21.4798431
| 24>     C       16.2115389   15.3842315   21.3418762
| 25>     O       15.1697262   15.8633091   22.0674472
| 26>     C       16.8846043   16.2309196   20.4555942
| 27>     H       15.6233156   13.8222176   17.1828203
| 28>     H       14.3095424   13.4253115   16.0602408
| 29>     H       14.2770060   14.9624966   16.9510601
| 30>     H       16.3840286   14.2101951   14.8132252
| 31>     H       14.9759212   15.2572959   14.5280875
| 32>     H       15.4335873   18.4305876   16.3492206
| 33>     H       16.8486764   18.5769728   15.2878572
| 34>     H       16.3627022   19.9352228   16.3024455
| 35>     H       17.3504297   20.2214126   18.1856859
| 36>     H       19.8601410   17.7781340   20.1602450
| 37>     H       19.5696560   16.1308893   18.3252542
| 38>     H       19.1730627   14.0145427   19.2325614
| 39>     H       17.9871796   12.5113950   20.8146778
| 40>     H       16.0801493   13.3902835   22.1660599
| 41>     H       14.8644169   15.1465549   22.6434780
| 42>     H       16.5648808   17.2633686   20.3667360
| 43> *
| 44>
| 45>                          ****END OF INPUT****

CARTESIAN COORDINATES (ANGSTROEM)
---------------------------------
  C     14.931332   14.243762   16.442456
  C     15.695083   14.923159   15.286768
  O     16.411517   16.063047   15.798249
  C     17.496556   15.878780   16.607118
  O     18.077025   14.807874   16.685405
  C     17.795142   17.026760   17.528615
  C     17.329318   18.294661   17.378031
  C     16.447878   18.842186   16.274122
  N     17.720262   19.289180   18.280941
  C     18.667586   19.133993   19.258147
  S     19.159383   20.398380   20.204269
  N     19.186809   17.873755   19.410991
  C     18.694459   16.669099   18.717177
  C     17.964853   15.749669   19.693361
  C     18.354280   14.404636   19.832301
  C     17.679778   13.551421   20.721634
  C     16.605173   14.046298   21.479843
  C     16.211539   15.384231   21.341876
  O     15.169726   15.863309   22.067447
  C     16.884604   16.230920   20.455594
  H     15.623316   13.822218   17.182820
  H     14.309542   13.425311   16.060241
  H     14.277006   14.962497   16.951060
  H     16.384029   14.210195   14.813225
  H     14.975921   15.257296   14.528087
  H     15.433587   18.430588   16.349221
  H     16.848676   18.576973   15.287857
  H     16.362702   19.935223   16.302446
  H     17.350430   20.221413   18.185686
  H     19.860141   17.778134   20.160245
  H     19.569656   16.130889   18.325254
  H     19.173063   14.014543   19.232561
  H     17.987180   12.511395   20.814678
  H     16.080149   13.390283   22.166060
  H     14.864417   15.146555   22.643478
  H     16.564881   17.263369   20.366736

 Total Charge           Charge          ....    0
 Multiplicity           Mult            ....    1
 Number of Electrons    NEL             ....  154
 Basis Dimension        Dim             ....  828

ORBITAL ENERGIES
----------------

  NO   OCC          E(Eh)            E(eV)
   0   2.0000     -91.888228     -2500.4058
   1   2.0000     -20.601725      -560.6014
   2   2.0000     -20.592287      -560.3446
   3   2.0000     -20.545901      -559.0824
   4   2.0000     -15.628530      -425.2739
   5   2.0000     -15.606999      -424.6880
   6   2.0000     -11.396282      -310.1086
   7   2.0000     -11.383185      -309.7522
   8   2.0000     -11.336460      -308.4808
   9   2.0000     -11.308214      -307.7121
  10   2.0000     -11.305846      -307.6477
  11   2.0000     -11.300273      -307.4961
  12   2.0000     -11.260549      -306.4151
  13   2.0000     -11.258750      -306.3662
  14   2.0000     -11.254022      -306.2375
  15   2.0000     -11.248396      -306.0844
  16   2.0000     -11.238042      -305.8027
  17   2.0000     -11.234116      -305.6958
  18   2.0000     -11.231102      -305.6138
  19   2.0000     -11.226014      -305.4754
  20   2.0000      -8.893291      -241.9987
  21   2.0000      -6.574868      -178.9112
  22   2.0000      -6.572861      -178.8566
  23   2.0000      -6.572275      -178.8407
  24   2.0000      -1.453358       -39.5479
  25   2.0000      -1.412034       -38.4234
  26   2.0000      -1.356804       -36.9205
  27   2.0000      -1.339471       -36.4489
  28   2.0000      -1.237169       -33.6651
  29   2.0000      -1.152851       -31.3707
  30   2.0000      -1.119819       -30.4718
  31   2.0000      -1.042187       -28.3593
  32   2.0000      -1.033583       -28.1252
  33   2.0000      -1.010128       -27.4870
  34   2.0000      -0.997726       -27.1495
  35   2.0000      -0.983227       -26.7550
  36   2.0000      -0.921716       -25.0812
  37   2.0000      -0.894500       -24.3406
  38   2.0000      -0.847724       -23.0677
  39   2.0000      -0.835552       -22.7365
  40   2.0000      -0.828544       -22.5458
  41   2.0000      -0.815194       -22.1825
  42   2.0000      -0.752656       -20.4808
  43   2.0000      -0.735873       -20.0241
  44   2.0000      -0.725275       -19.7357
  45   2.0000      -0.691208       -18.8087
  46   2.0000      -0.685668       -18.6580
  47   2.0000      -0.678942       -18.4749
  48   2.0000      -0.671431       -18.2706
  49   2.0000      -0.655219       -17.8294
  50   2.0000      -0.652382       -17.7522
  51   2.0000      -0.644616       -17.5409
  52   2.0000      -0.631901       -17.1949
  53   2.0000      -0.612443       -16.6654
  54   2.0000      -0.600600       -16.3432
  55   2.0000      -0.600083       -16.3291
  56   2.0000      -0.595667       -16.2089
  57   2.0000      -0.580425       -15.7942
  58   2.0000      -0.574289       -15.6272
  59   2.0000      -0.563601       -15.3364
  60   2.0000      -0.557281       -15.1644
  61   2.0000      -0.547170       -14.8892
  62   2.0000      -0.535601       -14.5744
  63   2.0000      -0.530054       -14.4235
  64   2.0000      -0.517402       -14.0792
  65   2.0000      -0.509410       -13.8617
  66   2.0000      -0.497945       -13.5498
  67   2.0000      -0.494877       -13.4663
  68   2.0000      -0.481613       -13.1054
  69   2.0000      -0.463373       -12.6090
  70   2.0000      -0.459729       -12.5099
  71   2.0000      -0.451645       -12.2899
  72   2.0000      -0.354285        -9.6406
  73   2.0000      -0.344664        -9.3788
  74   2.0000      -0.327374        -8.9083
  75   2.0000      -0.315993        -8.5986
  76   2.0000      -0.314366        -8.5543
  77   0.0000       0.075613         2.0575
  78   0.0000       0.111961         3.0466
  79   0.0000       0.120651         3.2831
  80   0.0000       0.135408         3.6846
  81   0.0000       0.141997         3.8639

MULLIKEN ATOMIC CHARGES
-----------------------
   0 C :   -0.297622
   1 C :    0.030164
   2 O :   -0.353982
   3 C :    0.444600
   4 O :   -0.429656
   5 C :   -0.169482
   6 C :    0.142717
   7 C :   -0.283200
   8 N :   -0.122016
   9 C :    0.202295
  10 S :   -0.439167
  11 N :   -0.198979
  12 C :    0.041044
  13 C :    0.054936
  14 C :   -0.164389
  15 C :   -0.134580
  16 C :   -0.279553
  17 C :    0.312474
  18 O :   -0.358995
  19 C :   -0.273166
  20 H :    0.123277
  21 H :    0.095459
  22 H :    0.093681
  23 H :    0.109214
  24 H :    0.107688
  25 H :    0.126471
  26 H :    0.126925
  27 H :    0.101451
  28 H :    0.196889
  29 H :    0.193953
  30 H :    0.153709
  31 H :    0.154475
  32 H :    0.159766
  33 H :    0.128601
  34 H :    0.240151
  35 H :    0.164846
Sum of atomic charges:   -0.0000000

LOEWDIN ATOMIC CHARGES
----------------------
   0 C :    0.106203
   1 C :   -0.017637
   2 O :    0.303352
   3 C :   -0.414301
   4 O :    0.104238
   5 C :   -0.091070
   6 C :   -0.065811
   7 C :    0.125325
   8 N :    0.404857
   9 C :   -0.458612
  10 S :   -0.035873
  11 N :    0.397880
  12 C :   -0.046336
  13 C :   -0.039348
  14 C :    0.021792
  15 C :    0.040266
  16 C :   -0.002308
  17 C :   -0.192640
  18 O :    0.393131
  19 C :    0.028625
  20 H :   -0.022865
  21 H :   -0.026507
  22 H :   -0.029402
  23 H :   -0.027865
  24 H :   -0.025852
  25 H :   -0.009975
  26 H :   -0.008098
  27 H :   -0.021077
  28 H :   -0.059091
  29 H :   -0.063660
  30 H :   -0.005084
  31 H :   -0.025170
  32 H :   -0.021120
  33 H :   -0.036262
  34 H :   -0.154807
  35 H :   -0.024898

  Mayer bond orders larger than 0.100000
B(  0-C ,  1-C ) :   0.9618 B(  0-C , 20-H ) :   0.9724 B(  0-C , 21-H ) :   0.9760
B(  0-C , 22-H ) :   0.9769 B(  1-C ,  2-O ) :   0.8942 B(  1-C , 23-H ) :   0.9790
B(  1-C , 24-H ) :   0.9844 B(  2-O ,  3-C ) :   1.1464 B(  3-C ,  4-O ) :   1.9818
B(  3-C ,  5-C ) :   1.0524 B(  5-C ,  6-C ) :   1.6465 B(  5-C , 12-C ) :   0.9666
B(  6-C ,  7-C ) :   0.9555 B(  6-C ,  8-N ) :   1.1486 B(  7-C , 25-H ) :   0.9635
B(  7-C , 26-H ) :   0.9658 B(  7-C , 27-H ) :   0.9909 B(  8-N ,  9-C ) :   1.1791
B(  8-N , 28-H ) :   0.9488 B(  9-C , 10-S ) :   1.6108 B(  9-C , 11-N ) :   1.3040
B( 11-N , 12-C ) :   0.9921 B( 11-N , 29-H ) :   0.9518 B( 12-C , 13-C ) :   0.9452
B( 12-C , 30-H ) :   1.0000 B( 13-C , 14-C ) :   1.3753 B( 13-C , 19-C ) :   1.3700
B( 14-C , 15-C ) :   1.3944 B( 14-C , 31-H ) :   0.9645 B( 15-C , 16-C ) :   1.3623
B( 15-C , 32-H ) :   0.9712 B( 16-C , 17-C ) :   1.3315 B( 16-C , 33-H ) :   0.9858
B( 17-C , 18-O ) :   1.1082 B( 17-C , 19-C ) :   1.3779 B( 18-O , 34-H ) :   0.9805
B( 19-C , 35-H ) :   0.9584

MP2 TOTAL ENERGY:    -1274.347891144 Eh
FINAL SINGLE POINT ENERGY     -1274.347891144031

DIPOLE MOMENT
-------------
                                X             Y             Z
Electronic contribution:     10.46718       9.85073       8.66346
Nuclear contribution   :    -11.93626     -11.10133      -9.71035
                        -----------------------------------------
Total Dipole Moment    :     -1.46908      -1.25061      -1.04688
                        -----------------------------------------
Magnitude (a.u.)       :      2.19503
Magnitude (Debye)      :      5.57934

Rotational constants in cm-1:     0.011022     0.009233     0.006189
Rotational constants in MHz :   330.437093   276.790074   185.536972

                             ****ORCA TERMINATED NORMALLY****
TOTAL RUN TIME: 0 days 1 hours 46 minutes 1 seconds 552 msec
