                         Program Version 4.2.0 -  RELEASE  -
|  1> ! ri-mp2 cc-pvtz cc-pvtz/c TightSCF  NoKeepInts
|  2>
|  3> %scf
|  4>   MaxCore 4096
|  5> end
|  6> *xyz  0  1
|  7>     C       15.2968655   13.3928350   16.8400510
|  8>     C       15.3991071   14.7919665   16.2106954
|  9>     O       16.5846048   15.4101271   16.7337147
| 10>     C       16.9077205   16.6720100   16.3283059
| 11>     O       16.4013757   17.1847209   15.3439743
| 12>     C       17.5907351   17.4402648   17.4261273
| 13>     C       17.5187459   18.7932689   17.5244054
| 14>     C       16.7448843   19.7434495   16.6321704
| 15>     N       18.2305888   19.4601185   18.5266963
| 16>     C       19.1647086   18.8775143   19.3424690
| 17>     S       20.0454403   19.7539956   20.4355413
| 18>     N       19.3340121   17.5224848   19.2103056
| 19>     C       18.4822220   16.6381101   18.3957972
| 20>     C       17.7577803   15.6578912   19.3154651
| 21>     C       18.2162982   14.3294441   19.4050545
| 22>     C       17.5900044   13.4082985   20.2600124
| 23>     C       16.4905525   13.8167065   21.0322938
| 24>     C       16.0344836   15.1402562   20.9531225
| 25>     O       14.9733549   15.5315269   21.7038421
| 26>     C       16.6642775   16.0582626   20.1035780
| 27>     H       15.1590224   13.4785055   17.9256499
| 28>     H       16.2036737   12.8072247   16.6537932
| 29>     H       14.4436924   12.8426259   16.4274823
| 30>     H       15.4812756   14.6930258   15.1210454
| 31>     H       14.5042329   15.3874687   16.4393272
| 32>     H       15.6827061   19.4649116   16.5948712
| 33>     H       17.1349930   19.7036421   15.6048256
| 34>     H       16.8062358   20.7879745   16.9673176
| 35>     H       18.1101671   20.4535275   18.6472483
| 36>     H       20.0115412   17.1169298   19.8447873
| 37>     H       19.1535516   16.0441006   17.7605452
| 38>     H       19.0664577   14.0082970   18.8093249
| 39>     H       17.9550168   12.3845370   20.3191287
| 40>     H       16.0013091   13.1077893   21.6924163
| 41>     H       14.7000619   14.7679198   22.2348684
| 42>     H       16.3053003   17.0802684   20.0677464
| 43> *
| 44>
| 45>                          ****END OF INPUT****

CARTESIAN COORDINATES (ANGSTROEM)
---------------------------------
  C     15.296865   13.392835   16.840051
  C     15.399107   14.791966   16.210695
  O     16.584605   15.410127   16.733715
  C     16.907720   16.672010   16.328306
  O     16.401376   17.184721   15.343974
  C     17.590735   17.440265   17.426127
  C     17.518746   18.793269   17.524405
  C     16.744884   19.743450   16.632170
  N     18.230589   19.460119   18.526696
  C     19.164709   18.877514   19.342469
  S     20.045440   19.753996   20.435541
  N     19.334012   17.522485   19.210306
  C     18.482222   16.638110   18.395797
  C     17.757780   15.657891   19.315465
  C     18.216298   14.329444   19.405054
  C     17.590004   13.408299   20.260012
  C     16.490552   13.816707   21.032294
  C     16.034484   15.140256   20.953122
  O     14.973355   15.531527   21.703842
  C     16.664278   16.058263   20.103578
  H     15.159022   13.478505   17.925650
  H     16.203674   12.807225   16.653793
  H     14.443692   12.842626   16.427482
  H     15.481276   14.693026   15.121045
  H     14.504233   15.387469   16.439327
  H     15.682706   19.464912   16.594871
  H     17.134993   19.703642   15.604826
  H     16.806236   20.787975   16.967318
  H     18.110167   20.453527   18.647248
  H     20.011541   17.116930   19.844787
  H     19.153552   16.044101   17.760545
  H     19.066458   14.008297   18.809325
  H     17.955017   12.384537   20.319129
  H     16.001309   13.107789   21.692416
  H     14.700062   14.767920   22.234868
  H     16.305300   17.080268   20.067746

 Total Charge           Charge          ....    0
 Multiplicity           Mult            ....    1
 Number of Electrons    NEL             ....  154
 Basis Dimension        Dim             ....  828

ORBITAL ENERGIES
----------------

  NO   OCC          E(Eh)            E(eV)
   0   2.0000     -91.888330     -2500.4086
   1   2.0000     -20.598388      -560.5106
   2   2.0000     -20.596961      -560.4718
   3   2.0000     -20.546923      -559.1102
   4   2.0000     -15.627870      -425.2560
   5   2.0000     -15.608157      -424.7195
   6   2.0000     -11.395109      -310.0767
   7   2.0000     -11.383715      -309.7666
   8   2.0000     -11.335137      -308.4448
   9   2.0000     -11.314255      -307.8765
  10   2.0000     -11.311080      -307.7901
  11   2.0000     -11.295450      -307.3648
  12   2.0000     -11.260946      -306.4259
  13   2.0000     -11.260448      -306.4124
  14   2.0000     -11.254751      -306.2573
  15   2.0000     -11.253456      -306.2221
  16   2.0000     -11.242202      -305.9159
  17   2.0000     -11.237380      -305.7847
  18   2.0000     -11.236778      -305.7683
  19   2.0000     -11.226711      -305.4943
  20   2.0000      -8.893362      -242.0007
  21   2.0000      -6.574934      -178.9130
  22   2.0000      -6.572933      -178.8586
  23   2.0000      -6.572347      -178.8427
  24   2.0000      -1.453653       -39.5559
  25   2.0000      -1.416363       -38.5412
  26   2.0000      -1.356188       -36.9038
  27   2.0000      -1.338813       -36.4309
  28   2.0000      -1.238214       -33.6935
  29   2.0000      -1.156268       -31.4637
  30   2.0000      -1.119559       -30.4647
  31   2.0000      -1.042476       -28.3672
  32   2.0000      -1.038903       -28.2700
  33   2.0000      -1.014448       -27.6045
  34   2.0000      -0.996098       -27.1052
  35   2.0000      -0.983173       -26.7535
  36   2.0000      -0.922396       -25.0997
  37   2.0000      -0.886583       -24.1252
  38   2.0000      -0.846151       -23.0249
  39   2.0000      -0.837351       -22.7855
  40   2.0000      -0.833120       -22.6704
  41   2.0000      -0.817168       -22.2363
  42   2.0000      -0.764163       -20.7939
  43   2.0000      -0.731270       -19.8989
  44   2.0000      -0.721697       -19.6384
  45   2.0000      -0.695045       -18.9131
  46   2.0000      -0.686830       -18.6896
  47   2.0000      -0.680884       -18.5278
  48   2.0000      -0.678033       -18.4502
  49   2.0000      -0.664357       -18.0781
  50   2.0000      -0.646143       -17.5824
  51   2.0000      -0.644328       -17.5331
  52   2.0000      -0.635200       -17.2847
  53   2.0000      -0.606939       -16.5157
  54   2.0000      -0.600044       -16.3280
  55   2.0000      -0.599117       -16.3028
  56   2.0000      -0.593497       -16.1499
  57   2.0000      -0.577466       -15.7136
  58   2.0000      -0.571160       -15.5420
  59   2.0000      -0.567961       -15.4550
  60   2.0000      -0.557302       -15.1649
  61   2.0000      -0.549850       -14.9622
  62   2.0000      -0.538560       -14.6550
  63   2.0000      -0.525085       -14.2883
  64   2.0000      -0.516900       -14.0656
  65   2.0000      -0.513101       -13.9622
  66   2.0000      -0.507859       -13.8195
  67   2.0000      -0.499070       -13.5804
  68   2.0000      -0.480367       -13.0714
  69   2.0000      -0.463054       -12.6003
  70   2.0000      -0.458050       -12.4642
  71   2.0000      -0.449211       -12.2236
  72   2.0000      -0.353943        -9.6313
  73   2.0000      -0.347505        -9.4561
  74   2.0000      -0.327691        -8.9169
  75   2.0000      -0.321111        -8.7379
  76   2.0000      -0.316315        -8.6074
  77   0.0000       0.078269         2.1298
  78   0.0000       0.106934         2.9098
  79   0.0000       0.122111         3.3228
  80   0.0000       0.131142         3.5686
  81   0.0000       0.136172         3.7054

MULLIKEN ATOMIC CHARGES
-----------------------
   0 C :   -0.276209
   1 C :    0.048980
   2 O :   -0.339183
   3 C :    0.426662
   4 O :   -0.420872
   5 C :   -0.227689
   6 C :    0.167709
   7 C :   -0.268086
   8 N :   -0.127110
   9 C :    0.216759
  10 S :   -0.441901
  11 N :   -0.207896
  12 C :    0.048242
  13 C :    0.096647
  14 C :   -0.194683
  15 C :   -0.129208
  16 C :   -0.285993
  17 C :    0.317120
  18 O :   -0.358926
  19 C :   -0.263446
  20 H :    0.104728
  21 H :    0.095381
  22 H :    0.099519
  23 H :    0.103273
  24 H :    0.085790
  25 H :    0.124925
  26 H :    0.136550
  27 H :    0.094566
  28 H :    0.196824
  29 H :    0.197395
  30 H :    0.143534
  31 H :    0.143121
  32 H :    0.160366
  33 H :    0.130044
  34 H :    0.241376
  35 H :    0.161692
Sum of atomic charges:   -0.0000000

LOEWDIN ATOMIC CHARGES
----------------------
   0 C :    0.108906
   1 C :   -0.017720
   2 O :    0.313035
   3 C :   -0.416442
   4 O :    0.104031
   5 C :   -0.092709
   6 C :   -0.063668
   7 C :    0.129734
   8 N :    0.404951
   9 C :   -0.453555
  10 S :   -0.037595
  11 N :    0.394698
  12 C :   -0.052021
  13 C :   -0.034164
  14 C :    0.010737
  15 C :    0.041427
  16 C :   -0.004722
  17 C :   -0.188913
  18 O :    0.393408
  19 C :    0.031083
  20 H :   -0.025129
  21 H :   -0.027427
  22 H :   -0.025878
  23 H :   -0.029656
  24 H :   -0.029256
  25 H :   -0.006449
  26 H :   -0.003172
  27 H :   -0.022378
  28 H :   -0.057975
  29 H :   -0.063669
  30 H :   -0.011045
  31 H :   -0.032119
  32 H :   -0.020889
  33 H :   -0.035971
  34 H :   -0.153435
  35 H :   -0.026052

  Mayer bond orders larger than 0.100000
B(  0-C ,  1-C ) :   0.9732 B(  0-C , 20-H ) :   0.9736 B(  0-C , 21-H ) :   0.9766
B(  0-C , 22-H ) :   0.9792 B(  1-C ,  2-O ) :   0.9057 B(  1-C , 23-H ) :   0.9822
B(  1-C , 24-H ) :   0.9741 B(  2-O ,  3-C ) :   1.1652 B(  3-C ,  4-O ) :   1.9915
B(  3-C ,  5-C ) :   1.0483 B(  5-C ,  6-C ) :   1.6620 B(  5-C , 12-C ) :   0.9781
B(  6-C ,  7-C ) :   0.9628 B(  6-C ,  8-N ) :   1.1541 B(  7-C , 25-H ) :   0.9657
B(  7-C , 26-H ) :   0.9584 B(  7-C , 27-H ) :   0.9894 B(  8-N ,  9-C ) :   1.1867
B(  8-N , 28-H ) :   0.9482 B(  9-C , 10-S ) :   1.6025 B(  9-C , 11-N ) :   1.3059
B( 11-N , 12-C ) :   0.9754 B( 11-N , 29-H ) :   0.9499 B( 12-C , 13-C ) :   0.9480
B( 12-C , 30-H ) :   1.0078 B( 13-C , 14-C ) :   1.3480 B( 13-C , 19-C ) :   1.3723
B( 14-C , 15-C ) :   1.3965 B( 14-C , 31-H ) :   0.9750 B( 15-C , 16-C ) :   1.3620
B( 15-C , 32-H ) :   0.9707 B( 16-C , 17-C ) :   1.3250 B( 16-C , 33-H ) :   0.9862
B( 17-C , 18-O ) :   1.1049 B( 17-C , 19-C ) :   1.3752 B( 18-O , 34-H ) :   0.9793
B( 19-C , 35-H ) :   0.9596

MP2 TOTAL ENERGY:    -1274.340488569 Eh
FINAL SINGLE POINT ENERGY     -1274.340488569283

DIPOLE MOMENT
-------------
                                X             Y             Z
Electronic contribution:      9.86181      10.47616       6.79503
Nuclear contribution   :    -11.02999     -12.09173      -7.19519
                        -----------------------------------------
Total Dipole Moment    :     -1.16819      -1.61557      -0.40016
                        -----------------------------------------
Magnitude (a.u.)       :      2.03344
Magnitude (Debye)      :      5.16859

Rotational constants in cm-1:     0.012350     0.008612     0.006060
Rotational constants in MHz :   370.243364   258.175798   181.677794

                             ****ORCA TERMINATED NORMALLY****
TOTAL RUN TIME: 0 days 1 hours 54 minutes 34 seconds 248 msec
