                         Program Version 4.2.0 -  RELEASE  -
|  1> ! ri-mp2 cc-pvtz cc-pvtz/c TightSCF  NoKeepInts
|  2>
|  3> %scf
|  4>   MaxCore 4096
|  5> end
|  6> *xyz  0  1
|  7>     C       15.3937788   14.3833625   17.1082794
|  8>     C       15.5226618   15.0803510   15.7333835
|  9>     O       16.6797021   15.9438192   15.6198225
| 10>     C       17.7533351   15.8529705   16.4574905
| 11>     O       18.3708164   14.8098502   16.5902348
| 12>     C       17.8944672   17.0007534   17.4151832
| 13>     C       17.3846064   18.2439642   17.2163411
| 14>     C       16.6067140   18.7507022   16.0193469
| 15>     N       17.6286781   19.2520751   18.1548547
| 16>     C       18.4868125   19.1420819   19.2172228
| 17>     S       18.8185890   20.4256492   20.2059543
| 18>     N       19.0548781   17.9097054   19.4189701
| 19>     C       18.6860072   16.6824671   18.6883396
| 20>     C       17.9018973   15.7335416   19.5916999
| 21>     C       18.2941117   14.3885344   19.7223679
| 22>     C       17.5665032   13.5051622   20.5370847
| 23>     C       16.4353104   13.9694929   21.2292152
| 24>     C       16.0395520   15.3075806   21.1007448
| 25>     O       14.9417986   15.7567945   21.7595559
| 26>     C       16.7653623   16.1843692   20.2884295
| 27>     H       16.2019232   13.6602955   17.2749900
| 28>     H       14.4472747   13.8325740   17.1639697
| 29>     H       15.4018888   15.1157736   17.9244363
| 30>     H       15.5868666   14.3025130   14.9612201
| 31>     H       14.6165703   15.6665069   15.5337684
| 32>     H       15.5901050   18.3390877   16.0149874
| 33>     H       17.0955724   18.4553063   15.0823856
| 34>     H       16.5218993   19.8441161   16.0034050
| 35>     H       17.2226201   20.1646868   18.0231704
| 36>     H       19.6618182   17.8467754   20.2262568
| 37>     H       19.6178194   16.1812348   18.3883934
| 38>     H       19.1572180   14.0216579   19.1717466
| 39>     H       17.8774269   12.4655121   20.6232139
| 40>     H       15.8690009   13.2898613   21.8572321
| 41>     H       14.6129189   15.0272002   22.3059580
| 42>     H       16.4404952   17.2156714   20.2043450
| 43> *
| 44>
| 45>                          ****END OF INPUT****

CARTESIAN COORDINATES (ANGSTROEM)
---------------------------------
  C     15.393779   14.383363   17.108279
  C     15.522662   15.080351   15.733383
  O     16.679702   15.943819   15.619822
  C     17.753335   15.852970   16.457490
  O     18.370816   14.809850   16.590235
  C     17.894467   17.000753   17.415183
  C     17.384606   18.243964   17.216341
  C     16.606714   18.750702   16.019347
  N     17.628678   19.252075   18.154855
  C     18.486812   19.142082   19.217223
  S     18.818589   20.425649   20.205954
  N     19.054878   17.909705   19.418970
  C     18.686007   16.682467   18.688340
  C     17.901897   15.733542   19.591700
  C     18.294112   14.388534   19.722368
  C     17.566503   13.505162   20.537085
  C     16.435310   13.969493   21.229215
  C     16.039552   15.307581   21.100745
  O     14.941799   15.756794   21.759556
  C     16.765362   16.184369   20.288429
  H     16.201923   13.660295   17.274990
  H     14.447275   13.832574   17.163970
  H     15.401889   15.115774   17.924436
  H     15.586867   14.302513   14.961220
  H     14.616570   15.666507   15.533768
  H     15.590105   18.339088   16.014987
  H     17.095572   18.455306   15.082386
  H     16.521899   19.844116   16.003405
  H     17.222620   20.164687   18.023170
  H     19.661818   17.846775   20.226257
  H     19.617819   16.181235   18.388393
  H     19.157218   14.021658   19.171747
  H     17.877427   12.465512   20.623214
  H     15.869001   13.289861   21.857232
  H     14.612919   15.027200   22.305958
  H     16.440495   17.215671   20.204345

 Total Charge           Charge          ....    0
 Multiplicity           Mult            ....    1
 Number of Electrons    NEL             ....  154
 Basis Dimension        Dim             ....  828

ORBITAL ENERGIES
----------------

  NO   OCC          E(Eh)            E(eV)
   0   2.0000     -91.889540     -2500.4415
   1   2.0000     -20.595076      -560.4205
   2   2.0000     -20.585594      -560.1625
   3   2.0000     -20.550368      -559.2039
   4   2.0000     -15.629884      -425.3108
   5   2.0000     -15.608236      -424.7217
   6   2.0000     -11.395588      -310.0897
   7   2.0000     -11.384536      -309.7890
   8   2.0000     -11.337072      -308.4974
   9   2.0000     -11.311141      -307.7918
  10   2.0000     -11.307388      -307.6897
  11   2.0000     -11.305167      -307.6292
  12   2.0000     -11.260662      -306.4182
  13   2.0000     -11.260307      -306.4085
  14   2.0000     -11.256643      -306.3088
  15   2.0000     -11.251228      -306.1615
  16   2.0000     -11.240909      -305.8807
  17   2.0000     -11.236634      -305.7644
  18   2.0000     -11.233341      -305.6747
  19   2.0000     -11.225370      -305.4578
  20   2.0000      -8.894597      -242.0343
  21   2.0000      -6.576172      -178.9467
  22   2.0000      -6.574167      -178.8922
  23   2.0000      -6.573578      -178.8762
  24   2.0000      -1.446669       -39.3659
  25   2.0000      -1.414889       -38.5011
  26   2.0000      -1.354304       -36.8525
  27   2.0000      -1.340734       -36.4832
  28   2.0000      -1.238411       -33.6989
  29   2.0000      -1.155308       -31.4375
  30   2.0000      -1.120822       -30.4991
  31   2.0000      -1.043413       -28.3927
  32   2.0000      -1.031633       -28.0721
  33   2.0000      -1.012981       -27.5646
  34   2.0000      -0.999824       -27.2066
  35   2.0000      -0.985488       -26.8165
  36   2.0000      -0.923766       -25.1369
  37   2.0000      -0.896385       -24.3919
  38   2.0000      -0.849470       -23.1153
  39   2.0000      -0.838366       -22.8131
  40   2.0000      -0.831319       -22.6213
  41   2.0000      -0.818366       -22.2689
  42   2.0000      -0.744156       -20.2495
  43   2.0000      -0.729951       -19.8630
  44   2.0000      -0.727098       -19.7853
  45   2.0000      -0.692968       -18.8566
  46   2.0000      -0.686481       -18.6801
  47   2.0000      -0.676205       -18.4005
  48   2.0000      -0.673084       -18.3155
  49   2.0000      -0.661395       -17.9975
  50   2.0000      -0.651983       -17.7414
  51   2.0000      -0.646223       -17.5846
  52   2.0000      -0.634684       -17.2706
  53   2.0000      -0.624316       -16.9885
  54   2.0000      -0.603509       -16.4223
  55   2.0000      -0.602144       -16.3852
  56   2.0000      -0.598959       -16.2985
  57   2.0000      -0.578535       -15.7427
  58   2.0000      -0.575266       -15.6538
  59   2.0000      -0.563948       -15.3458
  60   2.0000      -0.551193       -14.9987
  61   2.0000      -0.546286       -14.8652
  62   2.0000      -0.536371       -14.5954
  63   2.0000      -0.527982       -14.3671
  64   2.0000      -0.519354       -14.1323
  65   2.0000      -0.511001       -13.9050
  66   2.0000      -0.500168       -13.6103
  67   2.0000      -0.495835       -13.4924
  68   2.0000      -0.479924       -13.0594
  69   2.0000      -0.464925       -12.6512
  70   2.0000      -0.455450       -12.3934
  71   2.0000      -0.449432       -12.2297
  72   2.0000      -0.355228        -9.6663
  73   2.0000      -0.346929        -9.4404
  74   2.0000      -0.328685        -8.9440
  75   2.0000      -0.318663        -8.6713
  76   2.0000      -0.316255        -8.6057
  77   0.0000       0.071143         1.9359
  78   0.0000       0.107492         2.9250
  79   0.0000       0.119782         3.2594
  80   0.0000       0.132707         3.6111
  81   0.0000       0.139044         3.7836

MULLIKEN ATOMIC CHARGES
-----------------------
   0 C :   -0.334744
   1 C :    0.058127
   2 O :   -0.387140
   3 C :    0.487926
   4 O :   -0.411697
   5 C :   -0.207052
   6 C :    0.141639
   7 C :   -0.284812
   8 N :   -0.122029
   9 C :    0.197060
  10 S :   -0.437171
  11 N :   -0.200596
  12 C :    0.046564
  13 C :    0.051660
  14 C :   -0.172206
  15 C :   -0.135941
  16 C :   -0.275627
  17 C :    0.317869
  18 O :   -0.360510
  19 C :   -0.286190
  20 H :    0.128238
  21 H :    0.110861
  22 H :    0.103646
  23 H :    0.106762
  24 H :    0.096437
  25 H :    0.120505
  26 H :    0.131824
  27 H :    0.105434
  28 H :    0.197250
  29 H :    0.194066
  30 H :    0.155733
  31 H :    0.161031
  32 H :    0.162031
  33 H :    0.130589
  34 H :    0.240499
  35 H :    0.169963
Sum of atomic charges:   -0.0000000

LOEWDIN ATOMIC CHARGES
----------------------
   0 C :    0.106628
   1 C :   -0.011419
   2 O :    0.285253
   3 C :   -0.419172
   4 O :    0.120113
   5 C :   -0.094826
   6 C :   -0.067658
   7 C :    0.125997
   8 N :    0.405045
   9 C :   -0.459100
  10 S :   -0.034707
  11 N :    0.397672
  12 C :   -0.045890
  13 C :   -0.040266
  14 C :    0.022752
  15 C :    0.041749
  16 C :   -0.002181
  17 C :   -0.193988
  18 O :    0.393896
  19 C :    0.027650
  20 H :   -0.023293
  21 H :   -0.024451
  22 H :   -0.028902
  23 H :   -0.027197
  24 H :   -0.029239
  25 H :   -0.010831
  26 H :   -0.006298
  27 H :   -0.020292
  28 H :   -0.058809
  29 H :   -0.063816
  30 H :   -0.004202
  31 H :   -0.024486
  32 H :   -0.020514
  33 H :   -0.035798
  34 H :   -0.154219
  35 H :   -0.025202

  Mayer bond orders larger than 0.100000
B(  0-C ,  1-C ) :   0.9624 B(  0-C , 20-H ) :   0.9682 B(  0-C , 21-H ) :   0.9751
B(  0-C , 22-H ) :   0.9687 B(  1-C ,  2-O ) :   0.8964 B(  1-C , 23-H ) :   0.9850
B(  1-C , 24-H ) :   0.9799 B(  2-O ,  3-C ) :   1.0901 B(  3-C ,  4-O ) :   2.0172
B(  3-C ,  5-C ) :   1.0383 B(  5-C ,  6-C ) :   1.6568 B(  5-C , 12-C ) :   0.9612
B(  6-C ,  7-C ) :   0.9537 B(  6-C ,  8-N ) :   1.1452 B(  7-C , 25-H ) :   0.9661
B(  7-C , 26-H ) :   0.9654 B(  7-C , 27-H ) :   0.9901 B(  8-N ,  9-C ) :   1.1796
B(  8-N , 28-H ) :   0.9489 B(  9-C , 10-S ) :   1.6137 B(  9-C , 11-N ) :   1.3022
B( 11-N , 12-C ) :   0.9896 B( 11-N , 29-H ) :   0.9519 B( 12-C , 13-C ) :   0.9457
B( 12-C , 30-H ) :   0.9995 B( 13-C , 14-C ) :   1.3786 B( 13-C , 19-C ) :   1.3574
B( 14-C , 15-C ) :   1.3934 B( 14-C , 31-H ) :   0.9618 B( 15-C , 16-C ) :   1.3625
B( 15-C , 32-H ) :   0.9705 B( 16-C , 17-C ) :   1.3318 B( 16-C , 33-H ) :   0.9848
B( 17-C , 18-O ) :   1.1093 B( 17-C , 19-C ) :   1.3694 B( 18-O , 34-H ) :   0.9802
B( 19-C , 35-H ) :   0.9594

MP2 TOTAL ENERGY:    -1274.332112650 Eh
FINAL SINGLE POINT ENERGY     -1274.332112649933

DIPOLE MOMENT
-------------
                                X             Y             Z
Electronic contribution:      9.74009       9.35241       6.76775
Nuclear contribution   :    -11.23068     -10.55825      -7.49952
                        -----------------------------------------
Total Dipole Moment    :     -1.49059      -1.20584      -0.73178
                        -----------------------------------------
Magnitude (a.u.)       :      2.05217
Magnitude (Debye)      :      5.21621

Rotational constants in cm-1:     0.011669     0.009534     0.006585
Rotational constants in MHz :   349.815242   285.813486   197.418476

                             ****ORCA TERMINATED NORMALLY****
TOTAL RUN TIME: 0 days 1 hours 46 minutes 23 seconds 251 msec
