                         Program Version 5.0.0 -  RELEASE  -
|  1> ! ri-mp2 cc-pvtz cc-pvtz/c TightSCF NoKeepInts
|  2>
|  3> %scf
|  4>   MaxCore 4096
|  5> end
|  6> *xyz  0  1
|  7>     C       15.1876549   13.8215464   15.7845183
|  8>     C       15.9159663   14.4806554   16.9689341
|  9>     O       17.0185766   15.2437320   16.4455897
| 10>     C       16.8624798   16.5956240   16.3476917
| 11>     O       15.9636964   17.0630161   15.6711307
| 12>     C       17.5635682   17.3556919   17.4427251
| 13>     C       17.4049323   18.6939120   17.6136855
| 14>     C       16.5182921   19.6252565   16.8145112
| 15>     N       18.1436528   19.3680861   18.5908768
| 16>     C       19.1675032   18.8173695   19.3142451
| 17>     S       20.0913036   19.7163831   20.3505912
| 18>     N       19.3972050   17.4788350   19.1242963
| 19>     C       18.5228353   16.5734429   18.3576343
| 20>     C       17.7962864   15.6458259   19.3265566
| 21>     C       18.2422607   14.3228274   19.5061958
| 22>     C       17.5781696   13.4584973   20.3927470
| 23>     C       16.4625941   13.9220965   21.1105445
| 24>     C       16.0232985   15.2424373   20.9437456
| 25>     O       14.9481929   15.6941610   21.6367572
| 26>     C       16.6849917   16.0999973   20.0595918
| 27>     H       14.7752718   14.5841063   15.1114635
| 28>     H       14.3602077   13.1963191   16.1406982
| 29>     H       15.8756731   13.1893600   15.2098191
| 30>     H       15.2264976   15.1136044   17.5449122
| 31>     H       16.2942664   13.6929521   17.6323745
| 32>     H       15.4651496   19.3314834   16.9105886
| 33>     H       16.7734384   19.5812806   15.7479760
| 34>     H       16.6000254   20.6721174   17.1295715
| 35>     H       17.9935932   20.3538436   18.7356972
| 36>     H       20.1403377   17.0950514   19.6937637
| 37>     H       19.1669759   15.9598519   17.7117964
| 38>     H       19.1039530   13.9609813   18.9511824
| 39>     H       17.9296284   12.4361816   20.5232840
| 40>     H       15.9472946   13.2586524   21.7976099
| 41>     H       14.6673514   14.9860481   22.2360256
| 42>     H       16.3338753   17.1207725   19.9546686
| 43> *
| 44>
| 45>                          ****END OF INPUT****

CARTESIAN COORDINATES (ANGSTROEM)
---------------------------------
  C     15.187655   13.821546   15.784518
  C     15.915966   14.480655   16.968934
  O     17.018577   15.243732   16.445590
  C     16.862480   16.595624   16.347692
  O     15.963696   17.063016   15.671131
  C     17.563568   17.355692   17.442725
  C     17.404932   18.693912   17.613685
  C     16.518292   19.625256   16.814511
  N     18.143653   19.368086   18.590877
  C     19.167503   18.817370   19.314245
  S     20.091304   19.716383   20.350591
  N     19.397205   17.478835   19.124296
  C     18.522835   16.573443   18.357634
  C     17.796286   15.645826   19.326557
  C     18.242261   14.322827   19.506196
  C     17.578170   13.458497   20.392747
  C     16.462594   13.922096   21.110544
  C     16.023298   15.242437   20.943746
  O     14.948193   15.694161   21.636757
  C     16.684992   16.099997   20.059592
  H     14.775272   14.584106   15.111463
  H     14.360208   13.196319   16.140698
  H     15.875673   13.189360   15.209819
  H     15.226498   15.113604   17.544912
  H     16.294266   13.692952   17.632375
  H     15.465150   19.331483   16.910589
  H     16.773438   19.581281   15.747976
  H     16.600025   20.672117   17.129572
  H     17.993593   20.353844   18.735697
  H     20.140338   17.095051   19.693764
  H     19.166976   15.959852   17.711796
  H     19.103953   13.960981   18.951182
  H     17.929628   12.436182   20.523284
  H     15.947295   13.258652   21.797610
  H     14.667351   14.986048   22.236026
  H     16.333875   17.120772   19.954669

 Total Charge           Charge          ....    0
 Multiplicity           Mult            ....    1
 Number of Electrons    NEL             ....  154
 Basis Dimension        Dim             ....  828

ORBITAL ENERGIES
----------------

  NO   OCC          E(Eh)            E(eV)
   0   2.0000     -91.890595     -2500.4702
   1   2.0000     -20.601673      -560.6000
   2   2.0000     -20.582901      -560.0892
   3   2.0000     -20.547463      -559.1249
   4   2.0000     -15.631241      -425.3477
   5   2.0000     -15.609858      -424.7658
   6   2.0000     -11.393930      -310.0446
   7   2.0000     -11.385470      -309.8144
   8   2.0000     -11.337944      -308.5211
   9   2.0000     -11.319283      -308.0134
  10   2.0000     -11.311689      -307.8067
  11   2.0000     -11.293931      -307.3235
  12   2.0000     -11.264187      -306.5141
  13   2.0000     -11.260609      -306.4167
  14   2.0000     -11.260005      -306.4003
  15   2.0000     -11.253837      -306.2325
  16   2.0000     -11.248170      -306.0783
  17   2.0000     -11.242867      -305.9340
  18   2.0000     -11.242804      -305.9323
  19   2.0000     -11.216672      -305.2212
  20   2.0000      -8.895639      -242.0626
  21   2.0000      -6.577208      -178.9749
  22   2.0000      -6.575208      -178.9205
  23   2.0000      -6.574617      -178.9044
  24   2.0000      -1.448761       -39.4228
  25   2.0000      -1.421334       -38.6765
  26   2.0000      -1.352866       -36.8133
  27   2.0000      -1.342285       -36.5254
  28   2.0000      -1.240793       -33.7637
  29   2.0000      -1.162125       -31.6230
  30   2.0000      -1.121710       -30.5233
  31   2.0000      -1.046088       -28.4655
  32   2.0000      -1.030645       -28.0453
  33   2.0000      -1.020385       -27.7661
  34   2.0000      -0.997311       -27.1382
  35   2.0000      -0.985575       -26.8189
  36   2.0000      -0.925474       -25.1834
  37   2.0000      -0.880806       -23.9679
  38   2.0000      -0.849823       -23.1249
  39   2.0000      -0.842467       -22.9247
  40   2.0000      -0.838407       -22.8142
  41   2.0000      -0.827288       -22.5117
  42   2.0000      -0.757452       -20.6113
  43   2.0000      -0.735596       -20.0166
  44   2.0000      -0.722638       -19.6640
  45   2.0000      -0.700644       -19.0655
  46   2.0000      -0.691325       -18.8119
  47   2.0000      -0.678891       -18.4736
  48   2.0000      -0.670716       -18.2511
  49   2.0000      -0.657844       -17.9008
  50   2.0000      -0.648836       -17.6557
  51   2.0000      -0.646937       -17.6040
  52   2.0000      -0.636092       -17.3089
  53   2.0000      -0.612551       -16.6684
  54   2.0000      -0.605879       -16.4868
  55   2.0000      -0.601810       -16.3761
  56   2.0000      -0.593862       -16.1598
  57   2.0000      -0.582985       -15.8638
  58   2.0000      -0.575493       -15.6600
  59   2.0000      -0.571042       -15.5389
  60   2.0000      -0.566093       -15.4042
  61   2.0000      -0.539611       -14.6836
  62   2.0000      -0.534949       -14.5567
  63   2.0000      -0.529363       -14.4047
  64   2.0000      -0.516638       -14.0584
  65   2.0000      -0.509701       -13.8697
  66   2.0000      -0.504463       -13.7271
  67   2.0000      -0.497062       -13.5257
  68   2.0000      -0.488907       -13.3038
  69   2.0000      -0.464143       -12.6300
  70   2.0000      -0.452978       -12.3261
  71   2.0000      -0.443534       -12.0692
  72   2.0000      -0.356843        -9.7102
  73   2.0000      -0.354424        -9.6444
  74   2.0000      -0.330627        -8.9968
  75   2.0000      -0.326303        -8.8791
  76   2.0000      -0.317991        -8.6530
  77   0.0000       0.069615         1.8943
  78   0.0000       0.100632         2.7383
  79   0.0000       0.122125         3.3232
  80   0.0000       0.128782         3.5043
  81   0.0000       0.132561         3.6072

MULLIKEN ATOMIC CHARGES
-----------------------
   0 C :   -0.264359
   1 C :    0.022476
   2 O :   -0.385782
   3 C :    0.487327
   4 O :   -0.413622
   5 C :   -0.264849
   6 C :    0.162150
   7 C :   -0.269188
   8 N :   -0.123487
   9 C :    0.215497
  10 S :   -0.438782
  11 N :   -0.206860
  12 C :    0.063305
  13 C :    0.064970
  14 C :   -0.201165
  15 C :   -0.131911
  16 C :   -0.274042
  17 C :    0.313382
  18 O :   -0.356096
  19 C :   -0.261547
  20 H :    0.112907
  21 H :    0.085510
  22 H :    0.091145
  23 H :    0.095966
  24 H :    0.116559
  25 H :    0.130619
  26 H :    0.132323
  27 H :    0.095519
  28 H :    0.197919
  29 H :    0.194422
  30 H :    0.150314
  31 H :    0.149655
  32 H :    0.165161
  33 H :    0.133340
  34 H :    0.242058
  35 H :    0.169168
Sum of atomic charges:   -0.0000000

LOEWDIN ATOMIC CHARGES
----------------------
   0 C :    0.105208
   1 C :   -0.018917
   2 O :    0.289874
   3 C :   -0.419708
   4 O :    0.116325
   5 C :   -0.098307
   6 C :   -0.057725
   7 C :    0.131268
   8 N :    0.407317
   9 C :   -0.455732
  10 S :   -0.033836
  11 N :    0.396062
  12 C :   -0.052767
  13 C :   -0.035658
  14 C :    0.013488
  15 C :    0.041052
  16 C :   -0.001732
  17 C :   -0.190007
  18 O :    0.396310
  19 C :    0.031868
  20 H :   -0.024435
  21 H :   -0.030626
  22 H :   -0.028515
  23 H :   -0.030392
  24 H :   -0.026510
  25 H :   -0.005114
  26 H :   -0.003402
  27 H :   -0.023123
  28 H :   -0.057255
  29 H :   -0.065280
  30 H :   -0.008167
  31 H :   -0.029582
  32 H :   -0.019973
  33 H :   -0.034514
  34 H :   -0.152549
  35 H :   -0.024946

  Mayer bond orders larger than 0.100000
B(  0-C ,  1-C ) :   0.9853 B(  0-C , 20-H ) :   0.9755 B(  0-C , 21-H ) :   0.9782
B(  0-C , 22-H ) :   0.9789 B(  1-C ,  2-O ) :   0.8692 B(  1-C , 23-H ) :   0.9685
B(  1-C , 24-H ) :   0.9733 B(  2-O ,  3-C ) :   1.0929 B(  3-C ,  4-O ) :   1.9928
B(  3-C ,  5-C ) :   1.0795 B(  5-C ,  6-C ) :   1.6443 B(  5-C , 12-C ) :   0.9703
B(  6-C ,  7-C ) :   0.9675 B(  6-C ,  8-N ) :   1.1612 B(  7-C , 25-H ) :   0.9604
B(  7-C , 26-H ) :   0.9594 B(  7-C , 27-H ) :   0.9902 B(  8-N ,  9-C ) :   1.1813
B(  8-N , 28-H ) :   0.9476 B(  9-C , 10-S ) :   1.6067 B(  9-C , 11-N ) :   1.3071
B( 11-N , 12-C ) :   0.9674 B( 11-N , 29-H ) :   0.9523 B( 12-C , 13-C ) :   0.9463
B( 12-C , 30-H ) :   1.0016 B( 13-C , 14-C ) :   1.3493 B( 13-C , 19-C ) :   1.3627
B( 14-C , 15-C ) :   1.3905 B( 14-C , 31-H ) :   0.9755 B( 15-C , 16-C ) :   1.3621
B( 15-C , 32-H ) :   0.9691 B( 16-C , 17-C ) :   1.3308 B( 16-C , 33-H ) :   0.9838
B( 17-C , 18-O ) :   1.1137 B( 17-C , 19-C ) :   1.3700 B( 18-O , 34-H ) :   0.9788
B( 19-C , 35-H ) :   0.9591

MP2 TOTAL ENERGY:    -1274.331494941 Eh
FINAL SINGLE POINT ENERGY     -1274.331494941253

DIPOLE MOMENT
-------------
                                X             Y             Z
Electronic contribution:     10.22816       9.92579       7.33840
Nuclear contribution   :    -11.16963     -11.40734      -7.21641
                        -----------------------------------------
Total Dipole Moment    :     -0.94147      -1.48155       0.12200
                        -----------------------------------------
Magnitude (a.u.)       :      1.75961
Magnitude (Debye)      :      4.47258

Rotational constants in cm-1:     0.012233     0.008807     0.006317
Rotational constants in MHz :   366.743790   264.032989   189.391874

                             ****ORCA TERMINATED NORMALLY****
TOTAL RUN TIME: 0 days 1 hours 37 minutes 10 seconds 361 msec
