                         Program Version 4.2.0 -  RELEASE  -
|  1> ! ri-mp2 cc-pvtz cc-pvtz/c TightSCF  NoKeepInts
|  2>
|  3> %scf
|  4>   MaxCore 4096
|  5> end
|  6> *xyz  0  1
|  7>     C       14.3259476   15.6529629   16.1612919
|  8>     C       15.4258057   15.4396706   17.2164013
|  9>     O       16.6329822   15.0575805   16.5246101
| 10>     C       17.8171454   15.7546574   16.5042791
| 11>     O       18.8267100   15.1876532   16.1302701
| 12>     C       17.9200347   16.9033215   17.4503971
| 13>     C       17.3514601   18.1036581   17.2003381
| 14>     C       16.5614710   18.4917797   15.9712469
| 15>     N       17.5171617   19.1534571   18.1059763
| 16>     C       18.3024650   19.0965524   19.2285826
| 17>     S       18.4776567   20.3995459   20.2312441
| 18>     N       18.9294475   17.9010509   19.4851156
| 19>     C       18.7607228   16.6607018   18.7011651
| 20>     C       18.1494236   15.5438669   19.5409917
| 21>     C       18.6523758   14.2336794   19.4442662
| 22>     C       18.0757309   13.1888533   20.1852620
| 23>     C       16.9828703   13.4543021   21.0276955
| 24>     C       16.4735281   14.7563182   21.1205251
| 25>     O       15.4076430   15.0134523   21.9192960
| 26>     C       17.0493044   15.7949498   20.3820448
| 27>     H       14.6036651   16.4326056   15.4440045
| 28>     H       13.3840713   15.9450296   16.6415413
| 29>     H       14.1494879   14.7249403   15.6027626
| 30>     H       15.5375301   16.3404367   17.8290190
| 31>     H       15.1260885   14.6243592   17.8881526
| 32>     H       16.6539905   17.7494963   15.1688917
| 33>     H       16.9196081   19.4441912   15.5598955
| 34>     H       15.4966737   18.6058534   16.2078712
| 35>     H       17.0763512   20.0428229   17.9299749
| 36>     H       19.4848857   17.8833634   20.3312684
| 37>     H       19.7584957   16.3347279   18.3716129
| 38>     H       19.4837524   14.0212062   18.7752306
| 39>     H       18.4714561   12.1783736   20.0970102
| 40>     H       16.5322353   12.6486605   21.5979823
| 41>     H       15.1931261   14.1936377   22.3901162
| 42>     H       16.6356956   16.7942815   20.4676666
| 43> *
| 44>
| 45>                          ****END OF INPUT****

CARTESIAN COORDINATES (ANGSTROEM)
---------------------------------
  C     14.325948   15.652963   16.161292
  C     15.425806   15.439671   17.216401
  O     16.632982   15.057581   16.524610
  C     17.817145   15.754657   16.504279
  O     18.826710   15.187653   16.130270
  C     17.920035   16.903322   17.450397
  C     17.351460   18.103658   17.200338
  C     16.561471   18.491780   15.971247
  N     17.517162   19.153457   18.105976
  C     18.302465   19.096552   19.228583
  S     18.477657   20.399546   20.231244
  N     18.929447   17.901051   19.485116
  C     18.760723   16.660702   18.701165
  C     18.149424   15.543867   19.540992
  C     18.652376   14.233679   19.444266
  C     18.075731   13.188853   20.185262
  C     16.982870   13.454302   21.027696
  C     16.473528   14.756318   21.120525
  O     15.407643   15.013452   21.919296
  C     17.049304   15.794950   20.382045
  H     14.603665   16.432606   15.444005
  H     13.384071   15.945030   16.641541
  H     14.149488   14.724940   15.602763
  H     15.537530   16.340437   17.829019
  H     15.126088   14.624359   17.888153
  H     16.653990   17.749496   15.168892
  H     16.919608   19.444191   15.559895
  H     15.496674   18.605853   16.207871
  H     17.076351   20.042823   17.929975
  H     19.484886   17.883363   20.331268
  H     19.758496   16.334728   18.371613
  H     19.483752   14.021206   18.775231
  H     18.471456   12.178374   20.097010
  H     16.532235   12.648660   21.597982
  H     15.193126   14.193638   22.390116
  H     16.635696   16.794282   20.467667

 Total Charge           Charge          ....    0
 Multiplicity           Mult            ....    1
 Number of Electrons    NEL             ....  154
 Basis Dimension        Dim             ....  828

ORBITAL ENERGIES
----------------

  NO   OCC          E(Eh)            E(eV)
   0   2.0000     -91.889728     -2500.4466
   1   2.0000     -20.601655      -560.5995
   2   2.0000     -20.600378      -560.5648
   3   2.0000     -20.550709      -559.2132
   4   2.0000     -15.626126      -425.2085
   5   2.0000     -15.611945      -424.8226
   6   2.0000     -11.398459      -310.1678
   7   2.0000     -11.386737      -309.8489
   8   2.0000     -11.326708      -308.2154
   9   2.0000     -11.316989      -307.9509
  10   2.0000     -11.316034      -307.9249
  11   2.0000     -11.303717      -307.5898
  12   2.0000     -11.269894      -306.6694
  13   2.0000     -11.264779      -306.5302
  14   2.0000     -11.263797      -306.5035
  15   2.0000     -11.256981      -306.3180
  16   2.0000     -11.246372      -306.0293
  17   2.0000     -11.242559      -305.9256
  18   2.0000     -11.239727      -305.8485
  19   2.0000     -11.235363      -305.7298
  20   2.0000      -8.894852      -242.0412
  21   2.0000      -6.576443      -178.9541
  22   2.0000      -6.574414      -178.8989
  23   2.0000      -6.573842      -178.8833
  24   2.0000      -1.448079       -39.4042
  25   2.0000      -1.420181       -38.6451
  26   2.0000      -1.359149       -36.9843
  27   2.0000      -1.339818       -36.4583
  28   2.0000      -1.239899       -33.7394
  29   2.0000      -1.161809       -31.6144
  30   2.0000      -1.126222       -30.6461
  31   2.0000      -1.049724       -28.5645
  32   2.0000      -1.041352       -28.3366
  33   2.0000      -1.019161       -27.7328
  34   2.0000      -1.005474       -27.3603
  35   2.0000      -0.989794       -26.9337
  36   2.0000      -0.928222       -25.2582
  37   2.0000      -0.889267       -24.1982
  38   2.0000      -0.853919       -23.2363
  39   2.0000      -0.841920       -22.9098
  40   2.0000      -0.837281       -22.7836
  41   2.0000      -0.836562       -22.7640
  42   2.0000      -0.756519       -20.5859
  43   2.0000      -0.737479       -20.0678
  44   2.0000      -0.732489       -19.9321
  45   2.0000      -0.697982       -18.9930
  46   2.0000      -0.688906       -18.7461
  47   2.0000      -0.680213       -18.5095
  48   2.0000      -0.677142       -18.4260
  49   2.0000      -0.668122       -18.1805
  50   2.0000      -0.653201       -17.7745
  51   2.0000      -0.641926       -17.4677
  52   2.0000      -0.639846       -17.4111
  53   2.0000      -0.615747       -16.7553
  54   2.0000      -0.608709       -16.5638
  55   2.0000      -0.605628       -16.4800
  56   2.0000      -0.603512       -16.4224
  57   2.0000      -0.589708       -16.0468
  58   2.0000      -0.578936       -15.7536
  59   2.0000      -0.569587       -15.4992
  60   2.0000      -0.566602       -15.4180
  61   2.0000      -0.560342       -15.2477
  62   2.0000      -0.542736       -14.7686
  63   2.0000      -0.534658       -14.5488
  64   2.0000      -0.523221       -14.2376
  65   2.0000      -0.516252       -14.0479
  66   2.0000      -0.502985       -13.6869
  67   2.0000      -0.502527       -13.6745
  68   2.0000      -0.488688       -13.2979
  69   2.0000      -0.471072       -12.8185
  70   2.0000      -0.452495       -12.3130
  71   2.0000      -0.448730       -12.2106
  72   2.0000      -0.356480        -9.7003
  73   2.0000      -0.352126        -9.5818
  74   2.0000      -0.329488        -8.9658
  75   2.0000      -0.324774        -8.8376
  76   2.0000      -0.318114        -8.6563
  77   0.0000       0.087930         2.3927
  78   0.0000       0.104685         2.8486
  79   0.0000       0.112978         3.0743
  80   0.0000       0.127491         3.4692
  81   0.0000       0.129658         3.5282

MULLIKEN ATOMIC CHARGES
-----------------------
   0 C :   -0.269657
   1 C :    0.013727
   2 O :   -0.313518
   3 C :    0.387168
   4 O :   -0.379534
   5 C :   -0.165788
   6 C :    0.124924
   7 C :   -0.336218
   8 N :   -0.137300
   9 C :    0.206216
  10 S :   -0.441946
  11 N :   -0.214590
  12 C :    0.066626
  13 C :    0.028578
  14 C :   -0.188702
  15 C :   -0.129293
  16 C :   -0.277004
  17 C :    0.311097
  18 O :   -0.358194
  19 C :   -0.278825
  20 H :    0.086121
  21 H :    0.094535
  22 H :    0.112779
  23 H :    0.098087
  24 H :    0.129388
  25 H :    0.124389
  26 H :    0.142114
  27 H :    0.125756
  28 H :    0.196094
  29 H :    0.198895
  30 H :    0.164455
  31 H :    0.164990
  32 H :    0.163356
  33 H :    0.132860
  34 H :    0.241972
  35 H :    0.176443
Sum of atomic charges:   -0.0000000

LOEWDIN ATOMIC CHARGES
----------------------
   0 C :    0.103811
   1 C :   -0.017937
   2 O :    0.312647
   3 C :   -0.418331
   4 O :    0.125886
   5 C :   -0.081292
   6 C :   -0.108411
   7 C :    0.124964
   8 N :    0.400543
   9 C :   -0.455471
  10 S :   -0.038619
  11 N :    0.397347
  12 C :   -0.044034
  13 C :   -0.042918
  14 C :    0.024106
  15 C :    0.046450
  16 C :   -0.000187
  17 C :   -0.194170
  18 O :    0.394337
  19 C :    0.028221
  20 H :   -0.034328
  21 H :   -0.025500
  22 H :   -0.022829
  23 H :   -0.040948
  24 H :   -0.021277
  25 H :   -0.009415
  26 H :   -0.009786
  27 H :   -0.015823
  28 H :   -0.058448
  29 H :   -0.063631
  30 H :   -0.002267
  31 H :   -0.022020
  32 H :   -0.018344
  33 H :   -0.034569
  34 H :   -0.152807
  35 H :   -0.024948

  Mayer bond orders larger than 0.100000
B(  0-C ,  1-C ) :   0.9723 B(  0-C , 20-H ) :   0.9776 B(  0-C , 21-H ) :   0.9755
B(  0-C , 22-H ) :   0.9794 B(  1-C ,  2-O ) :   0.8989 B(  1-C , 23-H ) :   0.9616
B(  1-C , 24-H ) :   0.9772 B(  2-O ,  3-C ) :   1.1787 B(  3-C ,  4-O ) :   2.0949
B(  3-C ,  5-C ) :   0.9217 B(  5-C ,  6-C ) :   1.6965 B(  5-C , 12-C ) :   0.9613
B(  6-C ,  7-C ) :   0.9425 B(  6-C ,  8-N ) :   1.1097 B(  7-C , 25-H ) :   0.9816
B(  7-C , 26-H ) :   0.9729 B(  7-C , 27-H ) :   0.9648 B(  8-N ,  9-C ) :   1.1971
B(  8-N , 28-H ) :   0.9525 B(  9-C , 10-S ) :   1.6104 B(  9-C , 11-N ) :   1.2860
B( 11-N , 12-C ) :   0.9979 B( 11-N , 29-H ) :   0.9485 B( 12-C , 13-C ) :   0.9449
B( 12-C , 30-H ) :   0.9969 B( 13-C , 14-C ) :   1.3866 B( 13-C , 19-C ) :   1.3430
B( 14-C , 15-C ) :   1.3971 B( 14-C , 31-H ) :   0.9625 B( 15-C , 16-C ) :   1.3642
B( 15-C , 32-H ) :   0.9700 B( 16-C , 17-C ) :   1.3286 B( 16-C , 33-H ) :   0.9842
B( 17-C , 18-O ) :   1.1101 B( 17-C , 19-C ) :   1.3716 B( 18-O , 34-H ) :   0.9789
B( 19-C , 35-H ) :   0.9578

MP2 TOTAL ENERGY:    -1274.328657555 Eh
FINAL SINGLE POINT ENERGY     -1274.328657554752

DIPOLE MOMENT
-------------
                                X             Y             Z
Electronic contribution:     11.55463       5.42802       8.01517
Nuclear contribution   :    -13.14004      -6.46864      -8.32968
                        -----------------------------------------
Total Dipole Moment    :     -1.58540      -1.04062      -0.31451
                        -----------------------------------------
Magnitude (a.u.)       :      1.92232
Magnitude (Debye)      :      4.88615

Rotational constants in cm-1:     0.011578     0.009244     0.006855
Rotational constants in MHz :   347.092501   277.114971   205.516124

                             ****ORCA TERMINATED NORMALLY****
TOTAL RUN TIME: 0 days 1 hours 48 minutes 54 seconds 371 msec
