                         Program Version 5.0.0 -  RELEASE  -
|  1> ! ri-mp2 cc-pvtz cc-pvtz/c TightSCF NoKeepInts
|  2>
|  3> %scf
|  4>   MaxCore 4096
|  5> end
|  6> *xyz  0  1
|  7>     C       14.5579847   14.6347715   14.9920811
|  8>     C       15.5374423   14.4477849   16.1628077
|  9>     O       16.4704715   15.5400361   16.1201615
| 10>     C       17.6131194   15.4555755   16.8608652
| 11>     O       18.0939535   14.3801553   17.1789909
| 12>     C       17.9446310   16.7215423   17.5964893
| 13>     C       17.5702003   17.9654659   17.1989882
| 14>     C       16.7858399   18.3493550   15.9609335
| 15>     N       17.9838111   19.0825394   17.9321138
| 16>     C       18.8827057   19.0522735   18.9655507
| 17>     S       19.4168236   20.4361674   19.6970784
| 18>     N       19.3176073   17.8127965   19.3613527
| 19>     C       18.7736227   16.5321146   18.8717013
| 20>     C       17.9514343   15.8500143   19.9622033
| 21>     C       18.2507813   14.5347343   20.3628265
| 22>     C       17.4947186   13.9004973   21.3628508
| 23>     C       16.4286544   14.5866170   21.9689555
| 24>     C       16.1245399   15.8953037   21.5703220
| 25>     O       15.0915357   16.5581993   22.1489460
| 26>     C       16.8784982   16.5236946   20.5742690
| 27>     H       14.0163991   15.5839041   15.0881097
| 28>     H       13.8235920   13.8203602   14.9718328
| 29>     H       15.0952535   14.6362865   14.0354536
| 30>     H       15.0019277   14.4371262   17.1214517
| 31>     H       16.0567873   13.4870978   16.0408953
| 32>     H       17.1745682   17.8310609   15.0754400
| 33>     H       16.8316140   19.4243134   15.7482659
| 34>     H       15.7288240   18.0774304   16.0731286
| 35>     H       17.6760725   20.0014123   17.6564262
| 36>     H       19.9560698   17.8160980   20.1464001
| 37>     H       19.6251305   15.8816918   18.6245397
| 38>     H       19.0638458   13.9955655   19.8827386
| 39>     H       17.7333085   12.8806449   21.6592036
| 40>     H       15.8411706   14.0999147   22.7402658
| 41>     H       14.7259386   15.9812393   22.8361631
| 42>     H       16.6281223   17.5382156   20.2841980
| 43> *
| 44>
| 45>                          ****END OF INPUT****

CARTESIAN COORDINATES (ANGSTROEM)
---------------------------------
  C     14.557985   14.634771   14.992081
  C     15.537442   14.447785   16.162808
  O     16.470471   15.540036   16.120161
  C     17.613119   15.455575   16.860865
  O     18.093954   14.380155   17.178991
  C     17.944631   16.721542   17.596489
  C     17.570200   17.965466   17.198988
  C     16.785840   18.349355   15.960933
  N     17.983811   19.082539   17.932114
  C     18.882706   19.052273   18.965551
  S     19.416824   20.436167   19.697078
  N     19.317607   17.812797   19.361353
  C     18.773623   16.532115   18.871701
  C     17.951434   15.850014   19.962203
  C     18.250781   14.534734   20.362827
  C     17.494719   13.900497   21.362851
  C     16.428654   14.586617   21.968955
  C     16.124540   15.895304   21.570322
  O     15.091536   16.558199   22.148946
  C     16.878498   16.523695   20.574269
  H     14.016399   15.583904   15.088110
  H     13.823592   13.820360   14.971833
  H     15.095253   14.636287   14.035454
  H     15.001928   14.437126   17.121452
  H     16.056787   13.487098   16.040895
  H     17.174568   17.831061   15.075440
  H     16.831614   19.424313   15.748266
  H     15.728824   18.077430   16.073129
  H     17.676073   20.001412   17.656426
  H     19.956070   17.816098   20.146400
  H     19.625131   15.881692   18.624540
  H     19.063846   13.995565   19.882739
  H     17.733308   12.880645   21.659204
  H     15.841171   14.099915   22.740266
  H     14.725939   15.981239   22.836163
  H     16.628122   17.538216   20.284198

 Total Charge           Charge          ....    0
 Multiplicity           Mult            ....    1
 Number of Electrons    NEL             ....  154
 Basis Dimension        Dim             ....  828

ORBITAL ENERGIES
----------------

  NO   OCC          E(Eh)            E(eV)
   0   2.0000     -91.888104     -2500.4024
   1   2.0000     -20.597917      -560.4978
   2   2.0000     -20.592522      -560.3510
   3   2.0000     -20.548738      -559.1596
   4   2.0000     -15.628239      -425.2660
   5   2.0000     -15.606939      -424.6864
   6   2.0000     -11.395132      -310.0773
   7   2.0000     -11.383159      -309.7515
   8   2.0000     -11.335131      -308.4446
   9   2.0000     -11.308380      -307.7167
  10   2.0000     -11.306287      -307.6597
  11   2.0000     -11.298410      -307.4454
  12   2.0000     -11.260188      -306.4053
  13   2.0000     -11.259245      -306.3796
  14   2.0000     -11.254212      -306.2427
  15   2.0000     -11.248467      -306.0863
  16   2.0000     -11.238134      -305.8052
  17   2.0000     -11.234213      -305.6985
  18   2.0000     -11.233698      -305.6845
  19   2.0000     -11.231236      -305.6175
  20   2.0000      -8.893170      -241.9955
  21   2.0000      -6.574748      -178.9080
  22   2.0000      -6.572740      -178.8534
  23   2.0000      -6.572156      -178.8374
  24   2.0000      -1.454411       -39.5765
  25   2.0000      -1.412264       -38.4296
  26   2.0000      -1.357332       -36.9349
  27   2.0000      -1.339208       -36.4417
  28   2.0000      -1.236994       -33.6603
  29   2.0000      -1.152827       -31.3700
  30   2.0000      -1.119876       -30.4734
  31   2.0000      -1.044323       -28.4175
  32   2.0000      -1.036832       -28.2136
  33   2.0000      -1.010222       -27.4895
  34   2.0000      -0.997827       -27.1523
  35   2.0000      -0.983450       -26.7610
  36   2.0000      -0.921415       -25.0730
  37   2.0000      -0.886376       -24.1195
  38   2.0000      -0.847098       -23.0507
  39   2.0000      -0.835636       -22.7388
  40   2.0000      -0.828642       -22.5485
  41   2.0000      -0.819958       -22.3122
  42   2.0000      -0.760495       -20.6941
  43   2.0000      -0.735910       -20.0251
  44   2.0000      -0.725529       -19.7426
  45   2.0000      -0.690947       -18.8016
  46   2.0000      -0.684337       -18.6218
  47   2.0000      -0.680740       -18.5239
  48   2.0000      -0.675508       -18.3815
  49   2.0000      -0.654541       -17.8110
  50   2.0000      -0.651731       -17.7345
  51   2.0000      -0.642975       -17.4962
  52   2.0000      -0.634158       -17.2563
  53   2.0000      -0.608888       -16.5687
  54   2.0000      -0.601195       -16.3594
  55   2.0000      -0.600688       -16.3456
  56   2.0000      -0.595880       -16.2147
  57   2.0000      -0.577522       -15.7152
  58   2.0000      -0.573961       -15.6183
  59   2.0000      -0.562784       -15.3141
  60   2.0000      -0.561226       -15.2717
  61   2.0000      -0.545282       -14.8379
  62   2.0000      -0.542496       -14.7621
  63   2.0000      -0.525044       -14.2872
  64   2.0000      -0.517890       -14.0925
  65   2.0000      -0.509741       -13.8707
  66   2.0000      -0.502535       -13.6747
  67   2.0000      -0.495807       -13.4916
  68   2.0000      -0.481461       -13.1012
  69   2.0000      -0.463813       -12.6210
  70   2.0000      -0.461387       -12.5550
  71   2.0000      -0.452088       -12.3019
  72   2.0000      -0.353983        -9.6324
  73   2.0000      -0.344667        -9.3789
  74   2.0000      -0.327272        -8.9055
  75   2.0000      -0.315883        -8.5956
  76   2.0000      -0.314484        -8.5575
  77   0.0000       0.074541         2.0284
  78   0.0000       0.110943         3.0189
  79   0.0000       0.120172         3.2701
  80   0.0000       0.135206         3.6791
  81   0.0000       0.138241         3.7617

MULLIKEN ATOMIC CHARGES
-----------------------
   0 C :   -0.269568
   1 C :    0.038619
   2 O :   -0.351100
   3 C :    0.447546
   4 O :   -0.416475
   5 C :   -0.181102
   6 C :    0.141563
   7 C :   -0.286670
   8 N :   -0.123593
   9 C :    0.202172
  10 S :   -0.439672
  11 N :   -0.198316
  12 C :    0.040999
  13 C :    0.054081
  14 C :   -0.161116
  15 C :   -0.133549
  16 C :   -0.279761
  17 C :    0.311069
  18 O :   -0.359022
  19 C :   -0.273478
  20 H :    0.090463
  21 H :    0.096030
  22 H :    0.098460
  23 H :    0.092732
  24 H :    0.111731
  25 H :    0.125773
  26 H :    0.103763
  27 H :    0.126449
  28 H :    0.196978
  29 H :    0.193802
  30 H :    0.154073
  31 H :    0.153757
  32 H :    0.159396
  33 H :    0.128457
  34 H :    0.240193
  35 H :    0.165315
Sum of atomic charges:    0.0000000

LOEWDIN ATOMIC CHARGES
----------------------
   0 C :    0.106921
   1 C :   -0.015766
   2 O :    0.301380
   3 C :   -0.413737
   4 O :    0.111799
   5 C :   -0.091959
   6 C :   -0.068737
   7 C :    0.125256
   8 N :    0.404545
   9 C :   -0.458424
  10 S :   -0.036285
  11 N :    0.397558
  12 C :   -0.046032
  13 C :   -0.039100
  14 C :    0.021972
  15 C :    0.041057
  16 C :   -0.002453
  17 C :   -0.193062
  18 O :    0.392982
  19 C :    0.028136
  20 H :   -0.030272
  21 H :   -0.023794
  22 H :   -0.025628
  23 H :   -0.029943
  24 H :   -0.027144
  25 H :   -0.008347
  26 H :   -0.020484
  27 H :   -0.010451
  28 H :   -0.059013
  29 H :   -0.063824
  30 H :   -0.004825
  31 H :   -0.025198
  32 H :   -0.021079
  33 H :   -0.036313
  34 H :   -0.154795
  35 H :   -0.024940

  Mayer bond orders larger than 0.100000
B(  0-C ,  1-C ) :   0.9730 B(  0-C , 20-H ) :   0.9791 B(  0-C , 21-H ) :   0.9775
B(  0-C , 22-H ) :   0.9773 B(  1-C ,  2-O ) :   0.8981 B(  1-C , 23-H ) :   0.9736
B(  1-C , 24-H ) :   0.9774 B(  2-O ,  3-C ) :   1.1303 B(  3-C ,  4-O ) :   2.0027
B(  3-C ,  5-C ) :   1.0421 B(  5-C ,  6-C ) :   1.6546 B(  5-C , 12-C ) :   0.9657
B(  6-C ,  7-C ) :   0.9533 B(  6-C ,  8-N ) :   1.1420 B(  7-C , 25-H ) :   0.9676
B(  7-C , 26-H ) :   0.9909 B(  7-C , 27-H ) :   0.9629 B(  8-N ,  9-C ) :   1.1808
B(  8-N , 28-H ) :   0.9492 B(  9-C , 10-S ) :   1.6104 B(  9-C , 11-N ) :   1.3029
B( 11-N , 12-C ) :   0.9911 B( 11-N , 29-H ) :   0.9519 B( 12-C , 13-C ) :   0.9471
B( 12-C , 30-H ) :   0.9991 B( 13-C , 14-C ) :   1.3768 B( 13-C , 19-C ) :   1.3687
B( 14-C , 15-C ) :   1.3948 B( 14-C , 31-H ) :   0.9646 B( 15-C , 16-C ) :   1.3629
B( 15-C , 32-H ) :   0.9713 B( 16-C , 17-C ) :   1.3313 B( 16-C , 33-H ) :   0.9858
B( 17-C , 18-O ) :   1.1082 B( 17-C , 19-C ) :   1.3784 B( 18-O , 34-H ) :   0.9805
B( 19-C , 35-H ) :   0.9583

MP2 TOTAL ENERGY:    -1274.340002304 Eh
FINAL SINGLE POINT ENERGY     -1274.340002303716

DIPOLE MOMENT
-------------
                                X             Y             Z
Electronic contribution:     11.74170       9.15402      10.57932
Nuclear contribution   :    -13.27900     -10.44177     -11.38807
                        -----------------------------------------
Total Dipole Moment    :     -1.53729      -1.28775      -0.80875
                        -----------------------------------------
Magnitude (a.u.)       :      2.16233
Magnitude (Debye)      :      5.49620

Rotational constants in cm-1:     0.010423     0.009036     0.005998
Rotational constants in MHz :   312.459612   270.883501   179.829699

                             ****ORCA TERMINATED NORMALLY****
TOTAL RUN TIME: 0 days 1 hours 48 minutes 19 seconds 281 msec
