                         Program Version 5.0.0 -  RELEASE  -
|  1> ! ri-mp2 cc-pvtz cc-pvtz/c TightSCF NoKeepInts
|  2>
|  3> %scf
|  4>   MaxCore 4096
|  5> end
|  6> *xyz  0  1
|  7>     C       16.1503158   13.1031572   17.2659622
|  8>     C       15.9006466   14.3980419   16.4750410
|  9>     O       17.1453706   15.1093143   16.3517717
| 10>     C       17.0700705   16.4550907   16.1364168
| 11>     O       16.2932117   16.8998605   15.3093086
| 12>     C       17.6541660   17.2787400   17.2520661
| 13>     C       17.5556975   18.6335370   17.2820254
| 14>     C       16.8483596   19.5283548   16.2862847
| 15>     N       18.1981969   19.3596201   18.2894533
| 16>     C       19.1029422   18.8321828   19.1714489
| 17>     S       19.9585786   19.7793335   20.2236659
| 18>     N       19.2801190   17.4733327   19.1209117
| 19>     C       18.4249805   16.5428755   18.3618399
| 20>     C       17.5292058   15.7923586   19.3448411
| 21>     C       18.0485538   14.6850544   20.0427089
| 22>     C       17.2602325   13.9894146   20.9748569
| 23>     C       15.9397377   14.4047820   21.2146180
| 24>     C       15.4218210   15.5134144   20.5318734
| 25>     O       14.1488534   15.9205906   20.7647660
| 26>     C       16.2096551   16.2073324   19.6082575
| 27>     H       16.9274677   12.4984745   16.7825976
| 28>     H       15.2328452   12.5047521   17.3177749
| 29>     H       16.4672016   13.3221711   18.2896139
| 30>     H       15.4973458   14.1704940   15.4792664
| 31>     H       15.1622833   15.0064126   17.0156427
| 32>     H       15.7752394   19.3001028   16.2571141
| 33>     H       17.2439347   19.3697548   15.2749292
| 34>     H       16.9536823   20.5949164   16.5170656
| 35>     H       18.0855517   20.3598796   18.3314337
| 36>     H       19.9346859   17.1111900   19.8017018
| 37>     H       19.0821665   15.8069253   17.8767599
| 38>     H       19.0698592   14.3615694   19.8602732
| 39>     H       17.6727942   13.1341228   21.5075073
| 40>     H       15.3263439   13.8705213   21.9328199
| 41>     H       13.7886860   15.3617813   21.4700925
| 42>     H       15.7861978   17.0725440   19.1112892
| 43> *
| 44>
| 45>                          ****END OF INPUT****

CARTESIAN COORDINATES (ANGSTROEM)
---------------------------------
  C     16.150316   13.103157   17.265962
  C     15.900647   14.398042   16.475041
  O     17.145371   15.109314   16.351772
  C     17.070070   16.455091   16.136417
  O     16.293212   16.899860   15.309309
  C     17.654166   17.278740   17.252066
  C     17.555698   18.633537   17.282025
  C     16.848360   19.528355   16.286285
  N     18.198197   19.359620   18.289453
  C     19.102942   18.832183   19.171449
  S     19.958579   19.779333   20.223666
  N     19.280119   17.473333   19.120912
  C     18.424980   16.542876   18.361840
  C     17.529206   15.792359   19.344841
  C     18.048554   14.685054   20.042709
  C     17.260233   13.989415   20.974857
  C     15.939738   14.404782   21.214618
  C     15.421821   15.513414   20.531873
  O     14.148853   15.920591   20.764766
  C     16.209655   16.207332   19.608258
  H     16.927468   12.498474   16.782598
  H     15.232845   12.504752   17.317775
  H     16.467202   13.322171   18.289614
  H     15.497346   14.170494   15.479266
  H     15.162283   15.006413   17.015643
  H     15.775239   19.300103   16.257114
  H     17.243935   19.369755   15.274929
  H     16.953682   20.594916   16.517066
  H     18.085552   20.359880   18.331434
  H     19.934686   17.111190   19.801702
  H     19.082166   15.806925   17.876760
  H     19.069859   14.361569   19.860273
  H     17.672794   13.134123   21.507507
  H     15.326344   13.870521   21.932820
  H     13.788686   15.361781   21.470092
  H     15.786198   17.072544   19.111289

 Total Charge           Charge          ....    0
 Multiplicity           Mult            ....    1
 Number of Electrons    NEL             ....  154
 Basis Dimension        Dim             ....  828

ORBITAL ENERGIES
----------------

  NO   OCC          E(Eh)            E(eV)
   0   2.0000     -91.890104     -2500.4568
   1   2.0000     -20.602201      -560.6144
   2   2.0000     -20.588306      -560.2363
   3   2.0000     -20.544546      -559.0455
   4   2.0000     -15.630997      -425.3411
   5   2.0000     -15.609291      -424.7504
   6   2.0000     -11.392627      -310.0091
   7   2.0000     -11.384968      -309.8007
   8   2.0000     -11.338167      -308.5272
   9   2.0000     -11.319461      -308.0182
  10   2.0000     -11.311642      -307.8054
  11   2.0000     -11.293812      -307.3202
  12   2.0000     -11.265595      -306.5524
  13   2.0000     -11.260760      -306.4209
  14   2.0000     -11.259974      -306.3995
  15   2.0000     -11.253541      -306.2244
  16   2.0000     -11.247232      -306.0527
  17   2.0000     -11.242585      -305.9263
  18   2.0000     -11.242452      -305.9227
  19   2.0000     -11.222233      -305.3725
  20   2.0000      -8.895143      -242.0492
  21   2.0000      -6.576714      -178.9615
  22   2.0000      -6.574713      -178.9070
  23   2.0000      -6.574124      -178.8910
  24   2.0000      -1.449816       -39.4515
  25   2.0000      -1.421807       -38.6893
  26   2.0000      -1.351736       -36.7826
  27   2.0000      -1.342037       -36.5187
  28   2.0000      -1.240552       -33.7571
  29   2.0000      -1.161821       -31.6148
  30   2.0000      -1.121607       -30.5205
  31   2.0000      -1.045599       -28.4522
  32   2.0000      -1.033979       -28.1360
  33   2.0000      -1.020529       -27.7700
  34   2.0000      -0.998112       -27.1600
  35   2.0000      -0.985412       -26.8144
  36   2.0000      -0.925305       -25.1788
  37   2.0000      -0.882057       -24.0020
  38   2.0000      -0.849754       -23.1230
  39   2.0000      -0.842408       -22.9231
  40   2.0000      -0.836592       -22.7648
  41   2.0000      -0.821837       -22.3633
  42   2.0000      -0.762440       -20.7471
  43   2.0000      -0.736154       -20.0318
  44   2.0000      -0.722423       -19.6581
  45   2.0000      -0.700246       -19.0547
  46   2.0000      -0.689415       -18.7599
  47   2.0000      -0.677708       -18.4414
  48   2.0000      -0.673278       -18.3208
  49   2.0000      -0.663808       -18.0631
  50   2.0000      -0.648595       -17.6492
  51   2.0000      -0.645265       -17.5585
  52   2.0000      -0.639993       -17.4151
  53   2.0000      -0.613921       -16.7056
  54   2.0000      -0.605840       -16.4857
  55   2.0000      -0.602048       -16.3826
  56   2.0000      -0.598365       -16.2823
  57   2.0000      -0.582365       -15.8470
  58   2.0000      -0.572749       -15.5853
  59   2.0000      -0.567185       -15.4339
  60   2.0000      -0.551027       -14.9942
  61   2.0000      -0.548193       -14.9171
  62   2.0000      -0.538442       -14.6518
  63   2.0000      -0.530958       -14.4481
  64   2.0000      -0.516053       -14.0425
  65   2.0000      -0.511114       -13.9081
  66   2.0000      -0.506257       -13.7759
  67   2.0000      -0.499878       -13.6024
  68   2.0000      -0.485825       -13.2200
  69   2.0000      -0.463771       -12.6199
  70   2.0000      -0.455461       -12.3937
  71   2.0000      -0.444272       -12.0893
  72   2.0000      -0.357131        -9.7180
  73   2.0000      -0.354743        -9.6531
  74   2.0000      -0.330699        -8.9988
  75   2.0000      -0.325879        -8.8676
  76   2.0000      -0.318006        -8.6534
  77   0.0000       0.072229         1.9655
  78   0.0000       0.102938         2.8011
  79   0.0000       0.120418         3.2767
  80   0.0000       0.126123         3.4320
  81   0.0000       0.130925         3.5626

MULLIKEN ATOMIC CHARGES
-----------------------
   0 C :   -0.275152
   1 C :    0.029693
   2 O :   -0.373262
   3 C :    0.482405
   4 O :   -0.416699
   5 C :   -0.282050
   6 C :    0.168545
   7 C :   -0.266166
   8 N :   -0.127376
   9 C :    0.224623
  10 S :   -0.442179
  11 N :   -0.213566
  12 C :    0.067738
  13 C :    0.089516
  14 C :   -0.233757
  15 C :   -0.124953
  16 C :   -0.276864
  17 C :    0.316289
  18 O :   -0.357406
  19 C :   -0.263418
  20 H :    0.096361
  21 H :    0.093429
  22 H :    0.108389
  23 H :    0.121673
  24 H :    0.091308
  25 H :    0.130877
  26 H :    0.132333
  27 H :    0.095691
  28 H :    0.197599
  29 H :    0.192615
  30 H :    0.148196
  31 H :    0.150928
  32 H :    0.161473
  33 H :    0.132352
  34 H :    0.242699
  35 H :    0.178116
Sum of atomic charges:    0.0000000

LOEWDIN ATOMIC CHARGES
----------------------
   0 C :    0.110298
   1 C :   -0.019019
   2 O :    0.291685
   3 C :   -0.419383
   4 O :    0.110973
   5 C :   -0.097467
   6 C :   -0.055837
   7 C :    0.131334
   8 N :    0.408740
   9 C :   -0.453096
  10 S :   -0.035351
  11 N :    0.395664
  12 C :   -0.052475
  13 C :   -0.031723
  14 C :    0.009346
  15 C :    0.044021
  16 C :   -0.002155
  17 C :   -0.189596
  18 O :    0.396147
  19 C :    0.029764
  20 H :   -0.028183
  21 H :   -0.025137
  22 H :   -0.028280
  23 H :   -0.029029
  24 H :   -0.031930
  25 H :   -0.005348
  26 H :   -0.003234
  27 H :   -0.023089
  28 H :   -0.057198
  29 H :   -0.067648
  30 H :   -0.007457
  31 H :   -0.031183
  32 H :   -0.019460
  33 H :   -0.034725
  34 H :   -0.152186
  35 H :   -0.027781

  Mayer bond orders larger than 0.100000
B(  0-C ,  1-C ) :   0.9732 B(  0-C , 20-H ) :   0.9775 B(  0-C , 21-H ) :   0.9788
B(  0-C , 22-H ) :   0.9731 B(  1-C ,  2-O ) :   0.8811 B(  1-C , 23-H ) :   0.9847
B(  1-C , 24-H ) :   0.9692 B(  2-O ,  3-C ) :   1.1301 B(  3-C ,  4-O ) :   1.9991
B(  3-C ,  5-C ) :   1.0626 B(  5-C ,  6-C ) :   1.6404 B(  5-C , 12-C ) :   0.9804
B(  6-C ,  7-C ) :   0.9661 B(  6-C ,  8-N ) :   1.1640 B(  7-C , 25-H ) :   0.9602
B(  7-C , 26-H ) :   0.9593 B(  7-C , 27-H ) :   0.9904 B(  8-N ,  9-C ) :   1.1860
B(  8-N , 28-H ) :   0.9478 B(  9-C , 10-S ) :   1.5962 B(  9-C , 11-N ) :   1.3077
B( 11-N , 12-C ) :   0.9476 B( 11-N , 29-H ) :   0.9515 B( 12-C , 13-C ) :   0.9544
B( 12-C , 30-H ) :   0.9994 B( 13-C , 14-C ) :   1.3552 B( 13-C , 19-C ) :   1.3552
B( 14-C , 15-C ) :   1.4038 B( 14-C , 31-H ) :   0.9731 B( 15-C , 16-C ) :   1.3579
B( 15-C , 32-H ) :   0.9709 B( 16-C , 17-C ) :   1.3391 B( 16-C , 33-H ) :   0.9847
B( 17-C , 18-O ) :   1.1148 B( 17-C , 19-C ) :   1.3570 B( 18-O , 34-H ) :   0.9786
B( 19-C , 35-H ) :   0.9541

MP2 TOTAL ENERGY:    -1274.337328327 Eh
FINAL SINGLE POINT ENERGY     -1274.337328327009

DIPOLE MOMENT
-------------
                                X             Y             Z
Electronic contribution:      7.91250      11.07508       4.30309
Nuclear contribution   :     -8.92286     -12.49250      -4.10047
                        -----------------------------------------
Total Dipole Moment    :     -1.01037      -1.41742       0.20262
                        -----------------------------------------
Magnitude (a.u.)       :      1.75242
Magnitude (Debye)      :      4.45430

Rotational constants in cm-1:     0.012588     0.008760     0.006496
Rotational constants in MHz :   377.378822   262.616844   194.731032

                             ****ORCA TERMINATED NORMALLY****
TOTAL RUN TIME: 0 days 2 hours 9 minutes 28 seconds 766 msec
