                         Program Version 4.2.0 -  RELEASE  -
|  1> ! ri-mp2 cc-pvtz cc-pvtz/c TightSCF  NoKeepInts
|  2>
|  3> %scf
|  4>   MaxCore 4096
|  5> end
|  6> *xyz  0  1
|  7>     C       14.7129982   14.2847927   16.6793404
|  8>     C       15.5239844   15.5903144   16.6922505
|  9>     O       16.7676601   15.3203914   16.0151046
| 10>     C       17.9759731   15.6243529   16.5839627
| 11>     O       18.8681750   14.7967305   16.6110883
| 12>     C       18.0323083   16.8706187   17.4126672
| 13>     C       17.5303270   18.0637440   17.0115313
| 14>     C       16.8953175   18.3965907   15.6778663
| 15>     N       17.6623059   19.1846928   17.8347751
| 16>     C       18.3776840   19.2161522   19.0034090
| 17>     S       18.5466495   20.6073383   19.8808060
| 18>     N       18.9433134   18.0333387   19.4111309
| 19>     C       18.7443027   16.7246748   18.7577926
| 20>     C       17.9722711   15.7673630   19.6613795
| 21>     C       18.4010167   14.4360937   19.8132487
| 22>     C       17.6792619   13.5379311   20.6168009
| 23>     C       16.5153956   13.9725757   21.2731829
| 24>     C       16.0812171   15.2959505   21.1201827
| 25>     O       14.9500256   15.7157461   21.7403366
| 26>     C       16.8016065   16.1880947   20.3196909
| 27>     H       15.2562543   13.4904021   17.2071902
| 28>     H       14.5293706   13.9522678   15.6499949
| 29>     H       13.7448664   14.4259379   17.1749198
| 30>     H       14.9648196   16.3782800   16.1735082
| 31>     H       15.6809763   15.8922835   17.7358065
| 32>     H       17.0868843   17.6249961   14.9221993
| 33>     H       17.3014972   19.3318904   15.2719399
| 34>     H       15.8099806   18.5181770   15.7738433
| 35>     H       17.2664569   20.0660777   17.5472850
| 36>     H       19.4473746   18.0810986   20.2877117
| 37>     H       19.7375791   16.2920000   18.5665890
| 38>     H       19.2896741   14.0907448   19.2889774
| 39>     H       18.0196533   12.5089925   20.7208219
| 40>     H       15.9532443   13.2804968   21.8915001
| 41>     H       14.6313716   14.9834504   22.2897303
| 42>     H       16.4452032   17.2074177   20.2154352
| 43> *
| 44>
| 45>                          ****END OF INPUT****

CARTESIAN COORDINATES (ANGSTROEM)
---------------------------------
  C     14.712998   14.284793   16.679340
  C     15.523984   15.590314   16.692251
  O     16.767660   15.320391   16.015105
  C     17.975973   15.624353   16.583963
  O     18.868175   14.796731   16.611088
  C     18.032308   16.870619   17.412667
  C     17.530327   18.063744   17.011531
  C     16.895318   18.396591   15.677866
  N     17.662306   19.184693   17.834775
  C     18.377684   19.216152   19.003409
  S     18.546650   20.607338   19.880806
  N     18.943313   18.033339   19.411131
  C     18.744303   16.724675   18.757793
  C     17.972271   15.767363   19.661379
  C     18.401017   14.436094   19.813249
  C     17.679262   13.537931   20.616801
  C     16.515396   13.972576   21.273183
  C     16.081217   15.295950   21.120183
  O     14.950026   15.715746   21.740337
  C     16.801606   16.188095   20.319691
  H     15.256254   13.490402   17.207190
  H     14.529371   13.952268   15.649995
  H     13.744866   14.425938   17.174920
  H     14.964820   16.378280   16.173508
  H     15.680976   15.892283   17.735806
  H     17.086884   17.624996   14.922199
  H     17.301497   19.331890   15.271940
  H     15.809981   18.518177   15.773843
  H     17.266457   20.066078   17.547285
  H     19.447375   18.081099   20.287712
  H     19.737579   16.292000   18.566589
  H     19.289674   14.090745   19.288977
  H     18.019653   12.508992   20.720822
  H     15.953244   13.280497   21.891500
  H     14.631372   14.983450   22.289730
  H     16.445203   17.207418   20.215435

 Total Charge           Charge          ....    0
 Multiplicity           Mult            ....    1
 Number of Electrons    NEL             ....  154
 Basis Dimension        Dim             ....  828

ORBITAL ENERGIES
----------------

  NO   OCC          E(Eh)            E(eV)
   0   2.0000     -91.890982     -2500.4808
   1   2.0000     -20.599670      -560.5455
   2   2.0000     -20.596882      -560.4696
   3   2.0000     -20.550561      -559.2092
   4   2.0000     -15.629386      -425.2972
   5   2.0000     -15.611415      -424.8082
   6   2.0000     -11.396670      -310.1192
   7   2.0000     -11.387265      -309.8632
   8   2.0000     -11.334552      -308.4288
   9   2.0000     -11.316477      -307.9370
  10   2.0000     -11.312681      -307.8337
  11   2.0000     -11.303768      -307.5912
  12   2.0000     -11.266995      -306.5905
  13   2.0000     -11.264593      -306.5252
  14   2.0000     -11.262666      -306.4727
  15   2.0000     -11.256217      -306.2972
  16   2.0000     -11.245686      -306.0107
  17   2.0000     -11.242102      -305.9132
  18   2.0000     -11.238533      -305.8160
  19   2.0000     -11.229530      -305.5710
  20   2.0000      -8.896078      -242.0746
  21   2.0000      -6.577659      -178.9872
  22   2.0000      -6.575641      -178.9323
  23   2.0000      -6.575059      -178.9165
  24   2.0000      -1.448698       -39.4211
  25   2.0000      -1.419481       -38.6260
  26   2.0000      -1.359901       -37.0048
  27   2.0000      -1.341879       -36.5144
  28   2.0000      -1.240742       -33.7623
  29   2.0000      -1.160901       -31.5897
  30   2.0000      -1.125117       -30.6160
  31   2.0000      -1.048291       -28.5254
  32   2.0000      -1.037928       -28.2435
  33   2.0000      -1.018443       -27.7132
  34   2.0000      -1.005027       -27.3482
  35   2.0000      -0.989271       -26.9194
  36   2.0000      -0.927607       -25.2415
  37   2.0000      -0.880594       -23.9622
  38   2.0000      -0.856132       -23.2965
  39   2.0000      -0.842881       -22.9359
  40   2.0000      -0.836748       -22.7691
  41   2.0000      -0.835888       -22.7457
  42   2.0000      -0.755130       -20.5481
  43   2.0000      -0.739776       -20.1303
  44   2.0000      -0.731368       -19.9015
  45   2.0000      -0.697657       -18.9842
  46   2.0000      -0.688316       -18.7300
  47   2.0000      -0.680469       -18.5165
  48   2.0000      -0.677648       -18.4398
  49   2.0000      -0.662293       -18.0219
  50   2.0000      -0.656763       -17.8714
  51   2.0000      -0.649936       -17.6857
  52   2.0000      -0.641326       -17.4514
  53   2.0000      -0.611028       -16.6269
  54   2.0000      -0.607864       -16.5408
  55   2.0000      -0.603507       -16.4223
  56   2.0000      -0.594611       -16.1802
  57   2.0000      -0.583196       -15.8696
  58   2.0000      -0.578366       -15.7381
  59   2.0000      -0.571013       -15.5380
  60   2.0000      -0.563997       -15.3471
  61   2.0000      -0.559668       -15.2293
  62   2.0000      -0.546990       -14.8843
  63   2.0000      -0.526190       -14.3184
  64   2.0000      -0.516776       -14.0622
  65   2.0000      -0.515870       -14.0375
  66   2.0000      -0.502580       -13.6759
  67   2.0000      -0.499598       -13.5948
  68   2.0000      -0.489545       -13.3212
  69   2.0000      -0.471703       -12.8357
  70   2.0000      -0.456314       -12.4169
  71   2.0000      -0.450918       -12.2701
  72   2.0000      -0.357829        -9.7370
  73   2.0000      -0.351786        -9.5726
  74   2.0000      -0.330468        -8.9925
  75   2.0000      -0.323961        -8.8154
  76   2.0000      -0.319360        -8.6902
  77   0.0000       0.077555         2.1104
  78   0.0000       0.103746         2.8231
  79   0.0000       0.116755         3.1771
  80   0.0000       0.128901         3.5076
  81   0.0000       0.134799         3.6681

MULLIKEN ATOMIC CHARGES
-----------------------
   0 C :   -0.252778
   1 C :    0.009728
   2 O :   -0.327171
   3 C :    0.426101
   4 O :   -0.384216
   5 C :   -0.233893
   6 C :    0.169476
   7 C :   -0.329859
   8 N :   -0.134174
   9 C :    0.199960
  10 S :   -0.438395
  11 N :   -0.209260
  12 C :    0.072108
  13 C :    0.032704
  14 C :   -0.188961
  15 C :   -0.131850
  16 C :   -0.276508
  17 C :    0.324483
  18 O :   -0.358167
  19 C :   -0.300928
  20 H :    0.106850
  21 H :    0.100810
  22 H :    0.088090
  23 H :    0.092863
  24 H :    0.109998
  25 H :    0.139439
  26 H :    0.131986
  27 H :    0.121670
  28 H :    0.197518
  29 H :    0.197056
  30 H :    0.162200
  31 H :    0.167695
  32 H :    0.163928
  33 H :    0.132153
  34 H :    0.241599
  35 H :    0.177747
Sum of atomic charges:   -0.0000000

LOEWDIN ATOMIC CHARGES
----------------------
   0 C :    0.110590
   1 C :   -0.021640
   2 O :    0.301751
   3 C :   -0.417628
   4 O :    0.124339
   5 C :   -0.088488
   6 C :   -0.087921
   7 C :    0.125911
   8 N :    0.403057
   9 C :   -0.457572
  10 S :   -0.035530
  11 N :    0.397133
  12 C :   -0.045459
  13 C :   -0.044388
  14 C :    0.022462
  15 C :    0.044824
  16 C :   -0.000242
  17 C :   -0.194472
  18 O :    0.394283
  19 C :    0.025918
  20 H :   -0.021663
  21 H :   -0.025877
  22 H :   -0.026427
  23 H :   -0.036213
  24 H :   -0.033437
  25 H :   -0.007107
  26 H :   -0.011855
  27 H :   -0.018001
  28 H :   -0.057053
  29 H :   -0.063488
  30 H :   -0.002784
  31 H :   -0.021923
  32 H :   -0.018705
  33 H :   -0.034714
  34 H :   -0.152964
  35 H :   -0.024718

  Mayer bond orders larger than 0.100000
B(  0-C ,  1-C ) :   0.9883 B(  0-C , 20-H ) :   0.9773 B(  0-C , 21-H ) :   0.9793
B(  0-C , 22-H ) :   0.9767 B(  1-C ,  2-O ) :   0.8946 B(  1-C , 23-H ) :   0.9765
B(  1-C , 24-H ) :   0.9592 B(  2-O ,  3-C ) :   1.1767 B(  3-C ,  4-O ) :   2.0831
B(  3-C ,  5-C ) :   0.9433 B(  5-C ,  6-C ) :   1.6705 B(  5-C , 12-C ) :   0.9572
B(  6-C ,  7-C ) :   0.9418 B(  6-C ,  8-N ) :   1.1303 B(  7-C , 25-H ) :   0.9746
B(  7-C , 26-H ) :   0.9747 B(  7-C , 27-H ) :   0.9660 B(  8-N ,  9-C ) :   1.1891
B(  8-N , 28-H ) :   0.9513 B(  9-C , 10-S ) :   1.6136 B(  9-C , 11-N ) :   1.2927
B( 11-N , 12-C ) :   0.9969 B( 11-N , 29-H ) :   0.9503 B( 12-C , 13-C ) :   0.9414
B( 12-C , 30-H ) :   0.9980 B( 13-C , 14-C ) :   1.3882 B( 13-C , 19-C ) :   1.3438
B( 14-C , 15-C ) :   1.3959 B( 14-C , 31-H ) :   0.9599 B( 15-C , 16-C ) :   1.3634
B( 15-C , 32-H ) :   0.9699 B( 16-C , 17-C ) :   1.3304 B( 16-C , 33-H ) :   0.9843
B( 17-C , 18-O ) :   1.1108 B( 17-C , 19-C ) :   1.3640 B( 18-O , 34-H ) :   0.9794
B( 19-C , 35-H ) :   0.9579

MP2 TOTAL ENERGY:    -1274.336274156 Eh
FINAL SINGLE POINT ENERGY     -1274.336274155632

DIPOLE MOMENT
-------------
                                X             Y             Z
Electronic contribution:     10.68426       8.63061       6.91193
Nuclear contribution   :    -12.18521      -9.58090      -7.26171
                        -----------------------------------------
Total Dipole Moment    :     -1.50094      -0.95029      -0.34978
                        -----------------------------------------
Magnitude (a.u.)       :      1.81058
Magnitude (Debye)      :      4.60214

Rotational constants in cm-1:     0.011822     0.009172     0.006721
Rotational constants in MHz :   354.411171   274.964474   201.488498

                             ****ORCA TERMINATED NORMALLY****
TOTAL RUN TIME: 0 days 1 hours 50 minutes 37 seconds 67 msec
