                         Program Version 5.0.0 -  RELEASE  -
|  1> ! ri-mp2 cc-pvtz cc-pvtz/c TightSCF NoKeepInts
|  2>
|  3> %scf
|  4>   MaxCore 4096
|  5> end
|  6> *xyz  0  1
|  7>     C       15.2033794   13.7705564   16.5442120
|  8>     C       16.5762708   14.0294328   15.8904198
|  9>     O       17.2558080   15.0708580   16.6153204
| 10>     C       16.8290364   16.3687655   16.5334624
| 11>     O       16.0002308   16.7348373   15.7169755
| 12>     C       17.5667404   17.2784353   17.4761960
| 13>     C       17.4197059   18.6273948   17.4538919
| 14>     C       16.5434059   19.4384715   16.5235290
| 15>     N       18.1471697   19.4268350   18.3406173
| 16>     C       19.0942345   18.9666454   19.2159692
| 17>     S       19.9666359   19.9906025   20.1784466
| 18>     N       19.2839556   17.6089102   19.2552576
| 19>     C       18.4825115   16.6151688   18.5176268
| 20>     C       17.6888197   15.7563115   19.4982870
| 21>     C       17.9681614   14.3834028   19.6338766
| 22>     C       17.2313804   13.5886318   20.5280870
| 23>     C       16.2085058   14.1714946   21.2954679
| 24>     C       15.9305412   15.5391956   21.1661494
| 25>     O       14.9437035   16.1048970   21.9058214
| 26>     C       16.6652668   16.3274833   20.2751675
| 27>     H       15.3188136   13.5628681   17.6156529
| 28>     H       14.7145581   12.9068357   16.0778837
| 29>     H       14.5384770   14.6355672   16.4294233
| 30>     H       17.1732573   13.1096611   15.9344419
| 31>     H       16.4513299   14.3066586   14.8347159
| 32>     H       16.8113963   19.2476624   15.4765716
| 33>     H       16.6215442   20.5187012   16.6931153
| 34>     H       15.4892308   19.1589944   16.6471920
| 35>     H       18.0210385   20.4262948   18.3266019
| 36>     H       19.9602491   17.2968019   19.9401416
| 37>     H       19.1869956   15.9668633   17.9779125
| 38>     H       18.7534312   13.9288411   19.0359294
| 39>     H       17.4530598   12.5271614   20.6234732
| 40>     H       15.6366258   13.5619728   21.9873300
| 41>     H       14.5734897   15.4137766   22.4750714
| 42>     H       16.4380395   17.3850091   20.1937622
| 43> *
| 44>
| 45>                          ****END OF INPUT****

CARTESIAN COORDINATES (ANGSTROEM)
---------------------------------
  C     15.203379   13.770556   16.544212
  C     16.576271   14.029433   15.890420
  O     17.255808   15.070858   16.615320
  C     16.829036   16.368765   16.533462
  O     16.000231   16.734837   15.716976
  C     17.566740   17.278435   17.476196
  C     17.419706   18.627395   17.453892
  C     16.543406   19.438471   16.523529
  N     18.147170   19.426835   18.340617
  C     19.094234   18.966645   19.215969
  S     19.966636   19.990602   20.178447
  N     19.283956   17.608910   19.255258
  C     18.482512   16.615169   18.517627
  C     17.688820   15.756312   19.498287
  C     17.968161   14.383403   19.633877
  C     17.231380   13.588632   20.528087
  C     16.208506   14.171495   21.295468
  C     15.930541   15.539196   21.166149
  O     14.943703   16.104897   21.905821
  C     16.665267   16.327483   20.275167
  H     15.318814   13.562868   17.615653
  H     14.714558   12.906836   16.077884
  H     14.538477   14.635567   16.429423
  H     17.173257   13.109661   15.934442
  H     16.451330   14.306659   14.834716
  H     16.811396   19.247662   15.476572
  H     16.621544   20.518701   16.693115
  H     15.489231   19.158994   16.647192
  H     18.021038   20.426295   18.326602
  H     19.960249   17.296802   19.940142
  H     19.186996   15.966863   17.977912
  H     18.753431   13.928841   19.035929
  H     17.453060   12.527161   20.623473
  H     15.636626   13.561973   21.987330
  H     14.573490   15.413777   22.475071
  H     16.438039   17.385009   20.193762

 Total Charge           Charge          ....    0
 Multiplicity           Mult            ....    1
 Number of Electrons    NEL             ....  154
 Basis Dimension        Dim             ....  828

ORBITAL ENERGIES
----------------

  NO   OCC          E(Eh)            E(eV)
   0   2.0000     -91.888597     -2500.4158
   1   2.0000     -20.601254      -560.5886
   2   2.0000     -20.596275      -560.4531
   3   2.0000     -20.541798      -558.9707
   4   2.0000     -15.628718      -425.2790
   5   2.0000     -15.608029      -424.7161
   6   2.0000     -11.395608      -310.0903
   7   2.0000     -11.383780      -309.7684
   8   2.0000     -11.335689      -308.4598
   9   2.0000     -11.313476      -307.8553
  10   2.0000     -11.308405      -307.7174
  11   2.0000     -11.297864      -307.4305
  12   2.0000     -11.259262      -306.3801
  13   2.0000     -11.258819      -306.3680
  14   2.0000     -11.254799      -306.2586
  15   2.0000     -11.251881      -306.1792
  16   2.0000     -11.243048      -305.9389
  17   2.0000     -11.238440      -305.8135
  18   2.0000     -11.237916      -305.7992
  19   2.0000     -11.222074      -305.3682
  20   2.0000      -8.893663      -242.0089
  21   2.0000      -6.575239      -178.9213
  22   2.0000      -6.573233      -178.8668
  23   2.0000      -6.572647      -178.8508
  24   2.0000      -1.450865       -39.4801
  25   2.0000      -1.415956       -38.5301
  26   2.0000      -1.354653       -36.8620
  27   2.0000      -1.339679       -36.4545
  28   2.0000      -1.238173       -33.6924
  29   2.0000      -1.157521       -31.4978
  30   2.0000      -1.120321       -30.4855
  31   2.0000      -1.042589       -28.3703
  32   2.0000      -1.035456       -28.1762
  33   2.0000      -1.014798       -27.6141
  34   2.0000      -0.994987       -27.0750
  35   2.0000      -0.983878       -26.7727
  36   2.0000      -0.922250       -25.0957
  37   2.0000      -0.894868       -24.3506
  38   2.0000      -0.846764       -23.0416
  39   2.0000      -0.837447       -22.7881
  40   2.0000      -0.833832       -22.6897
  41   2.0000      -0.816238       -22.2110
  42   2.0000      -0.754810       -20.5394
  43   2.0000      -0.732279       -19.9263
  44   2.0000      -0.722990       -19.6736
  45   2.0000      -0.695546       -18.9268
  46   2.0000      -0.688551       -18.7364
  47   2.0000      -0.679074       -18.4785
  48   2.0000      -0.670697       -18.2506
  49   2.0000      -0.659048       -17.9336
  50   2.0000      -0.648556       -17.6481
  51   2.0000      -0.640987       -17.4421
  52   2.0000      -0.631558       -17.1856
  53   2.0000      -0.612318       -16.6620
  54   2.0000      -0.606290       -16.4980
  55   2.0000      -0.599602       -16.3160
  56   2.0000      -0.598547       -16.2873
  57   2.0000      -0.577266       -15.7082
  58   2.0000      -0.570461       -15.5230
  59   2.0000      -0.569669       -15.5015
  60   2.0000      -0.560639       -15.2558
  61   2.0000      -0.543266       -14.7830
  62   2.0000      -0.534565       -14.5463
  63   2.0000      -0.526782       -14.3345
  64   2.0000      -0.524024       -14.2594
  65   2.0000      -0.513002       -13.9595
  66   2.0000      -0.501056       -13.6344
  67   2.0000      -0.499487       -13.5917
  68   2.0000      -0.482614       -13.1326
  69   2.0000      -0.463952       -12.6248
  70   2.0000      -0.455312       -12.3897
  71   2.0000      -0.446839       -12.1591
  72   2.0000      -0.353960        -9.6317
  73   2.0000      -0.349335        -9.5059
  74   2.0000      -0.327990        -8.9251
  75   2.0000      -0.320966        -8.7339
  76   2.0000      -0.315832        -8.5942
  77   0.0000       0.076557         2.0832
  78   0.0000       0.106881         2.9084
  79   0.0000       0.125230         3.4077
  80   0.0000       0.132842         3.6148
  81   0.0000       0.138391         3.7658

MULLIKEN ATOMIC CHARGES
-----------------------
   0 C :   -0.302415
   1 C :    0.019807
   2 O :   -0.354011
   3 C :    0.472093
   4 O :   -0.438350
   5 C :   -0.220027
   6 C :    0.149732
   7 C :   -0.274137
   8 N :   -0.119633
   9 C :    0.210874
  10 S :   -0.440439
  11 N :   -0.204845
  12 C :    0.056750
  13 C :    0.060676
  14 C :   -0.183393
  15 C :   -0.134640
  16 C :   -0.278144
  17 C :    0.315490
  18 O :   -0.356509
  19 C :   -0.266902
  20 H :    0.105828
  21 H :    0.095361
  22 H :    0.115987
  23 H :    0.111824
  24 H :    0.112347
  25 H :    0.131023
  26 H :    0.095203
  27 H :    0.131676
  28 H :    0.196969
  29 H :    0.194793
  30 H :    0.150713
  31 H :    0.149437
  32 H :    0.160634
  33 H :    0.130219
  34 H :    0.240578
  35 H :    0.165431
Sum of atomic charges:    0.0000000

LOEWDIN ATOMIC CHARGES
----------------------
   0 C :    0.105166
   1 C :   -0.017756
   2 O :    0.307297
   3 C :   -0.412140
   4 O :    0.095807
   5 C :   -0.093648
   6 C :   -0.059350
   7 C :    0.131497
   8 N :    0.406460
   9 C :   -0.456491
  10 S :   -0.035923
  11 N :    0.396563
  12 C :   -0.052238
  13 C :   -0.039704
  14 C :    0.014376
  15 C :    0.038828
  16 C :   -0.001808
  17 C :   -0.189769
  18 O :    0.395259
  19 C :    0.031746
  20 H :   -0.026827
  21 H :   -0.028012
  22 H :   -0.025585
  23 H :   -0.025553
  24 H :   -0.027825
  25 H :   -0.004007
  26 H :   -0.023435
  27 H :   -0.004677
  28 H :   -0.057630
  29 H :   -0.064486
  30 H :   -0.011607
  31 H :   -0.030058
  32 H :   -0.021550
  33 H :   -0.035499
  34 H :   -0.153961
  35 H :   -0.023459

  Mayer bond orders larger than 0.100000
B(  0-C ,  1-C ) :   0.9608 B(  0-C , 20-H ) :   0.9724 B(  0-C , 21-H ) :   0.9771
B(  0-C , 22-H ) :   0.9751 B(  1-C ,  2-O ) :   0.8984 B(  1-C , 23-H ) :   0.9848
B(  1-C , 24-H ) :   0.9805 B(  2-O ,  3-C ) :   1.1633 B(  3-C ,  4-O ) :   1.9557
B(  3-C ,  5-C ) :   1.0640 B(  5-C ,  6-C ) :   1.6549 B(  5-C , 12-C ) :   0.9722
B(  6-C ,  7-C ) :   0.9666 B(  6-C ,  8-N ) :   1.1653 B(  7-C , 25-H ) :   0.9604
B(  7-C , 26-H ) :   0.9904 B(  7-C , 27-H ) :   0.9606 B(  8-N ,  9-C ) :   1.1834
B(  8-N , 28-H ) :   0.9478 B(  9-C , 10-S ) :   1.6070 B(  9-C , 11-N ) :   1.3051
B( 11-N , 12-C ) :   0.9895 B( 11-N , 29-H ) :   0.9512 B( 12-C , 13-C ) :   0.9350
B( 12-C , 30-H ) :   1.0023 B( 13-C , 14-C ) :   1.3554 B( 13-C , 19-C ) :   1.3826
B( 14-C , 15-C ) :   1.3928 B( 14-C , 31-H ) :   0.9717 B( 15-C , 16-C ) :   1.3609
B( 15-C , 32-H ) :   0.9709 B( 16-C , 17-C ) :   1.3317 B( 16-C , 33-H ) :   0.9852
B( 17-C , 18-O ) :   1.1102 B( 17-C , 19-C ) :   1.3717 B( 18-O , 34-H ) :   0.9799
B( 19-C , 35-H ) :   0.9580

MP2 TOTAL ENERGY:    -1274.351177386 Eh
FINAL SINGLE POINT ENERGY     -1274.351177385573

DIPOLE MOMENT
-------------
                                X             Y             Z
Electronic contribution:      9.44413      10.79296       7.80156
Nuclear contribution   :    -10.34405     -12.57001      -8.26102
                        -----------------------------------------
Total Dipole Moment    :     -0.89992      -1.77705      -0.45946
                        -----------------------------------------
Magnitude (a.u.)       :      2.04422
Magnitude (Debye)      :      5.19600

Rotational constants in cm-1:     0.012017     0.008680     0.006206
Rotational constants in MHz :   360.252536   260.225988   186.043126

                             ****ORCA TERMINATED NORMALLY****
TOTAL RUN TIME: 0 days 1 hours 58 minutes 30 seconds 527 msec
