                         Program Version 5.0.0 -  RELEASE  -
|  1> ! ri-mp2 cc-pvtz cc-pvtz/c TightSCF NoKeepInts
|  2>
|  3> %scf
|  4>   MaxCore 4096
|  5> end
|  6> *xyz  0  1
|  7>     C       14.6305036   16.0234366   17.0345334
|  8>     C       15.7063692   14.9347662   16.8679744
|  9>     O       16.7176111   15.3327720   15.9173900
| 10>     C       17.9476119   15.7611570   16.3413324
| 11>     O       18.8808216   14.9795018   16.3150600
| 12>     C       17.9151936   16.8736701   17.3400604
| 13>     C       17.3086391   18.0574728   17.0846432
| 14>     C       16.6062553   18.4787380   15.8104203
| 15>     N       17.3863449   19.0943638   18.0172275
| 16>     C       18.1666182   19.0727659   19.1437606
| 17>     S       18.2789615   20.3811046   20.1486200
| 18>     N       18.8516167   17.9096057   19.3955923
| 19>     C       18.7041052   16.6538926   18.6332284
| 20>     C       18.0521139   15.5699936   19.4855064
| 21>     C       18.5755466   14.2641812   19.4914070
| 22>     C       17.9640131   13.2506778   20.2478426
| 23>     C       16.8163484   13.5434064   21.0039763
| 24>     C       16.2882615   14.8413104   20.9971316
| 25>     O       15.1715207   15.1241738   21.7134298
| 26>     C       16.8984335   15.8481201   20.2425245
| 27>     H       14.9851643   16.8421861   17.6691004
| 28>     H       13.7421396   15.5998326   17.5189536
| 29>     H       14.3253642   16.4249089   16.0604568
| 30>     H       16.1441099   14.6613350   17.8357153
| 31>     H       15.2146928   14.0352706   16.4754007
| 32>     H       16.6602381   17.7172747   15.0240332
| 33>     H       17.0622489   19.3878545   15.3983820
| 34>     H       15.5459347   18.6890537   15.9943928
| 35>     H       16.9053552   19.9623788   17.8404408
| 36>     H       19.4044521   17.9155621   20.2434536
| 37>     H       19.7123063   16.3113504   18.3569991
| 38>     H       19.4522665   14.0303278   18.8908638
| 39>     H       18.3775320   12.2434570   20.2402865
| 40>     H       16.3397512   12.7624058   21.5873731
| 41>     H       14.9395056   14.3292568   22.2172555
| 42>     H       16.4690491   16.8444347   20.2492317
| 43> *
| 44>
| 45>                          ****END OF INPUT****

CARTESIAN COORDINATES (ANGSTROEM)
---------------------------------
  C     14.630504   16.023437   17.034533
  C     15.706369   14.934766   16.867974
  O     16.717611   15.332772   15.917390
  C     17.947612   15.761157   16.341332
  O     18.880822   14.979502   16.315060
  C     17.915194   16.873670   17.340060
  C     17.308639   18.057473   17.084643
  C     16.606255   18.478738   15.810420
  N     17.386345   19.094364   18.017228
  C     18.166618   19.072766   19.143761
  S     18.278962   20.381105   20.148620
  N     18.851617   17.909606   19.395592
  C     18.704105   16.653893   18.633228
  C     18.052114   15.569994   19.485506
  C     18.575547   14.264181   19.491407
  C     17.964013   13.250678   20.247843
  C     16.816348   13.543406   21.003976
  C     16.288262   14.841310   20.997132
  O     15.171521   15.124174   21.713430
  C     16.898433   15.848120   20.242524
  H     14.985164   16.842186   17.669100
  H     13.742140   15.599833   17.518954
  H     14.325364   16.424909   16.060457
  H     16.144110   14.661335   17.835715
  H     15.214693   14.035271   16.475401
  H     16.660238   17.717275   15.024033
  H     17.062249   19.387854   15.398382
  H     15.545935   18.689054   15.994393
  H     16.905355   19.962379   17.840441
  H     19.404452   17.915562   20.243454
  H     19.712306   16.311350   18.356999
  H     19.452267   14.030328   18.890864
  H     18.377532   12.243457   20.240286
  H     16.339751   12.762406   21.587373
  H     14.939506   14.329257   22.217256
  H     16.469049   16.844435   20.249232

 Total Charge           Charge          ....    0
 Multiplicity           Mult            ....    1
 Number of Electrons    NEL             ....  154
 Basis Dimension        Dim             ....  828

ORBITAL ENERGIES
----------------

  NO   OCC          E(Eh)            E(eV)
   0   2.0000     -91.890902     -2500.4786
   1   2.0000     -20.600630      -560.5716
   2   2.0000     -20.581483      -560.0506
   3   2.0000     -20.556371      -559.3673
   4   2.0000     -15.628926      -425.2847
   5   2.0000     -15.611433      -424.8087
   6   2.0000     -11.395293      -310.0817
   7   2.0000     -11.387157      -309.8603
   8   2.0000     -11.332831      -308.3820
   9   2.0000     -11.317824      -307.9736
  10   2.0000     -11.313622      -307.8593
  11   2.0000     -11.300586      -307.5046
  12   2.0000     -11.263620      -306.4987
  13   2.0000     -11.263489      -306.4951
  14   2.0000     -11.263439      -306.4938
  15   2.0000     -11.257971      -306.3450
  16   2.0000     -11.247445      -306.0585
  17   2.0000     -11.242820      -305.9327
  18   2.0000     -11.239970      -305.8551
  19   2.0000     -11.231854      -305.6343
  20   2.0000      -8.895987      -242.0721
  21   2.0000      -6.577568      -178.9847
  22   2.0000      -6.575552      -178.9299
  23   2.0000      -6.574969      -178.9140
  24   2.0000      -1.446979       -39.3743
  25   2.0000      -1.420451       -38.6524
  26   2.0000      -1.355058       -36.8730
  27   2.0000      -1.341710       -36.5098
  28   2.0000      -1.240707       -33.7614
  29   2.0000      -1.161902       -31.6170
  30   2.0000      -1.124812       -30.6077
  31   2.0000      -1.048568       -28.5330
  32   2.0000      -1.035247       -28.1705
  33   2.0000      -1.019370       -27.7385
  34   2.0000      -1.003999       -27.3202
  35   2.0000      -0.989713       -26.9315
  36   2.0000      -0.927724       -25.2447
  37   2.0000      -0.887014       -24.1369
  38   2.0000      -0.851976       -23.1834
  39   2.0000      -0.842552       -22.9270
  40   2.0000      -0.837789       -22.7974
  41   2.0000      -0.831615       -22.6294
  42   2.0000      -0.755063       -20.5463
  43   2.0000      -0.735676       -20.0188
  44   2.0000      -0.731271       -19.8989
  45   2.0000      -0.698788       -19.0150
  46   2.0000      -0.688955       -18.7474
  47   2.0000      -0.679541       -18.4912
  48   2.0000      -0.675297       -18.3758
  49   2.0000      -0.661716       -18.0062
  50   2.0000      -0.654720       -17.8158
  51   2.0000      -0.643471       -17.5097
  52   2.0000      -0.637210       -17.3394
  53   2.0000      -0.611933       -16.6515
  54   2.0000      -0.608765       -16.5653
  55   2.0000      -0.606049       -16.4914
  56   2.0000      -0.603156       -16.4127
  57   2.0000      -0.584697       -15.9104
  58   2.0000      -0.580919       -15.8076
  59   2.0000      -0.576405       -15.6848
  60   2.0000      -0.565060       -15.3761
  61   2.0000      -0.554887       -15.0993
  62   2.0000      -0.541591       -14.7374
  63   2.0000      -0.527437       -14.3523
  64   2.0000      -0.520899       -14.1744
  65   2.0000      -0.514235       -13.9930
  66   2.0000      -0.503267       -13.6946
  67   2.0000      -0.494680       -13.4609
  68   2.0000      -0.486268       -13.2320
  69   2.0000      -0.467260       -12.7148
  70   2.0000      -0.455826       -12.4037
  71   2.0000      -0.449372       -12.2280
  72   2.0000      -0.358006        -9.7418
  73   2.0000      -0.352705        -9.5976
  74   2.0000      -0.330412        -8.9910
  75   2.0000      -0.325770        -8.8647
  76   2.0000      -0.319454        -8.6928
  77   0.0000       0.076988         2.0950
  78   0.0000       0.100603         2.7376
  79   0.0000       0.117784         3.2051
  80   0.0000       0.127464         3.4685
  81   0.0000       0.130091         3.5399

MULLIKEN ATOMIC CHARGES
-----------------------
   0 C :   -0.316692
   1 C :    0.029117
   2 O :   -0.363136
   3 C :    0.430719
   4 O :   -0.372680
   5 C :   -0.173663
   6 C :    0.097277
   7 C :   -0.321586
   8 N :   -0.125610
   9 C :    0.193889
  10 S :   -0.438045
  11 N :   -0.207147
  12 C :    0.064546
  13 C :    0.008873
  14 C :   -0.178956
  15 C :   -0.135388
  16 C :   -0.275541
  17 C :    0.311163
  18 O :   -0.357461
  19 C :   -0.263904
  20 H :    0.095403
  21 H :    0.121491
  22 H :    0.106875
  23 H :    0.107668
  24 H :    0.125148
  25 H :    0.132912
  26 H :    0.141238
  27 H :    0.121073
  28 H :    0.197994
  29 H :    0.196232
  30 H :    0.163878
  31 H :    0.168132
  32 H :    0.163947
  33 H :    0.133553
  34 H :    0.241757
  35 H :    0.176921
Sum of atomic charges:   -0.0000000

LOEWDIN ATOMIC CHARGES
----------------------
   0 C :    0.103840
   1 C :   -0.011446
   2 O :    0.278269
   3 C :   -0.418387
   4 O :    0.136773
   5 C :   -0.087897
   6 C :   -0.088805
   7 C :    0.126319
   8 N :    0.403942
   9 C :   -0.457725
  10 S :   -0.035439
  11 N :    0.397190
  12 C :   -0.044363
  13 C :   -0.045582
  14 C :    0.020004
  15 C :    0.043997
  16 C :   -0.000715
  17 C :   -0.194742
  18 O :    0.395470
  19 C :    0.027943
  20 H :   -0.035716
  21 H :   -0.021705
  22 H :   -0.027841
  23 H :   -0.028803
  24 H :   -0.021671
  25 H :   -0.009975
  26 H :   -0.011671
  27 H :   -0.016193
  28 H :   -0.056296
  29 H :   -0.063698
  30 H :   -0.002970
  31 H :   -0.022167
  32 H :   -0.018473
  33 H :   -0.034306
  34 H :   -0.152894
  35 H :   -0.024268

  Mayer bond orders larger than 0.100000
B(  0-C ,  1-C ) :   0.9622 B(  0-C , 20-H ) :   0.9758 B(  0-C , 21-H ) :   0.9780
B(  0-C , 22-H ) :   0.9742 B(  1-C ,  2-O ) :   0.8906 B(  1-C , 23-H ) :   0.9674
B(  1-C , 24-H ) :   0.9862 B(  2-O ,  3-C ) :   1.1226 B(  3-C ,  4-O ) :   2.0855
B(  3-C ,  5-C ) :   0.9468 B(  5-C ,  6-C ) :   1.6803 B(  5-C , 12-C ) :   0.9546
B(  6-C ,  7-C ) :   0.9555 B(  6-C ,  8-N ) :   1.1123 B(  7-C , 25-H ) :   0.9747
B(  7-C , 26-H ) :   0.9706 B(  7-C , 27-H ) :   0.9635 B(  8-N ,  9-C ) :   1.1896
B(  8-N , 28-H ) :   0.9513 B(  9-C , 10-S ) :   1.6157 B(  9-C , 11-N ) :   1.2907
B( 11-N , 12-C ) :   0.9942 B( 11-N , 29-H ) :   0.9507 B( 12-C , 13-C ) :   0.9448
B( 12-C , 30-H ) :   0.9979 B( 13-C , 14-C ) :   1.3918 B( 13-C , 19-C ) :   1.3480
B( 14-C , 15-C ) :   1.3946 B( 14-C , 31-H ) :   0.9600 B( 15-C , 16-C ) :   1.3639
B( 15-C , 32-H ) :   0.9702 B( 16-C , 17-C ) :   1.3288 B( 16-C , 33-H ) :   0.9840
B( 17-C , 18-O ) :   1.1131 B( 17-C , 19-C ) :   1.3716 B( 18-O , 34-H ) :   0.9791
B( 19-C , 35-H ) :   0.9561

MP2 TOTAL ENERGY:    -1274.322309071 Eh
FINAL SINGLE POINT ENERGY     -1274.322309071275

DIPOLE MOMENT
-------------
                                X             Y             Z
Electronic contribution:     10.42420       5.62584       5.86059
Nuclear contribution   :    -11.72790      -6.78951      -6.15082
                        -----------------------------------------
Total Dipole Moment    :     -1.30370      -1.16367      -0.29023
                        -----------------------------------------
Magnitude (a.u.)       :      1.77144
Magnitude (Debye)      :      4.50264

Rotational constants in cm-1:     0.012010     0.009466     0.007105
Rotational constants in MHz :   360.064231   283.782046   212.989010

                             ****ORCA TERMINATED NORMALLY****
TOTAL RUN TIME: 0 days 2 hours 52 minutes 57 seconds 747 msec
