                         Program Version 4.2.0 -  RELEASE  -
|  1> ! ri-mp2 cc-pvtz cc-pvtz/c TightSCF  NoKeepInts
|  2>
|  3> %scf
|  4>   MaxCore 4096
|  5> end
|  6> *xyz  0  1
|  7>     C       14.2555138   14.9691946   14.9913503
|  8>     C       15.5830291   14.5728324   15.6589062
|  9>     O       16.2368970   15.7837251   16.0702383
| 10>     C       17.3929327   15.6892950   16.7878221
| 11>     O       18.0136927   14.6422790   16.8777563
| 12>     C       17.7081781   16.8906304   17.6337215
| 13>     C       17.1544226   18.1229213   17.4815996
| 14>     C       16.1316112   18.5700641   16.4569121
| 15>     N       17.5792518   19.1793974   18.2944769
| 16>     C       18.6412037   19.1266767   19.1581389
| 17>     S       19.1616732   20.4624670   19.9830103
| 18>     N       19.2507002   17.9064859   19.3021252
| 19>     C       18.7484484   16.6422987   18.7323796
| 20>     C       18.1827432   15.7487513   19.8333876
| 21>     C       18.6573290   14.4342892   19.9981266
| 22>     C       18.1391751   13.6064483   21.0081480
| 23>     C       17.1368137   14.0961518   21.8625727
| 24>     C       16.6585703   15.4033836   21.6998332
| 25>     O       15.6864292   15.8772385   22.5194732
| 26>     C       17.1759327   16.2248111   20.6933154
| 27>     H       13.6166190   15.5164536   15.6955453
| 28>     H       13.7123652   14.0768365   14.6570867
| 29>     H       14.4373205   15.6078876   14.1180739
| 30>     H       15.3852602   13.9312893   16.5286036
| 31>     H       16.2135708   14.0181241   14.9507923
| 32>     H       16.4500075   18.2961618   15.4433276
| 33>     H       15.9727476   19.6551818   16.4614027
| 34>     H       15.1609946   18.0947618   16.6463059
| 35>     H       17.1445958   20.0836425   18.2032303
| 36>     H       20.0110550   17.8860403   19.9694785
| 37>     H       19.6025587   16.1233542   18.2736777
| 38>     H       19.4203525   14.0472551   19.3271329
| 39>     H       18.5107817   12.5895669   21.1206173
| 40>     H       16.7325447   13.4596077   22.6424862
| 41>     H       15.4877225   15.1821943   23.1645777
| 42>     H       16.7939560   17.2343010   20.5883672
| 43> *
| 44>
| 45>                          ****END OF INPUT****

CARTESIAN COORDINATES (ANGSTROEM)
---------------------------------
  C     14.255514   14.969195   14.991350
  C     15.583029   14.572832   15.658906
  O     16.236897   15.783725   16.070238
  C     17.392933   15.689295   16.787822
  O     18.013693   14.642279   16.877756
  C     17.708178   16.890630   17.633722
  C     17.154423   18.122921   17.481600
  C     16.131611   18.570064   16.456912
  N     17.579252   19.179397   18.294477
  C     18.641204   19.126677   19.158139
  S     19.161673   20.462467   19.983010
  N     19.250700   17.906486   19.302125
  C     18.748448   16.642299   18.732380
  C     18.182743   15.748751   19.833388
  C     18.657329   14.434289   19.998127
  C     18.139175   13.606448   21.008148
  C     17.136814   14.096152   21.862573
  C     16.658570   15.403384   21.699833
  O     15.686429   15.877238   22.519473
  C     17.175933   16.224811   20.693315
  H     13.616619   15.516454   15.695545
  H     13.712365   14.076837   14.657087
  H     14.437320   15.607888   14.118074
  H     15.385260   13.931289   16.528604
  H     16.213571   14.018124   14.950792
  H     16.450008   18.296162   15.443328
  H     15.972748   19.655182   16.461403
  H     15.160995   18.094762   16.646306
  H     17.144596   20.083642   18.203230
  H     20.011055   17.886040   19.969479
  H     19.602559   16.123354   18.273678
  H     19.420352   14.047255   19.327133
  H     18.510782   12.589567   21.120617
  H     16.732545   13.459608   22.642486
  H     15.487723   15.182194   23.164578
  H     16.793956   17.234301   20.588367

 Total Charge           Charge          ....    0
 Multiplicity           Mult            ....    1
 Number of Electrons    NEL             ....  154
 Basis Dimension        Dim             ....  828

ORBITAL ENERGIES
----------------

  NO   OCC          E(Eh)            E(eV)
   0   2.0000     -91.888054     -2500.4011
   1   2.0000     -20.603633      -560.6534
   2   2.0000     -20.591341      -560.3189
   3   2.0000     -20.545876      -559.0817
   4   2.0000     -15.628499      -425.2731
   5   2.0000     -15.606606      -424.6773
   6   2.0000     -11.394911      -310.0713
   7   2.0000     -11.382907      -309.7446
   8   2.0000     -11.336580      -308.4840
   9   2.0000     -11.307097      -307.6817
  10   2.0000     -11.305369      -307.6347
  11   2.0000     -11.299457      -307.4739
  12   2.0000     -11.260617      -306.4170
  13   2.0000     -11.259069      -306.3749
  14   2.0000     -11.253037      -306.2107
  15   2.0000     -11.247184      -306.0514
  16   2.0000     -11.236869      -305.7708
  17   2.0000     -11.235623      -305.7368
  18   2.0000     -11.233029      -305.6663
  19   2.0000     -11.229934      -305.5820
  20   2.0000      -8.893117      -241.9940
  21   2.0000      -6.574694      -178.9065
  22   2.0000      -6.572688      -178.8519
  23   2.0000      -6.572102      -178.8360
  24   2.0000      -1.455809       -39.6146
  25   2.0000      -1.411076       -38.3973
  26   2.0000      -1.357259       -36.9329
  27   2.0000      -1.339373       -36.4462
  28   2.0000      -1.236920       -33.6583
  29   2.0000      -1.151768       -31.3412
  30   2.0000      -1.119470       -30.4623
  31   2.0000      -1.044954       -28.4347
  32   2.0000      -1.037013       -28.2186
  33   2.0000      -1.009123       -27.4596
  34   2.0000      -0.997611       -27.1464
  35   2.0000      -0.983280       -26.7564
  36   2.0000      -0.920892       -25.0587
  37   2.0000      -0.888582       -24.1796
  38   2.0000      -0.846942       -23.0465
  39   2.0000      -0.834659       -22.7122
  40   2.0000      -0.827409       -22.5149
  41   2.0000      -0.817900       -22.2562
  42   2.0000      -0.762134       -20.7387
  43   2.0000      -0.735867       -20.0240
  44   2.0000      -0.724549       -19.7160
  45   2.0000      -0.690402       -18.7868
  46   2.0000      -0.683503       -18.5991
  47   2.0000      -0.682340       -18.5674
  48   2.0000      -0.676128       -18.3984
  49   2.0000      -0.659050       -17.9337
  50   2.0000      -0.649802       -17.6820
  51   2.0000      -0.643387       -17.5074
  52   2.0000      -0.634818       -17.2743
  53   2.0000      -0.600648       -16.3445
  54   2.0000      -0.600181       -16.3318
  55   2.0000      -0.596647       -16.2356
  56   2.0000      -0.594615       -16.1803
  57   2.0000      -0.580447       -15.7948
  58   2.0000      -0.572783       -15.5862
  59   2.0000      -0.564508       -15.3610
  60   2.0000      -0.562210       -15.2985
  61   2.0000      -0.553259       -15.0549
  62   2.0000      -0.540873       -14.7179
  63   2.0000      -0.519493       -14.1361
  64   2.0000      -0.516664       -14.0591
  65   2.0000      -0.511207       -13.9106
  66   2.0000      -0.505924       -13.7669
  67   2.0000      -0.495418       -13.4810
  68   2.0000      -0.480943       -13.0871
  69   2.0000      -0.463224       -12.6050
  70   2.0000      -0.460983       -12.5440
  71   2.0000      -0.455121       -12.3845
  72   2.0000      -0.354226        -9.6390
  73   2.0000      -0.343656        -9.3513
  74   2.0000      -0.327158        -8.9024
  75   2.0000      -0.315494        -8.5850
  76   2.0000      -0.313414        -8.5284
  77   0.0000       0.075924         2.0660
  78   0.0000       0.113408         3.0860
  79   0.0000       0.120329         3.2743
  80   0.0000       0.135928         3.6988
  81   0.0000       0.138572         3.7707

MULLIKEN ATOMIC CHARGES
-----------------------
   0 C :   -0.275060
   1 C :    0.048670
   2 O :   -0.335538
   3 C :    0.429566
   4 O :   -0.425932
   5 C :   -0.167911
   6 C :    0.143883
   7 C :   -0.288634
   8 N :   -0.122011
   9 C :    0.201407
  10 S :   -0.439146
  11 N :   -0.196973
  12 C :    0.035456
  13 C :    0.057966
  14 C :   -0.159925
  15 C :   -0.134077
  16 C :   -0.279113
  17 C :    0.311378
  18 O :   -0.359264
  19 C :   -0.273064
  20 H :    0.094383
  21 H :    0.101541
  22 H :    0.095876
  23 H :    0.091408
  24 H :    0.098126
  25 H :    0.127084
  26 H :    0.104287
  27 H :    0.127511
  28 H :    0.196718
  29 H :    0.193548
  30 H :    0.153436
  31 H :    0.153112
  32 H :    0.158968
  33 H :    0.127909
  34 H :    0.240023
  35 H :    0.164389
Sum of atomic charges:   -0.0000000

LOEWDIN ATOMIC CHARGES
----------------------
   0 C :    0.107241
   1 C :   -0.018214
   2 O :    0.306334
   3 C :   -0.414808
   4 O :    0.104505
   5 C :   -0.091404
   6 C :   -0.065786
   7 C :    0.125037
   8 N :    0.404834
   9 C :   -0.458910
  10 S :   -0.035895
  11 N :    0.397878
  12 C :   -0.046450
  13 C :   -0.038792
  14 C :    0.022393
  15 C :    0.040915
  16 C :   -0.002420
  17 C :   -0.192720
  18 O :    0.392890
  19 C :    0.028261
  20 H :   -0.028365
  21 H :   -0.022686
  22 H :   -0.027527
  23 H :   -0.027254
  24 H :   -0.028286
  25 H :   -0.008656
  26 H :   -0.020975
  27 H :   -0.010168
  28 H :   -0.059195
  29 H :   -0.063656
  30 H :   -0.004938
  31 H :   -0.025282
  32 H :   -0.021249
  33 H :   -0.036465
  34 H :   -0.154962
  35 H :   -0.025226

  Mayer bond orders larger than 0.100000
B(  0-C ,  1-C ) :   0.9699 B(  0-C , 20-H ) :   0.9779 B(  0-C , 21-H ) :   0.9788
B(  0-C , 22-H ) :   0.9773 B(  1-C ,  2-O ) :   0.9059 B(  1-C , 23-H ) :   0.9748
B(  1-C , 24-H ) :   0.9795 B(  2-O ,  3-C ) :   1.1662 B(  3-C ,  4-O ) :   1.9865
B(  3-C ,  5-C ) :   1.0539 B(  5-C ,  6-C ) :   1.6455 B(  5-C , 12-C ) :   0.9668
B(  6-C ,  7-C ) :   0.9542 B(  6-C ,  8-N ) :   1.1465 B(  7-C , 25-H ) :   0.9657
B(  7-C , 26-H ) :   0.9923 B(  7-C , 27-H ) :   0.9631 B(  8-N ,  9-C ) :   1.1782
B(  8-N , 28-H ) :   0.9488 B(  9-C , 10-S ) :   1.6109 B(  9-C , 11-N ) :   1.3045
B( 11-N , 12-C ) :   0.9921 B( 11-N , 29-H ) :   0.9520 B( 12-C , 13-C ) :   0.9478
B( 12-C , 30-H ) :   1.0000 B( 13-C , 14-C ) :   1.3758 B( 13-C , 19-C ) :   1.3692
B( 14-C , 15-C ) :   1.3947 B( 14-C , 31-H ) :   0.9649 B( 15-C , 16-C ) :   1.3624
B( 15-C , 32-H ) :   0.9715 B( 16-C , 17-C ) :   1.3315 B( 16-C , 33-H ) :   0.9861
B( 17-C , 18-O ) :   1.1079 B( 17-C , 19-C ) :   1.3793 B( 18-O , 34-H ) :   0.9806
B( 19-C , 35-H ) :   0.9586

MP2 TOTAL ENERGY:    -1274.348361501 Eh
FINAL SINGLE POINT ENERGY     -1274.348361500691

DIPOLE MOMENT
-------------
                                X             Y             Z
Electronic contribution:     11.99315       8.66150      11.07431
Nuclear contribution   :    -13.50678      -9.98810     -12.01586
                        -----------------------------------------
Total Dipole Moment    :     -1.51363      -1.32661      -0.94154
                        -----------------------------------------
Magnitude (a.u.)       :      2.22204
Magnitude (Debye)      :      5.64798

Rotational constants in cm-1:     0.010320     0.008859     0.005862
Rotational constants in MHz :   309.376755   265.581083   175.752291

                             ****ORCA TERMINATED NORMALLY****
TOTAL RUN TIME: 0 days 1 hours 48 minutes 25 seconds 307 msec
