                         Program Version 4.2.0 -  RELEASE  -
|  1> ! ri-mp2 cc-pvtz cc-pvtz/c TightSCF  NoKeepInts
|  2>
|  3> %scf
|  4>   MaxCore 4096
|  5> end
|  6> *xyz  0  1
|  7>     C       15.2305890   13.9145476   16.1641026
|  8>     C       15.5475485   15.0740548   15.1914045
|  9>     O       16.4146168   16.0873559   15.7563070
| 10>     C       17.4004911   15.8395928   16.6709649
| 11>     O       17.9641664   14.7618769   16.7619516
| 12>     C       17.7486193   17.0012956   17.5602511
| 13>     C       17.3180937   18.2810358   17.3969561
| 14>     C       16.4178905   18.8395475   16.3135137
| 15>     N       17.7636594   19.2795810   18.2700620
| 16>     C       18.7326240   19.1147120   19.2239064
| 17>     S       19.2907487   20.3821742   20.1281955
| 18>     N       19.2142426   17.8417272   19.3903473
| 19>     C       18.6603882   16.6401883   18.7392068
| 20>     C       17.9209927   15.7733340   19.7555134
| 21>     C       18.2555997   14.4153881   19.9108421
| 22>     C       17.5739698   13.6107542   20.8391552
| 23>     C       16.5475048   14.1677811   21.6205778
| 24>     C       16.2083176   15.5188039   21.4666065
| 25>     O       15.2129857   16.0580434   22.2148624
| 26>     C       16.8880893   16.3169653   20.5412176
| 27>     H       16.0770511   13.2236385   16.2594634
| 28>     H       14.3784357   13.3331060   15.7923032
| 29>     H       14.9719150   14.2947887   17.1603995
| 30>     H       16.0230831   14.6517376   14.2964465
| 31>     H       14.6106236   15.5488376   14.8731909
| 32>     H       15.4120211   18.4075443   16.3849539
| 33>     H       16.8177592   18.6078308   15.3184044
| 34>     H       16.3099528   19.9294287   16.3708403
| 35>     H       17.4227392   20.2215674   18.1640266
| 36>     H       19.9055692   17.7393524   20.1220951
| 37>     H       19.5064175   16.0600360   18.3429513
| 38>     H       19.0369567   13.9776517   19.2941742
| 39>     H       17.8387031   12.5602237   20.9445365
| 40>     H       16.0172489   13.5494982   22.3371319
| 41>     H       14.8961998   15.3673074   22.8159501
| 42>     H       16.6111860   17.3606909   20.4411876
| 43> *
| 44>
| 45>                          ****END OF INPUT****

CARTESIAN COORDINATES (ANGSTROEM)
---------------------------------
  C     15.230589   13.914548   16.164103
  C     15.547548   15.074055   15.191404
  O     16.414617   16.087356   15.756307
  C     17.400491   15.839593   16.670965
  O     17.964166   14.761877   16.761952
  C     17.748619   17.001296   17.560251
  C     17.318094   18.281036   17.396956
  C     16.417890   18.839547   16.313514
  N     17.763659   19.279581   18.270062
  C     18.732624   19.114712   19.223906
  S     19.290749   20.382174   20.128196
  N     19.214243   17.841727   19.390347
  C     18.660388   16.640188   18.739207
  C     17.920993   15.773334   19.755513
  C     18.255600   14.415388   19.910842
  C     17.573970   13.610754   20.839155
  C     16.547505   14.167781   21.620578
  C     16.208318   15.518804   21.466607
  O     15.212986   16.058043   22.214862
  C     16.888089   16.316965   20.541218
  H     16.077051   13.223638   16.259463
  H     14.378436   13.333106   15.792303
  H     14.971915   14.294789   17.160400
  H     16.023083   14.651738   14.296446
  H     14.610624   15.548838   14.873191
  H     15.412021   18.407544   16.384954
  H     16.817759   18.607831   15.318404
  H     16.309953   19.929429   16.370840
  H     17.422739   20.221567   18.164027
  H     19.905569   17.739352   20.122095
  H     19.506418   16.060036   18.342951
  H     19.036957   13.977652   19.294174
  H     17.838703   12.560224   20.944537
  H     16.017249   13.549498   22.337132
  H     14.896200   15.367307   22.815950
  H     16.611186   17.360691   20.441188

 Total Charge           Charge          ....    0
 Multiplicity           Mult            ....    1
 Number of Electrons    NEL             ....  154
 Basis Dimension        Dim             ....  828

ORBITAL ENERGIES
----------------

  NO   OCC          E(Eh)            E(eV)
   0   2.0000     -91.887868     -2500.3960
   1   2.0000     -20.599141      -560.5311
   2   2.0000     -20.591892      -560.3339
   3   2.0000     -20.544477      -559.0436
   4   2.0000     -15.628220      -425.2655
   5   2.0000     -15.606445      -424.6730
   6   2.0000     -11.397026      -310.1288
   7   2.0000     -11.382605      -309.7364
   8   2.0000     -11.336546      -308.4831
   9   2.0000     -11.307705      -307.6983
  10   2.0000     -11.305655      -307.6425
  11   2.0000     -11.304813      -307.6196
  12   2.0000     -11.260271      -306.4075
  13   2.0000     -11.258339      -306.3550
  14   2.0000     -11.253433      -306.2215
  15   2.0000     -11.247747      -306.0668
  16   2.0000     -11.237465      -305.7870
  17   2.0000     -11.233599      -305.6818
  18   2.0000     -11.230345      -305.5932
  19   2.0000     -11.226274      -305.4824
  20   2.0000      -8.892932      -241.9890
  21   2.0000      -6.574510      -178.9015
  22   2.0000      -6.572503      -178.8469
  23   2.0000      -6.571918      -178.8310
  24   2.0000      -1.448221       -39.4081
  25   2.0000      -1.411642       -38.4127
  26   2.0000      -1.355802       -36.8932
  27   2.0000      -1.339171       -36.4407
  28   2.0000      -1.236745       -33.6536
  29   2.0000      -1.152117       -31.3507
  30   2.0000      -1.118753       -30.4428
  31   2.0000      -1.041658       -28.3449
  32   2.0000      -1.033941       -28.1350
  33   2.0000      -1.009566       -27.4717
  34   2.0000      -0.997256       -27.1367
  35   2.0000      -0.982601       -26.7379
  36   2.0000      -0.921386       -25.0722
  37   2.0000      -0.897593       -24.4247
  38   2.0000      -0.847839       -23.0709
  39   2.0000      -0.835604       -22.7379
  40   2.0000      -0.827969       -22.5302
  41   2.0000      -0.816550       -22.2194
  42   2.0000      -0.744670       -20.2635
  43   2.0000      -0.731067       -19.8933
  44   2.0000      -0.724613       -19.7177
  45   2.0000      -0.690201       -18.7813
  46   2.0000      -0.684844       -18.6356
  47   2.0000      -0.677609       -18.4387
  48   2.0000      -0.671690       -18.2776
  49   2.0000      -0.660298       -17.9676
  50   2.0000      -0.649947       -17.6860
  51   2.0000      -0.643953       -17.5228
  52   2.0000      -0.632535       -17.2121
  53   2.0000      -0.616404       -16.7732
  54   2.0000      -0.600529       -16.3412
  55   2.0000      -0.599529       -16.3140
  56   2.0000      -0.595358       -16.2005
  57   2.0000      -0.578568       -15.7436
  58   2.0000      -0.573467       -15.6048
  59   2.0000      -0.564878       -15.3711
  60   2.0000      -0.556576       -15.1452
  61   2.0000      -0.542665       -14.7667
  62   2.0000      -0.538238       -14.6462
  63   2.0000      -0.524447       -14.2709
  64   2.0000      -0.516395       -14.0518
  65   2.0000      -0.510607       -13.8943
  66   2.0000      -0.501827       -13.6554
  67   2.0000      -0.495289       -13.4775
  68   2.0000      -0.478720       -13.0266
  69   2.0000      -0.463117       -12.6021
  70   2.0000      -0.456223       -12.4145
  71   2.0000      -0.449135       -12.2216
  72   2.0000      -0.353780        -9.6268
  73   2.0000      -0.344119        -9.3639
  74   2.0000      -0.327016        -8.8986
  75   2.0000      -0.315594        -8.5877
  76   2.0000      -0.313676        -8.5356
  77   0.0000       0.075566         2.0563
  78   0.0000       0.112702         3.0668
  79   0.0000       0.121691         3.3114
  80   0.0000       0.135755         3.6941
  81   0.0000       0.140542         3.8243

MULLIKEN ATOMIC CHARGES
-----------------------
   0 C :   -0.310578
   1 C :    0.049204
   2 O :   -0.354838
   3 C :    0.453854
   4 O :   -0.429219
   5 C :   -0.180835
   6 C :    0.143376
   7 C :   -0.281643
   8 N :   -0.121113
   9 C :    0.201366
  10 S :   -0.439452
  11 N :   -0.198071
  12 C :    0.039776
  13 C :    0.057315
  14 C :   -0.164310
  15 C :   -0.133486
  16 C :   -0.279730
  17 C :    0.312127
  18 O :   -0.359066
  19 C :   -0.276183
  20 H :    0.128484
  21 H :    0.097650
  22 H :    0.101251
  23 H :    0.097238
  24 H :    0.099968
  25 H :    0.124109
  26 H :    0.128979
  27 H :    0.101843
  28 H :    0.196655
  29 H :    0.193835
  30 H :    0.154373
  31 H :    0.154464
  32 H :    0.159189
  33 H :    0.128258
  34 H :    0.240096
  35 H :    0.165115
Sum of atomic charges:   -0.0000000

LOEWDIN ATOMIC CHARGES
----------------------
   0 C :    0.105075
   1 C :   -0.010370
   2 O :    0.295875
   3 C :   -0.415566
   4 O :    0.109116
   5 C :   -0.091398
   6 C :   -0.064413
   7 C :    0.124808
   8 N :    0.404911
   9 C :   -0.459205
  10 S :   -0.036174
  11 N :    0.398089
  12 C :   -0.046697
  13 C :   -0.039139
  14 C :    0.022208
  15 C :    0.040550
  16 C :   -0.002602
  17 C :   -0.193129
  18 O :    0.392943
  19 C :    0.027804
  20 H :   -0.024018
  21 H :   -0.027031
  22 H :   -0.026321
  23 H :   -0.028587
  24 H :   -0.026259
  25 H :   -0.010227
  26 H :   -0.007747
  27 H :   -0.021498
  28 H :   -0.059332
  29 H :   -0.063620
  30 H :   -0.005337
  31 H :   -0.025141
  32 H :   -0.021242
  33 H :   -0.036401
  34 H :   -0.154876
  35 H :   -0.025050

  Mayer bond orders larger than 0.100000
B(  0-C ,  1-C ) :   0.9616 B(  0-C , 20-H ) :   0.9719 B(  0-C , 21-H ) :   0.9755
B(  0-C , 22-H ) :   0.9740 B(  1-C ,  2-O ) :   0.9014 B(  1-C , 23-H ) :   0.9828
B(  1-C , 24-H ) :   0.9830 B(  2-O ,  3-C ) :   1.1534 B(  3-C ,  4-O ) :   1.9789
B(  3-C ,  5-C ) :   1.0481 B(  5-C ,  6-C ) :   1.6461 B(  5-C , 12-C ) :   0.9647
B(  6-C ,  7-C ) :   0.9559 B(  6-C ,  8-N ) :   1.1510 B(  7-C , 25-H ) :   0.9650
B(  7-C , 26-H ) :   0.9639 B(  7-C , 27-H ) :   0.9919 B(  8-N ,  9-C ) :   1.1780
B(  8-N , 28-H ) :   0.9486 B(  9-C , 10-S ) :   1.6104 B(  9-C , 11-N ) :   1.3051
B( 11-N , 12-C ) :   0.9917 B( 11-N , 29-H ) :   0.9519 B( 12-C , 13-C ) :   0.9460
B( 12-C , 30-H ) :   1.0006 B( 13-C , 14-C ) :   1.3759 B( 13-C , 19-C ) :   1.3681
B( 14-C , 15-C ) :   1.3945 B( 14-C , 31-H ) :   0.9644 B( 15-C , 16-C ) :   1.3621
B( 15-C , 32-H ) :   0.9714 B( 16-C , 17-C ) :   1.3318 B( 16-C , 33-H ) :   0.9859
B( 17-C , 18-O ) :   1.1082 B( 17-C , 19-C ) :   1.3781 B( 18-O , 34-H ) :   0.9805
B( 19-C , 35-H ) :   0.9583

MP2 TOTAL ENERGY:    -1274.341231799 Eh
FINAL SINGLE POINT ENERGY     -1274.341231798548

DIPOLE MOMENT
-------------
                                X             Y             Z
Electronic contribution:     10.21098      10.23812       9.30208
Nuclear contribution   :    -11.81230     -11.47951     -10.34054
                        -----------------------------------------
Total Dipole Moment    :     -1.60132      -1.24139      -1.03846
                        -----------------------------------------
Magnitude (a.u.)       :      2.27677
Magnitude (Debye)      :      5.78709

Rotational constants in cm-1:     0.010826     0.009190     0.006041
Rotational constants in MHz :   324.546374   275.508659   181.113614

                             ****ORCA TERMINATED NORMALLY****
TOTAL RUN TIME: 0 days 1 hours 38 minutes 58 seconds 399 msec
