                         Program Version 5.0.0 -  RELEASE  -
|  1> ! ri-mp2 cc-pvtz cc-pvtz/c TightSCF NoKeepInts
|  2>
|  3> %scf
|  4>   MaxCore 4096
|  5> end
|  6> *xyz  0  1
|  7>     C       14.9701229   16.2299599   17.3534436
|  8>     C       15.5476427   14.8874404   16.8591779
|  9>     O       16.9101004   14.8570735   16.3483279
| 10>     C       18.0056269   15.6784634   16.4970794
| 11>     O       19.1040523   15.2608415   16.1819505
| 12>     C       17.9073958   16.8689415   17.3796822
| 13>     C       17.4995855   18.0652233   16.9028465
| 14>     C       17.0644759   18.3650158   15.4845983
| 15>     N       17.5173497   19.1874017   17.7333500
| 16>     C       17.9688588   19.1906387   19.0281114
| 17>     S       17.9369699   20.5592671   19.9554948
| 18>     N       18.4457229   18.0002085   19.5220379
| 19>     C       18.4938657   16.7205909   18.7853357
| 20>     C       17.8552587   15.5720384   19.5668210
| 21>     C       18.3525808   14.2643430   19.4113202
| 22>     C       17.7744416   13.1875852   20.1033971
| 23>     C       16.6889127   13.4173761   20.9647822
| 24>     C       16.1916099   14.7168580   21.1278122
| 25>     O       15.1383006   14.9419378   21.9524822
| 26>     C       16.7688088   15.7872798   20.4371261
| 27>     H       15.4932733   16.6217797   18.2286759
| 28>     H       13.9269347   16.0819316   17.6585878
| 29>     H       14.9626742   16.9780873   16.5552011
| 30>     H       15.4997904   14.1885792   17.7051264
| 31>     H       14.8824299   14.4822376   16.0857770
| 32>     H       16.7733433   17.4588128   14.9393306
| 33>     H       17.8845162   18.8318031   14.9240682
| 34>     H       16.2062528   19.0478301   15.4622520
| 35>     H       17.1957689   20.0760756   17.3830203
| 36>     H       18.7607188   18.0322395   20.4835794
| 37>     H       19.5561636   16.4651836   18.6556179
| 38>     H       19.1866264   14.0792856   18.7369159
| 39>     H       18.1675316   12.1813117   19.9672310
| 40>     H       16.2385467   12.5880280   21.5003261
| 41>     H       14.9136269   14.0990789   22.3751567
| 42>     H       16.3571199   16.7812511   20.5779570
| 43> *
| 44>
| 45>                          ****END OF INPUT****

CARTESIAN COORDINATES (ANGSTROEM)
---------------------------------
  C     14.970123   16.229960   17.353444
  C     15.547643   14.887440   16.859178
  O     16.910100   14.857073   16.348328
  C     18.005627   15.678463   16.497079
  O     19.104052   15.260841   16.181950
  C     17.907396   16.868941   17.379682
  C     17.499585   18.065223   16.902846
  C     17.064476   18.365016   15.484598
  N     17.517350   19.187402   17.733350
  C     17.968859   19.190639   19.028111
  S     17.936970   20.559267   19.955495
  N     18.445723   18.000208   19.522038
  C     18.493866   16.720591   18.785336
  C     17.855259   15.572038   19.566821
  C     18.352581   14.264343   19.411320
  C     17.774442   13.187585   20.103397
  C     16.688913   13.417376   20.964782
  C     16.191610   14.716858   21.127812
  O     15.138301   14.941938   21.952482
  C     16.768809   15.787280   20.437126
  H     15.493273   16.621780   18.228676
  H     13.926935   16.081932   17.658588
  H     14.962674   16.978087   16.555201
  H     15.499790   14.188579   17.705126
  H     14.882430   14.482238   16.085777
  H     16.773343   17.458813   14.939331
  H     17.884516   18.831803   14.924068
  H     16.206253   19.047830   15.462252
  H     17.195769   20.076076   17.383020
  H     18.760719   18.032239   20.483579
  H     19.556164   16.465184   18.655618
  H     19.186626   14.079286   18.736916
  H     18.167532   12.181312   19.967231
  H     16.238547   12.588028   21.500326
  H     14.913627   14.099079   22.375157
  H     16.357120   16.781251   20.577957

 Total Charge           Charge          ....    0
 Multiplicity           Mult            ....    1
 Number of Electrons    NEL             ....  154
 Basis Dimension        Dim             ....  828

ORBITAL ENERGIES
----------------

  NO   OCC          E(Eh)            E(eV)
   0   2.0000     -91.889364     -2500.4367
   1   2.0000     -20.602008      -560.6091
   2   2.0000     -20.596993      -560.4727
   3   2.0000     -20.549673      -559.1850
   4   2.0000     -15.624578      -425.1664
   5   2.0000     -15.612441      -424.8361
   6   2.0000     -11.400015      -310.2102
   7   2.0000     -11.386626      -309.8459
   8   2.0000     -11.322383      -308.0977
   9   2.0000     -11.319281      -308.0133
  10   2.0000     -11.317952      -307.9771
  11   2.0000     -11.310297      -307.7688
  12   2.0000     -11.268272      -306.6253
  13   2.0000     -11.266089      -306.5659
  14   2.0000     -11.260782      -306.4214
  15   2.0000     -11.259332      -306.3820
  16   2.0000     -11.248312      -306.0821
  17   2.0000     -11.244958      -305.9909
  18   2.0000     -11.241477      -305.8961
  19   2.0000     -11.236548      -305.7620
  20   2.0000      -8.894491      -242.0314
  21   2.0000      -6.576084      -178.9443
  22   2.0000      -6.574053      -178.8891
  23   2.0000      -6.573483      -178.8736
  24   2.0000      -1.441584       -39.2275
  25   2.0000      -1.421828       -38.6899
  26   2.0000      -1.354377       -36.8545
  27   2.0000      -1.338279       -36.4164
  28   2.0000      -1.239318       -33.7236
  29   2.0000      -1.163247       -31.6536
  30   2.0000      -1.125288       -30.6206
  31   2.0000      -1.049902       -28.5693
  32   2.0000      -1.040850       -28.3230
  33   2.0000      -1.021606       -27.7993
  34   2.0000      -1.005023       -27.3481
  35   2.0000      -0.990415       -26.9506
  36   2.0000      -0.928353       -25.2618
  37   2.0000      -0.902367       -24.5546
  38   2.0000      -0.852350       -23.1936
  39   2.0000      -0.842106       -22.9149
  40   2.0000      -0.837996       -22.8030
  41   2.0000      -0.830652       -22.6032
  42   2.0000      -0.747234       -20.3333
  43   2.0000      -0.735014       -20.0007
  44   2.0000      -0.727910       -19.8074
  45   2.0000      -0.699599       -19.0371
  46   2.0000      -0.687336       -18.7034
  47   2.0000      -0.676498       -18.4084
  48   2.0000      -0.676059       -18.3965
  49   2.0000      -0.661926       -18.0119
  50   2.0000      -0.657251       -17.8847
  51   2.0000      -0.653641       -17.7865
  52   2.0000      -0.638975       -17.3874
  53   2.0000      -0.614225       -16.7139
  54   2.0000      -0.608187       -16.5496
  55   2.0000      -0.606188       -16.4952
  56   2.0000      -0.603883       -16.4325
  57   2.0000      -0.590782       -16.0760
  58   2.0000      -0.583057       -15.8658
  59   2.0000      -0.577985       -15.7278
  60   2.0000      -0.567533       -15.4434
  61   2.0000      -0.557183       -15.1617
  62   2.0000      -0.542847       -14.7716
  63   2.0000      -0.532509       -14.4903
  64   2.0000      -0.518864       -14.1190
  65   2.0000      -0.514060       -13.9883
  66   2.0000      -0.503967       -13.7136
  67   2.0000      -0.501360       -13.6427
  68   2.0000      -0.488228       -13.2854
  69   2.0000      -0.467304       -12.7160
  70   2.0000      -0.452183       -12.3045
  71   2.0000      -0.447953       -12.1894
  72   2.0000      -0.355910        -9.6848
  73   2.0000      -0.350143        -9.5279
  74   2.0000      -0.329201        -8.9580
  75   2.0000      -0.326699        -8.8899
  76   2.0000      -0.317741        -8.6462
  77   0.0000       0.094257         2.5649
  78   0.0000       0.104579         2.8457
  79   0.0000       0.117118         3.1870
  80   0.0000       0.125211         3.4072
  81   0.0000       0.127955         3.4818

MULLIKEN ATOMIC CHARGES
-----------------------
   0 C :   -0.348214
   1 C :    0.050680
   2 O :   -0.335018
   3 C :    0.387321
   4 O :   -0.379586
   5 C :   -0.181419
   6 C :    0.138016
   7 C :   -0.321104
   8 N :   -0.140280
   9 C :    0.215268
  10 S :   -0.444612
  11 N :   -0.237468
  12 C :    0.121397
  13 C :    0.003039
  14 C :   -0.214735
  15 C :   -0.130814
  16 C :   -0.280139
  17 C :    0.325450
  18 O :   -0.355859
  19 C :   -0.284165
  20 H :    0.119831
  21 H :    0.130048
  22 H :    0.099781
  23 H :    0.104688
  24 H :    0.119919
  25 H :    0.114407
  26 H :    0.151244
  27 H :    0.109722
  28 H :    0.195371
  29 H :    0.205368
  30 H :    0.165016
  31 H :    0.170028
  32 H :    0.165838
  33 H :    0.133291
  34 H :    0.242041
  35 H :    0.185650
Sum of atomic charges:   -0.0000000

LOEWDIN ATOMIC CHARGES
----------------------
   0 C :    0.104076
   1 C :   -0.010390
   2 O :    0.293678
   3 C :   -0.420059
   4 O :    0.125298
   5 C :   -0.081336
   6 C :   -0.105668
   7 C :    0.123526
   8 N :    0.402139
   9 C :   -0.453723
  10 S :   -0.039962
  11 N :    0.397510
  12 C :   -0.043367
  13 C :   -0.041464
  14 C :    0.023506
  15 C :    0.045200
  16 C :   -0.001245
  17 C :   -0.193955
  18 O :    0.395739
  19 C :    0.024930
  20 H :   -0.033477
  21 H :   -0.018477
  22 H :   -0.032099
  23 H :   -0.023951
  24 H :   -0.021854
  25 H :   -0.011084
  26 H :   -0.007043
  27 H :   -0.018008
  28 H :   -0.058718
  29 H :   -0.064814
  30 H :   -0.003630
  31 H :   -0.020937
  32 H :   -0.017597
  33 H :   -0.034303
  34 H :   -0.152609
  35 H :   -0.025832

  Mayer bond orders larger than 0.100000
B(  0-C ,  1-C ) :   0.9617 B(  0-C , 20-H ) :   0.9667 B(  0-C , 21-H ) :   0.9763
B(  0-C , 22-H ) :   0.9770 B(  1-C ,  2-O ) :   0.9082 B(  1-C , 23-H ) :   0.9713
B(  1-C , 24-H ) :   0.9805 B(  2-O ,  3-C ) :   1.1751 B(  3-C ,  4-O ) :   2.0966
B(  3-C ,  5-C ) :   0.9240 B(  5-C ,  6-C ) :   1.7029 B(  5-C , 12-C ) :   0.9452
B(  6-C ,  7-C ) :   0.9472 B(  6-C ,  8-N ) :   1.1127 B(  7-C , 25-H ) :   0.9807
B(  7-C , 26-H ) :   0.9645 B(  7-C , 27-H ) :   0.9742 B(  8-N ,  9-C ) :   1.2060
B(  8-N , 28-H ) :   0.9525 B(  9-C , 10-S ) :   1.6031 B(  9-C , 11-N ) :   1.2848
B( 11-N , 12-C ) :   0.9897 B( 11-N , 29-H ) :   0.9439 B( 12-C , 13-C ) :   0.9503
B( 12-C , 30-H ) :   0.9955 B( 13-C , 14-C ) :   1.3887 B( 13-C , 19-C ) :   1.3350
B( 14-C , 15-C ) :   1.4050 B( 14-C , 31-H ) :   0.9623 B( 15-C , 16-C ) :   1.3548
B( 15-C , 32-H ) :   0.9691 B( 16-C , 17-C ) :   1.3334 B( 16-C , 33-H ) :   0.9845
B( 17-C , 18-O ) :   1.1100 B( 17-C , 19-C ) :   1.3639 B( 18-O , 34-H ) :   0.9787
B( 19-C , 35-H ) :   0.9524

MP2 TOTAL ENERGY:    -1274.320145961 Eh
FINAL SINGLE POINT ENERGY     -1274.320145960609

DIPOLE MOMENT
-------------
                                X             Y             Z
Electronic contribution:      8.82756       5.23704       6.20074
Nuclear contribution   :    -10.32063      -6.56864      -6.57973
                        -----------------------------------------
Total Dipole Moment    :     -1.49307      -1.33161      -0.37899
                        -----------------------------------------
Magnitude (a.u.)       :      2.03619
Magnitude (Debye)      :      5.17558

Rotational constants in cm-1:     0.012719     0.009130     0.006765
Rotational constants in MHz :   381.308341   273.720494   202.816044

                             ****ORCA TERMINATED NORMALLY****
TOTAL RUN TIME: 0 days 2 hours 7 minutes 37 seconds 137 msec
