                         Program Version 4.2.0 -  RELEASE  -
|  1> ! ri-mp2 cc-pvtz cc-pvtz/c TightSCF  NoKeepInts
|  2>
|  3> %scf
|  4>   MaxCore 4096
|  5> end
|  6> *xyz  0  1
|  7>     C       14.9534270   16.1899790   17.3861822
|  8>     C       15.6188883   14.8144890   17.1599644
|  9>     O       16.8783067   14.8333867   16.4376891
| 10>     C       17.9080774   15.7460291   16.4213636
| 11>     O       18.7602202   15.6856427   15.5554648
| 12>     C       17.8624430   16.9124405   17.3451129
| 13>     C       17.5511790   18.1438381   16.8824587
| 14>     C       17.1284394   18.4907077   15.4717244
| 15>     N       17.6160313   19.2482259   17.7343845
| 16>     C       17.9921685   19.1949763   19.0512998
| 17>     S       17.9866340   20.5385301   20.0150728
| 18>     N       18.3649886   17.9660375   19.5386372
| 19>     C       18.4183070   16.7118680   18.7606949
| 20>     C       17.8069516   15.5373760   19.5216717
| 21>     C       18.3544142   14.2492182   19.3697685
| 22>     C       17.8120352   13.1526466   20.0600856
| 23>     C       16.7151249   13.3436341   20.9168272
| 24>     C       16.1707374   14.6243384   21.0786710
| 25>     O       15.1074998   14.8120519   21.8995499
| 26>     C       16.7111422   15.7144436   20.3888941
| 27>     H       15.4335487   16.7664907   18.1819248
| 28>     H       13.9104309   16.0444230   17.6929856
| 29>     H       14.9430038   16.7789090   16.4620794
| 30>     H       15.7657464   14.3328671   18.1340574
| 31>     H       14.9211009   14.1772550   16.6015498
| 32>     H       16.7087794   17.6249755   14.9445502
| 33>     H       17.9932655   18.8324209   14.8888548
| 34>     H       16.3687664   19.2814166   15.4550552
| 35>     H       17.3675015   20.1616823   17.3883665
| 36>     H       18.6209853   17.9561034   20.5181665
| 37>     H       19.4848839   16.4752416   18.6335776
| 38>     H       19.2005997   14.0943263   18.7038729
| 39>     H       18.2421105   12.1607737   19.9287127
| 40>     H       16.2931038   12.4987707   21.4515893
| 41>     H       14.9106526   13.9626260   22.3233384
| 42>     H       16.2655049   16.6938590   20.5298014
| 43> *
| 44>
| 45>                          ****END OF INPUT****

CARTESIAN COORDINATES (ANGSTROEM)
---------------------------------
  C     14.953427   16.189979   17.386182
  C     15.618888   14.814489   17.159964
  O     16.878307   14.833387   16.437689
  C     17.908077   15.746029   16.421364
  O     18.760220   15.685643   15.555465
  C     17.862443   16.912440   17.345113
  C     17.551179   18.143838   16.882459
  C     17.128439   18.490708   15.471724
  N     17.616031   19.248226   17.734384
  C     17.992168   19.194976   19.051300
  S     17.986634   20.538530   20.015073
  N     18.364989   17.966037   19.538637
  C     18.418307   16.711868   18.760695
  C     17.806952   15.537376   19.521672
  C     18.354414   14.249218   19.369768
  C     17.812035   13.152647   20.060086
  C     16.715125   13.343634   20.916827
  C     16.170737   14.624338   21.078671
  O     15.107500   14.812052   21.899550
  C     16.711142   15.714444   20.388894
  H     15.433549   16.766491   18.181925
  H     13.910431   16.044423   17.692986
  H     14.943004   16.778909   16.462079
  H     15.765746   14.332867   18.134057
  H     14.921101   14.177255   16.601550
  H     16.708779   17.624976   14.944550
  H     17.993265   18.832421   14.888855
  H     16.368766   19.281417   15.455055
  H     17.367501   20.161682   17.388367
  H     18.620985   17.956103   20.518166
  H     19.484884   16.475242   18.633578
  H     19.200600   14.094326   18.703873
  H     18.242110   12.160774   19.928713
  H     16.293104   12.498771   21.451589
  H     14.910653   13.962626   22.323338
  H     16.265505   16.693859   20.529801

 Total Charge           Charge          ....    0
 Multiplicity           Mult            ....    1
 Number of Electrons    NEL             ....  154
 Basis Dimension        Dim             ....  828

ORBITAL ENERGIES
----------------

  NO   OCC          E(Eh)            E(eV)
   0   2.0000     -91.889620     -2500.4437
   1   2.0000     -20.606397      -560.7286
   2   2.0000     -20.595557      -560.4336
   3   2.0000     -20.549236      -559.1731
   4   2.0000     -15.624665      -425.1688
   5   2.0000     -15.612748      -424.8445
   6   2.0000     -11.397781      -310.1494
   7   2.0000     -11.386574      -309.8444
   8   2.0000     -11.324626      -308.1587
   9   2.0000     -11.322536      -308.1019
  10   2.0000     -11.319983      -308.0324
  11   2.0000     -11.305298      -307.6328
  12   2.0000     -11.273804      -306.7758
  13   2.0000     -11.265629      -306.5534
  14   2.0000     -11.259255      -306.3799
  15   2.0000     -11.258731      -306.3657
  16   2.0000     -11.253919      -306.2347
  17   2.0000     -11.249736      -306.1209
  18   2.0000     -11.249072      -306.1028
  19   2.0000     -11.234625      -305.7097
  20   2.0000      -8.894745      -242.0383
  21   2.0000      -6.576338      -178.9512
  22   2.0000      -6.574307      -178.8960
  23   2.0000      -6.573736      -178.8804
  24   2.0000      -1.440620       -39.2013
  25   2.0000      -1.426220       -38.8094
  26   2.0000      -1.354731       -36.8641
  27   2.0000      -1.338519       -36.4229
  28   2.0000      -1.240032       -33.7430
  29   2.0000      -1.168158       -31.7872
  30   2.0000      -1.124787       -30.6070
  31   2.0000      -1.052213       -28.6322
  32   2.0000      -1.037585       -28.2341
  33   2.0000      -1.026417       -27.9302
  34   2.0000      -1.004331       -27.3292
  35   2.0000      -0.990048       -26.9406
  36   2.0000      -0.929095       -25.2820
  37   2.0000      -0.899974       -24.4895
  38   2.0000      -0.852464       -23.1967
  39   2.0000      -0.846311       -23.0293
  40   2.0000      -0.841568       -22.9002
  41   2.0000      -0.831540       -22.6274
  42   2.0000      -0.749236       -20.3877
  43   2.0000      -0.739350       -20.1187
  44   2.0000      -0.724378       -19.7113
  45   2.0000      -0.704949       -19.1826
  46   2.0000      -0.691589       -18.8191
  47   2.0000      -0.678119       -18.4526
  48   2.0000      -0.675876       -18.3915
  49   2.0000      -0.660769       -17.9804
  50   2.0000      -0.657021       -17.8784
  51   2.0000      -0.652095       -17.7444
  52   2.0000      -0.638606       -17.3773
  53   2.0000      -0.617114       -16.7925
  54   2.0000      -0.613372       -16.6907
  55   2.0000      -0.609782       -16.5930
  56   2.0000      -0.606209       -16.4958
  57   2.0000      -0.584608       -15.9080
  58   2.0000      -0.579278       -15.7630
  59   2.0000      -0.575018       -15.6470
  60   2.0000      -0.568348       -15.4655
  61   2.0000      -0.556109       -15.1325
  62   2.0000      -0.540705       -14.7133
  63   2.0000      -0.534510       -14.5448
  64   2.0000      -0.525065       -14.2878
  65   2.0000      -0.516086       -14.0434
  66   2.0000      -0.506265       -13.7762
  67   2.0000      -0.501129       -13.6364
  68   2.0000      -0.491550       -13.3758
  69   2.0000      -0.467205       -12.7133
  70   2.0000      -0.450522       -12.2593
  71   2.0000      -0.447117       -12.1667
  72   2.0000      -0.360289        -9.8040
  73   2.0000      -0.350191        -9.5292
  74   2.0000      -0.332743        -9.0544
  75   2.0000      -0.329331        -8.9615
  76   2.0000      -0.317747        -8.6463
  77   0.0000       0.092195         2.5088
  78   0.0000       0.098055         2.6682
  79   0.0000       0.119764         3.2590
  80   0.0000       0.123576         3.3627
  81   0.0000       0.126377         3.4389

MULLIKEN ATOMIC CHARGES
-----------------------
   0 C :   -0.337926
   1 C :    0.037574
   2 O :   -0.323345
   3 C :    0.376106
   4 O :   -0.374892
   5 C :   -0.193112
   6 C :    0.149777
   7 C :   -0.307237
   8 N :   -0.139076
   9 C :    0.215134
  10 S :   -0.444706
  11 N :   -0.238082
  12 C :    0.108882
  13 C :   -0.016653
  14 C :   -0.199061
  15 C :   -0.129344
  16 C :   -0.276489
  17 C :    0.321315
  18 O :   -0.355499
  19 C :   -0.275619
  20 H :    0.112505
  21 H :    0.125633
  22 H :    0.105329
  23 H :    0.101015
  24 H :    0.128611
  25 H :    0.116356
  26 H :    0.147881
  27 H :    0.105593
  28 H :    0.196612
  29 H :    0.206279
  30 H :    0.163985
  31 H :    0.159497
  32 H :    0.165774
  33 H :    0.135097
  34 H :    0.242825
  35 H :    0.189261
Sum of atomic charges:   -0.0000000

LOEWDIN ATOMIC CHARGES
----------------------
   0 C :    0.102723
   1 C :   -0.011773
   2 O :    0.295178
   3 C :   -0.420747
   4 O :    0.126470
   5 C :   -0.082755
   6 C :   -0.095785
   7 C :    0.127299
   8 N :    0.403537
   9 C :   -0.454265
  10 S :   -0.039569
  11 N :    0.395937
  12 C :   -0.050619
  13 C :   -0.041988
  14 C :    0.020041
  15 C :    0.046539
  16 C :    0.000463
  17 C :   -0.193680
  18 O :    0.397614
  19 C :    0.027335
  20 H :   -0.034899
  21 H :   -0.020750
  22 H :   -0.029755
  23 H :   -0.030459
  24 H :   -0.020518
  25 H :   -0.009773
  26 H :   -0.005490
  27 H :   -0.019092
  28 H :   -0.057621
  29 H :   -0.065684
  30 H :   -0.007861
  31 H :   -0.023955
  32 H :   -0.016889
  33 H :   -0.033071
  34 H :   -0.151533
  35 H :   -0.024607

  Mayer bond orders larger than 0.100000
B(  0-C ,  1-C ) :   0.9569 B(  0-C , 20-H ) :   0.9688 B(  0-C , 21-H ) :   0.9766
B(  0-C , 22-H ) :   0.9765 B(  1-C ,  2-O ) :   0.9064 B(  1-C , 23-H ) :   0.9681
B(  1-C , 24-H ) :   0.9822 B(  2-O ,  3-C ) :   1.1953 B(  3-C ,  4-O ) :   2.1138
B(  3-C ,  5-C ) :   0.8955 B(  5-C ,  6-C ) :   1.7249 B(  5-C , 12-C ) :   0.9484
B(  6-C ,  7-C ) :   0.9493 B(  6-C ,  8-N ) :   1.1222 B(  7-C , 25-H ) :   0.9775
B(  7-C , 26-H ) :   0.9624 B(  7-C , 27-H ) :   0.9786 B(  8-N ,  9-C ) :   1.2092
B(  8-N , 28-H ) :   0.9516 B(  9-C , 10-S ) :   1.6028 B(  9-C , 11-N ) :   1.2856
B( 11-N , 12-C ) :   0.9841 B( 11-N , 29-H ) :   0.9422 B( 12-C , 13-C ) :   0.9451
B( 12-C , 30-H ) :   0.9987 B( 13-C , 14-C ) :   1.3804 B( 13-C , 19-C ) :   1.3394
B( 14-C , 15-C ) :   1.4047 B( 14-C , 31-H ) :   0.9699 B( 15-C , 16-C ) :   1.3563
B( 15-C , 32-H ) :   0.9692 B( 16-C , 17-C ) :   1.3329 B( 16-C , 33-H ) :   0.9840
B( 17-C , 18-O ) :   1.1125 B( 17-C , 19-C ) :   1.3607 B( 18-O , 34-H ) :   0.9779
B( 19-C , 35-H ) :   0.9499

MP2 TOTAL ENERGY:    -1274.323903673 Eh
FINAL SINGLE POINT ENERGY     -1274.323903672620

DIPOLE MOMENT
-------------
                                X             Y             Z
Electronic contribution:      8.40184       5.22685       5.77207
Nuclear contribution   :     -9.65892      -6.82856      -5.63034
                        -----------------------------------------
Total Dipole Moment    :     -1.25708      -1.60170       0.14173
                        -----------------------------------------
Magnitude (a.u.)       :      2.04103
Magnitude (Debye)      :      5.18788

Rotational constants in cm-1:     0.012947     0.009039     0.006594
Rotational constants in MHz :   388.147104   270.993521   197.670149

                             ****ORCA TERMINATED NORMALLY****
TOTAL RUN TIME: 0 days 1 hours 46 minutes 59 seconds 428 msec
