                         Program Version 4.2.0 -  RELEASE  -
|  1> ! ri-mp2 cc-pvtz cc-pvtz/c TightSCF  NoKeepInts
|  2>
|  3> %scf
|  4>   MaxCore 4096
|  5> end
|  6> *xyz  0  1
|  7>     C       14.5335842   14.4953804   15.4975222
|  8>     C       15.6420030   14.5806863   16.5598417
|  9>     O       16.6017728   15.5475899   16.1030704
| 10>     C       17.8154776   15.5788199   16.7229176
| 11>     O       18.3993542   14.5485784   17.0155101
| 12>     C       18.0119408   16.8376447   17.5127668
| 13>     C       17.5432436   18.0523938   17.1303849
| 14>     C       16.7886389   18.3908147   15.8614723
| 15>     N       17.8124165   19.1791153   17.9134176
| 16>     C       18.6459659   19.1947649   19.0009257
| 17>     S       19.0006049   20.5950963   19.8063325
| 18>     N       19.1717604   17.9874830   19.3876847
| 19>     C       18.7928001   16.6791662   18.8207747
| 20>     C       17.9878724   15.8697372   19.8341038
| 21>     C       18.4041193   14.5787613   20.2080809
| 22>     C       17.6595270   13.8251316   21.1308547
| 23>     C       16.4868607   14.3658568   21.6850520
| 24>     C       16.0663966   15.6496066   21.3120759
| 25>     O       14.9297455   16.1712544   21.8383625
| 26>     C       16.8092261   16.3970211   20.3928913
| 27>     H       14.9495204   14.1872536   14.5300700
| 28>     H       14.0426675   15.4681173   15.3707147
| 29>     H       13.7734187   13.7621774   15.7933429
| 30>     H       15.2278641   14.8800444   17.5320071
| 31>     H       16.1074846   13.5911788   16.6684004
| 32>     H       17.2224485   17.8731773   14.9967242
| 33>     H       16.8082038   19.4637420   15.6346814
| 34>     H       15.7382948   18.0843107   15.9428043
| 35>     H       17.4366016   20.0747068   17.6452513
| 36>     H       19.7588776   18.0230616   20.2111249
| 37>     H       19.7187562   16.1304666   18.5954095
| 38>     H       19.3005988   14.1508464   19.7658656
| 39>     H       17.9897714   12.8253887   21.4073563
| 40>     H       15.9079200   13.7862965   22.3963935
| 41>     H       14.5936354   15.5365482   22.4889376
| 42>     H       16.4676261   17.3897809   20.1208739
| 43> *
| 44>
| 45>                          ****END OF INPUT****

CARTESIAN COORDINATES (ANGSTROEM)
---------------------------------
  C     14.533584   14.495380   15.497522
  C     15.642003   14.580686   16.559842
  O     16.601773   15.547590   16.103070
  C     17.815478   15.578820   16.722918
  O     18.399354   14.548578   17.015510
  C     18.011941   16.837645   17.512767
  C     17.543244   18.052394   17.130385
  C     16.788639   18.390815   15.861472
  N     17.812417   19.179115   17.913418
  C     18.645966   19.194765   19.000926
  S     19.000605   20.595096   19.806332
  N     19.171760   17.987483   19.387685
  C     18.792800   16.679166   18.820775
  C     17.987872   15.869737   19.834104
  C     18.404119   14.578761   20.208081
  C     17.659527   13.825132   21.130855
  C     16.486861   14.365857   21.685052
  C     16.066397   15.649607   21.312076
  O     14.929745   16.171254   21.838362
  C     16.809226   16.397021   20.392891
  H     14.949520   14.187254   14.530070
  H     14.042667   15.468117   15.370715
  H     13.773419   13.762177   15.793343
  H     15.227864   14.880044   17.532007
  H     16.107485   13.591179   16.668400
  H     17.222448   17.873177   14.996724
  H     16.808204   19.463742   15.634681
  H     15.738295   18.084311   15.942804
  H     17.436602   20.074707   17.645251
  H     19.758878   18.023062   20.211125
  H     19.718756   16.130467   18.595409
  H     19.300599   14.150846   19.765866
  H     17.989771   12.825389   21.407356
  H     15.907920   13.786296   22.396393
  H     14.593635   15.536548   22.488938
  H     16.467626   17.389781   20.120874

 Total Charge           Charge          ....    0
 Multiplicity           Mult            ....    1
 Number of Electrons    NEL             ....  154
 Basis Dimension        Dim             ....  828

ORBITAL ENERGIES
----------------

  NO   OCC          E(Eh)            E(eV)
   0   2.0000     -91.888518     -2500.4137
   1   2.0000     -20.594853      -560.4144
   2   2.0000     -20.589308      -560.2635
   3   2.0000     -20.553359      -559.2853
   4   2.0000     -15.628277      -425.2670
   5   2.0000     -15.607819      -424.7103
   6   2.0000     -11.394527      -310.0608
   7   2.0000     -11.383884      -309.7712
   8   2.0000     -11.333621      -308.4035
   9   2.0000     -11.310886      -307.7849
  10   2.0000     -11.307834      -307.7018
  11   2.0000     -11.297747      -307.4273
  12   2.0000     -11.259949      -306.3988
  13   2.0000     -11.259667      -306.3911
  14   2.0000     -11.256447      -306.3035
  15   2.0000     -11.250921      -306.1531
  16   2.0000     -11.240565      -305.8713
  17   2.0000     -11.236555      -305.7622
  18   2.0000     -11.233714      -305.6849
  19   2.0000     -11.231889      -305.6352
  20   2.0000      -8.893591      -242.0069
  21   2.0000      -6.575169      -178.9195
  22   2.0000      -6.573160      -178.8648
  23   2.0000      -6.572576      -178.8489
  24   2.0000      -1.453770       -39.5591
  25   2.0000      -1.414624       -38.4939
  26   2.0000      -1.357201       -36.9313
  27   2.0000      -1.339344       -36.4454
  28   2.0000      -1.237490       -33.6738
  29   2.0000      -1.155043       -31.4303
  30   2.0000      -1.120815       -30.4989
  31   2.0000      -1.044440       -28.4207
  32   2.0000      -1.036064       -28.1927
  33   2.0000      -1.012484       -27.5511
  34   2.0000      -0.998702       -27.1761
  35   2.0000      -0.984236       -26.7824
  36   2.0000      -0.922617       -25.1057
  37   2.0000      -0.882883       -24.0245
  38   2.0000      -0.847788       -23.0695
  39   2.0000      -0.837562       -22.7912
  40   2.0000      -0.831024       -22.6133
  41   2.0000      -0.823828       -22.4175
  42   2.0000      -0.758398       -20.6371
  43   2.0000      -0.735959       -20.0265
  44   2.0000      -0.727374       -19.7928
  45   2.0000      -0.692899       -18.8547
  46   2.0000      -0.685482       -18.6529
  47   2.0000      -0.681094       -18.5335
  48   2.0000      -0.674946       -18.3662
  49   2.0000      -0.655482       -17.8366
  50   2.0000      -0.649857       -17.6835
  51   2.0000      -0.641977       -17.4691
  52   2.0000      -0.632685       -17.2162
  53   2.0000      -0.617752       -16.8099
  54   2.0000      -0.603327       -16.4174
  55   2.0000      -0.602255       -16.3882
  56   2.0000      -0.598268       -16.2797
  57   2.0000      -0.577453       -15.7133
  58   2.0000      -0.575438       -15.6585
  59   2.0000      -0.563293       -15.3280
  60   2.0000      -0.559166       -15.2157
  61   2.0000      -0.546765       -14.8782
  62   2.0000      -0.536525       -14.5996
  63   2.0000      -0.524173       -14.2635
  64   2.0000      -0.520167       -14.1545
  65   2.0000      -0.511082       -13.9072
  66   2.0000      -0.502693       -13.6790
  67   2.0000      -0.496954       -13.5228
  68   2.0000      -0.482346       -13.1253
  69   2.0000      -0.464814       -12.6482
  70   2.0000      -0.460524       -12.5315
  71   2.0000      -0.450725       -12.2649
  72   2.0000      -0.354014        -9.6332
  73   2.0000      -0.346804        -9.4370
  74   2.0000      -0.327792        -8.9197
  75   2.0000      -0.317937        -8.6515
  76   2.0000      -0.315399        -8.5824
  77   0.0000       0.072060         1.9608
  78   0.0000       0.106694         2.9033
  79   0.0000       0.119250         3.2450
  80   0.0000       0.133230         3.6254
  81   0.0000       0.136534         3.7153

MULLIKEN ATOMIC CHARGES
-----------------------
   0 C :   -0.265050
   1 C :    0.038003
   2 O :   -0.366618
   3 C :    0.459677
   4 O :   -0.405335
   5 C :   -0.194964
   6 C :    0.137731
   7 C :   -0.282942
   8 N :   -0.124321
   9 C :    0.203212
  10 S :   -0.439949
  11 N :   -0.200469
  12 C :    0.050767
  13 C :    0.051440
  14 C :   -0.161520
  15 C :   -0.132661
  16 C :   -0.280493
  17 C :    0.313146
  18 O :   -0.359285
  19 C :   -0.281986
  20 H :    0.100326
  21 H :    0.089473
  22 H :    0.092442
  23 H :    0.093586
  24 H :    0.112734
  25 H :    0.124372
  26 H :    0.104359
  27 H :    0.125203
  28 H :    0.197149
  29 H :    0.194168
  30 H :    0.154652
  31 H :    0.155117
  32 H :    0.160269
  33 H :    0.129749
  34 H :    0.240701
  35 H :    0.167317
Sum of atomic charges:   -0.0000000

LOEWDIN ATOMIC CHARGES
----------------------
   0 C :    0.108055
   1 C :   -0.016547
   2 O :    0.294735
   3 C :   -0.414779
   4 O :    0.123400
   5 C :   -0.093409
   6 C :   -0.073009
   7 C :    0.125815
   8 N :    0.404187
   9 C :   -0.457636
  10 S :   -0.036464
  11 N :    0.397177
  12 C :   -0.045576
  13 C :   -0.039913
  14 C :    0.021806
  15 C :    0.041697
  16 C :   -0.002228
  17 C :   -0.194027
  18 O :    0.393197
  19 C :    0.027858
  20 H :   -0.024632
  21 H :   -0.030566
  22 H :   -0.024379
  23 H :   -0.031834
  24 H :   -0.026654
  25 H :   -0.008012
  26 H :   -0.019787
  27 H :   -0.010453
  28 H :   -0.058799
  29 H :   -0.064023
  30 H :   -0.004757
  31 H :   -0.024872
  32 H :   -0.020614
  33 H :   -0.035913
  34 H :   -0.154300
  35 H :   -0.024742

  Mayer bond orders larger than 0.100000
B(  0-C ,  1-C ) :   0.9762 B(  0-C , 20-H ) :   0.9776 B(  0-C , 21-H ) :   0.9793
B(  0-C , 22-H ) :   0.9766 B(  1-C ,  2-O ) :   0.8929 B(  1-C , 23-H ) :   0.9695
B(  1-C , 24-H ) :   0.9773 B(  2-O ,  3-C ) :   1.0991 B(  3-C ,  4-O ) :   2.0174
B(  3-C ,  5-C ) :   1.0341 B(  5-C ,  6-C ) :   1.6656 B(  5-C , 12-C ) :   0.9639
B(  6-C ,  7-C ) :   0.9520 B(  6-C ,  8-N ) :   1.1398 B(  7-C , 25-H ) :   0.9700
B(  7-C , 26-H ) :   0.9886 B(  7-C , 27-H ) :   0.9631 B(  8-N ,  9-C ) :   1.1835
B(  8-N , 28-H ) :   0.9497 B(  9-C , 10-S ) :   1.6104 B(  9-C , 11-N ) :   1.3009
B( 11-N , 12-C ) :   0.9920 B( 11-N , 29-H ) :   0.9517 B( 12-C , 13-C ) :   0.9462
B( 12-C , 30-H ) :   0.9986 B( 13-C , 14-C ) :   1.3774 B( 13-C , 19-C ) :   1.3665
B( 14-C , 15-C ) :   1.3943 B( 14-C , 31-H ) :   0.9642 B( 15-C , 16-C ) :   1.3636
B( 15-C , 32-H ) :   0.9710 B( 16-C , 17-C ) :   1.3313 B( 16-C , 33-H ) :   0.9853
B( 17-C , 18-O ) :   1.1089 B( 17-C , 19-C ) :   1.3748 B( 18-O , 34-H ) :   0.9800
B( 19-C , 35-H ) :   0.9584

MP2 TOTAL ENERGY:    -1274.329664521 Eh
FINAL SINGLE POINT ENERGY     -1274.329664520595

DIPOLE MOMENT
-------------
                                X             Y             Z
Electronic contribution:     11.37820       9.66763       9.09613
Nuclear contribution   :    -12.76137     -10.99545      -9.73340
                        -----------------------------------------
Total Dipole Moment    :     -1.38317      -1.32782      -0.63727
                        -----------------------------------------
Magnitude (a.u.)       :      2.02049
Magnitude (Debye)      :      5.13568

Rotational constants in cm-1:     0.010928     0.009127     0.006312
Rotational constants in MHz :   327.610388   273.633252   189.219154

                             ****ORCA TERMINATED NORMALLY****
TOTAL RUN TIME: 0 days 1 hours 38 minutes 2 seconds 181 msec
