                         Program Version 4.2.0 -  RELEASE  -
|  1> ! ri-mp2 cc-pvtz cc-pvtz/c TightSCF  NoKeepInts
|  2>
|  3> %scf
|  4>   MaxCore 4096
|  5> end
|  6> *xyz  0  1
|  7>     C       15.1473010   14.5040372   17.3052818
|  8>     C       15.4236628   15.6414509   16.3045320
|  9>     O       16.7365775   15.4467929   15.7362687
| 10>     C       17.8937947   15.6595568   16.4414117
| 11>     O       18.7527548   14.7977635   16.4812699
| 12>     C       17.9319171   16.8507928   17.3527169
| 13>     C       17.4746308   18.0782596   16.9982554
| 14>     C       16.8924137   18.5001178   15.6637487
| 15>     N       17.6270499   19.1579913   17.8718045
| 16>     C       18.3614005   19.1298392   19.0278496
| 17>     S       18.5750015   20.4821198   19.9550510
| 18>     N       18.9124593   17.9219971   19.3750065
| 19>     C       18.6576688   16.6420088   18.6856088
| 20>     C       17.8891352   15.6841766   19.5893132
| 21>     C       18.3049450   14.3462263   19.7181112
| 22>     C       17.5952388   13.4513936   20.5361198
| 23>     C       16.4582048   13.8968324   21.2314194
| 24>     C       16.0382030   15.2275835   21.1030150
| 25>     O       14.9333674   15.6575594   21.7625013
| 26>     C       16.7460045   16.1164058   20.2876054
| 27>     H       15.8813725   14.4955274   18.1163664
| 28>     H       15.1907595   13.5306803   16.8006997
| 29>     H       14.1510522   14.6146762   17.7501470
| 30>     H       14.6731667   15.6020495   15.5044576
| 31>     H       15.3244890   16.6056774   16.8139088
| 32>     H       17.1624671   17.8063429   14.8582283
| 33>     H       17.2733196   19.4832053   15.3587184
| 34>     H       15.7989489   18.5665187   15.7054706
| 35>     H       17.2455174   20.0579594   17.6258410
| 36>     H       19.4332756   17.9245320   20.2429816
| 37>     H       19.6343368   16.1869464   18.4636226
| 38>     H       19.1739953   13.9942402   19.1661339
| 39>     H       17.9246010   12.4172603   20.6224954
| 40>     H       15.9057649   13.2076260   21.8615561
| 41>     H       14.6204118   14.9242131   22.3135866
| 42>     H       16.4017906   17.1416396   20.2028952
| 43> *
| 44>
| 45>                          ****END OF INPUT****

CARTESIAN COORDINATES (ANGSTROEM)
---------------------------------
  C     15.147301   14.504037   17.305282
  C     15.423663   15.641451   16.304532
  O     16.736577   15.446793   15.736269
  C     17.893795   15.659557   16.441412
  O     18.752755   14.797763   16.481270
  C     17.931917   16.850793   17.352717
  C     17.474631   18.078260   16.998255
  C     16.892414   18.500118   15.663749
  N     17.627050   19.157991   17.871804
  C     18.361400   19.129839   19.027850
  S     18.575001   20.482120   19.955051
  N     18.912459   17.921997   19.375007
  C     18.657669   16.642009   18.685609
  C     17.889135   15.684177   19.589313
  C     18.304945   14.346226   19.718111
  C     17.595239   13.451394   20.536120
  C     16.458205   13.896832   21.231419
  C     16.038203   15.227583   21.103015
  O     14.933367   15.657559   21.762501
  C     16.746005   16.116406   20.287605
  H     15.881372   14.495527   18.116366
  H     15.190759   13.530680   16.800700
  H     14.151052   14.614676   17.750147
  H     14.673167   15.602049   15.504458
  H     15.324489   16.605677   16.813909
  H     17.162467   17.806343   14.858228
  H     17.273320   19.483205   15.358718
  H     15.798949   18.566519   15.705471
  H     17.245517   20.057959   17.625841
  H     19.433276   17.924532   20.242982
  H     19.634337   16.186946   18.463623
  H     19.173995   13.994240   19.166134
  H     17.924601   12.417260   20.622495
  H     15.905765   13.207626   21.861556
  H     14.620412   14.924213   22.313587
  H     16.401791   17.141640   20.202895

 Total Charge           Charge          ....    0
 Multiplicity           Mult            ....    1
 Number of Electrons    NEL             ....  154
 Basis Dimension        Dim             ....  828

ORBITAL ENERGIES
----------------

  NO   OCC          E(Eh)            E(eV)
   0   2.0000     -91.891141     -2500.4851
   1   2.0000     -20.598835      -560.5228
   2   2.0000     -20.594987      -560.4181
   3   2.0000     -20.551100      -559.2239
   4   2.0000     -15.630202      -425.3194
   5   2.0000     -15.611028      -424.7977
   6   2.0000     -11.397830      -310.1507
   7   2.0000     -11.387069      -309.8579
   8   2.0000     -11.336825      -308.4907
   9   2.0000     -11.315631      -307.9140
  10   2.0000     -11.311983      -307.8147
  11   2.0000     -11.306281      -307.6595
  12   2.0000     -11.266891      -306.5877
  13   2.0000     -11.266040      -306.5645
  14   2.0000     -11.261550      -306.4424
  15   2.0000     -11.255834      -306.2868
  16   2.0000     -11.245275      -305.9995
  17   2.0000     -11.241021      -305.8837
  18   2.0000     -11.237944      -305.8000
  19   2.0000     -11.224781      -305.4418
  20   2.0000      -8.896229      -242.0787
  21   2.0000      -6.577809      -178.9913
  22   2.0000      -6.575792      -178.9364
  23   2.0000      -6.575209      -178.9205
  24   2.0000      -1.447011       -39.3752
  25   2.0000      -1.418607       -38.6023
  26   2.0000      -1.358860       -36.9765
  27   2.0000      -1.342689       -36.5364
  28   2.0000      -1.241095       -33.7719
  29   2.0000      -1.160129       -31.5687
  30   2.0000      -1.124829       -30.6082
  31   2.0000      -1.047708       -28.5096
  32   2.0000      -1.034788       -28.1580
  33   2.0000      -1.017721       -27.6936
  34   2.0000      -1.005132       -27.3510
  35   2.0000      -0.989395       -26.9228
  36   2.0000      -0.927599       -25.2413
  37   2.0000      -0.889869       -24.2146
  38   2.0000      -0.855054       -23.2672
  39   2.0000      -0.842041       -22.9131
  40   2.0000      -0.835824       -22.7439
  41   2.0000      -0.831936       -22.6381
  42   2.0000      -0.747726       -20.3467
  43   2.0000      -0.738951       -20.1079
  44   2.0000      -0.730483       -19.8775
  45   2.0000      -0.696904       -18.9637
  46   2.0000      -0.687743       -18.7144
  47   2.0000      -0.680980       -18.5304
  48   2.0000      -0.677072       -18.4241
  49   2.0000      -0.660395       -17.9703
  50   2.0000      -0.656708       -17.8699
  51   2.0000      -0.648619       -17.6498
  52   2.0000      -0.639740       -17.4082
  53   2.0000      -0.618500       -16.8302
  54   2.0000      -0.608536       -16.5591
  55   2.0000      -0.606478       -16.5031
  56   2.0000      -0.601757       -16.3746
  57   2.0000      -0.584509       -15.9053
  58   2.0000      -0.576836       -15.6965
  59   2.0000      -0.567405       -15.4399
  60   2.0000      -0.560450       -15.2506
  61   2.0000      -0.549581       -14.9549
  62   2.0000      -0.546283       -14.8651
  63   2.0000      -0.531577       -14.4649
  64   2.0000      -0.521014       -14.1775
  65   2.0000      -0.513388       -13.9700
  66   2.0000      -0.501897       -13.6573
  67   2.0000      -0.497055       -13.5255
  68   2.0000      -0.484850       -13.1934
  69   2.0000      -0.469830       -12.7847
  70   2.0000      -0.458373       -12.4730
  71   2.0000      -0.448014       -12.1911
  72   2.0000      -0.358994        -9.7687
  73   2.0000      -0.351333        -9.5602
  74   2.0000      -0.330573        -8.9953
  75   2.0000      -0.323608        -8.8058
  76   2.0000      -0.319617        -8.6972
  77   0.0000       0.075453         2.0532
  78   0.0000       0.104320         2.8387
  79   0.0000       0.115880         3.1533
  80   0.0000       0.129305         3.5186
  81   0.0000       0.135179         3.6784

MULLIKEN ATOMIC CHARGES
-----------------------
   0 C :   -0.277802
   1 C :    0.021335
   2 O :   -0.343204
   3 C :    0.429029
   4 O :   -0.383491
   5 C :   -0.216678
   6 C :    0.144672
   7 C :   -0.319457
   8 N :   -0.130541
   9 C :    0.197990
  10 S :   -0.438035
  11 N :   -0.205271
  12 C :    0.061875
  13 C :   -0.000367
  14 C :   -0.173756
  15 C :   -0.134767
  16 C :   -0.271673
  17 C :    0.304884
  18 O :   -0.358990
  19 C :   -0.244034
  20 H :    0.105903
  21 H :    0.110987
  22 H :    0.094337
  23 H :    0.119882
  24 H :    0.086029
  25 H :    0.140431
  26 H :    0.128117
  27 H :    0.121508
  28 H :    0.197459
  29 H :    0.196639
  30 H :    0.162289
  31 H :    0.166481
  32 H :    0.162460
  33 H :    0.132248
  34 H :    0.241379
  35 H :    0.172135
Sum of atomic charges:   -0.0000000

LOEWDIN ATOMIC CHARGES
----------------------
   0 C :    0.110760
   1 C :   -0.022488
   2 O :    0.295499
   3 C :   -0.416468
   4 O :    0.124898
   5 C :   -0.087916
   6 C :   -0.086471
   7 C :    0.126457
   8 N :    0.403351
   9 C :   -0.459083
  10 S :   -0.035143
  11 N :    0.397736
  12 C :   -0.045251
  13 C :   -0.046167
  14 C :    0.020650
  15 C :    0.044005
  16 C :   -0.000347
  17 C :   -0.192806
  18 O :    0.395064
  19 C :    0.027146
  20 H :   -0.027143
  21 H :   -0.023362
  22 H :   -0.025999
  23 H :   -0.022376
  24 H :   -0.040932
  25 H :   -0.007101
  26 H :   -0.012535
  27 H :   -0.017267
  28 H :   -0.057106
  29 H :   -0.063098
  30 H :   -0.002950
  31 H :   -0.022273
  32 H :   -0.018863
  33 H :   -0.034724
  34 H :   -0.153221
  35 H :   -0.024477

  Mayer bond orders larger than 0.100000
B(  0-C ,  1-C ) :   0.9779 B(  0-C , 20-H ) :   0.9674 B(  0-C , 21-H ) :   0.9797
B(  0-C , 22-H ) :   0.9759 B(  1-C ,  2-O ) :   0.8959 B(  1-C , 23-H ) :   0.9808
B(  1-C , 24-H ) :   0.9669 B(  2-O ,  3-C ) :   1.1505 B(  3-C ,  4-O ) :   2.0812
B(  3-C ,  5-C ) :   0.9477 B(  5-C ,  6-C ) :   1.6796 B(  5-C , 12-C ) :   0.9568
B(  6-C ,  7-C ) :   0.9419 B(  6-C ,  8-N ) :   1.1262 B(  7-C , 25-H ) :   0.9727
B(  7-C , 26-H ) :   0.9791 B(  7-C , 27-H ) :   0.9647 B(  8-N ,  9-C ) :   1.1865
B(  8-N , 28-H ) :   0.9508 B(  9-C , 10-S ) :   1.6139 B(  9-C , 11-N ) :   1.2950
B( 11-N , 12-C ) :   0.9969 B( 11-N , 29-H ) :   0.9506 B( 12-C , 13-C ) :   0.9438
B( 12-C , 30-H ) :   0.9971 B( 13-C , 14-C ) :   1.3907 B( 13-C , 19-C ) :   1.3611
B( 14-C , 15-C ) :   1.3922 B( 14-C , 31-H ) :   0.9606 B( 15-C , 16-C ) :   1.3629
B( 15-C , 32-H ) :   0.9712 B( 16-C , 17-C ) :   1.3313 B( 16-C , 33-H ) :   0.9845
B( 17-C , 18-O ) :   1.1105 B( 17-C , 19-C ) :   1.3704 B( 18-O , 34-H ) :   0.9794
B( 19-C , 35-H ) :   0.9570

MP2 TOTAL ENERGY:    -1274.336724116 Eh
FINAL SINGLE POINT ENERGY     -1274.336724116491

DIPOLE MOMENT
-------------
                                X             Y             Z
Electronic contribution:      9.69989       7.91620       5.82806
Nuclear contribution   :    -11.23010      -8.79425      -6.22962
                        -----------------------------------------
Total Dipole Moment    :     -1.53020      -0.87805      -0.40156
                        -----------------------------------------
Magnitude (a.u.)       :      1.80935
Magnitude (Debye)      :      4.59900

Rotational constants in cm-1:     0.011881     0.009481     0.006762
Rotational constants in MHz :   356.171713   284.242616   202.725813

                             ****ORCA TERMINATED NORMALLY****
TOTAL RUN TIME: 0 days 1 hours 50 minutes 10 seconds 124 msec
