                         Program Version 5.0.0 -  RELEASE  -
|  1> ! ri-mp2 cc-pvtz cc-pvtz/c TightSCF NoKeepInts
|  2>
|  3> %scf
|  4>   MaxCore 4096
|  5> end
|  6> *xyz  0  1
|  7>     C       15.9701584   13.2991379   15.5487594
|  8>     C       15.4071294   14.4785436   16.3591134
|  9>     O       16.5127897   15.3407972   16.6802286
| 10>     C       16.3472519   16.6979559   16.6907838
| 11>     O       15.4055383   17.2472803   16.1447946
| 12>     C       17.3579783   17.3957117   17.5589691
| 13>     C       17.4056270   18.7468470   17.6789258
| 14>     C       16.5042809   19.7592155   17.0050149
| 15>     N       18.3923782   19.3464195   18.4673771
| 16>     C       19.4235807   18.6798620   19.0735650
| 17>     S       20.6082766   19.4756689   19.9096677
| 18>     N       19.4263200   17.3139508   18.9495415
| 19>     C       18.3499569   16.5144369   18.3362194
| 20>     C       17.6514573   15.6812281   19.4074584
| 21>     C       17.7476765   14.2768956   19.3946674
| 22>     C       17.1013919   13.5067847   20.3761552
| 23>     C       16.3552392   14.1457633   21.3810952
| 24>     C       16.2608440   15.5441353   21.3994516
| 25>     O       15.5417154   16.1639552   22.3688208
| 26>     C       16.9043465   16.3077767   20.4207420
| 27>     H       15.1680212   12.6027140   15.2758515
| 28>     H       16.7183598   12.7502074   16.1337603
| 29>     H       16.4436046   13.6561637   14.6255931
| 30>     H       14.6555480   14.9934085   15.7453855
| 31>     H       14.9224012   14.1247860   17.2784979
| 32>     H       15.4628490   19.6170148   17.3211135
| 33>     H       16.5342961   19.6382602   15.9146993
| 34>     H       16.7801687   20.7961603   17.2295809
| 35>     H       18.4069038   20.3487314   18.5684699
| 36>     H       20.1785610   16.8473384   19.4396907
| 37>     H       18.8220863   15.8303265   17.6170900
| 38>     H       18.3189289   13.7803314   18.6148902
| 39>     H       17.1800177   12.4212298   20.3562929
| 40>     H       15.8548511   13.5555908   22.1417441
| 41>     H       15.2024035   15.4784675   22.9635766
| 42>     H       16.8240620   17.3889029   20.4564129
| 43> *
| 44>
| 45>                          ****END OF INPUT****

CARTESIAN COORDINATES (ANGSTROEM)
---------------------------------
  C     15.970158   13.299138   15.548759
  C     15.407129   14.478544   16.359113
  O     16.512790   15.340797   16.680229
  C     16.347252   16.697956   16.690784
  O     15.405538   17.247280   16.144795
  C     17.357978   17.395712   17.558969
  C     17.405627   18.746847   17.678926
  C     16.504281   19.759215   17.005015
  N     18.392378   19.346419   18.467377
  C     19.423581   18.679862   19.073565
  S     20.608277   19.475669   19.909668
  N     19.426320   17.313951   18.949541
  C     18.349957   16.514437   18.336219
  C     17.651457   15.681228   19.407458
  C     17.747677   14.276896   19.394667
  C     17.101392   13.506785   20.376155
  C     16.355239   14.145763   21.381095
  C     16.260844   15.544135   21.399452
  O     15.541715   16.163955   22.368821
  C     16.904346   16.307777   20.420742
  H     15.168021   12.602714   15.275851
  H     16.718360   12.750207   16.133760
  H     16.443605   13.656164   14.625593
  H     14.655548   14.993408   15.745385
  H     14.922401   14.124786   17.278498
  H     15.462849   19.617015   17.321113
  H     16.534296   19.638260   15.914699
  H     16.780169   20.796160   17.229581
  H     18.406904   20.348731   18.568470
  H     20.178561   16.847338   19.439691
  H     18.822086   15.830326   17.617090
  H     18.318929   13.780331   18.614890
  H     17.180018   12.421230   20.356293
  H     15.854851   13.555591   22.141744
  H     15.202404   15.478468   22.963577
  H     16.824062   17.388903   20.456413

 Total Charge           Charge          ....    0
 Multiplicity           Mult            ....    1
 Number of Electrons    NEL             ....  154
 Basis Dimension        Dim             ....  828

ORBITAL ENERGIES
----------------

  NO   OCC          E(Eh)            E(eV)
   0   2.0000     -91.888881     -2500.4236
   1   2.0000     -20.600444      -560.5666
   2   2.0000     -20.596287      -560.4535
   3   2.0000     -20.541749      -558.9694
   4   2.0000     -15.629027      -425.2874
   5   2.0000     -15.608232      -424.7216
   6   2.0000     -11.394935      -310.0719
   7   2.0000     -11.383976      -309.7737
   8   2.0000     -11.335803      -308.4629
   9   2.0000     -11.313511      -307.8563
  10   2.0000     -11.308997      -307.7335
  11   2.0000     -11.294860      -307.3488
  12   2.0000     -11.259472      -306.3858
  13   2.0000     -11.258693      -306.3646
  14   2.0000     -11.255053      -306.2656
  15   2.0000     -11.251884      -306.1793
  16   2.0000     -11.242851      -305.9335
  17   2.0000     -11.238278      -305.8091
  18   2.0000     -11.238062      -305.8032
  19   2.0000     -11.230091      -305.5863
  20   2.0000      -8.893940      -242.0164
  21   2.0000      -6.575514      -178.9288
  22   2.0000      -6.573510      -178.8743
  23   2.0000      -6.572923      -178.8583
  24   2.0000      -1.450983       -39.4833
  25   2.0000      -1.415943       -38.5298
  26   2.0000      -1.354830       -36.8668
  27   2.0000      -1.339980       -36.4627
  28   2.0000      -1.238438       -33.6996
  29   2.0000      -1.157412       -31.4948
  30   2.0000      -1.120263       -30.4839
  31   2.0000      -1.043218       -28.3874
  32   2.0000      -1.039653       -28.2904
  33   2.0000      -1.014914       -27.6172
  34   2.0000      -0.995653       -27.0931
  35   2.0000      -0.984258       -26.7830
  36   2.0000      -0.922411       -25.1001
  37   2.0000      -0.888620       -24.1806
  38   2.0000      -0.846708       -23.0401
  39   2.0000      -0.837406       -22.7870
  40   2.0000      -0.833833       -22.6898
  41   2.0000      -0.818251       -22.2658
  42   2.0000      -0.764570       -20.8050
  43   2.0000      -0.732405       -19.9297
  44   2.0000      -0.722197       -19.6520
  45   2.0000      -0.695333       -18.9210
  46   2.0000      -0.686933       -18.6924
  47   2.0000      -0.679589       -18.4926
  48   2.0000      -0.674829       -18.3630
  49   2.0000      -0.658575       -17.9207
  50   2.0000      -0.646308       -17.5869
  51   2.0000      -0.644085       -17.5265
  52   2.0000      -0.634565       -17.2674
  53   2.0000      -0.606831       -16.5127
  54   2.0000      -0.605481       -16.4760
  55   2.0000      -0.599322       -16.3084
  56   2.0000      -0.598019       -16.2729
  57   2.0000      -0.577777       -15.7221
  58   2.0000      -0.570674       -15.5288
  59   2.0000      -0.566735       -15.4217
  60   2.0000      -0.562349       -15.3023
  61   2.0000      -0.542657       -14.7665
  62   2.0000      -0.540020       -14.6947
  63   2.0000      -0.527396       -14.3512
  64   2.0000      -0.524934       -14.2842
  65   2.0000      -0.513404       -13.9704
  66   2.0000      -0.501620       -13.6498
  67   2.0000      -0.496858       -13.5202
  68   2.0000      -0.485872       -13.2213
  69   2.0000      -0.465300       -12.6615
  70   2.0000      -0.457584       -12.4515
  71   2.0000      -0.446959       -12.1624
  72   2.0000      -0.354245        -9.6395
  73   2.0000      -0.349201        -9.5022
  74   2.0000      -0.328207        -8.9310
  75   2.0000      -0.321185        -8.7399
  76   2.0000      -0.315986        -8.5984
  77   0.0000       0.075819         2.0632
  78   0.0000       0.106430         2.8961
  79   0.0000       0.124277         3.3817
  80   0.0000       0.131763         3.5855
  81   0.0000       0.135843         3.6965

MULLIKEN ATOMIC CHARGES
-----------------------
   0 C :   -0.262125
   1 C :    0.011596
   2 O :   -0.354305
   3 C :    0.470706
   4 O :   -0.431480
   5 C :   -0.227623
   6 C :    0.150780
   7 C :   -0.273404
   8 N :   -0.121317
   9 C :    0.210348
  10 S :   -0.439571
  11 N :   -0.203543
  12 C :    0.052858
  13 C :    0.066490
  14 C :   -0.188202
  15 C :   -0.132218
  16 C :   -0.279127
  17 C :    0.316209
  18 O :   -0.356361
  19 C :   -0.269106
  20 H :    0.091017
  21 H :    0.089752
  22 H :    0.097778
  23 H :    0.129339
  24 H :    0.103716
  25 H :    0.132764
  26 H :    0.130293
  27 H :    0.094941
  28 H :    0.197528
  29 H :    0.194491
  30 H :    0.150517
  31 H :    0.151148
  32 H :    0.160463
  33 H :    0.130069
  34 H :    0.240598
  35 H :    0.164980
Sum of atomic charges:   -0.0000000

LOEWDIN ATOMIC CHARGES
----------------------
   0 C :    0.105534
   1 C :   -0.012917
   2 O :    0.309067
   3 C :   -0.413960
   4 O :    0.097034
   5 C :   -0.095024
   6 C :   -0.058882
   7 C :    0.131532
   8 N :    0.406545
   9 C :   -0.456658
  10 S :   -0.035281
  11 N :    0.396478
  12 C :   -0.052519
  13 C :   -0.038612
  14 C :    0.014125
  15 C :    0.038303
  16 C :   -0.002090
  17 C :   -0.189497
  18 O :    0.395271
  19 C :    0.031621
  20 H :   -0.025259
  21 H :   -0.031059
  22 H :   -0.025696
  23 H :   -0.027654
  24 H :   -0.029958
  25 H :   -0.004396
  26 H :   -0.004065
  27 H :   -0.023431
  28 H :   -0.057566
  29 H :   -0.064563
  30 H :   -0.010854
  31 H :   -0.030889
  32 H :   -0.021517
  33 H :   -0.035639
  34 H :   -0.153955
  35 H :   -0.023567

  Mayer bond orders larger than 0.100000
B(  0-C ,  1-C ) :   0.9738 B(  0-C , 20-H ) :   0.9763 B(  0-C , 21-H ) :   0.9797
B(  0-C , 22-H ) :   0.9779 B(  1-C ,  2-O ) :   0.8809 B(  1-C , 23-H ) :   0.9762
B(  1-C , 24-H ) :   0.9743 B(  2-O ,  3-C ) :   1.1676 B(  3-C ,  4-O ) :   1.9822
B(  3-C ,  5-C ) :   1.0534 B(  5-C ,  6-C ) :   1.6570 B(  5-C , 12-C ) :   0.9723
B(  6-C ,  7-C ) :   0.9672 B(  6-C ,  8-N ) :   1.1635 B(  7-C , 25-H ) :   0.9599
B(  7-C , 26-H ) :   0.9608 B(  7-C , 27-H ) :   0.9904 B(  8-N ,  9-C ) :   1.1829
B(  8-N , 28-H ) :   0.9479 B(  9-C , 10-S ) :   1.6081 B(  9-C , 11-N ) :   1.3045
B( 11-N , 12-C ) :   0.9892 B( 11-N , 29-H ) :   0.9517 B( 12-C , 13-C ) :   0.9346
B( 12-C , 30-H ) :   1.0031 B( 13-C , 14-C ) :   1.3546 B( 13-C , 19-C ) :   1.3832
B( 14-C , 15-C ) :   1.3904 B( 14-C , 31-H ) :   0.9714 B( 15-C , 16-C ) :   1.3631
B( 15-C , 32-H ) :   0.9705 B( 16-C , 17-C ) :   1.3320 B( 16-C , 33-H ) :   0.9851
B( 17-C , 18-O ) :   1.1105 B( 17-C , 19-C ) :   1.3725 B( 18-O , 34-H ) :   0.9799
B( 19-C , 35-H ) :   0.9581

MP2 TOTAL ENERGY:    -1274.348749947 Eh
FINAL SINGLE POINT ENERGY     -1274.348749946753

DIPOLE MOMENT
-------------
                                X             Y             Z
Electronic contribution:      9.21277      10.74691       8.68643
Nuclear contribution   :    -10.42251     -12.33434      -9.02285
                        -----------------------------------------
Total Dipole Moment    :     -1.20974      -1.58743      -0.33642
                        -----------------------------------------
Magnitude (a.u.)       :      2.02400
Magnitude (Debye)      :      5.14461

Rotational constants in cm-1:     0.011507     0.008513     0.006139
Rotational constants in MHz :   344.964001   255.226950   184.045986

                             ****ORCA TERMINATED NORMALLY****
TOTAL RUN TIME: 0 days 1 hours 41 minutes 39 seconds 225 msec
