                         Program Version 4.2.0 -  RELEASE  -
|  1> ! ri-mp2 cc-pvtz cc-pvtz/c TightSCF  NoKeepInts
|  2>
|  3> %scf
|  4>   MaxCore 4096
|  5> end
|  6> *xyz  0  1
|  7>     C       15.1088924   15.6152869   17.4050114
|  8>     C       15.5237205   15.2893306   15.9541924
|  9>     O       16.9513243   15.2206933   15.6910318
| 10>     C       18.0282576   15.5876994   16.4652056
| 11>     O       19.0022346   14.8584207   16.5068835
| 12>     C       17.9159466   16.7649397   17.3860380
| 13>     C       17.3752257   17.9501418   17.0084374
| 14>     C       16.7944718   18.3129870   15.6575845
| 15>     N       17.4112621   19.0418788   17.8796165
| 16>     C       18.1230564   19.0830548   19.0492920
| 17>     S       18.2036577   20.4540258   19.9701928
| 18>     N       18.7683015   17.9285382   19.4155084
| 19>     C       18.6249628   16.6243563   18.7383615
| 20>     C       17.9212984   15.6099452   19.6366132
| 21>     C       18.3546865   14.2713913   19.6598167
| 22>     C       17.7092055   13.3216623   20.4688342
| 23>     C       16.6186103   13.7116838   21.2640761
| 24>     C       16.1813869   15.0427076   21.2439036
| 25>     O       15.1214100   15.4203113   22.0018142
| 26>     C       16.8255075   15.9863401   20.4373526
| 27>     H       15.6613362   14.9879549   18.1137984
| 28>     H       14.0441905   15.3891019   17.5402466
| 29>     H       15.2383462   16.6688144   17.6657818
| 30>     H       15.0922248   14.3152049   15.6889560
| 31>     H       15.0653053   16.0242669   15.2810877
| 32>     H       17.1535882   17.6481389   14.8627658
| 33>     H       17.0853475   19.3286999   15.3606212
| 34>     H       15.6992811   18.2717262   15.6730943
| 35>     H       16.9593374   19.9043694   17.6195514
| 36>     H       19.2745718   17.9814516   20.2904052
| 37>     H       19.6392984   16.2460567   18.5424967
| 38>     H       19.1911679   13.9626942   19.0360394
| 39>     H       18.0535246   12.2888129   20.4728893
| 40>     H       16.1160018   12.9804651   21.8885112
| 41>     H       14.8471134   14.6500193   22.5220232
| 42>     H       16.4629459   17.0088279   20.4359656
| 43> *
| 44>
| 45>                          ****END OF INPUT****

CARTESIAN COORDINATES (ANGSTROEM)
---------------------------------
  C     15.108892   15.615287   17.405011
  C     15.523720   15.289331   15.954192
  O     16.951324   15.220693   15.691032
  C     18.028258   15.587699   16.465206
  O     19.002235   14.858421   16.506884
  C     17.915947   16.764940   17.386038
  C     17.375226   17.950142   17.008437
  C     16.794472   18.312987   15.657585
  N     17.411262   19.041879   17.879617
  C     18.123056   19.083055   19.049292
  S     18.203658   20.454026   19.970193
  N     18.768301   17.928538   19.415508
  C     18.624963   16.624356   18.738361
  C     17.921298   15.609945   19.636613
  C     18.354686   14.271391   19.659817
  C     17.709205   13.321662   20.468834
  C     16.618610   13.711684   21.264076
  C     16.181387   15.042708   21.243904
  O     15.121410   15.420311   22.001814
  C     16.825508   15.986340   20.437353
  H     15.661336   14.987955   18.113798
  H     14.044190   15.389102   17.540247
  H     15.238346   16.668814   17.665782
  H     15.092225   14.315205   15.688956
  H     15.065305   16.024267   15.281088
  H     17.153588   17.648139   14.862766
  H     17.085348   19.328700   15.360621
  H     15.699281   18.271726   15.673094
  H     16.959337   19.904369   17.619551
  H     19.274572   17.981452   20.290405
  H     19.639298   16.246057   18.542497
  H     19.191168   13.962694   19.036039
  H     18.053525   12.288813   20.472889
  H     16.116002   12.980465   21.888511
  H     14.847113   14.650019   22.522023
  H     16.462946   17.008828   20.435966

 Total Charge           Charge          ....    0
 Multiplicity           Mult            ....    1
 Number of Electrons    NEL             ....  154
 Basis Dimension        Dim             ....  828

ORBITAL ENERGIES
----------------

  NO   OCC          E(Eh)            E(eV)
   0   2.0000     -91.891052     -2500.4827
   1   2.0000     -20.597560      -560.4881
   2   2.0000     -20.594430      -560.4029
   3   2.0000     -20.546924      -559.1102
   4   2.0000     -15.630045      -425.3152
   5   2.0000     -15.610691      -424.7885
   6   2.0000     -11.399428      -310.1942
   7   2.0000     -11.386913      -309.8537
   8   2.0000     -11.334718      -308.4334
   9   2.0000     -11.314120      -307.8728
  10   2.0000     -11.312786      -307.8366
  11   2.0000     -11.311585      -307.8039
  12   2.0000     -11.267893      -306.6150
  13   2.0000     -11.265276      -306.5438
  14   2.0000     -11.260822      -306.4225
  15   2.0000     -11.254537      -306.2515
  16   2.0000     -11.243861      -305.9610
  17   2.0000     -11.239260      -305.8358
  18   2.0000     -11.236034      -305.7480
  19   2.0000     -11.235443      -305.7319
  20   2.0000      -8.896135      -242.0761
  21   2.0000      -6.577717      -178.9888
  22   2.0000      -6.575699      -178.9339
  23   2.0000      -6.575117      -178.9180
  24   2.0000      -1.441468       -39.2243
  25   2.0000      -1.417376       -38.5688
  26   2.0000      -1.354023       -36.8448
  27   2.0000      -1.342321       -36.5264
  28   2.0000      -1.240624       -33.7591
  29   2.0000      -1.158670       -31.5290
  30   2.0000      -1.124350       -30.5951
  31   2.0000      -1.046841       -28.4860
  32   2.0000      -1.040690       -28.3186
  33   2.0000      -1.016774       -27.6678
  34   2.0000      -1.005219       -27.3534
  35   2.0000      -0.990052       -26.9407
  36   2.0000      -0.927788       -25.2464
  37   2.0000      -0.901124       -24.5208
  38   2.0000      -0.854260       -23.2456
  39   2.0000      -0.841005       -22.8849
  40   2.0000      -0.834342       -22.7036
  41   2.0000      -0.826444       -22.4887
  42   2.0000      -0.745018       -20.2730
  43   2.0000      -0.733256       -19.9529
  44   2.0000      -0.730420       -19.8757
  45   2.0000      -0.694933       -18.9101
  46   2.0000      -0.686792       -18.6886
  47   2.0000      -0.679371       -18.4866
  48   2.0000      -0.674363       -18.3503
  49   2.0000      -0.661097       -17.9894
  50   2.0000      -0.657769       -17.8988
  51   2.0000      -0.651873       -17.7384
  52   2.0000      -0.642243       -17.4763
  53   2.0000      -0.618462       -16.8292
  54   2.0000      -0.607540       -16.5320
  55   2.0000      -0.605132       -16.4665
  56   2.0000      -0.602038       -16.3823
  57   2.0000      -0.588867       -16.0239
  58   2.0000      -0.576270       -15.6811
  59   2.0000      -0.568179       -15.4609
  60   2.0000      -0.565139       -15.3782
  61   2.0000      -0.555192       -15.1075
  62   2.0000      -0.544370       -14.8131
  63   2.0000      -0.531783       -14.4705
  64   2.0000      -0.522456       -14.2168
  65   2.0000      -0.513699       -13.9785
  66   2.0000      -0.501031       -13.6338
  67   2.0000      -0.493258       -13.4222
  68   2.0000      -0.483420       -13.1545
  69   2.0000      -0.470539       -12.8040
  70   2.0000      -0.456624       -12.4254
  71   2.0000      -0.447599       -12.1798
  72   2.0000      -0.356738        -9.7073
  73   2.0000      -0.348735        -9.4896
  74   2.0000      -0.330462        -8.9923
  75   2.0000      -0.322787        -8.7835
  76   2.0000      -0.319058        -8.6820
  77   0.0000       0.077964         2.1215
  78   0.0000       0.107774         2.9327
  79   0.0000       0.115481         3.1424
  80   0.0000       0.131091         3.5672
  81   0.0000       0.131329         3.5736

MULLIKEN ATOMIC CHARGES
-----------------------
   0 C :   -0.346506
   1 C :    0.043399
   2 O :   -0.343606
   3 C :    0.439334
   4 O :   -0.386428
   5 C :   -0.211757
   6 C :    0.140528
   7 C :   -0.334547
   8 N :   -0.134728
   9 C :    0.196283
  10 S :   -0.437921
  11 N :   -0.215520
  12 C :    0.072766
  13 C :    0.019664
  14 C :   -0.202702
  15 C :   -0.135517
  16 C :   -0.277621
  17 C :    0.316733
  18 O :   -0.358087
  19 C :   -0.268468
  20 H :    0.130821
  21 H :    0.123689
  22 H :    0.109057
  23 H :    0.128669
  24 H :    0.088820
  25 H :    0.142265
  26 H :    0.131998
  27 H :    0.119778
  28 H :    0.197811
  29 H :    0.199400
  30 H :    0.165510
  31 H :    0.175159
  32 H :    0.163612
  33 H :    0.131898
  34 H :    0.241068
  35 H :    0.175145
Sum of atomic charges:    0.0000000

LOEWDIN ATOMIC CHARGES
----------------------
   0 C :    0.104866
   1 C :   -0.014590
   2 O :    0.287396
   3 C :   -0.416617
   4 O :    0.120878
   5 C :   -0.084914
   6 C :   -0.087468
   7 C :    0.126957
   8 N :    0.403762
   9 C :   -0.459067
  10 S :   -0.035552
  11 N :    0.398123
  12 C :   -0.043730
  13 C :   -0.043951
  14 C :    0.019366
  15 C :    0.042866
  16 C :   -0.001835
  17 C :   -0.194239
  18 O :    0.395008
  19 C :    0.028668
  20 H :   -0.021007
  21 H :   -0.020774
  22 H :   -0.035697
  23 H :   -0.019160
  24 H :   -0.035171
  25 H :   -0.006416
  26 H :   -0.011648
  27 H :   -0.018248
  28 H :   -0.057522
  29 H :   -0.063274
  30 H :   -0.002221
  31 H :   -0.021939
  32 H :   -0.018880
  33 H :   -0.035087
  34 H :   -0.153665
  35 H :   -0.025218

  Mayer bond orders larger than 0.100000
B(  0-C ,  1-C ) :   0.9611 B(  0-C , 20-H ) :   0.9655 B(  0-C , 21-H ) :   0.9769
B(  0-C , 22-H ) :   0.9720 B(  1-C ,  2-O ) :   0.9009 B(  1-C , 23-H ) :   0.9796
B(  1-C , 24-H ) :   0.9758 B(  2-O ,  3-C ) :   1.1659 B(  3-C ,  4-O ) :   2.0705
B(  3-C ,  5-C ) :   0.9446 B(  5-C ,  6-C ) :   1.6886 B(  5-C , 12-C ) :   0.9566
B(  6-C ,  7-C ) :   0.9431 B(  6-C ,  8-N ) :   1.1110 B(  7-C , 25-H ) :   0.9736
B(  7-C , 26-H ) :   0.9794 B(  7-C , 27-H ) :   0.9639 B(  8-N ,  9-C ) :   1.1885
B(  8-N , 28-H ) :   0.9509 B(  9-C , 10-S ) :   1.6128 B(  9-C , 11-N ) :   1.2921
B( 11-N , 12-C ) :   0.9885 B( 11-N , 29-H ) :   0.9498 B( 12-C , 13-C ) :   0.9461
B( 12-C , 30-H ) :   0.9963 B( 13-C , 14-C ) :   1.3915 B( 13-C , 19-C ) :   1.3460
B( 14-C , 15-C ) :   1.3973 B( 14-C , 31-H ) :   0.9575 B( 15-C , 16-C ) :   1.3610
B( 15-C , 32-H ) :   0.9704 B( 16-C , 17-C ) :   1.3295 B( 16-C , 33-H ) :   0.9848
B( 17-C , 18-O ) :   1.1112 B( 17-C , 19-C ) :   1.3711 B( 18-O , 34-H ) :   0.9797
B( 19-C , 35-H ) :   0.9577

MP2 TOTAL ENERGY:    -1274.328160385 Eh
FINAL SINGLE POINT ENERGY     -1274.328160384778

DIPOLE MOMENT
-------------
                                X             Y             Z
Electronic contribution:      9.60650       6.01128       6.37075
Nuclear contribution   :    -11.24399      -7.02639      -6.91320
                        -----------------------------------------
Total Dipole Moment    :     -1.63749      -1.01511      -0.54244
                        -----------------------------------------
Magnitude (a.u.)       :      2.00151
Magnitude (Debye)      :      5.08744

Rotational constants in cm-1:     0.011419     0.009748     0.006807
Rotational constants in MHz :   342.336680   292.237688   204.057417

                             ****ORCA TERMINATED NORMALLY****
TOTAL RUN TIME: 0 days 2 hours 5 minutes 4 seconds 228 msec
