                         Program Version 4.2.0 -  RELEASE  -
|  1> ! ri-mp2 cc-pvtz cc-pvtz/c TightSCF  NoKeepInts
|  2>
|  3> %scf
|  4>   MaxCore 4096
|  5> end
|  6> *xyz  0  1
|  7>     C       15.2387207   13.6219191   16.0185983
|  8>     C       15.9334439   14.6246224   16.9541107
|  9>     O       16.9728573   15.2635173   16.1917644
| 10>     C       16.9902597   16.6265453   16.1369809
| 11>     O       16.3276765   17.1905511   15.2862085
| 12>     C       17.5596693   17.3154718   17.3509673
| 13>     C       17.3773841   18.6428592   17.5803497
| 14>     C       16.5197920   19.6081572   16.7900254
| 15>     N       18.0736237   19.2741455   18.6164956
| 16>     C       19.1374566   18.7218495   19.2799349
| 17>     S       20.0655223   19.5947111   20.3346045
| 18>     N       19.4073021   17.4059059   19.0015915
| 19>     C       18.4902120   16.5094921   18.2756845
| 20>     C       17.7564782   15.6502512   19.2997652
| 21>     C       18.2453168   14.3679300   19.6148113
| 22>     C       17.5857506   13.5623202   20.5581259
| 23>     C       16.4328559   14.0453745   21.1998317
| 24>     C       15.9526823   15.3276576   20.9020731
| 25>     O       14.8422561   15.7994049   21.5220590
| 26>     C       16.6090803   16.1266351   19.9608747
| 27>     H       14.4351614   13.0943404   16.5464347
| 28>     H       15.9546540   12.8780617   15.6475480
| 29>     H       14.8012953   14.1409741   15.1561125
| 30>     H       15.2016845   15.3549767   17.3266893
| 31>     H       16.3521518   14.0757109   17.8038012
| 32>     H       15.4937433   19.2298207   16.6981410
| 33>     H       16.9149410   19.7301170   15.7732086
| 34>     H       16.4624857   20.6034357   17.2460767
| 35>     H       17.8988553   20.2467823   18.8133784
| 36>     H       20.1869506   17.0188361   19.5174056
| 37>     H       19.0972447   15.8469703   17.6420514
| 38>     H       19.1383763   13.9916727   19.1223516
| 39>     H       17.9702174   12.5707475   20.7922539
| 40>     H       15.9212437   13.4273362   21.9306865
| 41>     H       14.5747100   15.1425846   22.1829713
| 42>     H       16.2249446   17.1203121   19.7600327
| 43> *
| 44>
| 45>                          ****END OF INPUT****

CARTESIAN COORDINATES (ANGSTROEM)
---------------------------------
  C     15.238721   13.621919   16.018598
  C     15.933444   14.624622   16.954111
  O     16.972857   15.263517   16.191764
  C     16.990260   16.626545   16.136981
  O     16.327676   17.190551   15.286209
  C     17.559669   17.315472   17.350967
  C     17.377384   18.642859   17.580350
  C     16.519792   19.608157   16.790025
  N     18.073624   19.274145   18.616496
  C     19.137457   18.721850   19.279935
  S     20.065522   19.594711   20.334604
  N     19.407302   17.405906   19.001591
  C     18.490212   16.509492   18.275685
  C     17.756478   15.650251   19.299765
  C     18.245317   14.367930   19.614811
  C     17.585751   13.562320   20.558126
  C     16.432856   14.045374   21.199832
  C     15.952682   15.327658   20.902073
  O     14.842256   15.799405   21.522059
  C     16.609080   16.126635   19.960875
  H     14.435161   13.094340   16.546435
  H     15.954654   12.878062   15.647548
  H     14.801295   14.140974   15.156112
  H     15.201684   15.354977   17.326689
  H     16.352152   14.075711   17.803801
  H     15.493743   19.229821   16.698141
  H     16.914941   19.730117   15.773209
  H     16.462486   20.603436   17.246077
  H     17.898855   20.246782   18.813378
  H     20.186951   17.018836   19.517406
  H     19.097245   15.846970   17.642051
  H     19.138376   13.991673   19.122352
  H     17.970217   12.570747   20.792254
  H     15.921244   13.427336   21.930687
  H     14.574710   15.142585   22.182971
  H     16.224945   17.120312   19.760033

 Total Charge           Charge          ....    0
 Multiplicity           Mult            ....    1
 Number of Electrons    NEL             ....  154
 Basis Dimension        Dim             ....  828

ORBITAL ENERGIES
----------------

  NO   OCC          E(Eh)            E(eV)
   0   2.0000     -91.891759     -2500.5019
   1   2.0000     -20.603840      -560.6590
   2   2.0000     -20.580304      -560.0185
   3   2.0000     -20.547325      -559.1211
   4   2.0000     -15.632597      -425.3846
   5   2.0000     -15.610619      -424.7866
   6   2.0000     -11.392398      -310.0029
   7   2.0000     -11.386165      -309.8333
   8   2.0000     -11.339189      -308.5550
   9   2.0000     -11.321583      -308.0759
  10   2.0000     -11.313828      -307.8649
  11   2.0000     -11.294172      -307.3301
  12   2.0000     -11.266373      -306.5736
  13   2.0000     -11.263229      -306.4880
  14   2.0000     -11.260408      -306.4113
  15   2.0000     -11.254314      -306.2455
  16   2.0000     -11.250236      -306.1345
  17   2.0000     -11.245041      -305.9931
  18   2.0000     -11.244411      -305.9760
  19   2.0000     -11.221018      -305.3394
  20   2.0000      -8.896765      -242.0933
  21   2.0000      -6.578326      -179.0054
  22   2.0000      -6.576337      -178.9512
  23   2.0000      -6.575738      -178.9349
  24   2.0000      -1.446790       -39.3692
  25   2.0000      -1.423450       -38.7340
  26   2.0000      -1.352270       -36.7971
  27   2.0000      -1.343779       -36.5661
  28   2.0000      -1.242105       -33.7994
  29   2.0000      -1.164132       -31.6776
  30   2.0000      -1.122287       -30.5390
  31   2.0000      -1.047759       -28.5110
  32   2.0000      -1.031688       -28.0737
  33   2.0000      -1.022666       -27.8282
  34   2.0000      -0.999557       -27.1993
  35   2.0000      -0.986710       -26.8497
  36   2.0000      -0.927019       -25.2255
  37   2.0000      -0.876745       -23.8574
  38   2.0000      -0.851321       -23.1656
  39   2.0000      -0.845696       -23.0126
  40   2.0000      -0.840170       -22.8622
  41   2.0000      -0.832015       -22.6403
  42   2.0000      -0.759902       -20.6780
  43   2.0000      -0.737415       -20.0661
  44   2.0000      -0.722465       -19.6593
  45   2.0000      -0.703276       -19.1371
  46   2.0000      -0.693830       -18.8801
  47   2.0000      -0.677732       -18.4420
  48   2.0000      -0.670453       -18.2440
  49   2.0000      -0.661365       -17.9967
  50   2.0000      -0.650906       -17.7121
  51   2.0000      -0.647700       -17.6248
  52   2.0000      -0.639801       -17.4099
  53   2.0000      -0.615250       -16.7418
  54   2.0000      -0.607781       -16.5386
  55   2.0000      -0.603259       -16.4155
  56   2.0000      -0.596050       -16.2193
  57   2.0000      -0.584018       -15.8919
  58   2.0000      -0.573934       -15.6175
  59   2.0000      -0.567726       -15.4486
  60   2.0000      -0.565476       -15.3874
  61   2.0000      -0.539745       -14.6872
  62   2.0000      -0.538657       -14.6576
  63   2.0000      -0.532342       -14.4858
  64   2.0000      -0.518627       -14.1126
  65   2.0000      -0.509865       -13.8741
  66   2.0000      -0.507016       -13.7966
  67   2.0000      -0.497916       -13.5490
  68   2.0000      -0.488603       -13.2956
  69   2.0000      -0.465654       -12.6711
  70   2.0000      -0.451066       -12.2741
  71   2.0000      -0.443517       -12.0687
  72   2.0000      -0.360255        -9.8030
  73   2.0000      -0.356335        -9.6964
  74   2.0000      -0.332592        -9.0503
  75   2.0000      -0.327930        -8.9234
  76   2.0000      -0.318668        -8.6714
  77   0.0000       0.068724         1.8701
  78   0.0000       0.100461         2.7337
  79   0.0000       0.119581         3.2540
  80   0.0000       0.125415         3.4127
  81   0.0000       0.129867         3.5339

MULLIKEN ATOMIC CHARGES
-----------------------
   0 C :   -0.257158
   1 C :    0.024326
   2 O :   -0.377706
   3 C :    0.486524
   4 O :   -0.396563
   5 C :   -0.280819
   6 C :    0.152419
   7 C :   -0.268397
   8 N :   -0.123217
   9 C :    0.217081
  10 S :   -0.436637
  11 N :   -0.205110
  12 C :    0.048918
  13 C :    0.043868
  14 C :   -0.201182
  15 C :   -0.130403
  16 C :   -0.274056
  17 C :    0.304912
  18 O :   -0.355834
  19 C :   -0.229655
  20 H :    0.084398
  21 H :    0.093989
  22 H :    0.106926
  23 H :    0.090995
  24 H :    0.119213
  25 H :    0.127569
  26 H :    0.137400
  27 H :    0.094529
  28 H :    0.198847
  29 H :    0.191903
  30 H :    0.151252
  31 H :    0.151213
  32 H :    0.163568
  33 H :    0.133829
  34 H :    0.242818
  35 H :    0.170243
Sum of atomic charges:    0.0000000

LOEWDIN ATOMIC CHARGES
----------------------
   0 C :    0.107814
   1 C :   -0.019967
   2 O :    0.287464
   3 C :   -0.425711
   4 O :    0.121855
   5 C :   -0.099999
   6 C :   -0.057004
   7 C :    0.130679
   8 N :    0.408194
   9 C :   -0.454793
  10 S :   -0.031592
  11 N :    0.395867
  12 C :   -0.052909
  13 C :   -0.036743
  14 C :    0.009219
  15 C :    0.042864
  16 C :   -0.000499
  17 C :   -0.189425
  18 O :    0.396535
  19 C :    0.031903
  20 H :   -0.028885
  21 H :   -0.027145
  22 H :   -0.023428
  23 H :   -0.031080
  24 H :   -0.030985
  25 H :   -0.005804
  26 H :   -0.002346
  27 H :   -0.023119
  28 H :   -0.057126
  29 H :   -0.066496
  30 H :   -0.005670
  31 H :   -0.030161
  32 H :   -0.019007
  33 H :   -0.033900
  34 H :   -0.151830
  35 H :   -0.026768

  Mayer bond orders larger than 0.100000
B(  0-C ,  1-C ) :   0.9858 B(  0-C , 20-H ) :   0.9772 B(  0-C , 21-H ) :   0.9800
B(  0-C , 22-H ) :   0.9792 B(  1-C ,  2-O ) :   0.8718 B(  1-C , 23-H ) :   0.9705
B(  1-C , 24-H ) :   0.9692 B(  2-O ,  3-C ) :   1.1104 B(  3-C ,  4-O ) :   2.0345
B(  3-C ,  5-C ) :   1.0509 B(  5-C ,  6-C ) :   1.6454 B(  5-C , 12-C ) :   0.9708
B(  6-C ,  7-C ) :   0.9732 B(  6-C ,  8-N ) :   1.1568 B(  7-C , 25-H ) :   0.9636
B(  7-C , 26-H ) :   0.9555 B(  7-C , 27-H ) :   0.9884 B(  8-N ,  9-C ) :   1.1802
B(  8-N , 28-H ) :   0.9480 B(  9-C , 10-S ) :   1.6102 B(  9-C , 11-N ) :   1.3031
B( 11-N , 12-C ) :   0.9527 B( 11-N , 29-H ) :   0.9538 B( 12-C , 13-C ) :   0.9630
B( 12-C , 30-H ) :   0.9989 B( 13-C , 14-C ) :   1.3432 B( 13-C , 19-C ) :   1.3656
B( 14-C , 15-C ) :   1.3964 B( 14-C , 31-H ) :   0.9744 B( 15-C , 16-C ) :   1.3648
B( 15-C , 32-H ) :   0.9696 B( 16-C , 17-C ) :   1.3294 B( 16-C , 33-H ) :   0.9835
B( 17-C , 18-O ) :   1.1160 B( 17-C , 19-C ) :   1.3735 B( 18-O , 34-H ) :   0.9783
B( 19-C , 35-H ) :   0.9562

MP2 TOTAL ENERGY:    -1274.327781091 Eh
FINAL SINGLE POINT ENERGY     -1274.327781091307

DIPOLE MOMENT
-------------
                                X             Y             Z
Electronic contribution:     10.16223       9.95873       6.16339
Nuclear contribution   :    -11.21431     -11.40034      -5.65123
                        -----------------------------------------
Total Dipole Moment    :     -1.05208      -1.44161       0.51215
                        -----------------------------------------
Magnitude (a.u.)       :      1.85673
Magnitude (Debye)      :      4.71942

Rotational constants in cm-1:     0.011774     0.009118     0.006392
Rotational constants in MHz :   352.977167   273.347278   191.628895

                             ****ORCA TERMINATED NORMALLY****
TOTAL RUN TIME: 0 days 1 hours 51 minutes 37 seconds 928 msec
