                         Program Version 4.2.0 -  RELEASE  -
|  1> ! ri-mp2 cc-pvtz cc-pvtz/c TightSCF  NoKeepInts
|  2>
|  3> %scf
|  4>   MaxCore 4096
|  5> end
|  6> *xyz  0  1
|  7>     C       15.5753524   13.6994679   15.3740720
|  8>     C       15.0973994   15.0388943   15.9761345
|  9>     O       16.1477175   16.0294997   16.0775685
| 10>     C       17.3504139   15.8175855   16.6982601
| 11>     O       17.8478105   14.7141578   16.8417138
| 12>     C       17.7666118   16.9719482   17.5643154
| 13>     C       17.4127104   18.2657581   17.3483276
| 14>     C       16.5774838   18.8249695   16.2146724
| 15>     N       17.9029892   19.2700944   18.1893740
| 16>     C       18.8556799   19.0864606   19.1564903
| 17>     S       19.4732935   20.3526649   20.0230707
| 18>     N       19.2712346   17.7963321   19.3678106
| 19>     C       18.6610876   16.6021895   18.7533104
| 20>     C       17.8816936   15.8044963   19.7958577
| 21>     C       18.1569832   14.4398668   20.0009411
| 22>     C       17.4396137   13.6994577   20.9554370
| 23>     C       16.4367889   14.3281298   21.7128749
| 24>     C       16.1564307   15.6860439   21.5090517
| 25>     O       15.1838934   16.2943169   22.2340032
| 26>     C       16.8717450   16.4201965   20.5578372
| 27>     H       16.2394460   13.8698105   14.5175787
| 28>     H       14.7167464   13.1116923   15.0280948
| 29>     H       16.1074455   13.0925617   16.1167173
| 30>     H       14.2968557   15.4451621   15.3448138
| 31>     H       14.6711073   14.8501723   16.9703693
| 32>     H       15.5162922   18.5899465   16.3636606
| 33>     H       16.8864079   18.3965864   15.2529751
| 34>     H       16.6672469   19.9141765   16.1222816
| 35>     H       17.6106732   20.2239993   18.0493688
| 36>     H       19.9518344   17.6836706   20.1080620
| 37>     H       19.4772692   15.9696899   18.3751494
| 38>     H       18.9199074   13.9470643   19.4031002
| 39>     H       17.6587003   12.6430449   21.0996620
| 40>     H       15.8791788   13.7596255   22.4496075
| 41>     H       14.8401693   15.6415853   22.8621665
| 42>     H       16.6407865   17.4706815   20.4192691
| 43> *
| 44>
| 45>                          ****END OF INPUT****

CARTESIAN COORDINATES (ANGSTROEM)
---------------------------------
  C     15.575352   13.699468   15.374072
  C     15.097399   15.038894   15.976135
  O     16.147717   16.029500   16.077569
  C     17.350414   15.817585   16.698260
  O     17.847811   14.714158   16.841714
  C     17.766612   16.971948   17.564315
  C     17.412710   18.265758   17.348328
  C     16.577484   18.824970   16.214672
  N     17.902989   19.270094   18.189374
  C     18.855680   19.086461   19.156490
  S     19.473294   20.352665   20.023071
  N     19.271235   17.796332   19.367811
  C     18.661088   16.602190   18.753310
  C     17.881694   15.804496   19.795858
  C     18.156983   14.439867   20.000941
  C     17.439614   13.699458   20.955437
  C     16.436789   14.328130   21.712875
  C     16.156431   15.686044   21.509052
  O     15.183893   16.294317   22.234003
  C     16.871745   16.420196   20.557837
  H     16.239446   13.869810   14.517579
  H     14.716746   13.111692   15.028095
  H     16.107446   13.092562   16.116717
  H     14.296856   15.445162   15.344814
  H     14.671107   14.850172   16.970369
  H     15.516292   18.589946   16.363661
  H     16.886408   18.396586   15.252975
  H     16.667247   19.914176   16.122282
  H     17.610673   20.223999   18.049369
  H     19.951834   17.683671   20.108062
  H     19.477269   15.969690   18.375149
  H     18.919907   13.947064   19.403100
  H     17.658700   12.643045   21.099662
  H     15.879179   13.759626   22.449607
  H     14.840169   15.641585   22.862167
  H     16.640787   17.470682   20.419269

 Total Charge           Charge          ....    0
 Multiplicity           Mult            ....    1
 Number of Electrons    NEL             ....  154
 Basis Dimension        Dim             ....  828

ORBITAL ENERGIES
----------------

  NO   OCC          E(Eh)            E(eV)
   0   2.0000     -91.887411     -2500.3836
   1   2.0000     -20.595821      -560.4408
   2   2.0000     -20.592613      -560.3535
   3   2.0000     -20.549046      -559.1680
   4   2.0000     -15.627044      -425.2335
   5   2.0000     -15.606417      -424.6722
   6   2.0000     -11.397993      -310.1552
   7   2.0000     -11.382444      -309.7320
   8   2.0000     -11.333339      -308.3958
   9   2.0000     -11.308558      -307.7215
  10   2.0000     -11.305901      -307.6492
  11   2.0000     -11.304791      -307.6190
  12   2.0000     -11.259190      -306.3781
  13   2.0000     -11.258148      -306.3498
  14   2.0000     -11.254330      -306.2459
  15   2.0000     -11.248795      -306.0953
  16   2.0000     -11.238364      -305.8114
  17   2.0000     -11.234287      -305.7005
  18   2.0000     -11.231494      -305.6245
  19   2.0000     -11.221740      -305.3591
  20   2.0000      -8.892486      -241.9769
  21   2.0000      -6.574067      -178.8895
  22   2.0000      -6.572057      -178.8348
  23   2.0000      -6.571474      -178.8189
  24   2.0000      -1.448216       -39.4080
  25   2.0000      -1.412356       -38.4321
  26   2.0000      -1.357900       -36.9503
  27   2.0000      -1.338306       -36.4171
  28   2.0000      -1.236273       -33.6407
  29   2.0000      -1.152765       -31.3683
  30   2.0000      -1.118889       -30.4465
  31   2.0000      -1.041960       -28.3532
  32   2.0000      -1.033053       -28.1108
  33   2.0000      -1.010287       -27.4913
  34   2.0000      -0.996676       -27.1209
  35   2.0000      -0.982010       -26.7218
  36   2.0000      -0.921309       -25.0701
  37   2.0000      -0.892797       -24.2943
  38   2.0000      -0.847380       -23.0584
  39   2.0000      -0.836165       -22.7532
  40   2.0000      -0.828873       -22.5548
  41   2.0000      -0.819483       -22.2993
  42   2.0000      -0.745746       -20.2928
  43   2.0000      -0.728830       -19.8325
  44   2.0000      -0.725347       -19.7377
  45   2.0000      -0.691351       -18.8126
  46   2.0000      -0.684460       -18.6251
  47   2.0000      -0.679901       -18.5010
  48   2.0000      -0.670769       -18.2526
  49   2.0000      -0.665082       -18.0978
  50   2.0000      -0.645324       -17.5601
  51   2.0000      -0.642518       -17.4838
  52   2.0000      -0.634200       -17.2575
  53   2.0000      -0.603228       -16.4147
  54   2.0000      -0.600242       -16.3334
  55   2.0000      -0.596971       -16.2444
  56   2.0000      -0.595676       -16.2092
  57   2.0000      -0.585712       -15.9380
  58   2.0000      -0.573215       -15.5980
  59   2.0000      -0.570114       -15.5136
  60   2.0000      -0.559664       -15.2292
  61   2.0000      -0.545005       -14.8303
  62   2.0000      -0.536063       -14.5870
  63   2.0000      -0.521004       -14.1772
  64   2.0000      -0.517932       -14.0936
  65   2.0000      -0.510390       -13.8884
  66   2.0000      -0.499944       -13.6042
  67   2.0000      -0.495220       -13.4756
  68   2.0000      -0.479462       -13.0468
  69   2.0000      -0.461787       -12.5659
  70   2.0000      -0.457453       -12.4479
  71   2.0000      -0.446259       -12.1433
  72   2.0000      -0.352943        -9.6041
  73   2.0000      -0.344669        -9.3789
  74   2.0000      -0.326664        -8.8890
  75   2.0000      -0.315856        -8.5949
  76   2.0000      -0.314108        -8.5473
  77   0.0000       0.075925         2.0660
  78   0.0000       0.110795         3.0149
  79   0.0000       0.121483         3.3057
  80   0.0000       0.135325         3.6824
  81   0.0000       0.139610         3.7990

MULLIKEN ATOMIC CHARGES
-----------------------
   0 C :   -0.286643
   1 C :    0.049586
   2 O :   -0.366594
   3 C :    0.437677
   4 O :   -0.418865
   5 C :   -0.147644
   6 C :    0.137007
   7 C :   -0.284980
   8 N :   -0.122632
   9 C :    0.201819
  10 S :   -0.441024
  11 N :   -0.198658
  12 C :    0.039672
  13 C :    0.053574
  14 C :   -0.165226
  15 C :   -0.133912
  16 C :   -0.279846
  17 C :    0.311301
  18 O :   -0.358706
  19 C :   -0.272042
  20 H :    0.097598
  21 H :    0.092617
  22 H :    0.120754
  23 H :    0.098208
  24 H :    0.090405
  25 H :    0.125964
  26 H :    0.124449
  27 H :    0.102229
  28 H :    0.196699
  29 H :    0.193657
  30 H :    0.154908
  31 H :    0.154738
  32 H :    0.159587
  33 H :    0.128546
  34 H :    0.240117
  35 H :    0.165659
Sum of atomic charges:    0.0000000

LOEWDIN ATOMIC CHARGES
----------------------
   0 C :    0.103173
   1 C :   -0.011078
   2 O :    0.290649
   3 C :   -0.411008
   4 O :    0.121059
   5 C :   -0.090938
   6 C :   -0.069682
   7 C :    0.124840
   8 N :    0.404203
   9 C :   -0.458577
  10 S :   -0.037360
  11 N :    0.397503
  12 C :   -0.045983
  13 C :   -0.039075
  14 C :    0.020908
  15 C :    0.040413
  16 C :   -0.002586
  17 C :   -0.192917
  18 O :    0.393139
  19 C :    0.028682
  20 H :   -0.025626
  21 H :   -0.030091
  22 H :   -0.026183
  23 H :   -0.024545
  24 H :   -0.028905
  25 H :   -0.009993
  26 H :   -0.008702
  27 H :   -0.020670
  28 H :   -0.059177
  29 H :   -0.063934
  30 H :   -0.005263
  31 H :   -0.025314
  32 H :   -0.021193
  33 H :   -0.036323
  34 H :   -0.154812
  35 H :   -0.024636

  Mayer bond orders larger than 0.100000
B(  0-C ,  1-C ) :   0.9726 B(  0-C , 20-H ) :   0.9756 B(  0-C , 21-H ) :   0.9756
B(  0-C , 22-H ) :   0.9721 B(  1-C ,  2-O ) :   0.9063 B(  1-C , 23-H ) :   0.9831
B(  1-C , 24-H ) :   0.9778 B(  2-O ,  3-C ) :   1.1036 B(  3-C ,  4-O ) :   1.9879
B(  3-C ,  5-C ) :   1.0489 B(  5-C ,  6-C ) :   1.6595 B(  5-C , 12-C ) :   0.9634
B(  6-C ,  7-C ) :   0.9546 B(  6-C ,  8-N ) :   1.1401 B(  7-C , 25-H ) :   0.9634
B(  7-C , 26-H ) :   0.9680 B(  7-C , 27-H ) :   0.9904 B(  8-N ,  9-C ) :   1.1824
B(  8-N , 28-H ) :   0.9494 B(  9-C , 10-S ) :   1.6093 B(  9-C , 11-N ) :   1.3023
B( 11-N , 12-C ) :   0.9921 B( 11-N , 29-H ) :   0.9519 B( 12-C , 13-C ) :   0.9465
B( 12-C , 30-H ) :   0.9990 B( 13-C , 14-C ) :   1.3762 B( 13-C , 19-C ) :   1.3693
B( 14-C , 15-C ) :   1.3943 B( 14-C , 31-H ) :   0.9646 B( 15-C , 16-C ) :   1.3630
B( 15-C , 32-H ) :   0.9712 B( 16-C , 17-C ) :   1.3312 B( 16-C , 33-H ) :   0.9858
B( 17-C , 18-O ) :   1.1085 B( 17-C , 19-C ) :   1.3779 B( 18-O , 34-H ) :   0.9805
B( 19-C , 35-H ) :   0.9582

MP2 TOTAL ENERGY:    -1274.332626019 Eh
FINAL SINGLE POINT ENERGY     -1274.332626018681

DIPOLE MOMENT
-------------
                                X             Y             Z
Electronic contribution:      9.95653      10.59125      10.08069
Nuclear contribution   :    -11.57910     -11.80435     -10.95359
                        -----------------------------------------
Total Dipole Moment    :     -1.62258      -1.21310      -0.87290
                        -----------------------------------------
Magnitude (a.u.)       :      2.20598
Magnitude (Debye)      :      5.60714

Rotational constants in cm-1:     0.010988     0.008977     0.006017
Rotational constants in MHz :   329.424504   269.129411   180.384905

                             ****ORCA TERMINATED NORMALLY****
TOTAL RUN TIME: 0 days 1 hours 35 minutes 17 seconds 124 msec
