                         Program Version 5.0.0 -  RELEASE  -
|  1> ! ri-mp2 cc-pvtz cc-pvtz/c TightSCF NoKeepInts
|  2>
|  3> %scf
|  4>   MaxCore 4096
|  5> end
|  6> *xyz  0  1
|  7>     C       14.9487659   14.1752739   15.9499726
|  8>     C       16.2899216   13.9599405   16.6826107
|  9>     O       17.2160954   15.0755325   16.6221075
| 10>     C       16.8727321   16.3968165   16.4880358
| 11>     O       16.0257085   16.7978024   15.7097903
| 12>     C       17.6102321   17.2785279   17.4602801
| 13>     C       17.4668588   18.6288438   17.4724309
| 14>     C       16.5915493   19.4685606   16.5664178
| 15>     N       18.1977882   19.4047212   18.3769950
| 16>     C       19.1523485   18.9234415   19.2320457
| 17>     S       20.0310552   19.9223144   20.2149672
| 18>     N       19.3466354   17.5662113   19.2307342
| 19>     C       18.5385659   16.5909133   18.4769348
| 20>     C       17.7726298   15.7017073   19.4524500
| 21>     C       18.1817302   14.3730023   19.6731044
| 22>     C       17.4758504   13.5460387   20.5630347
| 23>     C       16.3540646   14.0527050   21.2410993
| 24>     C       15.9490186   15.3778915   21.0301783
| 25>     O       14.8681846   15.8708261   21.6855207
| 26>     C       16.6529962   16.1982302   20.1433540
| 27>     H       14.3559940   14.9641973   16.4296463
| 28>     H       14.3534145   13.2547008   15.9701492
| 29>     H       15.1150336   14.4460674   14.8995882
| 30>     H       16.0645901   13.7518215   17.7368647
| 31>     H       16.7842530   13.0682903   16.2764828
| 32>     H       15.5356764   19.1959145   16.6905951
| 33>     H       16.8509293   19.2989057   15.5135940
| 34>     H       16.6806619   20.5441264   16.7586900
| 35>     H       18.0700527   20.4039828   18.3906496
| 36>     H       20.0307201   17.2381272   19.9001659
| 37>     H       19.2367238   15.9596759   17.9092166
| 38>     H       19.0473628   13.9783090   19.1476475
| 39>     H       17.7996674   12.5195504   20.7269432
| 40>     H       15.8064351   13.4186795   21.9307775
| 41>     H       14.5452490   15.1772892   22.2802495
| 42>     H       16.3275052   17.2230612   20.0006761
| 43> *
| 44>
| 45>                          ****END OF INPUT****

CARTESIAN COORDINATES (ANGSTROEM)
---------------------------------
  C     14.948766   14.175274   15.949973
  C     16.289922   13.959941   16.682611
  O     17.216095   15.075532   16.622107
  C     16.872732   16.396816   16.488036
  O     16.025709   16.797802   15.709790
  C     17.610232   17.278528   17.460280
  C     17.466859   18.628844   17.472431
  C     16.591549   19.468561   16.566418
  N     18.197788   19.404721   18.376995
  C     19.152348   18.923441   19.232046
  S     20.031055   19.922314   20.214967
  N     19.346635   17.566211   19.230734
  C     18.538566   16.590913   18.476935
  C     17.772630   15.701707   19.452450
  C     18.181730   14.373002   19.673104
  C     17.475850   13.546039   20.563035
  C     16.354065   14.052705   21.241099
  C     15.949019   15.377891   21.030178
  O     14.868185   15.870826   21.685521
  C     16.652996   16.198230   20.143354
  H     14.355994   14.964197   16.429646
  H     14.353414   13.254701   15.970149
  H     15.115034   14.446067   14.899588
  H     16.064590   13.751822   17.736865
  H     16.784253   13.068290   16.276483
  H     15.535676   19.195914   16.690595
  H     16.850929   19.298906   15.513594
  H     16.680662   20.544126   16.758690
  H     18.070053   20.403983   18.390650
  H     20.030720   17.238127   19.900166
  H     19.236724   15.959676   17.909217
  H     19.047363   13.978309   19.147647
  H     17.799667   12.519550   20.726943
  H     15.806435   13.418679   21.930778
  H     14.545249   15.177289   22.280250
  H     16.327505   17.223061   20.000676

 Total Charge           Charge          ....    0
 Multiplicity           Mult            ....    1
 Number of Electrons    NEL             ....  154
 Basis Dimension        Dim             ....  828

ORBITAL ENERGIES
----------------

  NO   OCC          E(Eh)            E(eV)
   0   2.0000     -91.888671     -2500.4179
   1   2.0000     -20.599438      -560.5392
   2   2.0000     -20.591216      -560.3155
   3   2.0000     -20.541976      -558.9756
   4   2.0000     -15.628738      -425.2796
   5   2.0000     -15.608114      -424.7184
   6   2.0000     -11.396045      -310.1021
   7   2.0000     -11.383749      -309.7676
   8   2.0000     -11.335511      -308.4549
   9   2.0000     -11.317034      -307.9521
  10   2.0000     -11.308854      -307.7296
  11   2.0000     -11.299809      -307.4834
  12   2.0000     -11.262219      -306.4606
  13   2.0000     -11.258302      -306.3540
  14   2.0000     -11.257743      -306.3387
  15   2.0000     -11.251854      -306.1785
  16   2.0000     -11.245872      -306.0157
  17   2.0000     -11.240894      -305.8803
  18   2.0000     -11.240552      -305.8710
  19   2.0000     -11.220623      -305.3287
  20   2.0000      -8.893742      -242.0110
  21   2.0000      -6.575319      -178.9235
  22   2.0000      -6.573312      -178.8689
  23   2.0000      -6.572727      -178.8530
  24   2.0000      -1.441397       -39.2224
  25   2.0000      -1.419082       -38.6152
  26   2.0000      -1.352738       -36.8099
  27   2.0000      -1.339896       -36.4604
  28   2.0000      -1.238583       -33.7036
  29   2.0000      -1.159900       -31.5625
  30   2.0000      -1.119921       -30.4746
  31   2.0000      -1.043941       -28.4071
  32   2.0000      -1.033555       -28.1245
  33   2.0000      -1.017937       -27.6995
  34   2.0000      -0.995675       -27.0937
  35   2.0000      -0.983808       -26.7708
  36   2.0000      -0.923151       -25.1202
  37   2.0000      -0.894285       -24.3347
  38   2.0000      -0.847699       -23.0671
  39   2.0000      -0.839853       -22.8536
  40   2.0000      -0.836391       -22.7594
  41   2.0000      -0.819894       -22.3104
  42   2.0000      -0.745312       -20.2810
  43   2.0000      -0.732358       -19.9285
  44   2.0000      -0.717395       -19.5213
  45   2.0000      -0.697914       -18.9912
  46   2.0000      -0.688156       -18.7257
  47   2.0000      -0.675579       -18.3835
  48   2.0000      -0.667780       -18.1712
  49   2.0000      -0.662944       -18.0396
  50   2.0000      -0.651068       -17.7165
  51   2.0000      -0.645279       -17.5589
  52   2.0000      -0.636456       -17.3188
  53   2.0000      -0.609699       -16.5908
  54   2.0000      -0.605221       -16.4689
  55   2.0000      -0.601610       -16.3706
  56   2.0000      -0.599579       -16.3154
  57   2.0000      -0.579444       -15.7675
  58   2.0000      -0.571809       -15.5597
  59   2.0000      -0.570012       -15.5108
  60   2.0000      -0.560842       -15.2613
  61   2.0000      -0.539016       -14.6674
  62   2.0000      -0.534303       -14.5391
  63   2.0000      -0.526803       -14.3351
  64   2.0000      -0.523396       -14.2423
  65   2.0000      -0.513475       -13.9724
  66   2.0000      -0.501998       -13.6601
  67   2.0000      -0.495516       -13.4837
  68   2.0000      -0.486387       -13.2353
  69   2.0000      -0.463056       -12.6004
  70   2.0000      -0.450804       -12.2670
  71   2.0000      -0.440376       -11.9832
  72   2.0000      -0.353854        -9.6288
  73   2.0000      -0.351845        -9.5742
  74   2.0000      -0.328608        -8.9419
  75   2.0000      -0.324225        -8.8226
  76   2.0000      -0.316340        -8.6081
  77   0.0000       0.075088         2.0433
  78   0.0000       0.103590         2.8188
  79   0.0000       0.124143         3.3781
  80   0.0000       0.131495         3.5782
  81   0.0000       0.136298         3.7089

MULLIKEN ATOMIC CHARGES
-----------------------
   0 C :   -0.283257
   1 C :    0.040728
   2 O :   -0.380157
   3 C :    0.463658
   4 O :   -0.419039
   5 C :   -0.239239
   6 C :    0.161559
   7 C :   -0.269243
   8 N :   -0.123328
   9 C :    0.214776
  10 S :   -0.441741
  11 N :   -0.208883
  12 C :    0.077741
  13 C :    0.050227
  14 C :   -0.196925
  15 C :   -0.128913
  16 C :   -0.279879
  17 C :    0.313746
  18 O :   -0.355626
  19 C :   -0.261718
  20 H :    0.103088
  21 H :    0.095746
  22 H :    0.112598
  23 H :    0.099670
  24 H :    0.100206
  25 H :    0.130315
  26 H :    0.131966
  27 H :    0.095087
  28 H :    0.197210
  29 H :    0.195500
  30 H :    0.148788
  31 H :    0.152577
  32 H :    0.162256
  33 H :    0.131971
  34 H :    0.241259
  35 H :    0.167275
Sum of atomic charges:   -0.0000000

LOEWDIN ATOMIC CHARGES
----------------------
   0 C :    0.102981
   1 C :   -0.012128
   2 O :    0.290298
   3 C :   -0.413122
   4 O :    0.112186
   5 C :   -0.096321
   6 C :   -0.059039
   7 C :    0.131013
   8 N :    0.406649
   9 C :   -0.455806
  10 S :   -0.036484
  11 N :    0.396148
  12 C :   -0.052456
  13 C :   -0.037248
  14 C :    0.013929
  15 C :    0.039297
  16 C :   -0.003007
  17 C :   -0.189768
  18 O :    0.395976
  19 C :    0.030188
  20 H :   -0.027352
  21 H :   -0.028078
  22 H :   -0.024054
  23 H :   -0.029566
  24 H :   -0.025757
  25 H :   -0.005226
  26 H :   -0.003776
  27 H :   -0.023552
  28 H :   -0.057643
  29 H :   -0.064921
  30 H :   -0.010771
  31 H :   -0.029660
  32 H :   -0.020716
  33 H :   -0.035171
  34 H :   -0.153319
  35 H :   -0.023721

  Mayer bond orders larger than 0.100000
B(  0-C ,  1-C ) :   0.9827 B(  0-C , 20-H ) :   0.9741 B(  0-C , 21-H ) :   0.9733
B(  0-C , 22-H ) :   0.9741 B(  1-C ,  2-O ) :   0.8932 B(  1-C , 23-H ) :   0.9692
B(  1-C , 24-H ) :   0.9805 B(  2-O ,  3-C ) :   1.1170 B(  3-C ,  4-O ) :   1.9987
B(  3-C ,  5-C ) :   1.0637 B(  5-C ,  6-C ) :   1.6502 B(  5-C , 12-C ) :   0.9733
B(  6-C ,  7-C ) :   0.9658 B(  6-C ,  8-N ) :   1.1602 B(  7-C , 25-H ) :   0.9602
B(  7-C , 26-H ) :   0.9600 B(  7-C , 27-H ) :   0.9909 B(  8-N ,  9-C ) :   1.1849
B(  8-N , 28-H ) :   0.9477 B(  9-C , 10-S ) :   1.6035 B(  9-C , 11-N ) :   1.3080
B( 11-N , 12-C ) :   0.9783 B( 11-N , 29-H ) :   0.9514 B( 12-C , 13-C ) :   0.9362
B( 12-C , 30-H ) :   1.0015 B( 13-C , 14-C ) :   1.3522 B( 13-C , 19-C ) :   1.3810
B( 14-C , 15-C ) :   1.3914 B( 14-C , 31-H ) :   0.9731 B( 15-C , 16-C ) :   1.3606
B( 15-C , 32-H ) :   0.9707 B( 16-C , 17-C ) :   1.3305 B( 16-C , 33-H ) :   0.9847
B( 17-C , 18-O ) :   1.1121 B( 17-C , 19-C ) :   1.3696 B( 18-O , 34-H ) :   0.9793
B( 19-C , 35-H ) :   0.9580

MP2 TOTAL ENERGY:    -1274.336818643 Eh
FINAL SINGLE POINT ENERGY     -1274.336818642718

DIPOLE MOMENT
-------------
                                X             Y             Z
Electronic contribution:     10.22240       9.97227       7.69393
Nuclear contribution   :    -11.21438     -11.72408      -7.81860
                        -----------------------------------------
Total Dipole Moment    :     -0.99199      -1.75180      -0.12467
                        -----------------------------------------
Magnitude (a.u.)       :      2.01703
Magnitude (Debye)      :      5.12687

Rotational constants in cm-1:     0.012181     0.008672     0.006248
Rotational constants in MHz :   365.169856   259.986992   187.321040

                             ****ORCA TERMINATED NORMALLY****
TOTAL RUN TIME: 0 days 2 hours 6 minutes 48 seconds 555 msec
