                         Program Version 4.2.0 -  RELEASE  -
|  1> ! ri-mp2 cc-pvtz cc-pvtz/c TightSCF  NoKeepInts
|  2>
|  3> %scf
|  4>   MaxCore 4096
|  5> end
|  6> *xyz  0  1
|  7>     C       15.4135663   13.9849960   16.8941631
|  8>     C       15.2639473   15.3593998   16.2066045
|  9>     O       16.5220455   15.9178046   15.7590930
| 10>     C       17.6618093   15.8003322   16.5015310
| 11>     O       18.2555492   14.7418262   16.6178386
| 12>     C       17.9265743   16.9738079   17.3971313
| 13>     C       17.5124124   18.2427062   17.1490295
| 14>     C       16.7646595   18.7535065   15.9347533
| 15>     N       17.8382424   19.2668600   18.0436253
| 16>     C       18.6640661   19.1280114   19.1278956
| 17>     S       19.0734352   20.4163651   20.0806179
| 18>     N       19.1324683   17.8640928   19.3837597
| 19>     C       18.7117368   16.6438921   18.6698778
| 20>     C       17.8902651   15.7429544   19.5874224
| 21>     C       18.2779339   14.4091614   19.8115579
| 22>     C       17.5118114   13.5700522   20.6378295
| 23>     C       16.3463413   14.0677023   21.2450541
| 24>     C       15.9550616   15.3946488   21.0215392
| 25>     O       14.8246109   15.8754763   21.5975469
| 26>     C       16.7196335   16.2275984   20.1988394
| 27>     H       15.9583035   13.2837261   16.2492208
| 28>     H       14.4273248   13.5550752   17.1056625
| 29>     H       15.9496604   14.0708623   17.8477375
| 30>     H       14.5891060   15.2647689   15.3461552
| 31>     H       14.7963097   16.0510723   16.9195413
| 32>     H       17.1769470   18.3253079   15.0122301
| 33>     H       16.8259420   19.8439151   15.8325093
| 34>     H       15.7033587   18.4826733   15.9877005
| 35>     H       17.5078232   20.2031722   17.8721172
| 36>     H       19.7157488   17.7842953   20.2068981
| 37>     H       19.6199745   16.1000489   18.3717683
| 38>     H       19.1670065   14.0155271   19.3246593
| 39>     H       17.8190284   12.5379401   20.7973626
| 40>     H       15.7502090   13.4217173   21.8810084
| 41>     H       14.4732892   15.1784813   22.1720585
| 42>     H       16.4007982   17.2522223   20.0416605
| 43> *
| 44>
| 45>                          ****END OF INPUT****

CARTESIAN COORDINATES (ANGSTROEM)
---------------------------------
  C     15.413566   13.984996   16.894163
  C     15.263947   15.359400   16.206605
  O     16.522046   15.917805   15.759093
  C     17.661809   15.800332   16.501531
  O     18.255549   14.741826   16.617839
  C     17.926574   16.973808   17.397131
  C     17.512412   18.242706   17.149030
  C     16.764660   18.753507   15.934753
  N     17.838242   19.266860   18.043625
  C     18.664066   19.128011   19.127896
  S     19.073435   20.416365   20.080618
  N     19.132468   17.864093   19.383760
  C     18.711737   16.643892   18.669878
  C     17.890265   15.742954   19.587422
  C     18.277934   14.409161   19.811558
  C     17.511811   13.570052   20.637829
  C     16.346341   14.067702   21.245054
  C     15.955062   15.394649   21.021539
  O     14.824611   15.875476   21.597547
  C     16.719634   16.227598   20.198839
  H     15.958303   13.283726   16.249221
  H     14.427325   13.555075   17.105663
  H     15.949660   14.070862   17.847738
  H     14.589106   15.264769   15.346155
  H     14.796310   16.051072   16.919541
  H     17.176947   18.325308   15.012230
  H     16.825942   19.843915   15.832509
  H     15.703359   18.482673   15.987701
  H     17.507823   20.203172   17.872117
  H     19.715749   17.784295   20.206898
  H     19.619975   16.100049   18.371768
  H     19.167006   14.015527   19.324659
  H     17.819028   12.537940   20.797363
  H     15.750209   13.421717   21.881008
  H     14.473289   15.178481   22.172058
  H     16.400798   17.252222   20.041660

 Total Charge           Charge          ....    0
 Multiplicity           Mult            ....    1
 Number of Electrons    NEL             ....  154
 Basis Dimension        Dim             ....  828

ORBITAL ENERGIES
----------------

  NO   OCC          E(Eh)            E(eV)
   0   2.0000     -91.889575     -2500.4425
   1   2.0000     -20.596898      -560.4701
   2   2.0000     -20.584530      -560.1336
   3   2.0000     -20.552546      -559.2632
   4   2.0000     -15.629703      -425.3059
   5   2.0000     -15.608779      -424.7365
   6   2.0000     -11.395124      -310.0771
   7   2.0000     -11.384923      -309.7995
   8   2.0000     -11.336539      -308.4829
   9   2.0000     -11.313252      -307.8492
  10   2.0000     -11.307998      -307.7063
  11   2.0000     -11.305953      -307.6506
  12   2.0000     -11.260874      -306.4240
  13   2.0000     -11.260001      -306.4002
  14   2.0000     -11.258392      -306.3564
  15   2.0000     -11.253115      -306.2128
  16   2.0000     -11.242823      -305.9328
  17   2.0000     -11.238873      -305.8253
  18   2.0000     -11.235730      -305.7398
  19   2.0000     -11.222326      -305.3750
  20   2.0000      -8.894647      -242.0356
  21   2.0000      -6.576223      -178.9481
  22   2.0000      -6.574215      -178.8935
  23   2.0000      -6.573629      -178.8775
  24   2.0000      -1.446175       -39.3524
  25   2.0000      -1.416674       -38.5497
  26   2.0000      -1.356123       -36.9020
  27   2.0000      -1.340752       -36.4837
  28   2.0000      -1.238820       -33.7100
  29   2.0000      -1.157330       -31.4926
  30   2.0000      -1.121562       -30.5193
  31   2.0000      -1.044664       -28.4268
  32   2.0000      -1.031368       -28.0650
  33   2.0000      -1.014730       -27.6122
  34   2.0000      -1.000498       -27.2249
  35   2.0000      -0.985515       -26.8172
  36   2.0000      -0.924466       -25.1560
  37   2.0000      -0.891523       -24.2596
  38   2.0000      -0.850618       -23.1465
  39   2.0000      -0.839558       -22.8455
  40   2.0000      -0.833232       -22.6734
  41   2.0000      -0.824275       -22.4297
  42   2.0000      -0.744540       -20.2600
  43   2.0000      -0.729062       -19.8388
  44   2.0000      -0.727040       -19.7838
  45   2.0000      -0.694722       -18.9043
  46   2.0000      -0.685668       -18.6580
  47   2.0000      -0.679641       -18.4940
  48   2.0000      -0.674815       -18.3627
  49   2.0000      -0.666378       -18.1331
  50   2.0000      -0.649059       -17.6618
  51   2.0000      -0.646831       -17.6012
  52   2.0000      -0.636974       -17.3330
  53   2.0000      -0.615729       -16.7549
  54   2.0000      -0.605654       -16.4807
  55   2.0000      -0.603105       -16.4113
  56   2.0000      -0.600357       -16.3366
  57   2.0000      -0.578159       -15.7325
  58   2.0000      -0.574878       -15.6432
  59   2.0000      -0.567110       -15.4318
  60   2.0000      -0.553792       -15.0695
  61   2.0000      -0.548934       -14.9373
  62   2.0000      -0.536424       -14.5968
  63   2.0000      -0.527433       -14.3522
  64   2.0000      -0.520155       -14.1541
  65   2.0000      -0.511770       -13.9260
  66   2.0000      -0.500284       -13.6134
  67   2.0000      -0.491820       -13.3831
  68   2.0000      -0.482628       -13.1330
  69   2.0000      -0.465683       -12.6719
  70   2.0000      -0.455861       -12.4046
  71   2.0000      -0.448954       -12.2167
  72   2.0000      -0.355584        -9.6759
  73   2.0000      -0.349176        -9.5016
  74   2.0000      -0.328889        -8.9495
  75   2.0000      -0.320375        -8.7178
  76   2.0000      -0.316887        -8.6229
  77   0.0000       0.071612         1.9487
  78   0.0000       0.104533         2.8445
  79   0.0000       0.119936         3.2636
  80   0.0000       0.131566         3.5801
  81   0.0000       0.138591         3.7713

MULLIKEN ATOMIC CHARGES
-----------------------
   0 C :   -0.289551
   1 C :    0.035184
   2 O :   -0.380587
   3 C :    0.453591
   4 O :   -0.393206
   5 C :   -0.211779
   6 C :    0.151166
   7 C :   -0.285332
   8 N :   -0.124551
   9 C :    0.203893
  10 S :   -0.438814
  11 N :   -0.202192
  12 C :    0.060510
  13 C :    0.024185
  14 C :   -0.157678
  15 C :   -0.135094
  16 C :   -0.275292
  17 C :    0.305999
  18 O :   -0.359418
  19 C :   -0.265115
  20 H :    0.114315
  21 H :    0.097621
  22 H :    0.115306
  23 H :    0.110703
  24 H :    0.082223
  25 H :    0.132158
  26 H :    0.106446
  27 H :    0.120939
  28 H :    0.197229
  29 H :    0.194743
  30 H :    0.154306
  31 H :    0.155922
  32 H :    0.160855
  33 H :    0.131024
  34 H :    0.241225
  35 H :    0.169068
Sum of atomic charges:   -0.0000000

LOEWDIN ATOMIC CHARGES
----------------------
   0 C :    0.107859
   1 C :   -0.016860
   2 O :    0.283687
   3 C :   -0.417471
   4 O :    0.129691
   5 C :   -0.095115
   6 C :   -0.070691
   7 C :    0.126210
   8 N :    0.404660
   9 C :   -0.457889
  10 S :   -0.035396
  11 N :    0.397407
  12 C :   -0.046279
  13 C :   -0.042239
  14 C :    0.021647
  15 C :    0.041919
  16 C :   -0.001626
  17 C :   -0.193801
  18 O :    0.393674
  19 C :    0.027344
  20 H :   -0.022268
  21 H :   -0.026892
  22 H :   -0.024655
  23 H :   -0.022811
  24 H :   -0.037308
  25 H :   -0.006133
  26 H :   -0.019577
  27 H :   -0.011548
  28 H :   -0.058579
  29 H :   -0.063793
  30 H :   -0.004855
  31 H :   -0.024412
  32 H :   -0.020078
  33 H :   -0.035388
  34 H :   -0.153761
  35 H :   -0.024674

  Mayer bond orders larger than 0.100000
B(  0-C ,  1-C ) :   0.9803 B(  0-C , 20-H ) :   0.9725 B(  0-C , 21-H ) :   0.9747
B(  0-C , 22-H ) :   0.9663 B(  1-C ,  2-O ) :   0.9007 B(  1-C , 23-H ) :   0.9787
B(  1-C , 24-H ) :   0.9735 B(  2-O ,  3-C ) :   1.0894 B(  3-C ,  4-O ) :   2.0479
B(  3-C ,  5-C ) :   1.0144 B(  5-C ,  6-C ) :   1.6597 B(  5-C , 12-C ) :   0.9651
B(  6-C ,  7-C ) :   0.9516 B(  6-C ,  8-N ) :   1.1457 B(  7-C , 25-H ) :   0.9670
B(  7-C , 26-H ) :   0.9885 B(  7-C , 27-H ) :   0.9664 B(  8-N ,  9-C ) :   1.1823
B(  8-N , 28-H ) :   0.9490 B(  9-C , 10-S ) :   1.6110 B(  9-C , 11-N ) :   1.3024
B( 11-N , 12-C ) :   0.9921 B( 11-N , 29-H ) :   0.9517 B( 12-C , 13-C ) :   0.9418
B( 12-C , 30-H ) :   0.9987 B( 13-C , 14-C ) :   1.3812 B( 13-C , 19-C ) :   1.3699
B( 14-C , 15-C ) :   1.3931 B( 14-C , 31-H ) :   0.9645 B( 15-C , 16-C ) :   1.3625
B( 15-C , 32-H ) :   0.9715 B( 16-C , 17-C ) :   1.3320 B( 16-C , 33-H ) :   0.9850
B( 17-C , 18-O ) :   1.1105 B( 17-C , 19-C ) :   1.3717 B( 18-O , 34-H ) :   0.9796
B( 19-C , 35-H ) :   0.9574

MP2 TOTAL ENERGY:    -1274.330841554 Eh
FINAL SINGLE POINT ENERGY     -1274.330841553934

DIPOLE MOMENT
-------------
                                X             Y             Z
Electronic contribution:      9.99564       9.55547       6.49010
Nuclear contribution   :    -11.51556     -10.63730      -7.03926
                        -----------------------------------------
Total Dipole Moment    :     -1.51992      -1.08183      -0.54916
                        -----------------------------------------
Magnitude (a.u.)       :      1.94476
Magnitude (Debye)      :      4.94319

Rotational constants in cm-1:     0.012113     0.009215     0.006601
Rotational constants in MHz :   363.136284   276.257486   197.881479

                             ****ORCA TERMINATED NORMALLY****
TOTAL RUN TIME: 0 days 1 hours 44 minutes 9 seconds 772 msec
