                         Program Version 5.0.0 -  RELEASE  -
|  1> ! ri-mp2 cc-pvtz cc-pvtz/c TightSCF NoKeepInts
|  2>
|  3> %scf
|  4>   MaxCore 4096
|  5> end
|  6> *xyz  0  1
|  7>     C       15.5562005   13.9402837   14.9955622
|  8>     C       15.5407504   14.2406980   16.5058509
|  9>     O       16.6154645   15.1504578   16.7995321
| 10>     C       16.3937853   16.4995088   16.7572238
| 11>     O       15.4257033   16.9846151   16.1960988
| 12>     C       17.3720100   17.2742547   17.5966648
| 13>     C       17.3585834   18.6297667   17.6650825
| 14>     C       16.4120893   19.5740719   16.9552119
| 15>     N       18.3179250   19.3028490   18.4275915
| 16>     C       19.3797284   18.7071685   19.0543788
| 17>     S       20.5289170   19.5869087   19.8552066
| 18>     N       19.4445718   17.3391159   18.9813410
| 19>     C       18.4036729   16.4690500   18.4039368
| 20>     C       17.7459161   15.6489680   19.5103805
| 21>     C       17.9210524   14.2532862   19.5641082
| 22>     C       17.3145074   13.4950208   20.5796554
| 23>     C       16.5286109   14.1374340   21.5515791
| 24>     C       16.3556905   15.5275679   21.5037008
| 25>     O       15.5984631   16.1508285   22.4413387
| 26>     C       16.9601650   16.2794051   20.4915543
| 27>     H       15.3605947   14.8514212   14.4160314
| 28>     H       14.7833429   13.2044989   14.7427062
| 29>     H       16.5292569   13.5367529   14.6896929
| 30>     H       14.5703105   14.6537789   16.8142421
| 31>     H       15.7013367   13.3042537   17.0553061
| 32>     H       15.3784300   19.3978440   17.2795843
| 33>     H       16.4461533   19.4124153   15.8703057
| 34>     H       16.6416189   20.6302137   17.1387145
| 35>     H       18.2869276   20.3078777   18.4909480
| 36>     H       20.2184366   16.9260289   19.4856467
| 37>     H       18.9040326   15.7786783   17.7103523
| 38>     H       18.5242740   13.7537120   18.8107642
| 39>     H       17.4547189   12.4159698   20.6117870
| 40>     H       16.0586890   13.5564409   22.3382850
| 41>     H       15.2953351   15.4760141   23.0670424
| 42>     H       16.8197351   17.3548403   20.4765925
| 43> *
| 44>
| 45>                          ****END OF INPUT****

CARTESIAN COORDINATES (ANGSTROEM)
---------------------------------
  C     15.556200   13.940284   14.995562
  C     15.540750   14.240698   16.505851
  O     16.615465   15.150458   16.799532
  C     16.393785   16.499509   16.757224
  O     15.425703   16.984615   16.196099
  C     17.372010   17.274255   17.596665
  C     17.358583   18.629767   17.665083
  C     16.412089   19.574072   16.955212
  N     18.317925   19.302849   18.427591
  C     19.379728   18.707168   19.054379
  S     20.528917   19.586909   19.855207
  N     19.444572   17.339116   18.981341
  C     18.403673   16.469050   18.403937
  C     17.745916   15.648968   19.510381
  C     17.921052   14.253286   19.564108
  C     17.314507   13.495021   20.579655
  C     16.528611   14.137434   21.551579
  C     16.355691   15.527568   21.503701
  O     15.598463   16.150828   22.441339
  C     16.960165   16.279405   20.491554
  H     15.360595   14.851421   14.416031
  H     14.783343   13.204499   14.742706
  H     16.529257   13.536753   14.689693
  H     14.570310   14.653779   16.814242
  H     15.701337   13.304254   17.055306
  H     15.378430   19.397844   17.279584
  H     16.446153   19.412415   15.870306
  H     16.641619   20.630214   17.138714
  H     18.286928   20.307878   18.490948
  H     20.218437   16.926029   19.485647
  H     18.904033   15.778678   17.710352
  H     18.524274   13.753712   18.810764
  H     17.454719   12.415970   20.611787
  H     16.058689   13.556441   22.338285
  H     15.295335   15.476014   23.067042
  H     16.819735   17.354840   20.476592

 Total Charge           Charge          ....    0
 Multiplicity           Mult            ....    1
 Number of Electrons    NEL             ....  154
 Basis Dimension        Dim             ....  828

ORBITAL ENERGIES
----------------

  NO   OCC          E(Eh)            E(eV)
   0   2.0000     -91.888879     -2500.4235
   1   2.0000     -20.600207      -560.5601
   2   2.0000     -20.596049      -560.4470
   3   2.0000     -20.542846      -558.9993
   4   2.0000     -15.629138      -425.2905
   5   2.0000     -15.608173      -424.7200
   6   2.0000     -11.395685      -310.0923
   7   2.0000     -11.383975      -309.7737
   8   2.0000     -11.336010      -308.4685
   9   2.0000     -11.313173      -307.8471
  10   2.0000     -11.308911      -307.7311
  11   2.0000     -11.296935      -307.4052
  12   2.0000     -11.259163      -306.3774
  13   2.0000     -11.258986      -306.3726
  14   2.0000     -11.254691      -306.2557
  15   2.0000     -11.252215      -306.1883
  16   2.0000     -11.242442      -305.9224
  17   2.0000     -11.237895      -305.7987
  18   2.0000     -11.237661      -305.7923
  19   2.0000     -11.223176      -305.3981
  20   2.0000      -8.893938      -242.0164
  21   2.0000      -6.575512      -178.9288
  22   2.0000      -6.573508      -178.8743
  23   2.0000      -6.572921      -178.8583
  24   2.0000      -1.451608       -39.5003
  25   2.0000      -1.415695       -38.5230
  26   2.0000      -1.355153       -36.8756
  27   2.0000      -1.340057       -36.4648
  28   2.0000      -1.238454       -33.7000
  29   2.0000      -1.157117       -31.4868
  30   2.0000      -1.120321       -30.4855
  31   2.0000      -1.042498       -28.3678
  32   2.0000      -1.036384       -28.2014
  33   2.0000      -1.014509       -27.6062
  34   2.0000      -0.995187       -27.0804
  35   2.0000      -0.983867       -26.7724
  36   2.0000      -0.922368       -25.0989
  37   2.0000      -0.891559       -24.2606
  38   2.0000      -0.847039       -23.0491
  39   2.0000      -0.837437       -22.7878
  40   2.0000      -0.833523       -22.6813
  41   2.0000      -0.818795       -22.2805
  42   2.0000      -0.758816       -20.6484
  43   2.0000      -0.731853       -19.9147
  44   2.0000      -0.723059       -19.6754
  45   2.0000      -0.695209       -18.9176
  46   2.0000      -0.688192       -18.7266
  47   2.0000      -0.680488       -18.5170
  48   2.0000      -0.671181       -18.2638
  49   2.0000      -0.653341       -17.7783
  50   2.0000      -0.646402       -17.5895
  51   2.0000      -0.645381       -17.5617
  52   2.0000      -0.629748       -17.1363
  53   2.0000      -0.612448       -16.6656
  54   2.0000      -0.606242       -16.4967
  55   2.0000      -0.599151       -16.3037
  56   2.0000      -0.598444       -16.2845
  57   2.0000      -0.579261       -15.7625
  58   2.0000      -0.571841       -15.5606
  59   2.0000      -0.570259       -15.5175
  60   2.0000      -0.563461       -15.3326
  61   2.0000      -0.539161       -14.6713
  62   2.0000      -0.535453       -14.5704
  63   2.0000      -0.525533       -14.3005
  64   2.0000      -0.524483       -14.2719
  65   2.0000      -0.513368       -13.9694
  66   2.0000      -0.500792       -13.6272
  67   2.0000      -0.497332       -13.5331
  68   2.0000      -0.486166       -13.2292
  69   2.0000      -0.464037       -12.6271
  70   2.0000      -0.454802       -12.3758
  71   2.0000      -0.447825       -12.1860
  72   2.0000      -0.354304        -9.6411
  73   2.0000      -0.348903        -9.4941
  74   2.0000      -0.328190        -8.9305
  75   2.0000      -0.320840        -8.7305
  76   2.0000      -0.315957        -8.5976
  77   0.0000       0.075806         2.0628
  78   0.0000       0.106972         2.9109
  79   0.0000       0.125271         3.4088
  80   0.0000       0.132715         3.6114
  81   0.0000       0.137362         3.7378

MULLIKEN ATOMIC CHARGES
-----------------------
   0 C :   -0.281024
   1 C :    0.039665
   2 O :   -0.355531
   3 C :    0.459942
   4 O :   -0.435274
   5 C :   -0.211224
   6 C :    0.151012
   7 C :   -0.274399
   8 N :   -0.120636
   9 C :    0.210916
  10 S :   -0.439684
  11 N :   -0.203756
  12 C :    0.052325
  13 C :    0.066633
  14 C :   -0.183806
  15 C :   -0.131664
  16 C :   -0.278829
  17 C :    0.315727
  18 O :   -0.356689
  19 C :   -0.269327
  20 H :    0.112668
  21 H :    0.092230
  22 H :    0.090978
  23 H :    0.098551
  24 H :    0.106445
  25 H :    0.132540
  26 H :    0.130063
  27 H :    0.095368
  28 H :    0.197329
  29 H :    0.194495
  30 H :    0.150540
  31 H :    0.149113
  32 H :    0.160405
  33 H :    0.129635
  34 H :    0.240635
  35 H :    0.164626
Sum of atomic charges:   -0.0000000

LOEWDIN ATOMIC CHARGES
----------------------
   0 C :    0.104616
   1 C :   -0.015712
   2 O :    0.307977
   3 C :   -0.413562
   4 O :    0.097036
   5 C :   -0.094315
   6 C :   -0.058847
   7 C :    0.131492
   8 N :    0.406572
   9 C :   -0.456545
  10 S :   -0.035277
  11 N :    0.396488
  12 C :   -0.052441
  13 C :   -0.038443
  14 C :    0.014408
  15 C :    0.038520
  16 C :   -0.001866
  17 C :   -0.189479
  18 O :    0.395127
  19 C :    0.031332
  20 H :   -0.024450
  21 H :   -0.027938
  22 H :   -0.029881
  23 H :   -0.027606
  24 H :   -0.026983
  25 H :   -0.004514
  26 H :   -0.004157
  27 H :   -0.023338
  28 H :   -0.057566
  29 H :   -0.064573
  30 H :   -0.010768
  31 H :   -0.030230
  32 H :   -0.021560
  33 H :   -0.035707
  34 H :   -0.153984
  35 H :   -0.023826

  Mayer bond orders larger than 0.100000
B(  0-C ,  1-C ) :   0.9716 B(  0-C , 20-H ) :   0.9757 B(  0-C , 21-H ) :   0.9768
B(  0-C , 22-H ) :   0.9773 B(  1-C ,  2-O ) :   0.8898 B(  1-C , 23-H ) :   0.9743
B(  1-C , 24-H ) :   0.9815 B(  2-O ,  3-C ) :   1.1572 B(  3-C ,  4-O ) :   1.9536
B(  3-C ,  5-C ) :   1.0678 B(  5-C ,  6-C ) :   1.6556 B(  5-C , 12-C ) :   0.9734
B(  6-C ,  7-C ) :   0.9674 B(  6-C ,  8-N ) :   1.1637 B(  7-C , 25-H ) :   0.9600
B(  7-C , 26-H ) :   0.9606 B(  7-C , 27-H ) :   0.9907 B(  8-N ,  9-C ) :   1.1825
B(  8-N , 28-H ) :   0.9478 B(  9-C , 10-S ) :   1.6078 B(  9-C , 11-N ) :   1.3049
B( 11-N , 12-C ) :   0.9869 B( 11-N , 29-H ) :   0.9516 B( 12-C , 13-C ) :   0.9364
B( 12-C , 30-H ) :   1.0026 B( 13-C , 14-C ) :   1.3551 B( 13-C , 19-C ) :   1.3824
B( 14-C , 15-C ) :   1.3910 B( 14-C , 31-H ) :   0.9718 B( 15-C , 16-C ) :   1.3640
B( 15-C , 32-H ) :   0.9707 B( 16-C , 17-C ) :   1.3316 B( 16-C , 33-H ) :   0.9851
B( 17-C , 18-O ) :   1.1099 B( 17-C , 19-C ) :   1.3730 B( 18-O , 34-H ) :   0.9799
B( 19-C , 35-H ) :   0.9583

MP2 TOTAL ENERGY:    -1274.348710450 Eh
FINAL SINGLE POINT ENERGY     -1274.348710450322

DIPOLE MOMENT
-------------
                                X             Y             Z
Electronic contribution:      9.96790       9.65033       9.76611
Nuclear contribution   :    -11.11896     -11.26209     -10.04041
                        -----------------------------------------
Total Dipole Moment    :     -1.15106      -1.61176      -0.27430
                        -----------------------------------------
Magnitude (a.u.)       :      1.99949
Magnitude (Debye)      :      5.08230

Rotational constants in cm-1:     0.011125     0.008750     0.006039
Rotational constants in MHz :   333.533072   262.304240   181.040799

                             ****ORCA TERMINATED NORMALLY****
TOTAL RUN TIME: 0 days 2 hours 20 minutes 40 seconds 652 msec
