                         Program Version 5.0.0 -  RELEASE  -
|  1> ! ri-mp2 cc-pvtz cc-pvtz/c TightSCF NoKeepInts
|  2>
|  3> %scf
|  4>   MaxCore 4096
|  5> end
|  6> *xyz  0  1
|  7>     C       14.3842311   15.3900637   16.6993010
|  8>     C       15.8071812   14.8093252   16.6527280
|  9>     O       16.6361478   15.7262135   15.9170705
| 10>     C       17.9041655   15.9139356   16.3786630
| 11>     O       18.6679548   14.9666442   16.4509414
| 12>     C       17.9512862   17.0154040   17.3920883
| 13>     C       17.3094197   18.1977269   17.2272167
| 14>     C       16.4972870   18.6353288   16.0263401
| 15>     N       17.4346142   19.1977403   18.1957986
| 16>     C       18.2858518   19.1418181   19.2686861
| 17>     S       18.4596190   20.4155229   20.3090627
| 18>     N       18.9865762   17.9729773   19.4365622
| 19>     C       18.7797839   16.7415637   18.6497597
| 20>     C       18.1150491   15.6635454   19.5012138
| 21>     C       18.6789852   14.3777750   19.5909468
| 22>     C       18.0563911   13.3739088   20.3514181
| 23>     C       16.8572921   13.6562830   21.0274734
| 24>     C       16.2896558   14.9342682   20.9373016
| 25>     O       15.1250108   15.2068903   21.5775146
| 26>     C       16.9114348   15.9312671   20.1793493
| 27>     H       14.3703014   16.3364459   17.2532860
| 28>     H       13.7033754   14.6924297   17.2020920
| 29>     H       14.0050474   15.5702790   15.6857028
| 30>     H       16.1741035   14.6771343   17.6797928
| 31>     H       15.8081830   13.8276765   16.1610501
| 32>     H       15.4750665   18.2428581   16.0833259
| 33>     H       16.9428313   18.2690875   15.0929404
| 34>     H       16.4345813   19.7271848   15.9421021
| 35>     H       16.9309694   20.0639089   18.0882344
| 36>     H       19.5864431   17.9495444   20.2512963
| 37>     H       19.7666622   16.3750172   18.3317009
| 38>     H       19.5952559   14.1507043   19.0508200
| 39>     H       18.5007994   12.3816652   20.4080204
| 40>     H       16.3719479   12.8827129   21.6133911
| 41>     H       14.8892324   14.4238844   22.0977617
| 42>     H       16.4542625   16.9132648   20.1230472
| 43> *
| 44>
| 45>                          ****END OF INPUT****

CARTESIAN COORDINATES (ANGSTROEM)
---------------------------------
  C     14.384231   15.390064   16.699301
  C     15.807181   14.809325   16.652728
  O     16.636148   15.726213   15.917070
  C     17.904166   15.913936   16.378663
  O     18.667955   14.966644   16.450941
  C     17.951286   17.015404   17.392088
  C     17.309420   18.197727   17.227217
  C     16.497287   18.635329   16.026340
  N     17.434614   19.197740   18.195799
  C     18.285852   19.141818   19.268686
  S     18.459619   20.415523   20.309063
  N     18.986576   17.972977   19.436562
  C     18.779784   16.741564   18.649760
  C     18.115049   15.663545   19.501214
  C     18.678985   14.377775   19.590947
  C     18.056391   13.373909   20.351418
  C     16.857292   13.656283   21.027473
  C     16.289656   14.934268   20.937302
  O     15.125011   15.206890   21.577515
  C     16.911435   15.931267   20.179349
  H     14.370301   16.336446   17.253286
  H     13.703375   14.692430   17.202092
  H     14.005047   15.570279   15.685703
  H     16.174104   14.677134   17.679793
  H     15.808183   13.827677   16.161050
  H     15.475066   18.242858   16.083326
  H     16.942831   18.269088   15.092940
  H     16.434581   19.727185   15.942102
  H     16.930969   20.063909   18.088234
  H     19.586443   17.949544   20.251296
  H     19.766662   16.375017   18.331701
  H     19.595256   14.150704   19.050820
  H     18.500799   12.381665   20.408020
  H     16.371948   12.882713   21.613391
  H     14.889232   14.423884   22.097762
  H     16.454262   16.913265   20.123047

 Total Charge           Charge          ....    0
 Multiplicity           Mult            ....    1
 Number of Electrons    NEL             ....  154
 Basis Dimension        Dim             ....  828

ORBITAL ENERGIES
----------------

  NO   OCC          E(Eh)            E(eV)
   0   2.0000     -91.889690     -2500.4456
   1   2.0000     -20.598152      -560.5042
   2   2.0000     -20.579932      -560.0084
   3   2.0000     -20.557421      -559.3959
   4   2.0000     -15.628949      -425.2853
   5   2.0000     -15.609468      -424.7552
   6   2.0000     -11.393623      -310.0362
   7   2.0000     -11.385339      -309.8108
   8   2.0000     -11.332754      -308.3799
   9   2.0000     -11.314716      -307.8891
  10   2.0000     -11.310495      -307.7742
  11   2.0000     -11.297338      -307.4162
  12   2.0000     -11.260934      -306.4256
  13   2.0000     -11.260178      -306.4050
  14   2.0000     -11.259959      -306.3991
  15   2.0000     -11.254804      -306.2588
  16   2.0000     -11.244502      -305.9785
  17   2.0000     -11.240069      -305.8578
  18   2.0000     -11.237293      -305.7823
  19   2.0000     -11.231903      -305.6356
  20   2.0000      -8.894765      -242.0389
  21   2.0000      -6.576343      -178.9514
  22   2.0000      -6.574333      -178.8967
  23   2.0000      -6.573748      -178.8808
  24   2.0000      -1.452595       -39.5271
  25   2.0000      -1.417969       -38.5849
  26   2.0000      -1.355870       -36.8951
  27   2.0000      -1.340291       -36.4712
  28   2.0000      -1.238780       -33.7089
  29   2.0000      -1.158686       -31.5294
  30   2.0000      -1.122483       -30.5443
  31   2.0000      -1.046345       -28.4725
  32   2.0000      -1.034661       -28.1546
  33   2.0000      -1.016197       -27.6521
  34   2.0000      -1.000570       -27.2269
  35   2.0000      -0.986636       -26.8477
  36   2.0000      -0.924877       -25.1672
  37   2.0000      -0.882070       -24.0024
  38   2.0000      -0.848957       -23.1013
  39   2.0000      -0.840377       -22.8678
  40   2.0000      -0.834681       -22.7128
  41   2.0000      -0.827546       -22.5187
  42   2.0000      -0.756807       -20.5938
  43   2.0000      -0.735742       -20.0206
  44   2.0000      -0.729754       -19.8576
  45   2.0000      -0.696277       -18.9466
  46   2.0000      -0.686644       -18.6845
  47   2.0000      -0.681387       -18.5415
  48   2.0000      -0.675885       -18.3918
  49   2.0000      -0.655903       -17.8480
  50   2.0000      -0.655259       -17.8305
  51   2.0000      -0.643837       -17.5197
  52   2.0000      -0.636345       -17.3158
  53   2.0000      -0.609283       -16.5794
  54   2.0000      -0.606942       -16.5157
  55   2.0000      -0.603724       -16.4282
  56   2.0000      -0.601431       -16.3658
  57   2.0000      -0.579049       -15.7567
  58   2.0000      -0.575615       -15.6633
  59   2.0000      -0.568451       -15.4683
  60   2.0000      -0.560215       -15.2442
  61   2.0000      -0.549942       -14.9647
  62   2.0000      -0.546162       -14.8618
  63   2.0000      -0.523848       -14.2546
  64   2.0000      -0.514799       -14.0084
  65   2.0000      -0.511794       -13.9266
  66   2.0000      -0.504844       -13.7375
  67   2.0000      -0.499378       -13.5888
  68   2.0000      -0.482020       -13.1164
  69   2.0000      -0.466915       -12.7054
  70   2.0000      -0.454668       -12.3722
  71   2.0000      -0.453568       -12.3422
  72   2.0000      -0.355487        -9.6733
  73   2.0000      -0.350036        -9.5250
  74   2.0000      -0.329071        -8.9545
  75   2.0000      -0.322167        -8.7666
  76   2.0000      -0.316667        -8.6169
  77   0.0000       0.069430         1.8893
  78   0.0000       0.101599         2.7646
  79   0.0000       0.118339         3.2202
  80   0.0000       0.129778         3.5314
  81   0.0000       0.134033         3.6472

MULLIKEN ATOMIC CHARGES
-----------------------
   0 C :   -0.290068
   1 C :    0.042651
   2 O :   -0.377512
   3 C :    0.456604
   4 O :   -0.389901
   5 C :   -0.197402
   6 C :    0.126059
   7 C :   -0.284483
   8 N :   -0.124837
   9 C :    0.199332
  10 S :   -0.438610
  11 N :   -0.200990
  12 C :    0.059254
  13 C :    0.010939
  14 C :   -0.150840
  15 C :   -0.137525
  16 C :   -0.276613
  17 C :    0.309930
  18 O :   -0.359283
  19 C :   -0.264853
  20 H :    0.091102
  21 H :    0.108459
  22 H :    0.102882
  23 H :    0.098577
  24 H :    0.114257
  25 H :    0.124465
  26 H :    0.124156
  27 H :    0.108649
  28 H :    0.197485
  29 H :    0.194174
  30 H :    0.157190
  31 H :    0.159849
  32 H :    0.162031
  33 H :    0.132411
  34 H :    0.241380
  35 H :    0.171079
Sum of atomic charges:    0.0000000

LOEWDIN ATOMIC CHARGES
----------------------
   0 C :    0.106813
   1 C :   -0.012700
   2 O :    0.284822
   3 C :   -0.420503
   4 O :    0.134691
   5 C :   -0.094198
   6 C :   -0.077599
   7 C :    0.127297
   8 N :    0.404037
   9 C :   -0.457614
  10 S :   -0.035709
  11 N :    0.396911
  12 C :   -0.044916
  13 C :   -0.043358
  14 C :    0.021225
  15 C :    0.042797
  16 C :   -0.001718
  17 C :   -0.195185
  18 O :    0.394335
  19 C :    0.027512
  20 H :   -0.031245
  21 H :   -0.022376
  22 H :   -0.027026
  23 H :   -0.027451
  24 H :   -0.027788
  25 H :   -0.011880
  26 H :   -0.007619
  27 H :   -0.018567
  28 H :   -0.058536
  29 H :   -0.064146
  30 H :   -0.004034
  31 H :   -0.023728
  32 H :   -0.019538
  33 H :   -0.035009
  34 H :   -0.153547
  35 H :   -0.024449

  Mayer bond orders larger than 0.100000
B(  0-C ,  1-C ) :   0.9725 B(  0-C , 20-H ) :   0.9770 B(  0-C , 21-H ) :   0.9780
B(  0-C , 22-H ) :   0.9762 B(  1-C ,  2-O ) :   0.8892 B(  1-C , 23-H ) :   0.9641
B(  1-C , 24-H ) :   0.9858 B(  2-O ,  3-C ) :   1.0863 B(  3-C ,  4-O ) :   2.0400
B(  3-C ,  5-C ) :   1.0130 B(  5-C ,  6-C ) :   1.6736 B(  5-C , 12-C ) :   0.9600
B(  6-C ,  7-C ) :   0.9532 B(  6-C ,  8-N ) :   1.1341 B(  7-C , 25-H ) :   0.9627
B(  7-C , 26-H ) :   0.9714 B(  7-C , 27-H ) :   0.9874 B(  8-N ,  9-C ) :   1.1856
B(  8-N , 28-H ) :   0.9502 B(  9-C , 10-S ) :   1.6128 B(  9-C , 11-N ) :   1.2970
B( 11-N , 12-C ) :   0.9936 B( 11-N , 29-H ) :   0.9518 B( 12-C , 13-C ) :   0.9451
B( 12-C , 30-H ) :   0.9976 B( 13-C , 14-C ) :   1.3842 B( 13-C , 19-C ) :   1.3631
B( 14-C , 15-C ) :   1.3941 B( 14-C , 31-H ) :   0.9622 B( 15-C , 16-C ) :   1.3645
B( 15-C , 32-H ) :   0.9708 B( 16-C , 17-C ) :   1.3293 B( 16-C , 33-H ) :   0.9843
B( 17-C , 18-O ) :   1.1113 B( 17-C , 19-C ) :   1.3739 B( 18-O , 34-H ) :   0.9795
B( 19-C , 35-H ) :   0.9579

MP2 TOTAL ENERGY:    -1274.320233940 Eh
FINAL SINGLE POINT ENERGY     -1274.320233940208

DIPOLE MOMENT
-------------
                                X             Y             Z
Electronic contribution:     11.07832       7.57268       6.63831
Nuclear contribution   :    -12.28004      -8.84526      -7.15105
                        -----------------------------------------
Total Dipole Moment    :     -1.20173      -1.27258      -0.51274
                        -----------------------------------------
Magnitude (a.u.)       :      1.82387
Magnitude (Debye)      :      4.63592

Rotational constants in cm-1:     0.011773     0.009332     0.006965
Rotational constants in MHz :   352.957352   279.779801   208.810094

                             ****ORCA TERMINATED NORMALLY****
TOTAL RUN TIME: 0 days 1 hours 52 minutes 21 seconds 745 msec
