                         Program Version 4.2.0 -  RELEASE  -
|  1> ! ri-mp2 cc-pvtz cc-pvtz/c TightSCF  NoKeepInts
|  2>
|  3> %scf
|  4>   MaxCore 4096
|  5> end
|  6> *xyz  0  1
|  7>     C       15.2259709   15.0304903   17.4285923
|  8>     C       15.5282067   15.4532393   15.9778675
|  9>     O       16.9307017   15.3100010   15.6500308
| 10>     C       17.9911346   15.6074736   16.4704004
| 11>     O       18.9287814   14.8345245   16.5443240
| 12>     C       17.9006859   16.8095244   17.3652485
| 13>     C       17.3924753   18.0083233   16.9816204
| 14>     C       16.8888838   18.4196220   15.6132139
| 15>     N       17.4407425   19.0970129   17.8562474
| 16>     C       18.1364421   19.1233543   19.0354823
| 17>     S       18.2372792   20.4933231   19.9557980
| 18>     N       18.7511031   17.9556263   19.4094801
| 19>     C       18.5848090   16.6549055   18.7320190
| 20>     C       17.8603244   15.6540841   19.6315249
| 21>     C       18.2625548   14.3054537   19.6511663
| 22>     C       17.6016053   13.3696381   20.4638012
| 23>     C       16.5281893   13.7838869   21.2697414
| 24>     C       16.1253846   15.1256700   21.2583905
| 25>     O       15.0840060   15.5279236   22.0292475
| 26>     C       16.7853881   16.0555061   20.4485984
| 27>     H       15.8024654   14.1407345   17.7139360
| 28>     H       14.1612991   14.7918448   17.5394626
| 29>     H       15.4494642   15.8417136   18.1275966
| 30>     H       14.9541231   14.8116646   15.2966426
| 31>     H       15.1772613   16.4771015   15.8213660
| 32>     H       17.1184868   17.6788759   14.8387184
| 33>     H       17.3690532   19.3519190   15.2888592
| 34>     H       15.8063679   18.5930631   15.6200190
| 35>     H       17.0155919   19.9708013   17.5886411
| 36>     H       19.2479085   17.9974998   20.2904432
| 37>     H       19.5942343   16.2576824   18.5484229
| 38>     H       19.0878168   13.9773309   19.0226131
| 39>     H       17.9215425   12.3289653   20.4630982
| 40>     H       16.0135825   13.0636393   21.8971453
| 41>     H       14.7938534   14.7625456   22.5481141
| 42>     H       16.4492808   17.0870355   20.4561270
| 43> *
| 44>
| 45>                          ****END OF INPUT****

CARTESIAN COORDINATES (ANGSTROEM)
---------------------------------
  C     15.225971   15.030490   17.428592
  C     15.528207   15.453239   15.977868
  O     16.930702   15.310001   15.650031
  C     17.991135   15.607474   16.470400
  O     18.928781   14.834525   16.544324
  C     17.900686   16.809524   17.365248
  C     17.392475   18.008323   16.981620
  C     16.888884   18.419622   15.613214
  N     17.440742   19.097013   17.856247
  C     18.136442   19.123354   19.035482
  S     18.237279   20.493323   19.955798
  N     18.751103   17.955626   19.409480
  C     18.584809   16.654906   18.732019
  C     17.860324   15.654084   19.631525
  C     18.262555   14.305454   19.651166
  C     17.601605   13.369638   20.463801
  C     16.528189   13.783887   21.269741
  C     16.125385   15.125670   21.258391
  O     15.084006   15.527924   22.029248
  C     16.785388   16.055506   20.448598
  H     15.802465   14.140735   17.713936
  H     14.161299   14.791845   17.539463
  H     15.449464   15.841714   18.127597
  H     14.954123   14.811665   15.296643
  H     15.177261   16.477101   15.821366
  H     17.118487   17.678876   14.838718
  H     17.369053   19.351919   15.288859
  H     15.806368   18.593063   15.620019
  H     17.015592   19.970801   17.588641
  H     19.247909   17.997500   20.290443
  H     19.594234   16.257682   18.548423
  H     19.087817   13.977331   19.022613
  H     17.921542   12.328965   20.463098
  H     16.013582   13.063639   21.897145
  H     14.793853   14.762546   22.548114
  H     16.449281   17.087035   20.456127

 Total Charge           Charge          ....    0
 Multiplicity           Mult            ....    1
 Number of Electrons    NEL             ....  154
 Basis Dimension        Dim             ....  828

ORBITAL ENERGIES
----------------

  NO   OCC          E(Eh)            E(eV)
   0   2.0000     -91.891039     -2500.4823
   1   2.0000     -20.597267      -560.4801
   2   2.0000     -20.596050      -560.4470
   3   2.0000     -20.550203      -559.1995
   4   2.0000     -15.629621      -425.3036
   5   2.0000     -15.610709      -424.7890
   6   2.0000     -11.399756      -310.2031
   7   2.0000     -11.386840      -309.8517
   8   2.0000     -11.337191      -308.5007
   9   2.0000     -11.313845      -307.8654
  10   2.0000     -11.312205      -307.8207
  11   2.0000     -11.308704      -307.7255
  12   2.0000     -11.268609      -306.6344
  13   2.0000     -11.267688      -306.6094
  14   2.0000     -11.260880      -306.4241
  15   2.0000     -11.253948      -306.2355
  16   2.0000     -11.243401      -305.9485
  17   2.0000     -11.239049      -305.8301
  18   2.0000     -11.235189      -305.7250
  19   2.0000     -11.229160      -305.5610
  20   2.0000      -8.896130      -242.0760
  21   2.0000      -6.577714      -178.9887
  22   2.0000      -6.575693      -178.9337
  23   2.0000      -6.575112      -178.9179
  24   2.0000      -1.445711       -39.3398
  25   2.0000      -1.417081       -38.5607
  26   2.0000      -1.358043       -36.9542
  27   2.0000      -1.342754       -36.5382
  28   2.0000      -1.241064       -33.7711
  29   2.0000      -1.158135       -31.5144
  30   2.0000      -1.124147       -30.5896
  31   2.0000      -1.046481       -28.4762
  32   2.0000      -1.037400       -28.2291
  33   2.0000      -1.016736       -27.6668
  34   2.0000      -1.005557       -27.3626
  35   2.0000      -0.989483       -26.9252
  36   2.0000      -0.927527       -25.2393
  37   2.0000      -0.897582       -24.4244
  38   2.0000      -0.855036       -23.2667
  39   2.0000      -0.841043       -22.8859
  40   2.0000      -0.833938       -22.6926
  41   2.0000      -0.828207       -22.5366
  42   2.0000      -0.745179       -20.2774
  43   2.0000      -0.736944       -20.0533
  44   2.0000      -0.730016       -19.8647
  45   2.0000      -0.695046       -18.9132
  46   2.0000      -0.686590       -18.6831
  47   2.0000      -0.681494       -18.5444
  48   2.0000      -0.675220       -18.3737
  49   2.0000      -0.660284       -17.9672
  50   2.0000      -0.657565       -17.8933
  51   2.0000      -0.650670       -17.7056
  52   2.0000      -0.639609       -17.4046
  53   2.0000      -0.624488       -16.9932
  54   2.0000      -0.609588       -16.5877
  55   2.0000      -0.605156       -16.4671
  56   2.0000      -0.601232       -16.3604
  57   2.0000      -0.587158       -15.9774
  58   2.0000      -0.575632       -15.6637
  59   2.0000      -0.565422       -15.3859
  60   2.0000      -0.563571       -15.3355
  61   2.0000      -0.550095       -14.9688
  62   2.0000      -0.540467       -14.7068
  63   2.0000      -0.536147       -14.5893
  64   2.0000      -0.520895       -14.1743
  65   2.0000      -0.512859       -13.9556
  66   2.0000      -0.500919       -13.6307
  67   2.0000      -0.496171       -13.5015
  68   2.0000      -0.483209       -13.1488
  69   2.0000      -0.470430       -12.8011
  70   2.0000      -0.457744       -12.4558
  71   2.0000      -0.449701       -12.2370
  72   2.0000      -0.359103        -9.7717
  73   2.0000      -0.348134        -9.4732
  74   2.0000      -0.330498        -8.9933
  75   2.0000      -0.322501        -8.7757
  76   2.0000      -0.319414        -8.6917
  77   0.0000       0.076701         2.0871
  78   0.0000       0.106885         2.9085
  79   0.0000       0.115441         3.1413
  80   0.0000       0.131006         3.5649
  81   0.0000       0.132073         3.5939

MULLIKEN ATOMIC CHARGES
-----------------------
   0 C :   -0.331979
   1 C :    0.031886
   2 O :   -0.340010
   3 C :    0.447919
   4 O :   -0.386472
   5 C :   -0.254986
   6 C :    0.184828
   7 C :   -0.339742
   8 N :   -0.135158
   9 C :    0.195399
  10 S :   -0.438388
  11 N :   -0.218463
  12 C :    0.077463
  13 C :    0.027716
  14 C :   -0.215786
  15 C :   -0.135500
  16 C :   -0.275588
  17 C :    0.320900
  18 O :   -0.357371
  19 C :   -0.273059
  20 H :    0.126365
  21 H :    0.114487
  22 H :    0.110235
  23 H :    0.126680
  24 H :    0.084631
  25 H :    0.140688
  26 H :    0.136313
  27 H :    0.121675
  28 H :    0.197418
  29 H :    0.200400
  30 H :    0.165288
  31 H :    0.176397
  32 H :    0.164565
  33 H :    0.131601
  34 H :    0.240859
  35 H :    0.178788
Sum of atomic charges:   -0.0000000

LOEWDIN ATOMIC CHARGES
----------------------
   0 C :    0.106140
   1 C :   -0.018707
   2 O :    0.292370
   3 C :   -0.415810
   4 O :    0.124199
   5 C :   -0.082931
   6 C :   -0.086347
   7 C :    0.123046
   8 N :    0.403650
   9 C :   -0.460105
  10 S :   -0.035819
  11 N :    0.397909
  12 C :   -0.043462
  13 C :   -0.041991
  14 C :    0.020157
  15 C :    0.042353
  16 C :   -0.001542
  17 C :   -0.192988
  18 O :    0.395103
  19 C :    0.027564
  20 H :   -0.018985
  21 H :   -0.023997
  22 H :   -0.034487
  23 H :   -0.019925
  24 H :   -0.039307
  25 H :   -0.008169
  26 H :   -0.010192
  27 H :   -0.019456
  28 H :   -0.056703
  29 H :   -0.063012
  30 H :   -0.002353
  31 H :   -0.022729
  32 H :   -0.019149
  33 H :   -0.035163
  34 H :   -0.153618
  35 H :   -0.025545

  Mayer bond orders larger than 0.100000
B(  0-C ,  1-C ) :   0.9566 B(  0-C , 20-H ) :   0.9675 B(  0-C , 21-H ) :   0.9774
B(  0-C , 22-H ) :   0.9721 B(  1-C ,  2-O ) :   0.9017 B(  1-C , 23-H ) :   0.9825
B(  1-C , 24-H ) :   0.9735 B(  2-O ,  3-C ) :   1.1626 B(  3-C ,  4-O ) :   2.0722
B(  3-C ,  5-C ) :   0.9464 B(  5-C ,  6-C ) :   1.6685 B(  5-C , 12-C ) :   0.9526
B(  6-C ,  7-C ) :   0.9431 B(  6-C ,  8-N ) :   1.1217 B(  7-C , 25-H ) :   0.9749
B(  7-C , 26-H ) :   0.9724 B(  7-C , 27-H ) :   0.9659 B(  8-N ,  9-C ) :   1.1902
B(  8-N , 28-H ) :   0.9519 B(  9-C , 10-S ) :   1.6117 B(  9-C , 11-N ) :   1.2933
B( 11-N , 12-C ) :   0.9868 B( 11-N , 29-H ) :   0.9493 B( 12-C , 13-C ) :   0.9521
B( 12-C , 30-H ) :   0.9963 B( 13-C , 14-C ) :   1.3865 B( 13-C , 19-C ) :   1.3389
B( 14-C , 15-C ) :   1.3989 B( 14-C , 31-H ) :   0.9575 B( 15-C , 16-C ) :   1.3594
B( 15-C , 32-H ) :   0.9699 B( 16-C , 17-C ) :   1.3311 B( 16-C , 33-H ) :   0.9848
B( 17-C , 18-O ) :   1.1108 B( 17-C , 19-C ) :   1.3654 B( 18-O , 34-H ) :   0.9798
B( 19-C , 35-H ) :   0.9583

MP2 TOTAL ENERGY:    -1274.332968659 Eh
FINAL SINGLE POINT ENERGY     -1274.332968658715

DIPOLE MOMENT
-------------
                                X             Y             Z
Electronic contribution:      9.12464       6.92435       6.22494
Nuclear contribution   :    -10.68612      -7.89741      -6.79889
                        -----------------------------------------
Total Dipole Moment    :     -1.56147      -0.97306      -0.57395
                        -----------------------------------------
Magnitude (a.u.)       :      1.92729
Magnitude (Debye)      :      4.89879

Rotational constants in cm-1:     0.011540     0.009724     0.006697
Rotational constants in MHz :   345.964560   291.530626   200.773012

                             ****ORCA TERMINATED NORMALLY****
TOTAL RUN TIME: 0 days 1 hours 49 minutes 49 seconds 355 msec
