                         Program Version 4.2.0 -  RELEASE  -
|  1> ! ri-mp2 cc-pvtz cc-pvtz/c TightSCF  NoKeepInts
|  2>
|  3> %scf
|  4>   MaxCore 4096
|  5> end
|  6> *xyz  0  1
|  7>     C       15.8618371   12.9643649   16.4574660
|  8>     C       15.8277371   14.3478942   15.7865010
|  9>     O       16.4979203   15.2610770   16.6729138
| 10>     C       16.0512487   16.5464767   16.8124987
| 11>     O       15.0417653   16.9501201   16.2601618
| 12>     C       17.0455342   17.4233082   17.5231523
| 13>     C       16.8910738   18.7678916   17.6270626
| 14>     C       15.7538047   19.6056343   17.0826621
| 15>     N       17.8635303   19.5378428   18.2722569
| 16>     C       19.0509480   19.0575469   18.7562056
| 17>     S       20.1870171   20.0524413   19.4310388
| 18>     N       19.2519881   17.7049105   18.6526461
| 19>     C       18.2546236   16.7305727   18.1730618
| 20>     C       17.8319574   15.8138468   19.3174997
| 21>     C       18.1214785   14.4370540   19.2741588
| 22>     C       17.7285540   13.5901871   20.3241584
| 23>     C       17.0433919   14.1244608   21.4287052
| 24>     C       16.7569108   15.4956825   21.4770407
| 25>     O       16.0956141   16.0145165   22.5422094
| 26>     C       17.1486747   16.3358535   20.4302260
| 27>     H       16.8963478   12.6320750   16.6074354
| 28>     H       15.3478638   12.2216683   15.8353045
| 29>     H       15.3643049   12.9980379   17.4350979
| 30>     H       16.3266981   14.3238642   14.8091197
| 31>     H       14.7770516   14.6312879   15.6357401
| 32>     H       15.8578015   20.6723402   17.3130941
| 33>     H       14.7950910   19.2700746   17.4985180
| 34>     H       15.6895891   19.5066168   15.9916057
| 35>     H       17.7334335   20.5332770   18.3571919
| 36>     H       20.1196102   17.3749686   19.0554248
| 37>     H       18.7448989   16.1202639   17.4017276
| 38>     H       18.6444500   14.0203381   18.4176877
| 39>     H       17.9535672   12.5261325   20.2792936
| 40>     H       16.7375464   13.4745834   22.2419055
| 41>     H       15.9304053   15.2896900   23.1635525
| 42>     H       16.9227309   17.3950992   20.4896754
| 43> *
| 44>
| 45>                          ****END OF INPUT****

CARTESIAN COORDINATES (ANGSTROEM)
---------------------------------
  C     15.861837   12.964365   16.457466
  C     15.827737   14.347894   15.786501
  O     16.497920   15.261077   16.672914
  C     16.051249   16.546477   16.812499
  O     15.041765   16.950120   16.260162
  C     17.045534   17.423308   17.523152
  C     16.891074   18.767892   17.627063
  C     15.753805   19.605634   17.082662
  N     17.863530   19.537843   18.272257
  C     19.050948   19.057547   18.756206
  S     20.187017   20.052441   19.431039
  N     19.251988   17.704911   18.652646
  C     18.254624   16.730573   18.173062
  C     17.831957   15.813847   19.317500
  C     18.121478   14.437054   19.274159
  C     17.728554   13.590187   20.324158
  C     17.043392   14.124461   21.428705
  C     16.756911   15.495682   21.477041
  O     16.095614   16.014516   22.542209
  C     17.148675   16.335853   20.430226
  H     16.896348   12.632075   16.607435
  H     15.347864   12.221668   15.835304
  H     15.364305   12.998038   17.435098
  H     16.326698   14.323864   14.809120
  H     14.777052   14.631288   15.635740
  H     15.857801   20.672340   17.313094
  H     14.795091   19.270075   17.498518
  H     15.689589   19.506617   15.991606
  H     17.733433   20.533277   18.357192
  H     20.119610   17.374969   19.055425
  H     18.744899   16.120264   17.401728
  H     18.644450   14.020338   18.417688
  H     17.953567   12.526132   20.279294
  H     16.737546   13.474583   22.241906
  H     15.930405   15.289690   23.163552
  H     16.922731   17.395099   20.489675

 Total Charge           Charge          ....    0
 Multiplicity           Mult            ....    1
 Number of Electrons    NEL             ....  154
 Basis Dimension        Dim             ....  828

ORBITAL ENERGIES
----------------

  NO   OCC          E(Eh)            E(eV)
   0   2.0000     -91.888400     -2500.4105
   1   2.0000     -20.602394      -560.6196
   2   2.0000     -20.595219      -560.4244
   3   2.0000     -20.541700      -558.9681
   4   2.0000     -15.628485      -425.2727
   5   2.0000     -15.607753      -424.7086
   6   2.0000     -11.395369      -310.0838
   7   2.0000     -11.383492      -309.7606
   8   2.0000     -11.335459      -308.4535
   9   2.0000     -11.312224      -307.8213
  10   2.0000     -11.308041      -307.7074
  11   2.0000     -11.296412      -307.3910
  12   2.0000     -11.258828      -306.3683
  13   2.0000     -11.258200      -306.3512
  14   2.0000     -11.253571      -306.2252
  15   2.0000     -11.251548      -306.1702
  16   2.0000     -11.241982      -305.9099
  17   2.0000     -11.237490      -305.7877
  18   2.0000     -11.237025      -305.7750
  19   2.0000     -11.229829      -305.5792
  20   2.0000      -8.893468      -242.0036
  21   2.0000      -6.575044      -178.9161
  22   2.0000      -6.573038      -178.8615
  23   2.0000      -6.572453      -178.8455
  24   2.0000      -1.451841       -39.5066
  25   2.0000      -1.414897       -38.5013
  26   2.0000      -1.355110       -36.8744
  27   2.0000      -1.339485       -36.4492
  28   2.0000      -1.237922       -33.6856
  29   2.0000      -1.156532       -31.4708
  30   2.0000      -1.119797       -30.4712
  31   2.0000      -1.043262       -28.3886
  32   2.0000      -1.039579       -28.2884
  33   2.0000      -1.013813       -27.5872
  34   2.0000      -0.995108       -27.0783
  35   2.0000      -0.983905       -26.7734
  36   2.0000      -0.921725       -25.0814
  37   2.0000      -0.889458       -24.2034
  38   2.0000      -0.846197       -23.0262
  39   2.0000      -0.836427       -22.7603
  40   2.0000      -0.832802       -22.6617
  41   2.0000      -0.817308       -22.2401
  42   2.0000      -0.765152       -20.8208
  43   2.0000      -0.731074       -19.8935
  44   2.0000      -0.721403       -19.6304
  45   2.0000      -0.694934       -18.9101
  46   2.0000      -0.688425       -18.7330
  47   2.0000      -0.679823       -18.4989
  48   2.0000      -0.671304       -18.2671
  49   2.0000      -0.664267       -18.0756
  50   2.0000      -0.645860       -17.5748
  51   2.0000      -0.643598       -17.5132
  52   2.0000      -0.634193       -17.2573
  53   2.0000      -0.605489       -16.4762
  54   2.0000      -0.601523       -16.3683
  55   2.0000      -0.597818       -16.2674
  56   2.0000      -0.595787       -16.2122
  57   2.0000      -0.577677       -15.7194
  58   2.0000      -0.570149       -15.5145
  59   2.0000      -0.566984       -15.4284
  60   2.0000      -0.562842       -15.3157
  61   2.0000      -0.548184       -14.9168
  62   2.0000      -0.537565       -14.6279
  63   2.0000      -0.527474       -14.3533
  64   2.0000      -0.523932       -14.2569
  65   2.0000      -0.512772       -13.9532
  66   2.0000      -0.500980       -13.6324
  67   2.0000      -0.497132       -13.5276
  68   2.0000      -0.484597       -13.1866
  69   2.0000      -0.462970       -12.5981
  70   2.0000      -0.459140       -12.4938
  71   2.0000      -0.448071       -12.1926
  72   2.0000      -0.353747        -9.6260
  73   2.0000      -0.348431        -9.4813
  74   2.0000      -0.327724        -8.9178
  75   2.0000      -0.319853        -8.7036
  76   2.0000      -0.315389        -8.5822
  77   0.0000       0.076497         2.0816
  78   0.0000       0.107723         2.9313
  79   0.0000       0.124491         3.3876
  80   0.0000       0.132986         3.6187
  81   0.0000       0.136946         3.7265

MULLIKEN ATOMIC CHARGES
-----------------------
   0 C :   -0.279090
   1 C :    0.028828
   2 O :   -0.344872
   3 C :    0.471953
   4 O :   -0.433327
   5 C :   -0.222597
   6 C :    0.148322
   7 C :   -0.273567
   8 N :   -0.120206
   9 C :    0.209878
  10 S :   -0.440501
  11 N :   -0.203600
  12 C :    0.045932
  13 C :    0.063530
  14 C :   -0.179345
  15 C :   -0.131513
  16 C :   -0.278203
  17 C :    0.315943
  18 O :   -0.356893
  19 C :   -0.268164
  20 H :    0.088065
  21 H :    0.102754
  22 H :    0.106489
  23 H :    0.090812
  24 H :    0.115763
  25 H :    0.094610
  26 H :    0.131415
  27 H :    0.131441
  28 H :    0.197330
  29 H :    0.194572
  30 H :    0.149456
  31 H :    0.150356
  32 H :    0.159593
  33 H :    0.129596
  34 H :    0.240421
  35 H :    0.164816
Sum of atomic charges:   -0.0000000

LOEWDIN ATOMIC CHARGES
----------------------
   0 C :    0.104783
   1 C :   -0.012546
   2 O :    0.309860
   3 C :   -0.411712
   4 O :    0.095873
   5 C :   -0.094329
   6 C :   -0.059256
   7 C :    0.131326
   8 N :    0.406398
   9 C :   -0.456962
  10 S :   -0.036076
  11 N :    0.396662
  12 C :   -0.053272
  13 C :   -0.040028
  14 C :    0.016615
  15 C :    0.039892
  16 C :   -0.001066
  17 C :   -0.189817
  18 O :    0.394900
  19 C :    0.031659
  20 H :   -0.031572
  21 H :   -0.025373
  22 H :   -0.023565
  23 H :   -0.031622
  24 H :   -0.027504
  25 H :   -0.023532
  26 H :   -0.004578
  27 H :   -0.004072
  28 H :   -0.057654
  29 H :   -0.064454
  30 H :   -0.012492
  31 H :   -0.031424
  32 H :   -0.021708
  33 H :   -0.035601
  34 H :   -0.154144
  35 H :   -0.023609

  Mayer bond orders larger than 0.100000
B(  0-C ,  1-C ) :   0.9732 B(  0-C , 20-H ) :   0.9791 B(  0-C , 21-H ) :   0.9778
B(  0-C , 22-H ) :   0.9745 B(  1-C ,  2-O ) :   0.8973 B(  1-C , 23-H ) :   0.9807
B(  1-C , 24-H ) :   0.9764 B(  2-O ,  3-C ) :   1.1748 B(  3-C ,  4-O ) :   1.9747
B(  3-C ,  5-C ) :   1.0570 B(  5-C ,  6-C ) :   1.6545 B(  5-C , 12-C ) :   0.9714
B(  6-C ,  7-C ) :   0.9678 B(  6-C ,  8-N ) :   1.1628 B(  7-C , 25-H ) :   0.9902
B(  7-C , 26-H ) :   0.9616 B(  7-C , 27-H ) :   0.9595 B(  8-N ,  9-C ) :   1.1834
B(  8-N , 28-H ) :   0.9479 B(  9-C , 10-S ) :   1.6076 B(  9-C , 11-N ) :   1.3048
B( 11-N , 12-C ) :   0.9893 B( 11-N , 29-H ) :   0.9514 B( 12-C , 13-C ) :   0.9373
B( 12-C , 30-H ) :   1.0040 B( 13-C , 14-C ) :   1.3589 B( 13-C , 19-C ) :   1.3801
B( 14-C , 15-C ) :   1.3912 B( 14-C , 31-H ) :   0.9701 B( 15-C , 16-C ) :   1.3641
B( 15-C , 32-H ) :   0.9704 B( 16-C , 17-C ) :   1.3312 B( 16-C , 33-H ) :   0.9853
B( 17-C , 18-O ) :   1.1094 B( 17-C , 19-C ) :   1.3738 B( 18-O , 34-H ) :   0.9801
B( 19-C , 35-H ) :   0.9583

MP2 TOTAL ENERGY:    -1274.349126762 Eh
FINAL SINGLE POINT ENERGY     -1274.349126761931

DIPOLE MOMENT
-------------
                                X             Y             Z
Electronic contribution:      8.45697      12.38533       6.87183
Nuclear contribution   :     -9.38693     -14.16465      -7.24310
                        -----------------------------------------
Total Dipole Moment    :     -0.92996      -1.77932      -0.37127
                        -----------------------------------------
Magnitude (a.u.)       :      2.04173
Magnitude (Debye)      :      5.18966

Rotational constants in cm-1:     0.011501     0.008557     0.006094
Rotational constants in MHz :   344.799682   256.540531   182.689868

                             ****ORCA TERMINATED NORMALLY****
TOTAL RUN TIME: 0 days 1 hours 37 minutes 44 seconds 562 msec
