                         Program Version 4.2.0 -  RELEASE  -
|  1> ! ri-mp2 cc-pvtz cc-pvtz/c TightSCF  NoKeepInts
|  2>
|  3> %scf
|  4>   MaxCore 4096
|  5> end
|  6> *xyz  0  1
|  7>     C       15.4278882   13.7967727   16.5291341
|  8>     C       15.2049753   15.2690250   16.1221856
|  9>     O       16.4251440   15.9934243   15.8310909
| 10>     C       17.5760051   15.8325423   16.5511185
| 11>     O       18.1483438   14.7611370   16.6568541
| 12>     C       17.8959295   16.9974949   17.4403537
| 13>     C       17.5049409   18.2773948   17.2104302
| 14>     C       16.7287108   18.8123120   16.0247006
| 15>     N       17.8864123   19.2896848   18.0967455
| 16>     C       18.7476531   19.1270813   19.1497158
| 17>     S       19.2249665   20.4019888   20.0889187
| 18>     N       19.1919226   17.8508041   19.3863153
| 19>     C       18.7101587   16.6438467   18.6885294
| 20>     C       17.8897733   15.7683065   19.6321837
| 21>     C       18.2221103   14.4137778   19.8180885
| 22>     C       17.4579855   13.5989112   20.6700189
| 23>     C       16.3502069   14.1420871   21.3425891
| 24>     C       16.0133188   15.4896973   21.1571784
| 25>     O       14.9386343   16.0150228   21.7976272
| 26>     C       16.7753297   16.2981123   20.3079513
| 27>     H       16.0460895   13.2755383   15.7871736
| 28>     H       14.4679849   13.2715672   16.5999015
| 29>     H       15.9184238   13.7247914   17.5085555
| 30>     H       14.5527351   15.3053113   15.2401792
| 31>     H       14.6771916   15.7739276   16.9419112
| 32>     H       17.1141616   18.3962596   15.0852509
| 33>     H       16.7918521   19.9039345   15.9384276
| 34>     H       15.6678284   18.5449082   16.1021093
| 35>     H       17.5730162   20.2342811   17.9396817
| 36>     H       19.8024163   17.7535810   20.1875021
| 37>     H       19.5914734   16.0719558   18.3634059
| 38>     H       19.0661996   13.9861094   19.2822073
| 39>     H       17.7224312   12.5509513   20.7998596
| 40>     H       15.7560863   13.5155340   21.9994746
| 41>     H       14.5803736   15.3249889   22.3760800
| 42>     H       16.4983268   17.3389368   20.1805505
| 43> *
| 44>
| 45>                          ****END OF INPUT****

CARTESIAN COORDINATES (ANGSTROEM)
---------------------------------
  C     15.427888   13.796773   16.529134
  C     15.204975   15.269025   16.122186
  O     16.425144   15.993424   15.831091
  C     17.576005   15.832542   16.551119
  O     18.148344   14.761137   16.656854
  C     17.895929   16.997495   17.440354
  C     17.504941   18.277395   17.210430
  C     16.728711   18.812312   16.024701
  N     17.886412   19.289685   18.096746
  C     18.747653   19.127081   19.149716
  S     19.224967   20.401989   20.088919
  N     19.191923   17.850804   19.386315
  C     18.710159   16.643847   18.688529
  C     17.889773   15.768306   19.632184
  C     18.222110   14.413778   19.818089
  C     17.457985   13.598911   20.670019
  C     16.350207   14.142087   21.342589
  C     16.013319   15.489697   21.157178
  O     14.938634   16.015023   21.797627
  C     16.775330   16.298112   20.307951
  H     16.046090   13.275538   15.787174
  H     14.467985   13.271567   16.599902
  H     15.918424   13.724791   17.508555
  H     14.552735   15.305311   15.240179
  H     14.677192   15.773928   16.941911
  H     17.114162   18.396260   15.085251
  H     16.791852   19.903934   15.938428
  H     15.667828   18.544908   16.102109
  H     17.573016   20.234281   17.939682
  H     19.802416   17.753581   20.187502
  H     19.591473   16.071956   18.363406
  H     19.066200   13.986109   19.282207
  H     17.722431   12.550951   20.799860
  H     15.756086   13.515534   21.999475
  H     14.580374   15.324989   22.376080
  H     16.498327   17.338937   20.180550

 Total Charge           Charge          ....    0
 Multiplicity           Mult            ....    1
 Number of Electrons    NEL             ....  154
 Basis Dimension        Dim             ....  828

ORBITAL ENERGIES
----------------

  NO   OCC          E(Eh)            E(eV)
   0   2.0000     -91.888838     -2500.4224
   1   2.0000     -20.595507      -560.4322
   2   2.0000     -20.587383      -560.2112
   3   2.0000     -20.551396      -559.2319
   4   2.0000     -15.628742      -425.2797
   5   2.0000     -15.607973      -424.7145
   6   2.0000     -11.396242      -310.1075
   7   2.0000     -11.384067      -309.7762
   8   2.0000     -11.335370      -308.4511
   9   2.0000     -11.311717      -307.8075
  10   2.0000     -11.307157      -307.6834
  11   2.0000     -11.306092      -307.6544
  12   2.0000     -11.259647      -306.3906
  13   2.0000     -11.259307      -306.3813
  14   2.0000     -11.257153      -306.3227
  15   2.0000     -11.251726      -306.1750
  16   2.0000     -11.241413      -305.8944
  17   2.0000     -11.237450      -305.7866
  18   2.0000     -11.234309      -305.7011
  19   2.0000     -11.222457      -305.3786
  20   2.0000      -8.893908      -242.0156
  21   2.0000      -6.575487      -178.9281
  22   2.0000      -6.573478      -178.8734
  23   2.0000      -6.572893      -178.8575
  24   2.0000      -1.445954       -39.3464
  25   2.0000      -1.415276       -38.5116
  26   2.0000      -1.356598       -36.9149
  27   2.0000      -1.339804       -36.4579
  28   2.0000      -1.237864       -33.6840
  29   2.0000      -1.155827       -31.4517
  30   2.0000      -1.120575       -30.4924
  31   2.0000      -1.043616       -28.3982
  32   2.0000      -1.032316       -28.0907
  33   2.0000      -1.013301       -27.5733
  34   2.0000      -0.999062       -27.1859
  35   2.0000      -0.984254       -26.7829
  36   2.0000      -0.923315       -25.1247
  37   2.0000      -0.892060       -24.2742
  38   2.0000      -0.849413       -23.1137
  39   2.0000      -0.838402       -22.8141
  40   2.0000      -0.831837       -22.6354
  41   2.0000      -0.822744       -22.3880
  42   2.0000      -0.744329       -20.2542
  43   2.0000      -0.727956       -19.8087
  44   2.0000      -0.726429       -19.7671
  45   2.0000      -0.693460       -18.8700
  46   2.0000      -0.684977       -18.6392
  47   2.0000      -0.679480       -18.4896
  48   2.0000      -0.673827       -18.3358
  49   2.0000      -0.666612       -18.1394
  50   2.0000      -0.647882       -17.6298
  51   2.0000      -0.645573       -17.5669
  52   2.0000      -0.636142       -17.3103
  53   2.0000      -0.611367       -16.6361
  54   2.0000      -0.604070       -16.4376
  55   2.0000      -0.601917       -16.3790
  56   2.0000      -0.599031       -16.3005
  57   2.0000      -0.576673       -15.6921
  58   2.0000      -0.573927       -15.6173
  59   2.0000      -0.568302       -15.4643
  60   2.0000      -0.557326       -15.1656
  61   2.0000      -0.547661       -14.9026
  62   2.0000      -0.536312       -14.5938
  63   2.0000      -0.526033       -14.3141
  64   2.0000      -0.519239       -14.1292
  65   2.0000      -0.511520       -13.9192
  66   2.0000      -0.499473       -13.5914
  67   2.0000      -0.493483       -13.4284
  68   2.0000      -0.481121       -13.0920
  69   2.0000      -0.464667       -12.6442
  70   2.0000      -0.455417       -12.3925
  71   2.0000      -0.448043       -12.1919
  72   2.0000      -0.354438        -9.6447
  73   2.0000      -0.347643        -9.4598
  74   2.0000      -0.328119        -8.9286
  75   2.0000      -0.318786        -8.6746
  76   2.0000      -0.315927        -8.5968
  77   0.0000       0.072837         1.9820
  78   0.0000       0.105992         2.8842
  79   0.0000       0.120561         3.2806
  80   0.0000       0.132790         3.6134
  81   0.0000       0.138635         3.7725

MULLIKEN ATOMIC CHARGES
-----------------------
   0 C :   -0.285111
   1 C :    0.041214
   2 O :   -0.380370
   3 C :    0.451410
   4 O :   -0.400080
   5 C :   -0.191833
   6 C :    0.146872
   7 C :   -0.283604
   8 N :   -0.124150
   9 C :    0.202799
  10 S :   -0.439475
  11 N :   -0.202444
  12 C :    0.056864
  13 C :    0.048670
  14 C :   -0.174566
  15 C :   -0.132656
  16 C :   -0.279722
  17 C :    0.312230
  18 O :   -0.358608
  19 C :   -0.278707
  20 H :    0.111563
  21 H :    0.095596
  22 H :    0.114732
  23 H :    0.104814
  24 H :    0.083633
  25 H :    0.129813
  26 H :    0.104576
  27 H :    0.121916
  28 H :    0.197145
  29 H :    0.194615
  30 H :    0.154727
  31 H :    0.157379
  32 H :    0.161584
  33 H :    0.130373
  34 H :    0.240806
  35 H :    0.167995
Sum of atomic charges:   -0.0000000

LOEWDIN ATOMIC CHARGES
----------------------
   0 C :    0.105913
   1 C :   -0.015057
   2 O :    0.284679
   3 C :   -0.413996
   4 O :    0.127821
   5 C :   -0.094342
   6 C :   -0.069957
   7 C :    0.125555
   8 N :    0.404513
   9 C :   -0.458080
  10 S :   -0.036084
  11 N :    0.397391
  12 C :   -0.046278
  13 C :   -0.041008
  14 C :    0.021448
  15 C :    0.040868
  16 C :   -0.002266
  17 C :   -0.193555
  18 O :    0.393316
  19 C :    0.027690
  20 H :   -0.022774
  21 H :   -0.027785
  22 H :   -0.024917
  23 H :   -0.023537
  24 H :   -0.034603
  25 H :   -0.006758
  26 H :   -0.020180
  27 H :   -0.010788
  28 H :   -0.058810
  29 H :   -0.063883
  30 H :   -0.005091
  31 H :   -0.024611
  32 H :   -0.020489
  33 H :   -0.035727
  34 H :   -0.154162
  35 H :   -0.024456

  Mayer bond orders larger than 0.100000
B(  0-C ,  1-C ) :   0.9824 B(  0-C , 20-H ) :   0.9730 B(  0-C , 21-H ) :   0.9734
B(  0-C , 22-H ) :   0.9688 B(  1-C ,  2-O ) :   0.9030 B(  1-C , 23-H ) :   0.9790
B(  1-C , 24-H ) :   0.9735 B(  2-O ,  3-C ) :   1.0873 B(  3-C ,  4-O ) :   2.0326
B(  3-C ,  5-C ) :   1.0244 B(  5-C ,  6-C ) :   1.6612 B(  5-C , 12-C ) :   0.9639
B(  6-C ,  7-C ) :   0.9522 B(  6-C ,  8-N ) :   1.1432 B(  7-C , 25-H ) :   0.9672
B(  7-C , 26-H ) :   0.9893 B(  7-C , 27-H ) :   0.9657 B(  8-N ,  9-C ) :   1.1828
B(  8-N , 28-H ) :   0.9491 B(  9-C , 10-S ) :   1.6104 B(  9-C , 11-N ) :   1.3020
B( 11-N , 12-C ) :   0.9913 B( 11-N , 29-H ) :   0.9516 B( 12-C , 13-C ) :   0.9420
B( 12-C , 30-H ) :   0.9990 B( 13-C , 14-C ) :   1.3757 B( 13-C , 19-C ) :   1.3676
B( 14-C , 15-C ) :   1.3931 B( 14-C , 31-H ) :   0.9641 B( 15-C , 16-C ) :   1.3624
B( 15-C , 32-H ) :   0.9708 B( 16-C , 17-C ) :   1.3315 B( 16-C , 33-H ) :   0.9852
B( 17-C , 18-O ) :   1.1094 B( 17-C , 19-C ) :   1.3737 B( 18-O , 34-H ) :   0.9799
B( 19-C , 35-H ) :   0.9578

MP2 TOTAL ENERGY:    -1274.330315901 Eh
FINAL SINGLE POINT ENERGY     -1274.330315900613

DIPOLE MOMENT
-------------
                                X             Y             Z
Electronic contribution:     10.17076      10.12310       7.40843
Nuclear contribution   :    -11.75110     -11.26660      -8.06934
                        -----------------------------------------
Total Dipole Moment    :     -1.58034      -1.14350      -0.66090
                        -----------------------------------------
Magnitude (a.u.)       :      2.05958
Magnitude (Debye)      :      5.23504

Rotational constants in cm-1:     0.011827     0.009121     0.006410
Rotational constants in MHz :   354.550011   273.445689   192.178086

                             ****ORCA TERMINATED NORMALLY****
TOTAL RUN TIME: 0 days 1 hours 38 minutes 19 seconds 233 msec
