                         Program Version 4.2.0 -  RELEASE  -
|  1> ! ri-mp2 cc-pvtz cc-pvtz/c TightSCF  NoKeepInts
|  2>
|  3> %scf
|  4>   MaxCore 4096
|  5> end
|  6> *xyz  0  1
|  7>     C       16.1759776   13.0018122   17.2006544
|  8>     C       15.8504792   14.4224744   16.7089307
|  9>     O       17.0806086   15.0518852   16.3127385
| 10>     C       17.0442282   16.3981710   16.0972432
| 11>     O       16.2691653   16.8571656   15.2771579
| 12>     C       17.6559167   17.2131838   17.2053940
| 13>     C       17.6042472   18.5709846   17.2187824
| 14>     C       16.9225261   19.4774294   16.2157983
| 15>     N       18.2826444   19.2866213   18.2104407
| 16>     C       19.1904464   18.7403443   19.0782453
| 17>     S       20.0993846   19.6711864   20.0997264
| 18>     N       19.3230664   17.3758325   19.0390270
| 19>     C       18.4112292   16.4683583   18.3198518
| 20>     C       17.4904493   15.7998999   19.3373415
| 21>     C       17.8894770   14.5986924   19.9528065
| 22>     C       17.0680602   13.9732906   20.9057554
| 23>     C       15.8403081   14.5593330   21.2562064
| 24>     C       15.4481938   15.7662837   20.6622932
| 25>     O       14.2671600   16.3397213   21.0038014
| 26>     C       16.2674413   16.3864784   19.7139595
| 27>     H       16.5948929   12.4008898   16.3840781
| 28>     H       15.2680179   12.5038861   17.5616273
| 29>     H       16.9029956   13.0216625   18.0183798
| 30>     H       15.1533394   14.3822394   15.8610468
| 31>     H       15.3731355   14.9868573   17.5204477
| 32>     H       17.3070269   19.2933062   15.2044744
| 33>     H       17.0651486   20.5424910   16.4330667
| 34>     H       15.8421225   19.2854022   16.1944874
| 35>     H       18.2040077   20.2905852   18.2418503
| 36>     H       19.9828908   16.9993431   19.7070600
| 37>     H       19.0220950   15.6868264   17.8457189
| 38>     H       18.8402402   14.1443531   19.6866485
| 39>     H       17.3849644   13.0415103   21.3714282
| 40>     H       15.2027589   14.0809294   21.9925828
| 41>     H       13.8762552   15.8041877   21.7108409
| 42>     H       15.9460990   17.3283820   19.2841077
| 43> *
| 44>
| 45>                          ****END OF INPUT****

CARTESIAN COORDINATES (ANGSTROEM)
---------------------------------
  C     16.175978   13.001812   17.200654
  C     15.850479   14.422474   16.708931
  O     17.080609   15.051885   16.312738
  C     17.044228   16.398171   16.097243
  O     16.269165   16.857166   15.277158
  C     17.655917   17.213184   17.205394
  C     17.604247   18.570985   17.218782
  C     16.922526   19.477429   16.215798
  N     18.282644   19.286621   18.210441
  C     19.190446   18.740344   19.078245
  S     20.099385   19.671186   20.099726
  N     19.323066   17.375832   19.039027
  C     18.411229   16.468358   18.319852
  C     17.490449   15.799900   19.337342
  C     17.889477   14.598692   19.952807
  C     17.068060   13.973291   20.905755
  C     15.840308   14.559333   21.256206
  C     15.448194   15.766284   20.662293
  O     14.267160   16.339721   21.003801
  C     16.267441   16.386478   19.713960
  H     16.594893   12.400890   16.384078
  H     15.268018   12.503886   17.561627
  H     16.902996   13.021662   18.018380
  H     15.153339   14.382239   15.861047
  H     15.373136   14.986857   17.520448
  H     17.307027   19.293306   15.204474
  H     17.065149   20.542491   16.433067
  H     15.842123   19.285402   16.194487
  H     18.204008   20.290585   18.241850
  H     19.982891   16.999343   19.707060
  H     19.022095   15.686826   17.845719
  H     18.840240   14.144353   19.686649
  H     17.384964   13.041510   21.371428
  H     15.202759   14.080929   21.992583
  H     13.876255   15.804188   21.710841
  H     15.946099   17.328382   19.284108

 Total Charge           Charge          ....    0
 Multiplicity           Mult            ....    1
 Number of Electrons    NEL             ....  154
 Basis Dimension        Dim             ....  828

ORBITAL ENERGIES
----------------

  NO   OCC          E(Eh)            E(eV)
   0   2.0000     -91.890616     -2500.4708
   1   2.0000     -20.602390      -560.6195
   2   2.0000     -20.584467      -560.1318
   3   2.0000     -20.545539      -559.0725
   4   2.0000     -15.631579      -425.3569
   5   2.0000     -15.609683      -424.7611
   6   2.0000     -11.392108      -309.9950
   7   2.0000     -11.385332      -309.8106
   8   2.0000     -11.338279      -308.5302
   9   2.0000     -11.319812      -308.0277
  10   2.0000     -11.312089      -307.8176
  11   2.0000     -11.293423      -307.3097
  12   2.0000     -11.265664      -306.5543
  13   2.0000     -11.261455      -306.4398
  14   2.0000     -11.259979      -306.3996
  15   2.0000     -11.253660      -306.2277
  16   2.0000     -11.248382      -306.0840
  17   2.0000     -11.243759      -305.9582
  18   2.0000     -11.243155      -305.9418
  19   2.0000     -11.223909      -305.4181
  20   2.0000      -8.895647      -242.0629
  21   2.0000      -6.577215      -178.9751
  22   2.0000      -6.575218      -178.9208
  23   2.0000      -6.574625      -178.9047
  24   2.0000      -1.449183       -39.4343
  25   2.0000      -1.422045       -38.6958
  26   2.0000      -1.351723       -36.7823
  27   2.0000      -1.342559       -36.5329
  28   2.0000      -1.240989       -33.7690
  29   2.0000      -1.162740       -31.6398
  30   2.0000      -1.121784       -30.5253
  31   2.0000      -1.046351       -28.4727
  32   2.0000      -1.033691       -28.1282
  33   2.0000      -1.021380       -27.7932
  34   2.0000      -0.998400       -27.1679
  35   2.0000      -0.985980       -26.8299
  36   2.0000      -0.925804       -25.1924
  37   2.0000      -0.880353       -23.9556
  38   2.0000      -0.850082       -23.1319
  39   2.0000      -0.842993       -22.9390
  40   2.0000      -0.837823       -22.7983
  41   2.0000      -0.825817       -22.4716
  42   2.0000      -0.762121       -20.7384
  43   2.0000      -0.736689       -20.0463
  44   2.0000      -0.723437       -19.6857
  45   2.0000      -0.701400       -19.0861
  46   2.0000      -0.691467       -18.8158
  47   2.0000      -0.677496       -18.4356
  48   2.0000      -0.672499       -18.2996
  49   2.0000      -0.660224       -17.9656
  50   2.0000      -0.648813       -17.6551
  51   2.0000      -0.645136       -17.5550
  52   2.0000      -0.637412       -17.3449
  53   2.0000      -0.614163       -16.7122
  54   2.0000      -0.611777       -16.6473
  55   2.0000      -0.604334       -16.4448
  56   2.0000      -0.601194       -16.3593
  57   2.0000      -0.582791       -15.8586
  58   2.0000      -0.572929       -15.5902
  59   2.0000      -0.566924       -15.4268
  60   2.0000      -0.551937       -15.0190
  61   2.0000      -0.540103       -14.6970
  62   2.0000      -0.538674       -14.6581
  63   2.0000      -0.530808       -14.4440
  64   2.0000      -0.516859       -14.0645
  65   2.0000      -0.511567       -13.9205
  66   2.0000      -0.508944       -13.8491
  67   2.0000      -0.502069       -13.6620
  68   2.0000      -0.486395       -13.2355
  69   2.0000      -0.463628       -12.6160
  70   2.0000      -0.457433       -12.4474
  71   2.0000      -0.443397       -12.0654
  72   2.0000      -0.357935        -9.7399
  73   2.0000      -0.355275        -9.6675
  74   2.0000      -0.330841        -9.0026
  75   2.0000      -0.326289        -8.8788
  76   2.0000      -0.317993        -8.6530
  77   0.0000       0.070155         1.9090
  78   0.0000       0.101143         2.7523
  79   0.0000       0.120786         3.2868
  80   0.0000       0.125903         3.4260
  81   0.0000       0.130889         3.5617

MULLIKEN ATOMIC CHARGES
-----------------------
   0 C :   -0.270036
   1 C :    0.022372
   2 O :   -0.379058
   3 C :    0.500773
   4 O :   -0.412221
   5 C :   -0.283929
   6 C :    0.158222
   7 C :   -0.267435
   8 N :   -0.124814
   9 C :    0.220609
  10 S :   -0.440261
  11 N :   -0.210353
  12 C :    0.061790
  13 C :    0.095293
  14 C :   -0.246161
  15 C :   -0.117561
  16 C :   -0.276245
  17 C :    0.324393
  18 O :   -0.357330
  19 C :   -0.277786
  20 H :    0.102305
  21 H :    0.089718
  22 H :    0.096931
  23 H :    0.124117
  24 H :    0.094277
  25 H :    0.132677
  26 H :    0.095517
  27 H :    0.131289
  28 H :    0.198022
  29 H :    0.192821
  30 H :    0.150330
  31 H :    0.157818
  32 H :    0.163797
  33 H :    0.133370
  34 H :    0.242316
  35 H :    0.174432
Sum of atomic charges:   -0.0000000

LOEWDIN ATOMIC CHARGES
----------------------
   0 C :    0.111048
   1 C :   -0.019467
   2 O :    0.288856
   3 C :   -0.419639
   4 O :    0.115380
   5 C :   -0.098152
   6 C :   -0.056264
   7 C :    0.131279
   8 N :    0.408490
   9 C :   -0.453972
  10 S :   -0.034100
  11 N :    0.395666
  12 C :   -0.053081
  13 C :   -0.033637
  14 C :    0.012427
  15 C :    0.045334
  16 C :   -0.000875
  17 C :   -0.190181
  18 O :    0.396336
  19 C :    0.030491
  20 H :   -0.027772
  21 H :   -0.024801
  22 H :   -0.032408
  23 H :   -0.028839
  24 H :   -0.035309
  25 H :   -0.003086
  26 H :   -0.023091
  27 H :   -0.005162
  28 H :   -0.057141
  29 H :   -0.066917
  30 H :   -0.007308
  31 H :   -0.031131
  32 H :   -0.019583
  33 H :   -0.034322
  34 H :   -0.152256
  35 H :   -0.026813

  Mayer bond orders larger than 0.100000
B(  0-C ,  1-C ) :   0.9744 B(  0-C , 20-H ) :   0.9792 B(  0-C , 21-H ) :   0.9772
B(  0-C , 22-H ) :   0.9724 B(  1-C ,  2-O ) :   0.8780 B(  1-C , 23-H ) :   0.9823
B(  1-C , 24-H ) :   0.9676 B(  2-O ,  3-C ) :   1.1181 B(  3-C ,  4-O ) :   2.0073
B(  3-C ,  5-C ) :   1.0617 B(  5-C ,  6-C ) :   1.6450 B(  5-C , 12-C ) :   0.9738
B(  6-C ,  7-C ) :   0.9676 B(  6-C ,  8-N ) :   1.1605 B(  7-C , 25-H ) :   0.9590
B(  7-C , 26-H ) :   0.9902 B(  7-C , 27-H ) :   0.9601 B(  8-N ,  9-C ) :   1.1837
B(  8-N , 28-H ) :   0.9478 B(  9-C , 10-S ) :   1.6022 B(  9-C , 11-N ) :   1.3063
B( 11-N , 12-C ) :   0.9526 B( 11-N , 29-H ) :   0.9523 B( 12-C , 13-C ) :   0.9553
B( 12-C , 30-H ) :   0.9991 B( 13-C , 14-C ) :   1.3432 B( 13-C , 19-C ) :   1.3532
B( 14-C , 15-C ) :   1.3903 B( 14-C , 31-H ) :   0.9731 B( 15-C , 16-C ) :   1.3658
B( 15-C , 32-H ) :   0.9689 B( 16-C , 17-C ) :   1.3319 B( 16-C , 33-H ) :   0.9838
B( 17-C , 18-O ) :   1.1143 B( 17-C , 19-C ) :   1.3618 B( 18-O , 34-H ) :   0.9787
B( 19-C , 35-H ) :   0.9581

MP2 TOTAL ENERGY:    -1274.333606260 Eh
FINAL SINGLE POINT ENERGY     -1274.333606260441

DIPOLE MOMENT
-------------
                                X             Y             Z
Electronic contribution:      8.08434      11.13419       4.03879
Nuclear contribution   :     -9.15074     -12.50136      -3.69665
                        -----------------------------------------
Total Dipole Moment    :     -1.06640      -1.36717       0.34213
                        -----------------------------------------
Magnitude (a.u.)       :      1.76732
Magnitude (Debye)      :      4.49217

Rotational constants in cm-1:     0.012371     0.008841     0.006575
Rotational constants in MHz :   370.869497   265.056841   197.109539

                             ****ORCA TERMINATED NORMALLY****
TOTAL RUN TIME: 0 days 1 hours 45 minutes 9 seconds 832 msec
