                         Program Version 5.0.0 -  RELEASE  -
|  1> ! ri-mp2 cc-pvtz cc-pvtz/c TightSCF NoKeepInts
|  2>
|  3> %scf
|  4>   MaxCore 4096
|  5> end
|  6> *xyz  0  1
|  7>     C       14.9707702   14.2452363   15.9658839
|  8>     C       16.1773343   14.2258841   16.9262637
|  9>     O       17.2518071   15.0659190   16.4458371
| 10>     C       17.0654972   16.4099993   16.2780538
| 11>     O       16.3404922   16.8474084   15.4026369
| 12>     C       17.6409416   17.2397696   17.3957872
| 13>     C       17.4221679   18.5768741   17.4935697
| 14>     C       16.5563450   19.4363647   16.5971672
| 15>     N       18.0671217   19.3216316   18.4860213
| 16>     C       19.0681446   18.8465134   19.2906920
| 17>     S       19.8936371   19.8275951   20.3354749
| 18>     N       19.3601209   17.5114262   19.1759067
| 19>     C       18.5591527   16.5377480   18.4123854
| 20>     C       17.7961560   15.6485496   19.3881768
| 21>     C       18.1974716   14.3150769   19.5946602
| 22>     C       17.4963338   13.4878237   20.4880040
| 23>     C       16.3892032   13.9994793   21.1860958
| 24>     C       15.9941865   15.3301637   20.9922904
| 25>     O       14.9270751   15.8279110   21.6658712
| 26>     C       16.6919194   16.1503498   20.1003687
| 27>     H       14.4384489   15.2030966   16.0147901
| 28>     H       14.2586916   13.4547584   16.2313479
| 29>     H       15.2957342   14.0804117   14.9308242
| 30>     H       15.8461956   14.5495499   17.9206088
| 31>     H       16.5465920   13.1962654   17.0154917
| 32>     H       15.5276418   19.0547662   16.5724539
| 33>     H       16.9348357   19.4217425   15.5669859
| 34>     H       16.5113870   20.4834148   16.9188061
| 35>     H       17.8728642   20.3064152   18.5736678
| 36>     H       20.0851172   17.1841098   19.8013041
| 37>     H       19.2589649   15.9074974   17.8453608
| 38>     H       19.0529762   13.9164058   19.0554236
| 39>     H       17.8134052   12.4572608   20.6400087
| 40>     H       15.8458775   13.3649849   21.8789098
| 41>     H       14.6177484   15.1400035   22.2745243
| 42>     H       16.3746417   17.1795932   19.9723455
| 43> *
| 44>
| 45>                          ****END OF INPUT****

CARTESIAN COORDINATES (ANGSTROEM)
---------------------------------
  C     14.970770   14.245236   15.965884
  C     16.177334   14.225884   16.926264
  O     17.251807   15.065919   16.445837
  C     17.065497   16.409999   16.278054
  O     16.340492   16.847408   15.402637
  C     17.640942   17.239770   17.395787
  C     17.422168   18.576874   17.493570
  C     16.556345   19.436365   16.597167
  N     18.067122   19.321632   18.486021
  C     19.068145   18.846513   19.290692
  S     19.893637   19.827595   20.335475
  N     19.360121   17.511426   19.175907
  C     18.559153   16.537748   18.412385
  C     17.796156   15.648550   19.388177
  C     18.197472   14.315077   19.594660
  C     17.496334   13.487824   20.488004
  C     16.389203   13.999479   21.186096
  C     15.994186   15.330164   20.992290
  O     14.927075   15.827911   21.665871
  C     16.691919   16.150350   20.100369
  H     14.438449   15.203097   16.014790
  H     14.258692   13.454758   16.231348
  H     15.295734   14.080412   14.930824
  H     15.846196   14.549550   17.920609
  H     16.546592   13.196265   17.015492
  H     15.527642   19.054766   16.572454
  H     16.934836   19.421742   15.566986
  H     16.511387   20.483415   16.918806
  H     17.872864   20.306415   18.573668
  H     20.085117   17.184110   19.801304
  H     19.258965   15.907497   17.845361
  H     19.052976   13.916406   19.055424
  H     17.813405   12.457261   20.640009
  H     15.845878   13.364985   21.878910
  H     14.617748   15.140004   22.274524
  H     16.374642   17.179593   19.972345

 Total Charge           Charge          ....    0
 Multiplicity           Mult            ....    1
 Number of Electrons    NEL             ....  154
 Basis Dimension        Dim             ....  828

ORBITAL ENERGIES
----------------

  NO   OCC          E(Eh)            E(eV)
   0   2.0000     -91.890574     -2500.4696
   1   2.0000     -20.601788      -560.6032
   2   2.0000     -20.583265      -560.0991
   3   2.0000     -20.546708      -559.1044
   4   2.0000     -15.631075      -425.3432
   5   2.0000     -15.609639      -424.7599
   6   2.0000     -11.394058      -310.0481
   7   2.0000     -11.385293      -309.8096
   8   2.0000     -11.337642      -308.5129
   9   2.0000     -11.319710      -308.0250
  10   2.0000     -11.311347      -307.7974
  11   2.0000     -11.297013      -307.4074
  12   2.0000     -11.264007      -306.5092
  13   2.0000     -11.260878      -306.4241
  14   2.0000     -11.259100      -306.3757
  15   2.0000     -11.253511      -306.2236
  16   2.0000     -11.248648      -306.0913
  17   2.0000     -11.243240      -305.9441
  18   2.0000     -11.242856      -305.9337
  19   2.0000     -11.217531      -305.2445
  20   2.0000      -8.895613      -242.0619
  21   2.0000      -6.577182      -178.9742
  22   2.0000      -6.575184      -178.9199
  23   2.0000      -6.574591      -178.9037
  24   2.0000      -1.444171       -39.2979
  25   2.0000      -1.421476       -38.6803
  26   2.0000      -1.352768       -36.8107
  27   2.0000      -1.342163       -36.5221
  28   2.0000      -1.240583       -33.7580
  29   2.0000      -1.162308       -31.6280
  30   2.0000      -1.121394       -30.5147
  31   2.0000      -1.046169       -28.4677
  32   2.0000      -1.030269       -28.0350
  33   2.0000      -1.020568       -27.7711
  34   2.0000      -0.997461       -27.1423
  35   2.0000      -0.985625       -26.8202
  36   2.0000      -0.925342       -25.1798
  37   2.0000      -0.886983       -24.1360
  38   2.0000      -0.849541       -23.1172
  39   2.0000      -0.843037       -22.9402
  40   2.0000      -0.838837       -22.8259
  41   2.0000      -0.825558       -22.4646
  42   2.0000      -0.750576       -20.4242
  43   2.0000      -0.735041       -20.0015
  44   2.0000      -0.717862       -19.5340
  45   2.0000      -0.700534       -19.0625
  46   2.0000      -0.691097       -18.8057
  47   2.0000      -0.678914       -18.4742
  48   2.0000      -0.668098       -18.1799
  49   2.0000      -0.662604       -18.0304
  50   2.0000      -0.650874       -17.7112
  51   2.0000      -0.647738       -17.6259
  52   2.0000      -0.638567       -17.3763
  53   2.0000      -0.612185       -16.6584
  54   2.0000      -0.607078       -16.5194
  55   2.0000      -0.601513       -16.3680
  56   2.0000      -0.598788       -16.2939
  57   2.0000      -0.581672       -15.8281
  58   2.0000      -0.572778       -15.5861
  59   2.0000      -0.570209       -15.5162
  60   2.0000      -0.561217       -15.2715
  61   2.0000      -0.540765       -14.7150
  62   2.0000      -0.535182       -14.5631
  63   2.0000      -0.528764       -14.3884
  64   2.0000      -0.520911       -14.1747
  65   2.0000      -0.515999       -14.0410
  66   2.0000      -0.504591       -13.7306
  67   2.0000      -0.496458       -13.5093
  68   2.0000      -0.481428       -13.1003
  69   2.0000      -0.463433       -12.6107
  70   2.0000      -0.454636       -12.3713
  71   2.0000      -0.441481       -12.0133
  72   2.0000      -0.357087        -9.7168
  73   2.0000      -0.354330        -9.6418
  74   2.0000      -0.330680        -8.9983
  75   2.0000      -0.326815        -8.8931
  76   2.0000      -0.317725        -8.6457
  77   0.0000       0.070016         1.9052
  78   0.0000       0.100700         2.7402
  79   0.0000       0.122528         3.3341
  80   0.0000       0.128716         3.5025
  81   0.0000       0.133203         3.6246

MULLIKEN ATOMIC CHARGES
-----------------------
   0 C :   -0.272152
   1 C :    0.028880
   2 O :   -0.389197
   3 C :    0.501176
   4 O :   -0.408980
   5 C :   -0.271702
   6 C :    0.159619
   7 C :   -0.269685
   8 N :   -0.124624
   9 C :    0.212714
  10 S :   -0.437398
  11 N :   -0.202338
  12 C :    0.056694
  13 C :    0.019034
  14 C :   -0.158047
  15 C :   -0.133563
  16 C :   -0.275181
  17 C :    0.308008
  18 O :   -0.356231
  19 C :   -0.250872
  20 H :    0.100746
  21 H :    0.092346
  22 H :    0.105728
  23 H :    0.102458
  24 H :    0.104473
  25 H :    0.128737
  26 H :    0.134981
  27 H :    0.094961
  28 H :    0.198317
  29 H :    0.193506
  30 H :    0.151193
  31 H :    0.149445
  32 H :    0.163474
  33 H :    0.133571
  34 H :    0.241792
  35 H :    0.168116
Sum of atomic charges:    0.0000000

LOEWDIN ATOMIC CHARGES
----------------------
   0 C :    0.104641
   1 C :   -0.019184
   2 O :    0.282702
   3 C :   -0.415452
   4 O :    0.120830
   5 C :   -0.098754
   6 C :   -0.057668
   7 C :    0.131110
   8 N :    0.407001
   9 C :   -0.456611
  10 S :   -0.033287
  11 N :    0.396451
  12 C :   -0.052978
  13 C :   -0.039015
  14 C :    0.015549
  15 C :    0.041874
  16 C :   -0.001456
  17 C :   -0.190941
  18 O :    0.396625
  19 C :    0.029262
  20 H :   -0.029408
  21 H :   -0.029681
  22 H :   -0.023372
  23 H :   -0.032255
  24 H :   -0.023436
  25 H :   -0.005610
  26 H :   -0.002978
  27 H :   -0.023266
  28 H :   -0.057359
  29 H :   -0.065079
  30 H :   -0.007849
  31 H :   -0.029130
  32 H :   -0.019904
  33 H :   -0.034389
  34 H :   -0.152629
  35 H :   -0.024352

  Mayer bond orders larger than 0.100000
B(  0-C ,  1-C ) :   0.9830 B(  0-C , 20-H ) :   0.9729 B(  0-C , 21-H ) :   0.9757
B(  0-C , 22-H ) :   0.9770 B(  1-C ,  2-O ) :   0.8865 B(  1-C , 23-H ) :   0.9666
B(  1-C , 24-H ) :   0.9810 B(  2-O ,  3-C ) :   1.0872 B(  3-C ,  4-O ) :   2.0115
B(  3-C ,  5-C ) :   1.0700 B(  5-C ,  6-C ) :   1.6503 B(  5-C , 12-C ) :   0.9696
B(  6-C ,  7-C ) :   0.9685 B(  6-C ,  8-N ) :   1.1583 B(  7-C , 25-H ) :   0.9624
B(  7-C , 26-H ) :   0.9575 B(  7-C , 27-H ) :   0.9899 B(  8-N ,  9-C ) :   1.1801
B(  8-N , 28-H ) :   0.9477 B(  9-C , 10-S ) :   1.6103 B(  9-C , 11-N ) :   1.3050
B( 11-N , 12-C ) :   0.9731 B( 11-N , 29-H ) :   0.9532 B( 12-C , 13-C ) :   0.9449
B( 12-C , 30-H ) :   1.0009 B( 13-C , 14-C ) :   1.3544 B( 13-C , 19-C ) :   1.3755
B( 14-C , 15-C ) :   1.3886 B( 14-C , 31-H ) :   0.9747 B( 15-C , 16-C ) :   1.3652
B( 15-C , 32-H ) :   0.9699 B( 16-C , 17-C ) :   1.3285 B( 16-C , 33-H ) :   0.9838
B( 17-C , 18-O ) :   1.1146 B( 17-C , 19-C ) :   1.3739 B( 18-O , 34-H ) :   0.9789
B( 19-C , 35-H ) :   0.9575

MP2 TOTAL ENERGY:    -1274.333006223 Eh
FINAL SINGLE POINT ENERGY     -1274.333006223159

DIPOLE MOMENT
-------------
                                X             Y             Z
Electronic contribution:     10.58483       9.34245       7.08100
Nuclear contribution   :    -11.62128     -10.92146      -6.87681
                        -----------------------------------------
Total Dipole Moment    :     -1.03645      -1.57900       0.20418
                        -----------------------------------------
Magnitude (a.u.)       :      1.89978
Magnitude (Debye)      :      4.82887

Rotational constants in cm-1:     0.011961     0.009086     0.006373
Rotational constants in MHz :   358.579412   272.398814   191.052999

                             ****ORCA TERMINATED NORMALLY****
TOTAL RUN TIME: 0 days 1 hours 41 minutes 33 seconds 565 msec
