                         Program Version 5.0.0 -  RELEASE  -
|  1> ! ri-mp2 cc-pvtz cc-pvtz/c TightSCF NoKeepInts
|  2>
|  3> %scf
|  4>   MaxCore 4096
|  5> end
|  6> *xyz  0  1
|  7>     C       15.9792957   13.1335653   16.6282278
|  8>     C       15.7191311   14.6459118   16.7307571
|  9>     O       16.9107953   15.3241463   16.2977558
| 10>     C       16.8520715   16.6831929   16.2035583
| 11>     O       16.0130758   17.2084851   15.4934412
| 12>     C       17.5467323   17.3927456   17.3358156
| 13>     C       17.4593751   18.7368144   17.5131272
| 14>     C       16.6550596   19.7236357   16.6937164
| 15>     N       18.2087870   19.3607611   18.5155408
| 16>     C       19.1951587   18.7512374   19.2443179
| 17>     S       20.1540079   19.5918516   20.2976994
| 18>     N       19.3571086   17.4043120   19.0427709
| 19>     C       18.4312702   16.5531501   18.2742557
| 20>     C       17.6221938   15.6995624   19.2452768
| 21>     C       17.9399065   14.3405210   19.4256948
| 22>     C       17.2009557   13.5452358   20.3175972
| 23>     C       16.1402291   14.1151708   21.0418163
| 24>     C       15.8299900   15.4717116   20.8758557
| 25>     O       14.8088019   16.0262953   21.5757828
| 26>     C       16.5656397   16.2601789   19.9858084
| 27>     H       16.8261884   12.8389777   17.2586627
| 28>     H       16.2045572   12.8514315   15.5922091
| 29>     H       15.0967865   12.5697720   16.9537033
| 30>     H       14.8724390   14.9136330   16.0837477
| 31>     H       15.4646615   14.9179865   17.7627832
| 32>     H       15.5851774   19.4837982   16.7430079
| 33>     H       16.9510512   19.6809290   15.6377369
| 34>     H       16.7772642   20.7604045   17.0284420
| 35>     H       18.1090838   20.3518809   18.6670651
| 36>     H       20.0743338   16.9767876   19.6142724
| 37>     H       19.0379250   15.8833208   17.6483246
| 38>     H       18.7595056   13.8968192   18.8665123
| 39>     H       17.4525285   12.4938745   20.4472594
| 40>     H       15.5674972   13.5053270   21.7329710
| 41>     H       14.4639162   15.3485612   22.1766668
| 42>     H       16.3144990   17.3100117   19.8818195
| 43> *
| 44>
| 45>                          ****END OF INPUT****

CARTESIAN COORDINATES (ANGSTROEM)
---------------------------------
  C     15.979296   13.133565   16.628228
  C     15.719131   14.645912   16.730757
  O     16.910795   15.324146   16.297756
  C     16.852072   16.683193   16.203558
  O     16.013076   17.208485   15.493441
  C     17.546732   17.392746   17.335816
  C     17.459375   18.736814   17.513127
  C     16.655060   19.723636   16.693716
  N     18.208787   19.360761   18.515541
  C     19.195159   18.751237   19.244318
  S     20.154008   19.591852   20.297699
  N     19.357109   17.404312   19.042771
  C     18.431270   16.553150   18.274256
  C     17.622194   15.699562   19.245277
  C     17.939906   14.340521   19.425695
  C     17.200956   13.545236   20.317597
  C     16.140229   14.115171   21.041816
  C     15.829990   15.471712   20.875856
  O     14.808802   16.026295   21.575783
  C     16.565640   16.260179   19.985808
  H     16.826188   12.838978   17.258663
  H     16.204557   12.851431   15.592209
  H     15.096786   12.569772   16.953703
  H     14.872439   14.913633   16.083748
  H     15.464661   14.917986   17.762783
  H     15.585177   19.483798   16.743008
  H     16.951051   19.680929   15.637737
  H     16.777264   20.760404   17.028442
  H     18.109084   20.351881   18.667065
  H     20.074334   16.976788   19.614272
  H     19.037925   15.883321   17.648325
  H     18.759506   13.896819   18.866512
  H     17.452528   12.493874   20.447259
  H     15.567497   13.505327   21.732971
  H     14.463916   15.348561   22.176667
  H     16.314499   17.310012   19.881819

 Total Charge           Charge          ....    0
 Multiplicity           Mult            ....    1
 Number of Electrons    NEL             ....  154
 Basis Dimension        Dim             ....  828

ORBITAL ENERGIES
----------------

  NO   OCC          E(Eh)            E(eV)
   0   2.0000     -91.890666     -2500.4722
   1   2.0000     -20.601481      -560.5948
   2   2.0000     -20.584826      -560.1416
   3   2.0000     -20.546237      -559.0915
   4   2.0000     -15.631281      -425.3488
   5   2.0000     -15.609781      -424.7637
   6   2.0000     -11.392439      -310.0040
   7   2.0000     -11.385416      -309.8129
   8   2.0000     -11.337723      -308.5151
   9   2.0000     -11.319292      -308.0136
  10   2.0000     -11.311740      -307.8081
  11   2.0000     -11.292846      -307.2940
  12   2.0000     -11.264221      -306.5150
  13   2.0000     -11.260876      -306.4240
  14   2.0000     -11.259871      -306.3967
  15   2.0000     -11.253349      -306.2192
  16   2.0000     -11.248389      -306.0842
  17   2.0000     -11.243061      -305.9392
  18   2.0000     -11.242774      -305.9314
  19   2.0000     -11.225643      -305.4653
  20   2.0000      -8.895703      -242.0644
  21   2.0000      -6.577270      -178.9766
  22   2.0000      -6.575273      -178.9223
  23   2.0000      -6.574680      -178.9061
  24   2.0000      -1.449412       -39.4405
  25   2.0000      -1.421172       -38.6720
  26   2.0000      -1.352304       -36.7981
  27   2.0000      -1.342305       -36.5260
  28   2.0000      -1.240749       -33.7625
  29   2.0000      -1.162345       -31.6290
  30   2.0000      -1.121622       -30.5209
  31   2.0000      -1.046123       -28.4665
  32   2.0000      -1.034454       -28.1489
  33   2.0000      -1.020612       -27.7723
  34   2.0000      -0.997784       -27.1511
  35   2.0000      -0.985974       -26.8297
  36   2.0000      -0.925464       -25.1832
  37   2.0000      -0.879977       -23.9454
  38   2.0000      -0.849270       -23.1098
  39   2.0000      -0.841999       -22.9120
  40   2.0000      -0.838368       -22.8132
  41   2.0000      -0.826494       -22.4900
  42   2.0000      -0.761976       -20.7344
  43   2.0000      -0.736333       -20.0366
  44   2.0000      -0.724096       -19.7037
  45   2.0000      -0.700847       -19.0710
  46   2.0000      -0.691078       -18.8052
  47   2.0000      -0.678204       -18.4549
  48   2.0000      -0.673373       -18.3234
  49   2.0000      -0.657431       -17.8896
  50   2.0000      -0.648359       -17.6427
  51   2.0000      -0.644543       -17.5389
  52   2.0000      -0.632813       -17.2197
  53   2.0000      -0.618600       -16.8330
  54   2.0000      -0.612438       -16.6653
  55   2.0000      -0.603872       -16.4322
  56   2.0000      -0.601155       -16.3583
  57   2.0000      -0.581877       -15.8337
  58   2.0000      -0.572325       -15.5738
  59   2.0000      -0.566186       -15.4067
  60   2.0000      -0.553841       -15.0708
  61   2.0000      -0.540329       -14.7031
  62   2.0000      -0.533446       -14.5158
  63   2.0000      -0.529273       -14.4023
  64   2.0000      -0.519008       -14.1229
  65   2.0000      -0.516039       -14.0421
  66   2.0000      -0.507218       -13.8021
  67   2.0000      -0.501417       -13.6443
  68   2.0000      -0.486341       -13.2340
  69   2.0000      -0.464395       -12.6368
  70   2.0000      -0.457095       -12.4382
  71   2.0000      -0.444349       -12.0913
  72   2.0000      -0.357283        -9.7222
  73   2.0000      -0.354300        -9.6410
  74   2.0000      -0.330600        -8.9961
  75   2.0000      -0.326537        -8.8855
  76   2.0000      -0.317768        -8.6469
  77   0.0000       0.069269         1.8849
  78   0.0000       0.101385         2.7588
  79   0.0000       0.122390         3.3304
  80   0.0000       0.128058         3.4846
  81   0.0000       0.132767         3.6128

MULLIKEN ATOMIC CHARGES
-----------------------
   0 C :   -0.269635
   1 C :    0.011882
   2 O :   -0.380925
   3 C :    0.512330
   4 O :   -0.413502
   5 C :   -0.282492
   6 C :    0.156245
   7 C :   -0.269622
   8 N :   -0.123651
   9 C :    0.214096
  10 S :   -0.437809
  11 N :   -0.203516
  12 C :    0.053754
  13 C :    0.034954
  14 C :   -0.187636
  15 C :   -0.133073
  16 C :   -0.269706
  17 C :    0.307757
  18 O :   -0.356435
  19 C :   -0.246521
  20 H :    0.089834
  21 H :    0.105655
  22 H :    0.089819
  23 H :    0.124859
  24 H :    0.105953
  25 H :    0.131244
  26 H :    0.132679
  27 H :    0.095116
  28 H :    0.198354
  29 H :    0.193382
  30 H :    0.150222
  31 H :    0.157106
  32 H :    0.165714
  33 H :    0.133556
  34 H :    0.241712
  35 H :    0.168300
Sum of atomic charges:    0.0000000

LOEWDIN ATOMIC CHARGES
----------------------
   0 C :    0.109550
   1 C :   -0.018663
   2 O :    0.290324
   3 C :   -0.417852
   4 O :    0.115389
   5 C :   -0.098482
   6 C :   -0.057486
   7 C :    0.131283
   8 N :    0.407304
   9 C :   -0.456057
  10 S :   -0.033293
  11 N :    0.396142
  12 C :   -0.053288
  13 C :   -0.037969
  14 C :    0.014903
  15 C :    0.043900
  16 C :   -0.001255
  17 C :   -0.190730
  18 O :    0.396648
  19 C :    0.030199
  20 H :   -0.032673
  21 H :   -0.026039
  22 H :   -0.025070
  23 H :   -0.028884
  24 H :   -0.034007
  25 H :   -0.004922
  26 H :   -0.003306
  27 H :   -0.023225
  28 H :   -0.057276
  29 H :   -0.065404
  30 H :   -0.007752
  31 H :   -0.030269
  32 H :   -0.019910
  33 H :   -0.034347
  34 H :   -0.152700
  35 H :   -0.024782

  Mayer bond orders larger than 0.100000
B(  0-C ,  1-C ) :   0.9782 B(  0-C , 20-H ) :   0.9759 B(  0-C , 21-H ) :   0.9785
B(  0-C , 22-H ) :   0.9764 B(  1-C ,  2-O ) :   0.8751 B(  1-C , 23-H ) :   0.9801
B(  1-C , 24-H ) :   0.9647 B(  2-O ,  3-C ) :   1.1124 B(  3-C ,  4-O ) :   2.0078
B(  3-C ,  5-C ) :   1.0663 B(  5-C ,  6-C ) :   1.6505 B(  5-C , 12-C ) :   0.9713
B(  6-C ,  7-C ) :   0.9684 B(  6-C ,  8-N ) :   1.1596 B(  7-C , 25-H ) :   0.9605
B(  7-C , 26-H ) :   0.9591 B(  7-C , 27-H ) :   0.9900 B(  8-N ,  9-C ) :   1.1805
B(  8-N , 28-H ) :   0.9478 B(  9-C , 10-S ) :   1.6091 B(  9-C , 11-N ) :   1.3054
B( 11-N , 12-C ) :   0.9697 B( 11-N , 29-H ) :   0.9533 B( 12-C , 13-C ) :   0.9474
B( 12-C , 30-H ) :   1.0005 B( 13-C , 14-C ) :   1.3502 B( 13-C , 19-C ) :   1.3709
B( 14-C , 15-C ) :   1.3834 B( 14-C , 31-H ) :   0.9716 B( 15-C , 16-C ) :   1.3667
B( 15-C , 32-H ) :   0.9684 B( 16-C , 17-C ) :   1.3274 B( 16-C , 33-H ) :   0.9837
B( 17-C , 18-O ) :   1.1148 B( 17-C , 19-C ) :   1.3769 B( 18-O , 34-H ) :   0.9790
B( 19-C , 35-H ) :   0.9577

MP2 TOTAL ENERGY:    -1274.334401735 Eh
FINAL SINGLE POINT ENERGY     -1274.334401734581

DIPOLE MOMENT
-------------
                                X             Y             Z
Electronic contribution:      8.78890      11.02620       5.60251
Nuclear contribution   :     -9.84136     -12.50030      -5.47152
                        -----------------------------------------
Total Dipole Moment    :     -1.05246      -1.47410       0.13099
                        -----------------------------------------
Magnitude (a.u.)       :      1.81598
Magnitude (Debye)      :      4.61586

Rotational constants in cm-1:     0.012493     0.008773     0.006469
Rotational constants in MHz :   374.523623   262.995270   193.947005

                             ****ORCA TERMINATED NORMALLY****
TOTAL RUN TIME: 0 days 2 hours 10 minutes 54 seconds 89 msec
