                         Program Version 4.2.0 -  RELEASE  -
|  1> ! ri-mp2 cc-pvtz cc-pvtz/c TightSCF  NoKeepInts
|  2>
|  3> %scf
|  4>   MaxCore 4096
|  5> end
|  6> *xyz  0  1
|  7>     C       14.7222223   14.4999269   17.3336608
|  8>     C       15.6096273   15.4823934   16.5525451
|  9>     O       16.9505640   14.9672594   16.6033163
| 10>     C       18.0609683   15.7537044   16.4574761
| 11>     O       19.1217362   15.2007062   16.2360485
| 12>     C       18.0539699   16.9322367   17.3695616
| 13>     C       17.5721523   18.1318471   16.9765546
| 14>     C       16.9721049   18.4649585   15.6274728
| 15>     N       17.6461322   19.2273828   17.8391844
| 16>     C       18.2857986   19.2191465   19.0520902
| 17>     S       18.3862247   20.5786711   19.9879759
| 18>     N       18.8339517   18.0248515   19.4541977
| 19>     C       18.6958090   16.7379358   18.7417898
| 20>     C       17.9181244   15.7210126   19.5714444
| 21>     C       18.3480685   14.3826204   19.6266728
| 22>     C       17.6353588   13.4315263   20.3755787
| 23>     C       16.4806976   13.8206130   21.0754746
| 24>     C       16.0441430   15.1508924   21.0163913
| 25>     O       14.9200101   15.5259754   21.6768891
| 26>     C       16.7534450   16.0953204   20.2675319
| 27>     H       15.0735619   14.3999367   18.3676480
| 28>     H       14.7437254   13.5069344   16.8675622
| 29>     H       13.6827560   14.8485830   17.3556787
| 30>     H       15.2694884   15.5750459   15.5129203
| 31>     H       15.5305046   16.4595447   17.0423681
| 32>     H       17.1903048   17.6980634   14.8741529
| 33>     H       17.3790394   19.4079354   15.2400229
| 34>     H       15.8826379   18.5721922   15.6960919
| 35>     H       17.2616310   20.1158787   17.5584927
| 36>     H       19.2810097   18.0445159   20.3620995
| 37>     H       19.7075331   16.3383855   18.5775806
| 38>     H       19.2311510   14.0753649   19.0705014
| 39>     H       17.9761006   12.3980083   20.4048052
| 40>     H       15.9261666   13.0881085   21.6525444
| 41>     H       14.6066736   14.7564603   22.1758873
| 42>     H       16.3936070   17.1180610   20.2337873
| 43> *
| 44>
| 45>                          ****END OF INPUT****

CARTESIAN COORDINATES (ANGSTROEM)
---------------------------------
  C     14.722222   14.499927   17.333661
  C     15.609627   15.482393   16.552545
  O     16.950564   14.967259   16.603316
  C     18.060968   15.753704   16.457476
  O     19.121736   15.200706   16.236048
  C     18.053970   16.932237   17.369562
  C     17.572152   18.131847   16.976555
  C     16.972105   18.464959   15.627473
  N     17.646132   19.227383   17.839184
  C     18.285799   19.219147   19.052090
  S     18.386225   20.578671   19.987976
  N     18.833952   18.024852   19.454198
  C     18.695809   16.737936   18.741790
  C     17.918124   15.721013   19.571444
  C     18.348068   14.382620   19.626673
  C     17.635359   13.431526   20.375579
  C     16.480698   13.820613   21.075475
  C     16.044143   15.150892   21.016391
  O     14.920010   15.525975   21.676889
  C     16.753445   16.095320   20.267532
  H     15.073562   14.399937   18.367648
  H     14.743725   13.506934   16.867562
  H     13.682756   14.848583   17.355679
  H     15.269488   15.575046   15.512920
  H     15.530505   16.459545   17.042368
  H     17.190305   17.698063   14.874153
  H     17.379039   19.407935   15.240023
  H     15.882638   18.572192   15.696092
  H     17.261631   20.115879   17.558493
  H     19.281010   18.044516   20.362099
  H     19.707533   16.338386   18.577581
  H     19.231151   14.075365   19.070501
  H     17.976101   12.398008   20.404805
  H     15.926167   13.088109   21.652544
  H     14.606674   14.756460   22.175887
  H     16.393607   17.118061   20.233787

 Total Charge           Charge          ....    0
 Multiplicity           Mult            ....    1
 Number of Electrons    NEL             ....  154
 Basis Dimension        Dim             ....  828

ORBITAL ENERGIES
----------------

  NO   OCC          E(Eh)            E(eV)
   0   2.0000     -91.887867     -2500.3960
   1   2.0000     -20.602419      -560.6203
   2   2.0000     -20.598824      -560.5225
   3   2.0000     -20.557305      -559.3927
   4   2.0000     -15.623286      -425.1312
   5   2.0000     -15.610576      -424.7854
   6   2.0000     -11.395969      -310.1001
   7   2.0000     -11.384848      -309.7975
   8   2.0000     -11.322563      -308.1026
   9   2.0000     -11.315962      -307.9230
  10   2.0000     -11.315371      -307.9069
  11   2.0000     -11.304155      -307.6017
  12   2.0000     -11.270108      -306.6752
  13   2.0000     -11.264268      -306.5163
  14   2.0000     -11.262568      -306.4701
  15   2.0000     -11.255704      -306.2833
  16   2.0000     -11.244634      -305.9820
  17   2.0000     -11.240731      -305.8758
  18   2.0000     -11.238223      -305.8076
  19   2.0000     -11.229295      -305.5646
  20   2.0000      -8.893005      -241.9910
  21   2.0000      -6.574602      -178.9040
  22   2.0000      -6.572568      -178.8487
  23   2.0000      -6.572001      -178.8332
  24   2.0000      -1.455337       -39.6017
  25   2.0000      -1.418631       -38.6029
  26   2.0000      -1.363069       -37.0910
  27   2.0000      -1.337566       -36.3970
  28   2.0000      -1.238003       -33.6878
  29   2.0000      -1.159821       -31.5603
  30   2.0000      -1.124537       -30.6002
  31   2.0000      -1.048163       -28.5220
  32   2.0000      -1.039993       -28.2996
  33   2.0000      -1.017560       -27.6892
  34   2.0000      -1.004062       -27.3219
  35   2.0000      -0.987717       -26.8772
  36   2.0000      -0.926922       -25.2228
  37   2.0000      -0.882158       -24.0047
  38   2.0000      -0.853253       -23.2182
  39   2.0000      -0.840284       -22.8653
  40   2.0000      -0.835937       -22.7470
  41   2.0000      -0.835312       -22.7300
  42   2.0000      -0.759120       -20.6567
  43   2.0000      -0.737504       -20.0685
  44   2.0000      -0.730563       -19.8796
  45   2.0000      -0.697333       -18.9754
  46   2.0000      -0.690335       -18.7850
  47   2.0000      -0.683829       -18.6079
  48   2.0000      -0.676574       -18.4105
  49   2.0000      -0.661904       -18.0113
  50   2.0000      -0.654493       -17.8097
  51   2.0000      -0.644849       -17.5472
  52   2.0000      -0.638390       -17.3715
  53   2.0000      -0.613610       -16.6972
  54   2.0000      -0.611210       -16.6319
  55   2.0000      -0.606023       -16.4907
  56   2.0000      -0.601956       -16.3800
  57   2.0000      -0.587345       -15.9825
  58   2.0000      -0.577122       -15.7043
  59   2.0000      -0.566374       -15.4118
  60   2.0000      -0.560801       -15.2602
  61   2.0000      -0.553973       -15.0744
  62   2.0000      -0.541266       -14.7286
  63   2.0000      -0.531409       -14.4604
  64   2.0000      -0.520363       -14.1598
  65   2.0000      -0.513242       -13.9660
  66   2.0000      -0.502037       -13.6611
  67   2.0000      -0.500999       -13.6329
  68   2.0000      -0.489377       -13.3166
  69   2.0000      -0.467715       -12.7272
  70   2.0000      -0.457202       -12.4411
  71   2.0000      -0.452489       -12.3129
  72   2.0000      -0.355392        -9.6707
  73   2.0000      -0.350474        -9.5369
  74   2.0000      -0.327758        -8.9187
  75   2.0000      -0.322982        -8.7888
  76   2.0000      -0.316087        -8.6012
  77   0.0000       0.091619         2.4931
  78   0.0000       0.099998         2.7211
  79   0.0000       0.107678         2.9301
  80   0.0000       0.127553         3.4709
  81   0.0000       0.128578         3.4988

MULLIKEN ATOMIC CHARGES
-----------------------
   0 C :   -0.266542
   1 C :    0.009177
   2 O :   -0.303761
   3 C :    0.380771
   4 O :   -0.365186
   5 C :   -0.139932
   6 C :    0.111583
   7 C :   -0.319327
   8 N :   -0.134858
   9 C :    0.206950
  10 S :   -0.444630
  11 N :   -0.214759
  12 C :    0.045981
  13 C :    0.034183
  14 C :   -0.186369
  15 C :   -0.132204
  16 C :   -0.272915
  17 C :    0.295214
  18 O :   -0.362401
  19 C :   -0.253191
  20 H :    0.117300
  21 H :    0.102850
  22 H :    0.087901
  23 H :    0.109817
  24 H :    0.086264
  25 H :    0.118717
  26 H :    0.132017
  27 H :    0.122788
  28 H :    0.194875
  29 H :    0.198498
  30 H :    0.167215
  31 H :    0.161657
  32 H :    0.162513
  33 H :    0.132415
  34 H :    0.241374
  35 H :    0.176016
Sum of atomic charges:   -0.0000000

LOEWDIN ATOMIC CHARGES
----------------------
   0 C :    0.112684
   1 C :   -0.029295
   2 O :    0.324857
   3 C :   -0.423745
   4 O :    0.138798
   5 C :   -0.079229
   6 C :   -0.115179
   7 C :    0.123444
   8 N :    0.399376
   9 C :   -0.455312
  10 S :   -0.041007
  11 N :    0.397679
  12 C :   -0.041752
  13 C :   -0.040162
  14 C :    0.024406
  15 C :    0.045749
  16 C :   -0.001715
  17 C :   -0.194621
  18 O :    0.395144
  19 C :    0.026791
  20 H :   -0.022377
  21 H :   -0.025743
  22 H :   -0.026164
  23 H :   -0.034833
  24 H :   -0.039215
  25 H :   -0.010667
  26 H :   -0.010676
  27 H :   -0.017004
  28 H :   -0.059627
  29 H :   -0.063769
  30 H :   -0.002254
  31 H :   -0.022918
  32 H :   -0.018835
  33 H :   -0.035206
  34 H :   -0.153237
  35 H :   -0.024387

  Mayer bond orders larger than 0.100000
B(  0-C ,  1-C ) :   0.9804 B(  0-C , 20-H ) :   0.9712 B(  0-C , 21-H ) :   0.9817
B(  0-C , 22-H ) :   0.9760 B(  1-C ,  2-O ) :   0.9270 B(  1-C , 23-H ) :   0.9773
B(  1-C , 24-H ) :   0.9625 B(  2-O ,  3-C ) :   1.1193 B(  3-C ,  4-O ) :   2.1015
B(  3-C ,  5-C ) :   0.9257 B(  5-C ,  6-C ) :   1.7106 B(  5-C , 12-C ) :   0.9663
B(  6-C ,  7-C ) :   0.9435 B(  6-C ,  8-N ) :   1.1039 B(  7-C , 25-H ) :   0.9816
B(  7-C , 26-H ) :   0.9742 B(  7-C , 27-H ) :   0.9655 B(  8-N ,  9-C ) :   1.2006
B(  8-N , 28-H ) :   0.9536 B(  9-C , 10-S ) :   1.6067 B(  9-C , 11-N ) :   1.2848
B( 11-N , 12-C ) :   0.9949 B( 11-N , 29-H ) :   0.9483 B( 12-C , 13-C ) :   0.9472
B( 12-C , 30-H ) :   0.9979 B( 13-C , 14-C ) :   1.3837 B( 13-C , 19-C ) :   1.3524
B( 14-C , 15-C ) :   1.3979 B( 14-C , 31-H ) :   0.9644 B( 15-C , 16-C ) :   1.3591
B( 15-C , 32-H ) :   0.9707 B( 16-C , 17-C ) :   1.3326 B( 16-C , 33-H ) :   0.9852
B( 17-C , 18-O ) :   1.1052 B( 17-C , 19-C ) :   1.3702 B( 18-O , 34-H ) :   0.9794
B( 19-C , 35-H ) :   0.9559

MP2 TOTAL ENERGY:    -1274.320967750 Eh
FINAL SINGLE POINT ENERGY     -1274.320967750092

DIPOLE MOMENT
-------------
                                X             Y             Z
Electronic contribution:     10.51477       7.97464       6.30562
Nuclear contribution   :    -12.12439      -9.10848      -6.99527
                        -----------------------------------------
Total Dipole Moment    :     -1.60962      -1.13384      -0.68965
                        -----------------------------------------
Magnitude (a.u.)       :      2.08616
Magnitude (Debye)      :      5.30260

Rotational constants in cm-1:     0.012476     0.009106     0.006852
Rotational constants in MHz :   374.024654   272.987844   205.411960

                             ****ORCA TERMINATED NORMALLY****
TOTAL RUN TIME: 0 days 1 hours 47 minutes 16 seconds 534 msec
