                         Program Version 5.0.0 -  RELEASE  -
|  1> ! ri-mp2 cc-pvtz cc-pvtz/c TightSCF NoKeepInts
|  2>
|  3> %scf
|  4>   MaxCore 4096
|  5> end
|  6> *xyz  0  1
|  7>     C       15.0031131   14.7055897   16.6121362
|  8>     C       16.4273907   14.1313109   16.7799122
|  9>     O       17.4553388   14.9969484   16.2347064
| 10>     C       17.2839319   16.3479464   16.1070375
| 11>     O       16.7092590   16.8010843   15.1335457
| 12>     C       17.6919378   17.1627555   17.3065601
| 13>     C       17.3979591   18.4851440   17.4132665
| 14>     C       16.5661612   19.3243308   16.4669118
| 15>     N       17.9267495   19.2360106   18.4681507
| 16>     C       18.9224313   18.8032994   19.3033707
| 17>     S       19.6493501   19.8074029   20.3984388
| 18>     N       19.3015157   17.4921382   19.1667465
| 19>     C       18.5570815   16.4882568   18.3857805
| 20>     C       17.7632225   15.6190559   19.3543621
| 21>     C       18.3068002   14.4022590   19.8087846
| 22>     C       17.5900226   13.5872886   20.7010163
| 23>     C       16.3222339   13.9949145   21.1493992
| 24>     C       15.7845650   15.2129414   20.7123108
| 25>     O       14.5622802   15.6115555   21.1450450
| 26>     C       16.4994625   16.0221308   19.8241513
| 27>     H       14.8731264   15.6290037   17.1900341
| 28>     H       14.2593670   13.9828133   16.9685796
| 29>     H       14.7882742   14.9169732   15.5566526
| 30>     H       16.6037536   13.9395432   17.8417879
| 31>     H       16.4828997   13.1603568   16.2711745
| 32>     H       15.5850557   18.8621168   16.2991698
| 33>     H       17.0599591   19.4055215   15.4899287
| 34>     H       16.3907229   20.3413282   16.8366807
| 35>     H       17.6711613   20.2057099   18.5658989
| 36>     H       20.0247163   17.1951041   19.8088699
| 37>     H       19.2910528   15.8504211   17.8727875
| 38>     H       19.2877875   14.0845387   19.4648799
| 39>     H       18.0181887   12.6469236   21.0447671
| 40>     H       15.7653704   13.3692660   21.8395133
| 41>     H       14.2581988   14.9641667   21.7993095
| 42>     H       16.0665590   16.9658497   19.5123333
| 43> *
| 44>
| 45>                          ****END OF INPUT****

CARTESIAN COORDINATES (ANGSTROEM)
---------------------------------
  C     15.003113   14.705590   16.612136
  C     16.427391   14.131311   16.779912
  O     17.455339   14.996948   16.234706
  C     17.283932   16.347946   16.107038
  O     16.709259   16.801084   15.133546
  C     17.691938   17.162755   17.306560
  C     17.397959   18.485144   17.413266
  C     16.566161   19.324331   16.466912
  N     17.926749   19.236011   18.468151
  C     18.922431   18.803299   19.303371
  S     19.649350   19.807403   20.398439
  N     19.301516   17.492138   19.166746
  C     18.557081   16.488257   18.385780
  C     17.763223   15.619056   19.354362
  C     18.306800   14.402259   19.808785
  C     17.590023   13.587289   20.701016
  C     16.322234   13.994914   21.149399
  C     15.784565   15.212941   20.712311
  O     14.562280   15.611555   21.145045
  C     16.499462   16.022131   19.824151
  H     14.873126   15.629004   17.190034
  H     14.259367   13.982813   16.968580
  H     14.788274   14.916973   15.556653
  H     16.603754   13.939543   17.841788
  H     16.482900   13.160357   16.271175
  H     15.585056   18.862117   16.299170
  H     17.059959   19.405521   15.489929
  H     16.390723   20.341328   16.836681
  H     17.671161   20.205710   18.565899
  H     20.024716   17.195104   19.808870
  H     19.291053   15.850421   17.872788
  H     19.287788   14.084539   19.464880
  H     18.018189   12.646924   21.044767
  H     15.765370   13.369266   21.839513
  H     14.258199   14.964167   21.799309
  H     16.066559   16.965850   19.512333

 Total Charge           Charge          ....    0
 Multiplicity           Mult            ....    1
 Number of Electrons    NEL             ....  154
 Basis Dimension        Dim             ....  828

ORBITAL ENERGIES
----------------

  NO   OCC          E(Eh)            E(eV)
   0   2.0000     -91.891020     -2500.4818
   1   2.0000     -20.603980      -560.6628
   2   2.0000     -20.580085      -560.0126
   3   2.0000     -20.545199      -559.0633
   4   2.0000     -15.631680      -425.3596
   5   2.0000     -15.610037      -424.7707
   6   2.0000     -11.392646      -310.0097
   7   2.0000     -11.385545      -309.8164
   8   2.0000     -11.338065      -308.5244
   9   2.0000     -11.321711      -308.0794
  10   2.0000     -11.312646      -307.8327
  11   2.0000     -11.296652      -307.3975
  12   2.0000     -11.266356      -306.5731
  13   2.0000     -11.263189      -306.4870
  14   2.0000     -11.259247      -306.3797
  15   2.0000     -11.253725      -306.2294
  16   2.0000     -11.250280      -306.1357
  17   2.0000     -11.244941      -305.9904
  18   2.0000     -11.244694      -305.9837
  19   2.0000     -11.225030      -305.4486
  20   2.0000      -8.896038      -242.0735
  21   2.0000      -6.577602      -178.9857
  22   2.0000      -6.575609      -178.9314
  23   2.0000      -6.575014      -178.9152
  24   2.0000      -1.440776       -39.2055
  25   2.0000      -1.423572       -38.7374
  26   2.0000      -1.349131       -36.7117
  27   2.0000      -1.342872       -36.5414
  28   2.0000      -1.241360       -33.7791
  29   2.0000      -1.164201       -31.6795
  30   2.0000      -1.121850       -30.5271
  31   2.0000      -1.047571       -28.5058
  32   2.0000      -1.030023       -28.0284
  33   2.0000      -1.022678       -27.8285
  34   2.0000      -0.999633       -27.2014
  35   2.0000      -0.986642       -26.8479
  36   2.0000      -0.926454       -25.2101
  37   2.0000      -0.893101       -24.3025
  38   2.0000      -0.850314       -23.1382
  39   2.0000      -0.845271       -23.0010
  40   2.0000      -0.840009       -22.8578
  41   2.0000      -0.824044       -22.4234
  42   2.0000      -0.746895       -20.3241
  43   2.0000      -0.736495       -20.0411
  44   2.0000      -0.715606       -19.4726
  45   2.0000      -0.702467       -19.1151
  46   2.0000      -0.692408       -18.8414
  47   2.0000      -0.674184       -18.3455
  48   2.0000      -0.669771       -18.2254
  49   2.0000      -0.662375       -18.0241
  50   2.0000      -0.654399       -17.8071
  51   2.0000      -0.648196       -17.6383
  52   2.0000      -0.638880       -17.3848
  53   2.0000      -0.622722       -16.9451
  54   2.0000      -0.614712       -16.7272
  55   2.0000      -0.605395       -16.4736
  56   2.0000      -0.602199       -16.3867
  57   2.0000      -0.583763       -15.8850
  58   2.0000      -0.572926       -15.5901
  59   2.0000      -0.567577       -15.4446
  60   2.0000      -0.546244       -14.8641
  61   2.0000      -0.540518       -14.7082
  62   2.0000      -0.537062       -14.6142
  63   2.0000      -0.532471       -14.4893
  64   2.0000      -0.526223       -14.3192
  65   2.0000      -0.516455       -14.0535
  66   2.0000      -0.507174       -13.8009
  67   2.0000      -0.494553       -13.4575
  68   2.0000      -0.483430       -13.1548
  69   2.0000      -0.464094       -12.6286
  70   2.0000      -0.452799       -12.3213
  71   2.0000      -0.440971       -11.9994
  72   2.0000      -0.358905        -9.7663
  73   2.0000      -0.356595        -9.7034
  74   2.0000      -0.332309        -9.0426
  75   2.0000      -0.327673        -8.9164
  76   2.0000      -0.318062        -8.6549
  77   0.0000       0.069991         1.9046
  78   0.0000       0.100981         2.7478
  79   0.0000       0.120376         3.2756
  80   0.0000       0.125825         3.4239
  81   0.0000       0.130213         3.5433

MULLIKEN ATOMIC CHARGES
-----------------------
   0 C :   -0.310062
   1 C :    0.029661
   2 O :   -0.392209
   3 C :    0.500500
   4 O :   -0.403553
   5 C :   -0.280219
   6 C :    0.156425
   7 C :   -0.270568
   8 N :   -0.123593
   9 C :    0.217752
  10 S :   -0.438369
  11 N :   -0.205919
  12 C :    0.057082
  13 C :    0.054114
  14 C :   -0.202258
  15 C :   -0.128506
  16 C :   -0.276155
  17 C :    0.313923
  18 O :   -0.357151
  19 C :   -0.258360
  20 H :    0.093255
  21 H :    0.107054
  22 H :    0.125244
  23 H :    0.105768
  24 H :    0.117433
  25 H :    0.127609
  26 H :    0.137891
  27 H :    0.094781
  28 H :    0.198510
  29 H :    0.192134
  30 H :    0.152790
  31 H :    0.150182
  32 H :    0.163176
  33 H :    0.133693
  34 H :    0.242876
  35 H :    0.175069
Sum of atomic charges:   -0.0000000

LOEWDIN ATOMIC CHARGES
----------------------
   0 C :    0.105210
   1 C :   -0.011079
   2 O :    0.277836
   3 C :   -0.421739
   4 O :    0.120499
   5 C :   -0.099416
   6 C :   -0.057709
   7 C :    0.130845
   8 N :    0.408035
   9 C :   -0.454592
  10 S :   -0.032902
  11 N :    0.396136
  12 C :   -0.052850
  13 C :   -0.037124
  14 C :    0.010288
  15 C :    0.043193
  16 C :   -0.000925
  17 C :   -0.189317
  18 O :    0.396777
  19 C :    0.031120
  20 H :   -0.031896
  21 H :   -0.023792
  22 H :   -0.022763
  23 H :   -0.036216
  24 H :   -0.024561
  25 H :   -0.006246
  26 H :   -0.002277
  27 H :   -0.023218
  28 H :   -0.057216
  29 H :   -0.066440
  30 H :   -0.006040
  31 H :   -0.029769
  32 H :   -0.019034
  33 H :   -0.033981
  34 H :   -0.151890
  35 H :   -0.026945

  Mayer bond orders larger than 0.100000
B(  0-C ,  1-C ) :   0.9705 B(  0-C , 20-H ) :   0.9727 B(  0-C , 21-H ) :   0.9748
B(  0-C , 22-H ) :   0.9715 B(  1-C ,  2-O ) :   0.8957 B(  1-C , 23-H ) :   0.9682
B(  1-C , 24-H ) :   0.9829 B(  2-O ,  3-C ) :   1.0948 B(  3-C ,  4-O ) :   2.0234
B(  3-C ,  5-C ) :   1.0544 B(  5-C ,  6-C ) :   1.6456 B(  5-C , 12-C ) :   0.9710
B(  6-C ,  7-C ) :   0.9714 B(  6-C ,  8-N ) :   1.1593 B(  7-C , 25-H ) :   0.9640
B(  7-C , 26-H ) :   0.9559 B(  7-C , 27-H ) :   0.9883 B(  8-N ,  9-C ) :   1.1816
B(  8-N , 28-H ) :   0.9480 B(  9-C , 10-S ) :   1.6075 B(  9-C , 11-N ) :   1.3041
B( 11-N , 12-C ) :   0.9561 B( 11-N , 29-H ) :   0.9537 B( 12-C , 13-C ) :   0.9557
B( 12-C , 30-H ) :   0.9991 B( 13-C , 14-C ) :   1.3447 B( 13-C , 19-C ) :   1.3642
B( 14-C , 15-C ) :   1.3989 B( 14-C , 31-H ) :   0.9743 B( 15-C , 16-C ) :   1.3627
B( 15-C , 32-H ) :   0.9698 B( 16-C , 17-C ) :   1.3308 B( 16-C , 33-H ) :   0.9838
B( 17-C , 18-O ) :   1.1148 B( 17-C , 19-C ) :   1.3687 B( 18-O , 34-H ) :   0.9787
B( 19-C , 35-H ) :   0.9536

MP2 TOTAL ENERGY:    -1274.330915146 Eh
FINAL SINGLE POINT ENERGY     -1274.330915146287

DIPOLE MOMENT
-------------
                                X             Y             Z
Electronic contribution:     10.07481       8.31142       5.45420
Nuclear contribution   :    -11.16425      -9.89514      -5.02140
                        -----------------------------------------
Total Dipole Moment    :     -1.08944      -1.58372       0.43279
                        -----------------------------------------
Magnitude (a.u.)       :      1.97037
Magnitude (Debye)      :      5.00828

Rotational constants in cm-1:     0.011962     0.009422     0.006673
Rotational constants in MHz :   358.599848   282.463975   200.051821

                             ****ORCA TERMINATED NORMALLY****
TOTAL RUN TIME: 0 days 2 hours 7 minutes 44 seconds 391 msec
