                         Program Version 5.0.0 -  RELEASE  -
|  1> ! ri-mp2 cc-pvtz cc-pvtz/c TightSCF NoKeepInts
|  2>
|  3> %scf
|  4>   MaxCore 4096
|  5> end
|  6> *xyz  0  1
|  7>     C       15.1626371   14.8304812   17.0355005
|  8>     C       16.3854631   14.0542160   16.4946991
|  9>     O       17.5978694   14.8443701   16.4514202
| 10>     C       17.5620713   16.1658579   16.1132882
| 11>     O       17.0283259   16.5171221   15.0756328
| 12>     C       17.7938539   17.0768446   17.2895953
| 13>     C       17.4528360   18.3911151   17.2732991
| 14>     C       16.7066022   19.1354326   16.1868699
| 15>     N       17.8540905   19.2288457   18.3191060
| 16>     C       18.7758308   18.8884576   19.2741898
| 17>     S       19.3556040   19.9881062   20.3649551
| 18>     N       19.1974799   17.5824901   19.2745173
| 19>     C       18.5696575   16.5031346   18.4891900
| 20>     C       17.7113000   15.6398767   19.4103507
| 21>     C       17.9707581   14.2621248   19.5391914
| 22>     C       17.1904412   13.4625188   20.3910176
| 23>     C       16.1462357   14.0458362   21.1283743
| 24>     C       15.8921637   15.4192436   21.0135351
| 25>     O       14.8842792   15.9854899   21.7234174
| 26>     C       16.6692808   16.2121751   20.1634606
| 27>     H       15.3526038   15.2340557   18.0333442
| 28>     H       14.2977469   14.1604362   17.1091756
| 29>     H       14.8817192   15.6557868   16.3697752
| 30>     H       16.5570148   13.1635330   17.1125679
| 31>     H       16.1510477   13.7113303   15.4782042
| 32>     H       17.2950618   19.1566361   15.2606369
| 33>     H       16.4752394   20.1719096   16.4587283
| 34>     H       15.7566001   18.6355091   15.9591787
| 35>     H       17.5625227   20.1932954   18.3233239
| 36>     H       19.8566717   17.3518058   20.0068288
| 37>     H       19.3790147   15.8754404   18.0903709
| 38>     H       18.7763722   13.8072161   18.9686469
| 39>     H       17.3976673   12.3974166   20.4798358
| 40>     H       15.5411967   13.4327140   21.7882835
| 41>     H       14.5026610   15.2976978   22.2893672
| 42>     H       16.4570797   17.2734784   20.0941216
| 43> *
| 44>
| 45>                          ****END OF INPUT****

CARTESIAN COORDINATES (ANGSTROEM)
---------------------------------
  C     15.162637   14.830481   17.035501
  C     16.385463   14.054216   16.494699
  O     17.597869   14.844370   16.451420
  C     17.562071   16.165858   16.113288
  O     17.028326   16.517122   15.075633
  C     17.793854   17.076845   17.289595
  C     17.452836   18.391115   17.273299
  C     16.706602   19.135433   16.186870
  N     17.854091   19.228846   18.319106
  C     18.775831   18.888458   19.274190
  S     19.355604   19.988106   20.364955
  N     19.197480   17.582490   19.274517
  C     18.569658   16.503135   18.489190
  C     17.711300   15.639877   19.410351
  C     17.970758   14.262125   19.539191
  C     17.190441   13.462519   20.391018
  C     16.146236   14.045836   21.128374
  C     15.892164   15.419244   21.013535
  O     14.884279   15.985490   21.723417
  C     16.669281   16.212175   20.163461
  H     15.352604   15.234056   18.033344
  H     14.297747   14.160436   17.109176
  H     14.881719   15.655787   16.369775
  H     16.557015   13.163533   17.112568
  H     16.151048   13.711330   15.478204
  H     17.295062   19.156636   15.260637
  H     16.475239   20.171910   16.458728
  H     15.756600   18.635509   15.959179
  H     17.562523   20.193295   18.323324
  H     19.856672   17.351806   20.006829
  H     19.379015   15.875440   18.090371
  H     18.776372   13.807216   18.968647
  H     17.397667   12.397417   20.479836
  H     15.541197   13.432714   21.788283
  H     14.502661   15.297698   22.289367
  H     16.457080   17.273478   20.094122

 Total Charge           Charge          ....    0
 Multiplicity           Mult            ....    1
 Number of Electrons    NEL             ....  154
 Basis Dimension        Dim             ....  828

ORBITAL ENERGIES
----------------

  NO   OCC          E(Eh)            E(eV)
   0   2.0000     -91.891034     -2500.4822
   1   2.0000     -20.599146      -560.5313
   2   2.0000     -20.582906      -560.0893
   3   2.0000     -20.547538      -559.1269
   4   2.0000     -15.631128      -425.3446
   5   2.0000     -15.609459      -424.7550
   6   2.0000     -11.394204      -310.0521
   7   2.0000     -11.385467      -309.8143
   8   2.0000     -11.337172      -308.5001
   9   2.0000     -11.316634      -307.9413
  10   2.0000     -11.311801      -307.8098
  11   2.0000     -11.299745      -307.4817
  12   2.0000     -11.262357      -306.4643
  13   2.0000     -11.260087      -306.4026
  14   2.0000     -11.258319      -306.3544
  15   2.0000     -11.253618      -306.2265
  16   2.0000     -11.246282      -306.0269
  17   2.0000     -11.240980      -305.8826
  18   2.0000     -11.240616      -305.8727
  19   2.0000     -11.223233      -305.3997
  20   2.0000      -8.896048      -242.0738
  21   2.0000      -6.577612      -178.9859
  22   2.0000      -6.575620      -178.9317
  23   2.0000      -6.575022      -178.9154
  24   2.0000      -1.446482       -39.3608
  25   2.0000      -1.418911       -38.6105
  26   2.0000      -1.350780       -36.7566
  27   2.0000      -1.342063       -36.5194
  28   2.0000      -1.240133       -33.7457
  29   2.0000      -1.159794       -31.5596
  30   2.0000      -1.120968       -30.5031
  31   2.0000      -1.044564       -28.4240
  32   2.0000      -1.031426       -28.0665
  33   2.0000      -1.018242       -27.7078
  34   2.0000      -0.998410       -27.1681
  35   2.0000      -0.986443       -26.8425
  36   2.0000      -0.924593       -25.1595
  37   2.0000      -0.896561       -24.3967
  38   2.0000      -0.848355       -23.0849
  39   2.0000      -0.842043       -22.9132
  40   2.0000      -0.837027       -22.7767
  41   2.0000      -0.817136       -22.2354
  42   2.0000      -0.746965       -20.3259
  43   2.0000      -0.734195       -19.9785
  44   2.0000      -0.722490       -19.6599
  45   2.0000      -0.698376       -19.0038
  46   2.0000      -0.691431       -18.8148
  47   2.0000      -0.674403       -18.3514
  48   2.0000      -0.669347       -18.2139
  49   2.0000      -0.663509       -18.0550
  50   2.0000      -0.651164       -17.7191
  51   2.0000      -0.644184       -17.5291
  52   2.0000      -0.636907       -17.3311
  53   2.0000      -0.622338       -16.9347
  54   2.0000      -0.609279       -16.5793
  55   2.0000      -0.602136       -16.3849
  56   2.0000      -0.600363       -16.3367
  57   2.0000      -0.579922       -15.7805
  58   2.0000      -0.571893       -15.5620
  59   2.0000      -0.565122       -15.3778
  60   2.0000      -0.549242       -14.9456
  61   2.0000      -0.543951       -14.8017
  62   2.0000      -0.534733       -14.5508
  63   2.0000      -0.531939       -14.4748
  64   2.0000      -0.526923       -14.3383
  65   2.0000      -0.515601       -14.0302
  66   2.0000      -0.503560       -13.7026
  67   2.0000      -0.499379       -13.5888
  68   2.0000      -0.479204       -13.0398
  69   2.0000      -0.463880       -12.6228
  70   2.0000      -0.454524       -12.3682
  71   2.0000      -0.443718       -12.0742
  72   2.0000      -0.357188        -9.7196
  73   2.0000      -0.351020        -9.5518
  74   2.0000      -0.330182        -8.9847
  75   2.0000      -0.325002        -8.8438
  76   2.0000      -0.317839        -8.6489
  77   0.0000       0.068137         1.8541
  78   0.0000       0.103737         2.8228
  79   0.0000       0.121777         3.3137
  80   0.0000       0.129468         3.5230
  81   0.0000       0.134146         3.6503

MULLIKEN ATOMIC CHARGES
-----------------------
   0 C :   -0.336685
   1 C :    0.035654
   2 O :   -0.393777
   3 C :    0.488751
   4 O :   -0.415026
   5 C :   -0.220302
   6 C :    0.143876
   7 C :   -0.271516
   8 N :   -0.122496
   9 C :    0.195946
  10 S :   -0.432892
  11 N :   -0.193785
  12 C :    0.034853
  13 C :    0.045084
  14 C :   -0.185079
  15 C :   -0.135865
  16 C :   -0.271901
  17 C :    0.306025
  18 O :   -0.358503
  19 C :   -0.257861
  20 H :    0.116603
  21 H :    0.110024
  22 H :    0.115769
  23 H :    0.113277
  24 H :    0.121453
  25 H :    0.135619
  26 H :    0.094915
  27 H :    0.128181
  28 H :    0.198389
  29 H :    0.191175
  30 H :    0.151852
  31 H :    0.160890
  32 H :    0.164164
  33 H :    0.132863
  34 H :    0.240750
  35 H :    0.169574
Sum of atomic charges:    0.0000000

LOEWDIN ATOMIC CHARGES
----------------------
   0 C :    0.107610
   1 C :   -0.011890
   2 O :    0.281630
   3 C :   -0.420898
   4 O :    0.115968
   5 C :   -0.096792
   6 C :   -0.058472
   7 C :    0.130965
   8 N :    0.406807
   9 C :   -0.459122
  10 S :   -0.031425
  11 N :    0.396505
  12 C :   -0.052016
  13 C :   -0.039824
  14 C :    0.017705
  15 C :    0.039340
  16 C :   -0.001712
  17 C :   -0.191616
  18 O :    0.396515
  19 C :    0.031308
  20 H :   -0.031538
  21 H :   -0.023232
  22 H :   -0.028345
  23 H :   -0.025769
  24 H :   -0.028309
  25 H :   -0.003083
  26 H :   -0.023146
  27 H :   -0.006568
  28 H :   -0.057722
  29 H :   -0.064973
  30 H :   -0.006549
  31 H :   -0.028126
  32 H :   -0.020709
  33 H :   -0.034910
  34 H :   -0.153374
  35 H :   -0.024234

  Mayer bond orders larger than 0.100000
B(  0-C ,  1-C ) :   0.9566 B(  0-C , 20-H ) :   0.9676 B(  0-C , 21-H ) :   0.9776
B(  0-C , 22-H ) :   0.9730 B(  1-C ,  2-O ) :   0.8808 B(  1-C , 23-H ) :   0.9788
B(  1-C , 24-H ) :   0.9863 B(  2-O ,  3-C ) :   1.1044 B(  3-C ,  4-O ) :   2.0054
B(  3-C ,  5-C ) :   1.0560 B(  5-C ,  6-C ) :   1.6570 B(  5-C , 12-C ) :   0.9666
B(  6-C ,  7-C ) :   0.9697 B(  6-C ,  8-N ) :   1.1445 B(  7-C , 25-H ) :   0.9571
B(  7-C , 26-H ) :   0.9888 B(  7-C , 27-H ) :   0.9649 B(  8-N ,  9-C ) :   1.1779
B(  8-N , 28-H ) :   0.9485 B(  9-C , 10-S ) :   1.6207 B(  9-C , 11-N ) :   1.2983
B( 11-N , 12-C ) :   0.9877 B( 11-N , 29-H ) :   0.9536 B( 12-C , 13-C ) :   0.9392
B( 12-C , 30-H ) :   1.0038 B( 13-C , 14-C ) :   1.3625 B( 13-C , 19-C ) :   1.3689
B( 14-C , 15-C ) :   1.3830 B( 14-C , 31-H ) :   0.9678 B( 15-C , 16-C ) :   1.3666
B( 15-C , 32-H ) :   0.9698 B( 16-C , 17-C ) :   1.3297 B( 16-C , 33-H ) :   0.9838
B( 17-C , 18-O ) :   1.1127 B( 17-C , 19-C ) :   1.3778 B( 18-O , 34-H ) :   0.9797
B( 19-C , 35-H ) :   0.9581

MP2 TOTAL ENERGY:    -1274.330364612 Eh
FINAL SINGLE POINT ENERGY     -1274.330364612115

DIPOLE MOMENT
-------------
                                X             Y             Z
Electronic contribution:     10.14900       8.46460       5.93926
Nuclear contribution   :    -11.26454     -10.08495      -5.93439
                        -----------------------------------------
Total Dipole Moment    :     -1.11554      -1.62035       0.00487
                        -----------------------------------------
Magnitude (a.u.)       :      1.96723
Magnitude (Debye)      :      5.00029

Rotational constants in cm-1:     0.011925     0.009729     0.006597
Rotational constants in MHz :   357.496942   291.663611   197.778166

                             ****ORCA TERMINATED NORMALLY****
TOTAL RUN TIME: 0 days 2 hours 26 minutes 12 seconds 540 msec
