                         Program Version 4.2.0 -  RELEASE  -
|  1> ! ri-mp2 cc-pvtz cc-pvtz/c TightSCF  NoKeepInts
|  2>
|  3> %scf
|  4>   MaxCore 4096
|  5> end
|  6> *xyz  0  1
|  7>     C       15.7527270   13.4202861   15.5277796
|  8>     C       15.5750039   14.4506819   16.6551751
|  9>     O       16.7121754   15.3314875   16.6156336
| 10>     C       16.5166406   16.6833317   16.5960415
| 11>     O       15.5573387   17.1888263   16.0388229
| 12>     C       17.4344764   17.4146116   17.5371340
| 13>     C       17.4070909   18.7645539   17.6762008
| 14>     C       16.5026597   19.7419804   16.9563206
| 15>     N       18.3090939   19.3996656   18.5350438
| 16>     C       19.3305591   18.7754708   19.1997937
| 17>     S       20.4158171   19.6153249   20.1232123
| 18>     N       19.4116259   17.4138317   19.0574172
| 19>     C       18.4211399   16.5714405   18.3627197
| 20>     C       17.7070327   15.6797837   19.3748970
| 21>     C       17.9430345   14.2921497   19.3925860
| 22>     C       17.2814187   13.4660154   20.3165982
| 23>     C       16.3793088   14.0321151   21.2334492
| 24>     C       16.1469427   15.4143512   21.2230658
| 25>     O       15.2777852   15.9640723   22.1080255
| 26>     C       16.8057562   16.2337217   20.3012947
| 27>     H       14.9181980   12.7087570   15.5217456
| 28>     H       16.6849964   12.8575901   15.6602949
| 29>     H       15.7842382   13.9205218   14.5516175
| 30>     H       14.6304353   14.9916065   16.5067741
| 31>     H       15.5292177   13.9440752   17.6281175
| 32>     H       15.4525309   19.5574208   17.2168724
| 33>     H       16.5946743   19.6254864   15.8689709
| 34>     H       16.7250651   20.7885388   17.1952329
| 35>     H       18.2659039   20.3996620   18.6501445
| 36>     H       20.1534697   16.9778456   19.5898047
| 37>     H       18.9727692   15.9280559   17.6627491
| 38>     H       18.6363290   13.8514269   18.6810432
| 39>     H       17.4695638   12.3937026   20.3213211
| 40>     H       15.8669246   13.3986210   21.9501056
| 41>     H       14.9581186   15.2532021   22.6836875
| 42>     H       16.6169380   17.3017854   20.3143075
| 43> *
| 44>
| 45>                          ****END OF INPUT****

CARTESIAN COORDINATES (ANGSTROEM)
---------------------------------
  C     15.752727   13.420286   15.527780
  C     15.575004   14.450682   16.655175
  O     16.712175   15.331487   16.615634
  C     16.516641   16.683332   16.596041
  O     15.557339   17.188826   16.038823
  C     17.434476   17.414612   17.537134
  C     17.407091   18.764554   17.676201
  C     16.502660   19.741980   16.956321
  N     18.309094   19.399666   18.535044
  C     19.330559   18.775471   19.199794
  S     20.415817   19.615325   20.123212
  N     19.411626   17.413832   19.057417
  C     18.421140   16.571441   18.362720
  C     17.707033   15.679784   19.374897
  C     17.943034   14.292150   19.392586
  C     17.281419   13.466015   20.316598
  C     16.379309   14.032115   21.233449
  C     16.146943   15.414351   21.223066
  O     15.277785   15.964072   22.108026
  C     16.805756   16.233722   20.301295
  H     14.918198   12.708757   15.521746
  H     16.684996   12.857590   15.660295
  H     15.784238   13.920522   14.551618
  H     14.630435   14.991606   16.506774
  H     15.529218   13.944075   17.628117
  H     15.452531   19.557421   17.216872
  H     16.594674   19.625486   15.868971
  H     16.725065   20.788539   17.195233
  H     18.265904   20.399662   18.650144
  H     20.153470   16.977846   19.589805
  H     18.972769   15.928056   17.662749
  H     18.636329   13.851427   18.681043
  H     17.469564   12.393703   20.321321
  H     15.866925   13.398621   21.950106
  H     14.958119   15.253202   22.683687
  H     16.616938   17.301785   20.314307

 Total Charge           Charge          ....    0
 Multiplicity           Mult            ....    1
 Number of Electrons    NEL             ....  154
 Basis Dimension        Dim             ....  828

ORBITAL ENERGIES
----------------

  NO   OCC          E(Eh)            E(eV)
   0   2.0000     -91.889361     -2500.4366
   1   2.0000     -20.598250      -560.5069
   2   2.0000     -20.594818      -560.4135
   3   2.0000     -20.543358      -559.0132
   4   2.0000     -15.629562      -425.3020
   5   2.0000     -15.608808      -424.7373
   6   2.0000     -11.394563      -310.0618
   7   2.0000     -11.384486      -309.7876
   8   2.0000     -11.336188      -308.4734
   9   2.0000     -11.315794      -307.9184
  10   2.0000     -11.309892      -307.7578
  11   2.0000     -11.293538      -307.3128
  12   2.0000     -11.261372      -306.4375
  13   2.0000     -11.258868      -306.3694
  14   2.0000     -11.257219      -306.3245
  15   2.0000     -11.252474      -306.1954
  16   2.0000     -11.244888      -305.9890
  17   2.0000     -11.240102      -305.8587
  18   2.0000     -11.239806      -305.8507
  19   2.0000     -11.225820      -305.4701
  20   2.0000      -8.894420      -242.0295
  21   2.0000      -6.575994      -178.9419
  22   2.0000      -6.573990      -178.8874
  23   2.0000      -6.573402      -178.8714
  24   2.0000      -1.449986       -39.4561
  25   2.0000      -1.417898       -38.5830
  26   2.0000      -1.354090       -36.8467
  27   2.0000      -1.340552       -36.4783
  28   2.0000      -1.239128       -33.7184
  29   2.0000      -1.159208       -31.5436
  30   2.0000      -1.120825       -30.4992
  31   2.0000      -1.043894       -28.4058
  32   2.0000      -1.037176       -28.2230
  33   2.0000      -1.016970       -27.6732
  34   2.0000      -0.996085       -27.1049
  35   2.0000      -0.984620       -26.7929
  36   2.0000      -0.923425       -25.1277
  37   2.0000      -0.886030       -24.1101
  38   2.0000      -0.847594       -23.0642
  39   2.0000      -0.839118       -22.8336
  40   2.0000      -0.835668       -22.7397
  41   2.0000      -0.820850       -22.3365
  42   2.0000      -0.762458       -20.7475
  43   2.0000      -0.733835       -19.9687
  44   2.0000      -0.723772       -19.6948
  45   2.0000      -0.697159       -18.9707
  46   2.0000      -0.688578       -18.7372
  47   2.0000      -0.679323       -18.4853
  48   2.0000      -0.672678       -18.3045
  49   2.0000      -0.654551       -17.8112
  50   2.0000      -0.647156       -17.6100
  51   2.0000      -0.642846       -17.4927
  52   2.0000      -0.628511       -17.1027
  53   2.0000      -0.617774       -16.8105
  54   2.0000      -0.608667       -16.5627
  55   2.0000      -0.601097       -16.3567
  56   2.0000      -0.599508       -16.3134
  57   2.0000      -0.579336       -15.7645
  58   2.0000      -0.571561       -15.5530
  59   2.0000      -0.566013       -15.4020
  60   2.0000      -0.563882       -15.3440
  61   2.0000      -0.539841       -14.6898
  62   2.0000      -0.533639       -14.5211
  63   2.0000      -0.526727       -14.3330
  64   2.0000      -0.524835       -14.2815
  65   2.0000      -0.514301       -13.9949
  66   2.0000      -0.502360       -13.6699
  67   2.0000      -0.495958       -13.4957
  68   2.0000      -0.487889       -13.2761
  69   2.0000      -0.464540       -12.6408
  70   2.0000      -0.455282       -12.3888
  71   2.0000      -0.447749       -12.1839
  72   2.0000      -0.354613        -9.6495
  73   2.0000      -0.351108        -9.5541
  74   2.0000      -0.328876        -8.9492
  75   2.0000      -0.323352        -8.7989
  76   2.0000      -0.316706        -8.6180
  77   0.0000       0.073958         2.0125
  78   0.0000       0.104537         2.8446
  79   0.0000       0.124132         3.3778
  80   0.0000       0.131139         3.5685
  81   0.0000       0.135255         3.6805

MULLIKEN ATOMIC CHARGES
-----------------------
   0 C :   -0.262658
   1 C :    0.020398
   2 O :   -0.369673
   3 C :    0.472885
   4 O :   -0.424312
   5 C :   -0.246195
   6 C :    0.158379
   7 C :   -0.270859
   8 N :   -0.122869
   9 C :    0.212218
  10 S :   -0.439554
  11 N :   -0.205861
  12 C :    0.066602
  13 C :    0.063176
  14 C :   -0.201299
  15 C :   -0.129222
  16 C :   -0.280099
  17 C :    0.315060
  18 O :   -0.355705
  19 C :   -0.264301
  20 H :    0.088209
  21 H :    0.089861
  22 H :    0.101423
  23 H :    0.115498
  24 H :    0.114669
  25 H :    0.132391
  26 H :    0.130466
  27 H :    0.095215
  28 H :    0.197693
  29 H :    0.195048
  30 H :    0.149773
  31 H :    0.152488
  32 H :    0.162630
  33 H :    0.131543
  34 H :    0.240953
  35 H :    0.166026
Sum of atomic charges:   -0.0000000

LOEWDIN ATOMIC CHARGES
----------------------
   0 C :    0.105427
   1 C :   -0.014077
   2 O :    0.305389
   3 C :   -0.415758
   4 O :    0.101190
   5 C :   -0.096454
   6 C :   -0.058912
   7 C :    0.131634
   8 N :    0.406688
   9 C :   -0.456179
  10 S :   -0.035063
  11 N :    0.396279
  12 C :   -0.052352
  13 C :   -0.037933
  14 C :    0.014002
  15 C :    0.038426
  16 C :   -0.002682
  17 C :   -0.189315
  18 O :    0.395781
  19 C :    0.031366
  20 H :   -0.027043
  21 H :   -0.030030
  22 H :   -0.024406
  23 H :   -0.028400
  24 H :   -0.030200
  25 H :   -0.004553
  26 H :   -0.003927
  27 H :   -0.023292
  28 H :   -0.057476
  29 H :   -0.064662
  30 H :   -0.010260
  31 H :   -0.029883
  32 H :   -0.021017
  33 H :   -0.035307
  34 H :   -0.153543
  35 H :   -0.023457

  Mayer bond orders larger than 0.100000
B(  0-C ,  1-C ) :   0.9793 B(  0-C , 20-H ) :   0.9762 B(  0-C , 21-H ) :   0.9794
B(  0-C , 22-H ) :   0.9788 B(  1-C ,  2-O ) :   0.8719 B(  1-C , 23-H ) :   0.9733
B(  1-C , 24-H ) :   0.9708 B(  2-O ,  3-C ) :   1.1419 B(  3-C ,  4-O ) :   1.9908
B(  3-C ,  5-C ) :   1.0635 B(  5-C ,  6-C ) :   1.6517 B(  5-C , 12-C ) :   0.9709
B(  6-C ,  7-C ) :   0.9664 B(  6-C ,  8-N ) :   1.1618 B(  7-C , 25-H ) :   0.9594
B(  7-C , 26-H ) :   0.9611 B(  7-C , 27-H ) :   0.9905 B(  8-N ,  9-C ) :   1.1832
B(  8-N , 28-H ) :   0.9477 B(  9-C , 10-S ) :   1.6072 B(  9-C , 11-N ) :   1.3057
B( 11-N , 12-C ) :   0.9839 B( 11-N , 29-H ) :   0.9517 B( 12-C , 13-C ) :   0.9358
B( 12-C , 30-H ) :   1.0020 B( 13-C , 14-C ) :   1.3509 B( 13-C , 19-C ) :   1.3830
B( 14-C , 15-C ) :   1.3896 B( 14-C , 31-H ) :   0.9729 B( 15-C , 16-C ) :   1.3606
B( 15-C , 32-H ) :   0.9705 B( 16-C , 17-C ) :   1.3309 B( 16-C , 33-H ) :   0.9847
B( 17-C , 18-O ) :   1.1118 B( 17-C , 19-C ) :   1.3712 B( 18-O , 34-H ) :   0.9796
B( 19-C , 35-H ) :   0.9578

MP2 TOTAL ENERGY:    -1274.343672358 Eh
FINAL SINGLE POINT ENERGY     -1274.343672358117

DIPOLE MOMENT
-------------
                                X             Y             Z
Electronic contribution:      9.44310      10.76133       8.50037
Nuclear contribution   :    -10.54697     -12.34305      -8.70267
                        -----------------------------------------
Total Dipole Moment    :     -1.10387      -1.58172      -0.20230
                        -----------------------------------------
Magnitude (a.u.)       :      1.93941
Magnitude (Debye)      :      4.92959

Rotational constants in cm-1:     0.011937     0.008494     0.006172
Rotational constants in MHz :   357.852105   254.658368   185.022285

                             ****ORCA TERMINATED NORMALLY****
TOTAL RUN TIME: 0 days 1 hours 46 minutes 24 seconds 907 msec
