                         Program Version 4.2.0 -  RELEASE  -
|  1> ! ri-mp2 cc-pvtz cc-pvtz/c TightSCF  NoKeepInts
|  2>
|  3> %scf
|  4>   MaxCore 4096
|  5> end
|  6> *xyz  0  1
|  7>     C       15.0933940   15.5267877   17.2494874
|  8>     C       15.6921492   14.9866659   15.9356462
|  9>     O       16.9443906   15.5873816   15.5208598
| 10>     C       18.0178617   15.7784651   16.3502773
| 11>     O       18.8146545   14.8699391   16.4999511
| 12>     C       17.8858750   16.8693215   17.3729158
| 13>     C       17.2881684   18.0564506   17.0994614
| 14>     C       16.6778404   18.4931335   15.7816437
| 15>     N       17.3206249   19.0852185   18.0452891
| 16>     C       18.1118809   19.0868518   19.1639096
| 17>     S       18.2196176   20.4078552   20.1527122
| 18>     N       18.8145259   17.9353659   19.4178824
| 19>     C       18.6236112   16.6574451   18.7034333
| 20>     C       17.9258013   15.6336981   19.5977239
| 21>     C       18.3494425   14.2916231   19.5973498
| 22>     C       17.7138686   13.3366597   20.4080847
| 23>     C       16.6438467   13.7248321   21.2314472
| 24>     C       16.2178991   15.0595526   21.2379828
| 25>     O       15.1790214   15.4361256   22.0251165
| 26>     C       16.8521302   16.0082081   20.4294930
| 27>     H       15.7197195   15.2521407   18.1017393
| 28>     H       14.1091726   15.0738976   17.4202951
| 29>     H       14.9539920   16.6114375   17.2324384
| 30>     H       15.8483182   13.9058522   16.0531802
| 31>     H       14.9582170   15.1188993   15.1303317
| 32>     H       15.6716673   18.0820636   15.6457428
| 33>     H       17.2911668   18.1573551   14.9358753
| 34>     H       16.6034082   19.5845808   15.7001656
| 35>     H       16.8229792   19.9433264   17.8680944
| 36>     H       19.3777595   17.9561409   20.2585540
| 37>     H       19.6234031   16.2636233   18.4684878
| 38>     H       19.1711677   13.9840933   18.9541830
| 39>     H       18.0506834   12.3015206   20.3925746
| 40>     H       16.1491585   12.9899594   21.8578640
| 41>     H       14.9108322   14.6619663   22.5425882
| 42>     H       16.4987509   17.0335625   20.4512183
| 43> *
| 44>
| 45>                          ****END OF INPUT****

CARTESIAN COORDINATES (ANGSTROEM)
---------------------------------
  C     15.093394   15.526788   17.249487
  C     15.692149   14.986666   15.935646
  O     16.944391   15.587382   15.520860
  C     18.017862   15.778465   16.350277
  O     18.814654   14.869939   16.499951
  C     17.885875   16.869322   17.372916
  C     17.288168   18.056451   17.099461
  C     16.677840   18.493133   15.781644
  N     17.320625   19.085218   18.045289
  C     18.111881   19.086852   19.163910
  S     18.219618   20.407855   20.152712
  N     18.814526   17.935366   19.417882
  C     18.623611   16.657445   18.703433
  C     17.925801   15.633698   19.597724
  C     18.349442   14.291623   19.597350
  C     17.713869   13.336660   20.408085
  C     16.643847   13.724832   21.231447
  C     16.217899   15.059553   21.237983
  O     15.179021   15.436126   22.025116
  C     16.852130   16.008208   20.429493
  H     15.719720   15.252141   18.101739
  H     14.109173   15.073898   17.420295
  H     14.953992   16.611438   17.232438
  H     15.848318   13.905852   16.053180
  H     14.958217   15.118899   15.130332
  H     15.671667   18.082064   15.645743
  H     17.291167   18.157355   14.935875
  H     16.603408   19.584581   15.700166
  H     16.822979   19.943326   17.868094
  H     19.377759   17.956141   20.258554
  H     19.623403   16.263623   18.468488
  H     19.171168   13.984093   18.954183
  H     18.050683   12.301521   20.392575
  H     16.149158   12.989959   21.857864
  H     14.910832   14.661966   22.542588
  H     16.498751   17.033562   20.451218

 Total Charge           Charge          ....    0
 Multiplicity           Mult            ....    1
 Number of Electrons    NEL             ....  154
 Basis Dimension        Dim             ....  828

ORBITAL ENERGIES
----------------

  NO   OCC          E(Eh)            E(eV)
   0   2.0000     -91.891291     -2500.4891
   1   2.0000     -20.596195      -560.4510
   2   2.0000     -20.581352      -560.0471
   3   2.0000     -20.553273      -559.2830
   4   2.0000     -15.631182      -425.3461
   5   2.0000     -15.609878      -424.7664
   6   2.0000     -11.395725      -310.0934
   7   2.0000     -11.386447      -309.8410
   8   2.0000     -11.336609      -308.4848
   9   2.0000     -11.312805      -307.8371
  10   2.0000     -11.310735      -307.7808
  11   2.0000     -11.307559      -307.6943
  12   2.0000     -11.263654      -306.4996
  13   2.0000     -11.262491      -306.4680
  14   2.0000     -11.259570      -306.3885
  15   2.0000     -11.253150      -306.2138
  16   2.0000     -11.242544      -305.9252
  17   2.0000     -11.238135      -305.8052
  18   2.0000     -11.234602      -305.7091
  19   2.0000     -11.230847      -305.6069
  20   2.0000      -8.896346      -242.0819
  21   2.0000      -6.577921      -178.9943
  22   2.0000      -6.575913      -178.9397
  23   2.0000      -6.575323      -178.9236
  24   2.0000      -1.444708       -39.3125
  25   2.0000      -1.416033       -38.5322
  26   2.0000      -1.352687       -36.8085
  27   2.0000      -1.342323       -36.5265
  28   2.0000      -1.240030       -33.7429
  29   2.0000      -1.156791       -31.4779
  30   2.0000      -1.122690       -30.5499
  31   2.0000      -1.045164       -28.4404
  32   2.0000      -1.035855       -28.1870
  33   2.0000      -1.015030       -27.6204
  34   2.0000      -1.002286       -27.2736
  35   2.0000      -0.989173       -26.9168
  36   2.0000      -0.925918       -25.1955
  37   2.0000      -0.895792       -24.3757
  38   2.0000      -0.851566       -23.1723
  39   2.0000      -0.840446       -22.8697
  40   2.0000      -0.832866       -22.6634
  41   2.0000      -0.821853       -22.3638
  42   2.0000      -0.748215       -20.3600
  43   2.0000      -0.732850       -19.9419
  44   2.0000      -0.728460       -19.8224
  45   2.0000      -0.694393       -18.8954
  46   2.0000      -0.687666       -18.7123
  47   2.0000      -0.674703       -18.3596
  48   2.0000      -0.673278       -18.3208
  49   2.0000      -0.662326       -18.0228
  50   2.0000      -0.652837       -17.7646
  51   2.0000      -0.648692       -17.6518
  52   2.0000      -0.641741       -17.4627
  53   2.0000      -0.615234       -16.7414
  54   2.0000      -0.603540       -16.4232
  55   2.0000      -0.602154       -16.3855
  56   2.0000      -0.600373       -16.3370
  57   2.0000      -0.585986       -15.9455
  58   2.0000      -0.575201       -15.6520
  59   2.0000      -0.565367       -15.3844
  60   2.0000      -0.563065       -15.3218
  61   2.0000      -0.552628       -15.0378
  62   2.0000      -0.546166       -14.8619
  63   2.0000      -0.528445       -14.3797
  64   2.0000      -0.520890       -14.1741
  65   2.0000      -0.513485       -13.9727
  66   2.0000      -0.500322       -13.6145
  67   2.0000      -0.487625       -13.2689
  68   2.0000      -0.483191       -13.1483
  69   2.0000      -0.466897       -12.7049
  70   2.0000      -0.456286       -12.4162
  71   2.0000      -0.449073       -12.2199
  72   2.0000      -0.357178        -9.7193
  73   2.0000      -0.347285        -9.4501
  74   2.0000      -0.330473        -8.9926
  75   2.0000      -0.321468        -8.7476
  76   2.0000      -0.318495        -8.6667
  77   0.0000       0.069943         1.9032
  78   0.0000       0.106594         2.9006
  79   0.0000       0.118283         3.2187
  80   0.0000       0.130522         3.5517
  81   0.0000       0.132387         3.6024

MULLIKEN ATOMIC CHARGES
-----------------------
   0 C :   -0.345998
   1 C :    0.043870
   2 O :   -0.382588
   3 C :    0.462115
   4 O :   -0.387350
   5 C :   -0.219804
   6 C :    0.147865
   7 C :   -0.286866
   8 N :   -0.129622
   9 C :    0.188771
  10 S :   -0.434438
  11 N :   -0.210847
  12 C :    0.070582
  13 C :    0.020708
  14 C :   -0.191913
  15 C :   -0.140041
  16 C :   -0.274812
  17 C :    0.313164
  18 O :   -0.357884
  19 C :   -0.261397
  20 H :    0.131228
  21 H :    0.124244
  22 H :    0.099700
  23 H :    0.109341
  24 H :    0.112425
  25 H :    0.117536
  26 H :    0.134960
  27 H :    0.110711
  28 H :    0.197783
  29 H :    0.197166
  30 H :    0.161857
  31 H :    0.171620
  32 H :    0.162721
  33 H :    0.131579
  34 H :    0.240656
  35 H :    0.172958
Sum of atomic charges:   -0.0000000

LOEWDIN ATOMIC CHARGES
----------------------
   0 C :    0.105611
   1 C :   -0.014830
   2 O :    0.274245
   3 C :   -0.416655
   4 O :    0.129320
   5 C :   -0.091251
   6 C :   -0.073557
   7 C :    0.127550
   8 N :    0.405653
   9 C :   -0.459784
  10 S :   -0.033601
  11 N :    0.397255
  12 C :   -0.043722
  13 C :   -0.042816
  14 C :    0.019117
  15 C :    0.041855
  16 C :   -0.002037
  17 C :   -0.194156
  18 O :    0.395032
  19 C :    0.027859
  20 H :   -0.026930
  21 H :   -0.020751
  22 H :   -0.034845
  23 H :   -0.025081
  24 H :   -0.022717
  25 H :   -0.015699
  26 H :   -0.005613
  27 H :   -0.017720
  28 H :   -0.058605
  29 H :   -0.063698
  30 H :   -0.002523
  31 H :   -0.023146
  32 H :   -0.019488
  33 H :   -0.035363
  34 H :   -0.153989
  35 H :   -0.024919

  Mayer bond orders larger than 0.100000
B(  0-C ,  1-C ) :   0.9624 B(  0-C , 20-H ) :   0.9627 B(  0-C , 21-H ) :   0.9783
B(  0-C , 22-H ) :   0.9730 B(  1-C ,  2-O ) :   0.8957 B(  1-C , 23-H ) :   0.9833
B(  1-C , 24-H ) :   0.9819 B(  2-O ,  3-C ) :   1.0959 B(  3-C ,  4-O ) :   2.0438
B(  3-C ,  5-C ) :   1.0040 B(  5-C ,  6-C ) :   1.6667 B(  5-C , 12-C ) :   0.9508
B(  6-C ,  7-C ) :   0.9502 B(  6-C ,  8-N ) :   1.1223 B(  7-C , 25-H ) :   0.9651
B(  7-C , 26-H ) :   0.9670 B(  7-C , 27-H ) :   0.9881 B(  8-N ,  9-C ) :   1.1822
B(  8-N , 28-H ) :   0.9492 B(  9-C , 10-S ) :   1.6159 B(  9-C , 11-N ) :   1.2952
B( 11-N , 12-C ) :   0.9803 B( 11-N , 29-H ) :   0.9509 B( 12-C , 13-C ) :   0.9514
B( 12-C , 30-H ) :   0.9966 B( 13-C , 14-C ) :   1.3915 B( 13-C , 19-C ) :   1.3480
B( 14-C , 15-C ) :   1.3982 B( 14-C , 31-H ) :   0.9579 B( 15-C , 16-C ) :   1.3617
B( 15-C , 32-H ) :   0.9706 B( 16-C , 17-C ) :   1.3305 B( 16-C , 33-H ) :   0.9847
B( 17-C , 18-O ) :   1.1114 B( 17-C , 19-C ) :   1.3726 B( 18-O , 34-H ) :   0.9799
B( 19-C , 35-H ) :   0.9591

MP2 TOTAL ENERGY:    -1274.321238594 Eh
FINAL SINGLE POINT ENERGY     -1274.321238594451

DIPOLE MOMENT
-------------
                                X             Y             Z
Electronic contribution:      9.55061       7.03000       6.46123
Nuclear contribution   :    -10.96459      -8.16462      -7.06502
                        -----------------------------------------
Total Dipole Moment    :     -1.41398      -1.13462      -0.60379
                        -----------------------------------------
Magnitude (a.u.)       :      1.91083
Magnitude (Debye)      :      4.85694

Rotational constants in cm-1:     0.011225     0.009975     0.006746
Rotational constants in MHz :   336.518137   299.051900   202.240111

                             ****ORCA TERMINATED NORMALLY****
TOTAL RUN TIME: 0 days 1 hours 48 minutes 53 seconds 6 msec
