                         Program Version 5.0.0 -  RELEASE  -
|  1> ! ri-mp2 cc-pvtz cc-pvtz/c TightSCF NoKeepInts
|  2>
|  3> %scf
|  4>   MaxCore 4096
|  5> end
|  6> *xyz  0  1
|  7>     C       15.0250690   15.4513724   16.9529709
|  8>     C       16.1440956   14.3864247   16.9087037
|  9>     O       17.3059308   14.8254884   16.1646834
| 10>     C       17.7609770   16.1130758   16.0420688
| 11>     O       17.9974488   16.5564586   14.9336239
| 12>     C       17.7758201   16.9841688   17.2648707
| 13>     C       17.3479569   18.2684969   17.2019858
| 14>     C       16.6259851   18.9239911   16.0452361
| 15>     N       17.6071974   19.1461143   18.2577013
| 16>     C       18.4997748   18.8919246   19.2657597
| 17>     S       18.9158353   20.0424079   20.3784449
| 18>     N       19.0442495   17.6316648   19.2951301
| 19>     C       18.5655839   16.4909640   18.4905385
| 20>     C       17.8113589   15.5386800   19.4081349
| 21>     C       18.3227733   14.2527120   19.6685336
| 22>     C       17.6389218   13.3720220   20.5235786
| 23>     C       16.4399121   13.7827225   21.1308455
| 24>     C       15.9382444   15.0687336   20.8890840
| 25>     O       14.7823249   15.4698175   21.4745554
| 26>     C       16.6208833   15.9434130   20.0384520
| 27>     H       15.2651358   16.2820085   17.6230641
| 28>     H       14.0962796   14.9989812   17.3214952
| 29>     H       14.8274425   15.8496112   15.9497314
| 30>     H       16.4090108   14.0859184   17.9245566
| 31>     H       15.7501734   13.4874043   16.4173377
| 32>     H       15.9153888   18.2309940   15.5784749
| 33>     H       17.3433851   19.2226443   15.2695765
| 34>     H       16.0635105   19.8143084   16.3500258
| 35>     H       17.2423173   20.0850204   18.2274294
| 36>     H       19.6880107   17.4701882   20.0592174
| 37>     H       19.4508655   15.9619099   18.1098272
| 38>     H       19.2499638   13.9306189   19.2010631
| 39>     H       18.0393685   12.3775657   20.7150125
| 40>     H       15.9086050   13.1054481   21.7918357
| 41>     H       14.5036026   14.7689485   22.0834852
| 42>     H       16.2235969   16.9397771   19.8769656
| 43> *
| 44>
| 45>                          ****END OF INPUT****

CARTESIAN COORDINATES (ANGSTROEM)
---------------------------------
  C     15.025069   15.451372   16.952971
  C     16.144096   14.386425   16.908704
  O     17.305931   14.825488   16.164683
  C     17.760977   16.113076   16.042069
  O     17.997449   16.556459   14.933624
  C     17.775820   16.984169   17.264871
  C     17.347957   18.268497   17.201986
  C     16.625985   18.923991   16.045236
  N     17.607197   19.146114   18.257701
  C     18.499775   18.891925   19.265760
  S     18.915835   20.042408   20.378445
  N     19.044249   17.631665   19.295130
  C     18.565584   16.490964   18.490538
  C     17.811359   15.538680   19.408135
  C     18.322773   14.252712   19.668534
  C     17.638922   13.372022   20.523579
  C     16.439912   13.782723   21.130845
  C     15.938244   15.068734   20.889084
  O     14.782325   15.469817   21.474555
  C     16.620883   15.943413   20.038452
  H     15.265136   16.282008   17.623064
  H     14.096280   14.998981   17.321495
  H     14.827443   15.849611   15.949731
  H     16.409011   14.085918   17.924557
  H     15.750173   13.487404   16.417338
  H     15.915389   18.230994   15.578475
  H     17.343385   19.222644   15.269576
  H     16.063510   19.814308   16.350026
  H     17.242317   20.085020   18.227429
  H     19.688011   17.470188   20.059217
  H     19.450865   15.961910   18.109827
  H     19.249964   13.930619   19.201063
  H     18.039368   12.377566   20.715013
  H     15.908605   13.105448   21.791836
  H     14.503603   14.768948   22.083485
  H     16.223597   16.939777   19.876966

 Total Charge           Charge          ....    0
 Multiplicity           Mult            ....    1
 Number of Electrons    NEL             ....  154
 Basis Dimension        Dim             ....  828

ORBITAL ENERGIES
----------------

  NO   OCC          E(Eh)            E(eV)
   0   2.0000     -91.890862     -2500.4775
   1   2.0000     -20.605624      -560.7075
   2   2.0000     -20.587730      -560.2206
   3   2.0000     -20.548519      -559.1536
   4   2.0000     -15.628772      -425.2805
   5   2.0000     -15.611388      -424.8075
   6   2.0000     -11.394594      -310.0627
   7   2.0000     -11.385956      -309.8276
   8   2.0000     -11.330980      -308.3316
   9   2.0000     -11.323971      -308.1409
  10   2.0000     -11.318443      -307.9905
  11   2.0000     -11.299563      -307.4767
  12   2.0000     -11.268636      -306.6352
  13   2.0000     -11.265008      -306.5365
  14   2.0000     -11.258988      -306.3726
  15   2.0000     -11.255057      -306.2657
  16   2.0000     -11.253449      -306.2219
  17   2.0000     -11.247925      -306.0716
  18   2.0000     -11.247598      -306.0627
  19   2.0000     -11.231572      -305.6266
  20   2.0000      -8.895901      -242.0698
  21   2.0000      -6.577470      -178.9821
  22   2.0000      -6.575470      -178.9276
  23   2.0000      -6.574879      -178.9116
  24   2.0000      -1.441146       -39.2156
  25   2.0000      -1.425322       -38.7850
  26   2.0000      -1.352558       -36.8050
  27   2.0000      -1.341573       -36.5060
  28   2.0000      -1.241409       -33.7805
  29   2.0000      -1.166583       -31.7443
  30   2.0000      -1.123236       -30.5648
  31   2.0000      -1.050462       -28.5845
  32   2.0000      -1.033383       -28.1198
  33   2.0000      -1.025001       -27.8917
  34   2.0000      -1.002794       -27.2874
  35   2.0000      -0.988505       -26.8986
  36   2.0000      -0.928463       -25.2647
  37   2.0000      -0.897853       -24.4318
  38   2.0000      -0.850946       -23.1554
  39   2.0000      -0.847361       -23.0579
  40   2.0000      -0.843092       -22.9417
  41   2.0000      -0.827549       -22.5188
  42   2.0000      -0.749347       -20.3908
  43   2.0000      -0.739190       -20.1144
  44   2.0000      -0.717808       -19.5326
  45   2.0000      -0.704748       -19.1772
  46   2.0000      -0.693217       -18.8634
  47   2.0000      -0.678893       -18.4736
  48   2.0000      -0.673891       -18.3375
  49   2.0000      -0.661909       -18.0114
  50   2.0000      -0.654783       -17.8176
  51   2.0000      -0.650218       -17.6933
  52   2.0000      -0.638818       -17.3831
  53   2.0000      -0.624341       -16.9892
  54   2.0000      -0.615454       -16.7473
  55   2.0000      -0.607889       -16.5415
  56   2.0000      -0.603307       -16.4168
  57   2.0000      -0.584885       -15.9155
  58   2.0000      -0.577050       -15.7023
  59   2.0000      -0.567099       -15.4316
  60   2.0000      -0.554922       -15.1002
  61   2.0000      -0.547250       -14.8914
  62   2.0000      -0.540473       -14.7070
  63   2.0000      -0.535718       -14.5776
  64   2.0000      -0.532101       -14.4792
  65   2.0000      -0.518059       -14.0971
  66   2.0000      -0.507841       -13.8191
  67   2.0000      -0.497960       -13.5502
  68   2.0000      -0.482572       -13.1315
  69   2.0000      -0.469644       -12.7797
  70   2.0000      -0.448445       -12.2028
  71   2.0000      -0.446443       -12.1483
  72   2.0000      -0.358658        -9.7596
  73   2.0000      -0.356070        -9.6892
  74   2.0000      -0.333889        -9.0856
  75   2.0000      -0.329030        -8.9534
  76   2.0000      -0.318012        -8.6535
  77   0.0000       0.074829         2.0362
  78   0.0000       0.100626         2.7382
  79   0.0000       0.119385         3.2486
  80   0.0000       0.125858         3.4248
  81   0.0000       0.130840         3.5603

MULLIKEN ATOMIC CHARGES
-----------------------
   0 C :   -0.346237
   1 C :    0.037417
   2 O :   -0.341167
   3 C :    0.417102
   4 O :   -0.370227
   5 C :   -0.255860
   6 C :    0.160822
   7 C :   -0.282183
   8 N :   -0.127653
   9 C :    0.203748
  10 S :   -0.435960
  11 N :   -0.191428
  12 C :    0.046947
  13 C :    0.044120
  14 C :   -0.177762
  15 C :   -0.131690
  16 C :   -0.273550
  17 C :    0.319190
  18 O :   -0.356157
  19 C :   -0.291204
  20 H :    0.109105
  21 H :    0.119664
  22 H :    0.116329
  23 H :    0.104131
  24 H :    0.125539
  25 H :    0.120570
  26 H :    0.147698
  27 H :    0.095520
  28 H :    0.197844
  29 H :    0.191117
  30 H :    0.151704
  31 H :    0.150598
  32 H :    0.164189
  33 H :    0.135155
  34 H :    0.242559
  35 H :    0.180012
Sum of atomic charges:    0.0000000

LOEWDIN ATOMIC CHARGES
----------------------
   0 C :    0.103552
   1 C :   -0.012075
   2 O :    0.288312
   3 C :   -0.422608
   4 O :    0.129584
   5 C :   -0.091333
   6 C :   -0.076639
   7 C :    0.129577
   8 N :    0.405316
   9 C :   -0.456677
  10 S :   -0.033099
  11 N :    0.396899
  12 C :   -0.052607
  13 C :   -0.043388
  14 C :    0.012657
  15 C :    0.043006
  16 C :    0.000969
  17 C :   -0.190421
  18 O :    0.397627
  19 C :    0.035352
  20 H :   -0.038167
  21 H :   -0.021451
  22 H :   -0.027658
  23 H :   -0.036926
  24 H :   -0.021805
  25 H :   -0.009812
  26 H :   -0.002305
  27 H :   -0.021677
  28 H :   -0.057681
  29 H :   -0.065073
  30 H :   -0.005633
  31 H :   -0.028544
  32 H :   -0.018713
  33 H :   -0.033188
  34 H :   -0.151807
  35 H :   -0.023564

  Mayer bond orders larger than 0.100000
B(  0-C ,  1-C ) :   0.9589 B(  0-C , 20-H ) :   0.9677 B(  0-C , 21-H ) :   0.9764
B(  0-C , 22-H ) :   0.9755 B(  1-C ,  2-O ) :   0.9039 B(  1-C , 23-H ) :   0.9662
B(  1-C , 24-H ) :   0.9833 B(  2-O ,  3-C ) :   1.1755 B(  3-C ,  4-O ) :   2.1013
B(  3-C ,  5-C ) :   0.9478 B(  5-C ,  6-C ) :   1.6954 B(  5-C , 12-C ) :   0.9712
B(  6-C ,  7-C ) :   0.9562 B(  6-C ,  8-N ) :   1.1331 B(  7-C , 25-H ) :   0.9723
B(  7-C , 26-H ) :   0.9573 B(  7-C , 27-H ) :   0.9839 B(  8-N ,  9-C ) :   1.1873
B(  8-N , 28-H ) :   0.9502 B(  9-C , 10-S ) :   1.6172 B(  9-C , 11-N ) :   1.2891
B( 11-N , 12-C ) :   0.9852 B( 11-N , 29-H ) :   0.9539 B( 12-C , 13-C ) :   0.9410
B( 12-C , 30-H ) :   1.0071 B( 13-C , 14-C ) :   1.3519 B( 13-C , 19-C ) :   1.3596
B( 14-C , 15-C ) :   1.3930 B( 14-C , 31-H ) :   0.9735 B( 15-C , 16-C ) :   1.3685
B( 15-C , 32-H ) :   0.9699 B( 16-C , 17-C ) :   1.3254 B( 16-C , 33-H ) :   0.9830
B( 17-C , 18-O ) :   1.1150 B( 17-C , 19-C ) :   1.3728 B( 18-O , 34-H ) :   0.9786
B( 19-C , 35-H ) :   0.9523

MP2 TOTAL ENERGY:    -1274.326101884 Eh
FINAL SINGLE POINT ENERGY     -1274.326101883549

DIPOLE MOMENT
-------------
                                X             Y             Z
Electronic contribution:      9.88507       6.71782       5.34009
Nuclear contribution   :    -11.26535      -8.40087      -4.79791
                        -----------------------------------------
Total Dipole Moment    :     -1.38027      -1.68305       0.54218
                        -----------------------------------------
Magnitude (a.u.)       :      2.24316
Magnitude (Debye)      :      5.70166

Rotational constants in cm-1:     0.011774     0.009825     0.006756
Rotational constants in MHz :   352.978537   294.542805   202.532125

                             ****ORCA TERMINATED NORMALLY****
TOTAL RUN TIME: 0 days 2 hours 11 minutes 4 seconds 676 msec
